<LesHouchesEvents version="3.0">
<header>
<!--
#*********************************************************************
#                                                                    *
#                        MadGraph5_aMC@NLO                           *
#                                                                    *
#                           Going Beyond                             *
#                                                                    *
#                   http://madgraph.hep.uiuc.edu                     *
#                   http://madgraph.phys.ucl.ac.be                   *
#                   http://amcatnlo.cern.ch                          *
#                                                                    *
#                     The MadGraph5_aMC@NLO team                     *
#                                                                    *
#....................................................................*
#                                                                    *
# This file contains all the information necessary to reproduce      *
# the events generated:                                              *
#                                                                    *
# 1. software version                                                *
# 2. proc_card          : code generation info including model       *
# 3. param_card         : model primary parameters in the LH format  *
# 4. run_card           : running parameters (collider and cuts)     *
# 5. pythia_card        : present only if pythia has been run        *
# 6. pgs_card           : present only if pgs has been run           *
# 7. delphes_cards      : present only if delphes has been run       *
#                                                                    *
#                                                                    *
#*********************************************************************
-->
<MGVersion>
#5.2.2.3
</MGVersion>
<MG5ProcCard>
#************************************************************
#*                     MadGraph5_aMC@NLO                    *
#*                                                          *
#*                *                       *                 *
#*                  *        * *        *                   *
#*                    * * * * 5 * * * *                     *
#*                  *        * *        *                   *
#*                *                       *                 *
#*                                                          *
#*                                                          *
#*         VERSION 2.2.3                 2015-02-10         *
#*                                                          *
#*    The MadGraph5_aMC@NLO Development Team - Find us at   *
#*    https://server06.fynu.ucl.ac.be/projects/madgraph     *
#*                                                          *
#************************************************************
#*                                                          *
#*               Command File for MadGraph5_aMC@NLO         *
#*                                                          *
#*     run as ./bin/mg5_aMC  filename                       *
#*                                                          *
#************************************************************
set group_subprocesses Auto
set ignore_six_quark_processes False
set loop_optimized_output True
set gauge unitary
set complex_mass_scheme False
import model sm
define p = g u c d s u~ c~ d~ s~
define j = g u c d s u~ c~ d~ s~
define l+ = e+ mu+
define l- = e- mu-
define vl = ve vm vt
define vl~ = ve~ vm~ vt~
import model Zprime_UFO
generate p p > zph, zph > j j
add process p p > zph, zph > b b~
output Dijet_signal
</MG5ProcCard>
<MGProcCard>
#*********************************************************************
#                        MadGraph/MadEvent                           *
#                   http://madgraph.hep.uiuc.edu                     *
#                                                                    *
#                          proc_card.dat                             *
#*********************************************************************
#                                                                    *
#            This Files is generated by MADGRAPH 5                   *
#                                                                    *
# WARNING: This Files is generated for MADEVENT (compatibility issue)*
#          This files is NOT a valid MG4 proc_card.dat               *
#          Running this in MG4 will NEVER reproduce the result of MG5*
#                                                                    *
#*********************************************************************
#*********************************************************************
# Process(es) requested : mg2 input                                  *
#*********************************************************************
# Begin PROCESS # This is TAG. Do not modify this line
p p > zph , zph > j j           #Process
# Be carefull the coupling are here in MG5 convention
          
end_coup           # End the couplings input

done               # this tells MG there are no more procs
# End PROCESS  # This is TAG. Do not modify this line
#*********************************************************************
# Model information                                                  *
#*********************************************************************
# Begin MODEL  # This is TAG. Do not modify this line
Zprime_UFO
# End   MODEL  # This is TAG. Do not modify this line
#*********************************************************************
# Start multiparticle definitions                                    *
#*********************************************************************
# Begin MULTIPARTICLES # This is TAG. Do not modify this line

# End  MULTIPARTICLES # This is TAG. Do not modify this line
</MGProcCard>
<MGRunCard>
#*********************************************************************
#                       MadGraph5_aMC@NLO                            *
#                                                                    *
#                     run_card.dat MadEvent                          *
#                                                                    *
#  This file is used to set the parameters of the run.               *
#                                                                    *
#  Some notation/conventions:                                        *
#                                                                    *
#   Lines starting with a '# ' are info or comments                  *
#                                                                    *
#   mind the format:   value    = variable     ! comment             *
#*********************************************************************
#
#*******************                                                 
# Running parameters
#*******************                                                 
#                                                                    
#*********************************************************************
# Tag name for the run (one word)                                    *
#*********************************************************************
  tag_1     = run_tag ! name of the run 
#*********************************************************************
# Run to generate the grid pack                                      *
#*********************************************************************
  .false.     = gridpack  !True = setting up the grid pack
#*********************************************************************
# Number of events and rnd seed                                      *
# Warning: Do not generate more than 1M events in a single run       *
# If you want to run Pythia, avoid more than 50k events in a run.    *
#*********************************************************************
  2000 = nevents ! Number of unweighted events requested 
 1560 = iseed   ! rnd seed (0=assigned automatically=default))
#*********************************************************************
# Collider type and energy                                           *
# lpp: 0=No PDF, 1=proton, -1=antiproton, 2=photon from proton,      *
#                                         3=photon from electron     *
#*********************************************************************
        1     = lpp1    ! beam 1 type 
        1     = lpp2    ! beam 2 type
     4000     = ebeam1  ! beam 1 total energy in GeV
     4000     = ebeam2  ! beam 2 total energy in GeV
#*********************************************************************
# Beam polarization from -100 (left-handed) to 100 (right-handed)    *
#*********************************************************************
        0     = polbeam1 ! beam polarization for beam 1
        0     = polbeam2 ! beam polarization for beam 2
#*********************************************************************
# PDF CHOICE: this automatically fixes also alpha_s and its evol.    *
#*********************************************************************
 'nn23lo1'    = pdlabel     ! PDF set                                     
 230000    = lhaid     ! if pdlabel=lhapdf, this is the lhapdf number
#*********************************************************************
# Renormalization and factorization scales                           *
#*********************************************************************
 F        = fixed_ren_scale  ! if .true. use fixed ren scale
 F        = fixed_fac_scale  ! if .true. use fixed fac scale
 91.1880  = scale            ! fixed ren scale
 91.1880  = dsqrt_q2fact1    ! fixed fact scale for pdf1
 91.1880  = dsqrt_q2fact2    ! fixed fact scale for pdf2
 1        = scalefact        ! scale factor for event-by-event scales
#*********************************************************************
# Matching - Warning! ickkw > 1 is still beta
#*********************************************************************
 0        = ickkw            ! 0 no matching, 1 MLM, 2 CKKW matching
 1        = highestmult      ! for ickkw=2, highest mult group
 1        = ktscheme         ! for ickkw=1, 1 Durham kT, 2 Pythia pTE
 1        = alpsfact         ! scale factor for QCD emission vx
 F        = chcluster        ! cluster only according to channel diag
 T        = pdfwgt           ! for ickkw=1, perform pdf reweighting
 5        = asrwgtflavor     ! highest quark flavor for a_s reweight
 T        = clusinfo         ! include clustering tag in output
 3.0      = lhe_version       ! Change the way clustering information pass to shower.        
#*********************************************************************
#**********************************************************
#
#**********************************************************
# Automatic ptj and mjj cuts if xqcut > 0
# (turn off for VBF and single top processes)
#**********************************************************
   T  = auto_ptj_mjj  ! Automatic setting of ptj and mjj
#**********************************************************
#                                                                    
#**********************************
# BW cutoff (M+/-bwcutoff*Gamma)
#**********************************
  15  = bwcutoff      ! (M+/-bwcutoff*Gamma)
#**********************************************************
# Apply pt/E/eta/dr/mij cuts on decay products or not
# (note that etmiss/ptll/ptheavy/ht/sorted cuts always apply)
#**********************************************************
   T  = cut_decays    ! Cut decay products 
#*************************************************************
# Number of helicities to sum per event (0 = all helicities)
# 0 gives more stable result, but longer run time (needed for
# long decay chains e.g.).
# Use >=2 if most helicities contribute, e.g. pure QCD.
#*************************************************************
   0  = nhel          ! Number of helicities used per event
#*******************                                                 
# Standard Cuts
#*******************                                                 
#                                                                    
#*********************************************************************
# Minimum and maximum pt's (for max, -1 means no cut)                *
#*********************************************************************
 20  = ptj       ! minimum pt for the jets 
  0  = ptb       ! minimum pt for the b 
 10  = pta       ! minimum pt for the photons 
 10  = ptl       ! minimum pt for the charged leptons 
  0  = misset    ! minimum missing Et (sum of neutrino's momenta)
  0  = ptheavy   ! minimum pt for one heavy final state
 1.0 = ptonium   ! minimum pt for the quarkonium states
 -1  = ptjmax    ! maximum pt for the jets
 -1  = ptbmax    ! maximum pt for the b
 -1  = ptamax    ! maximum pt for the photons
 -1  = ptlmax    ! maximum pt for the charged leptons
 -1  = missetmax ! maximum missing Et (sum of neutrino's momenta)
#*********************************************************************
# Minimum and maximum E's (in the center of mass frame)              *
#*********************************************************************
  0  = ej     ! minimum E for the jets 
  0  = eb     ! minimum E for the b 
  0  = ea     ! minimum E for the photons 
  0  = el     ! minimum E for the charged leptons 
 -1   = ejmax ! maximum E for the jets
 -1   = ebmax ! maximum E for the b
 -1   = eamax ! maximum E for the photons
 -1   = elmax ! maximum E for the charged leptons
#*********************************************************************
# Maximum and minimum absolute rapidity (for max, -1 means no cut)   *
#*********************************************************************
   5  = etaj    ! max rap for the jets 
  -1  = etab    ! max rap for the b
 2.5  = etaa    ! max rap for the photons 
 2.5  = etal    ! max rap for the charged leptons 
 0.6  = etaonium ! max rap for the quarkonium states
   0  = etajmin ! min rap for the jets
   0  = etabmin ! min rap for the b
   0  = etaamin ! min rap for the photons
   0  = etalmin ! main rap for the charged leptons
#*********************************************************************
# Minimum and maximum DeltaR distance                                *
#*********************************************************************
 0.4 = drjj    ! min distance between jets 
 0   = drbb    ! min distance between b's 
 0.4 = drll    ! min distance between leptons 
 0.4 = draa    ! min distance between gammas 
 0   = drbj    ! min distance between b and jet 
 0.4 = draj    ! min distance between gamma and jet 
 0.4 = drjl    ! min distance between jet and lepton 
 0   = drab    ! min distance between gamma and b 
 0   = drbl    ! min distance between b and lepton 
 0.4 = dral    ! min distance between gamma and lepton 
 -1  = drjjmax ! max distance between jets
 -1  = drbbmax ! max distance between b's
 -1  = drllmax ! max distance between leptons
 -1  = draamax ! max distance between gammas
 -1  = drbjmax ! max distance between b and jet
 -1  = drajmax ! max distance between gamma and jet
 -1  = drjlmax ! max distance between jet and lepton
 -1  = drabmax ! max distance between gamma and b
 -1  = drblmax ! max distance between b and lepton
 -1  = dralmax ! maxdistance between gamma and lepton
#*********************************************************************
# Minimum and maximum invariant mass for pairs                       *
# WARNING: for four lepton final state mmll cut require to have      *
#          different lepton masses for each flavor!                  *           
#*********************************************************************
 0   = mmjj    ! min invariant mass of a jet pair 
 0   = mmbb    ! min invariant mass of a b pair 
 0   = mmaa    ! min invariant mass of gamma gamma pair
 0   = mmll    ! min invariant mass of l+l- (same flavour) lepton pair
 -1  = mmjjmax ! max invariant mass of a jet pair
 -1  = mmbbmax ! max invariant mass of a b pair
 -1  = mmaamax ! max invariant mass of gamma gamma pair
 -1  = mmllmax ! max invariant mass of l+l- (same flavour) lepton pair
#*********************************************************************
# Minimum and maximum invariant mass for all letpons                 *
#*********************************************************************
 0   = mmnl    ! min invariant mass for all letpons (l+- and vl) 
 -1  = mmnlmax ! max invariant mass for all letpons (l+- and vl) 
#*********************************************************************
# Minimum and maximum pt for 4-momenta sum of leptons                *
#*********************************************************************
 0   = ptllmin  ! Minimum pt for 4-momenta sum of leptons(l and vl)
 -1  = ptllmax  ! Maximum pt for 4-momenta sum of leptons(l and vl)
#*********************************************************************
# Inclusive cuts                                                     *
#*********************************************************************
 0  = xptj ! minimum pt for at least one jet  
 0  = xptb ! minimum pt for at least one b 
 0  = xpta ! minimum pt for at least one photon 
 0  = xptl ! minimum pt for at least one charged lepton 
#*********************************************************************
# Control the pt's of the jets sorted by pt                          *
#*********************************************************************
 0   = ptj1min ! minimum pt for the leading jet in pt
 0   = ptj2min ! minimum pt for the second jet in pt
 0   = ptj3min ! minimum pt for the third jet in pt
 0   = ptj4min ! minimum pt for the fourth jet in pt
 -1  = ptj1max ! maximum pt for the leading jet in pt 
 -1  = ptj2max ! maximum pt for the second jet in pt
 -1  = ptj3max ! maximum pt for the third jet in pt
 -1  = ptj4max ! maximum pt for the fourth jet in pt
 0   = cutuse  ! reject event if fails any (0) / all (1) jet pt cuts
#*********************************************************************
# Control the pt's of leptons sorted by pt                           *
#*********************************************************************
 0   = ptl1min ! minimum pt for the leading lepton in pt
 0   = ptl2min ! minimum pt for the second lepton in pt
 0   = ptl3min ! minimum pt for the third lepton in pt
 0   = ptl4min ! minimum pt for the fourth lepton in pt
 -1  = ptl1max ! maximum pt for the leading lepton in pt 
 -1  = ptl2max ! maximum pt for the second lepton in pt
 -1  = ptl3max ! maximum pt for the third lepton in pt
 -1  = ptl4max ! maximum pt for the fourth lepton in pt
#*********************************************************************
# Control the Ht(k)=Sum of k leading jets                            *
#*********************************************************************
 0   = htjmin ! minimum jet HT=Sum(jet pt)
 -1  = htjmax ! maximum jet HT=Sum(jet pt)
 0   = ihtmin  !inclusive Ht for all partons (including b)
 -1  = ihtmax  !inclusive Ht for all partons (including b)
 0   = ht2min ! minimum Ht for the two leading jets
 0   = ht3min ! minimum Ht for the three leading jets
 0   = ht4min ! minimum Ht for the four leading jets
 -1  = ht2max ! maximum Ht for the two leading jets
 -1  = ht3max ! maximum Ht for the three leading jets
 -1  = ht4max ! maximum Ht for the four leading jets
#***********************************************************************
# Photon-isolation cuts, according to hep-ph/9801442                   *
# When ptgmin=0, all the other parameters are ignored                  *
# When ptgmin>0, pta and draj are not going to be used                 *
#***********************************************************************
   0 = ptgmin ! Min photon transverse momentum
 0.4 = R0gamma ! Radius of isolation code
 1.0 = xn ! n parameter of eq.(3.4) in hep-ph/9801442
 1.0 = epsgamma ! epsilon_gamma parameter of eq.(3.4) in hep-ph/9801442
 .true. = isoEM ! isolate photons from EM energy (photons and leptons)
#*********************************************************************
# WBF cuts                                                           *
#*********************************************************************
 0   = xetamin ! minimum rapidity for two jets in the WBF case  
 0   = deltaeta ! minimum rapidity for two jets in the WBF case 
#*********************************************************************
# KT DURHAM CUT                                                      *
#*********************************************************************
 -1    =  ktdurham        
 0.4  =  dparameter 
#*********************************************************************
# maximal pdg code for quark to be considered as a light jet         *
# (otherwise b cuts are applied)                                     *
#*********************************************************************
 4 = maxjetflavor    ! Maximum jet pdg code
#*********************************************************************
# Jet measure cuts                                                   *
#*********************************************************************
 0   = xqcut   ! minimum kt jet measure between partons
#*********************************************************************
#
#*********************************************************************
# Store info for systematics studies                                 *
# WARNING: If use_syst is T, matched Pythia output is                *
#          meaningful ONLY if plotted taking matchscale              *
#          reweighting into account!                                 *
#*********************************************************************
   F  = use_syst      ! Enable systematics studies
#
#**************************************
# Parameter of the systematics study
#  will be used by SysCalc (if installed)
#**************************************                                  
#
0.5 1 2 = sys_scalefact  # factorization/renormalization scale factor
0.5 1 2 = sys_alpsfact  # \alpha_s emission scale factors
30 50 = sys_matchscale # variation of merging scale
# PDF sets and number of members (0 or none for all members).
CT10nlo.LHgrid = sys_pdf # matching scales
# MSTW2008nlo68cl.LHgrid 1  = sys_pdf
</MGRunCard>
<slha>
######################################################################
## PARAM_CARD AUTOMATICALY GENERATED BY MG5 FOLLOWING UFO MODEL   ####
######################################################################
##                                                                  ##
##  Width set on Auto will be computed following the information    ##
##        present in the decay.py files of the model.               ##
##        See  arXiv:1402.1178 for more details.                    ##
##                                                                  ##
######################################################################

###################################
## INFORMATION FOR CKMBLOCK
###################################
Block ckmblock 
    1 2.277360e-01 # cabi 

###################################
## INFORMATION FOR FRBLOCK
###################################
Block frblock 
    1 8.000000e-01 # gz 

###################################
## INFORMATION FOR MASS
###################################
Block mass 
    1 5.040000e-03 # MD 
    2 2.550000e-03 # MU 
    3 1.010000e-01 # MS 
    4 1.270000e+00 # MC 
    5 4.700000e+00 # MB 
    6 1.720000e+02 # MT 
   11 5.110000e-04 # Me 
   13 1.056600e-01 # MM 
   15 1.777000e+00 # MTA 
   23 9.118760e+01 # MZ 
   25 1.200000e+02 # MH 
  10030 1.500000e+03 # MZph 
  10031 3.000000e+02 # MZpl 
## Dependent parameters, given by model restrictions.
## Those values should be edited following the 
## analytical expression. MG5 ignores those values 
## but they are important for interfacing the output of MG5
## to external program such as Pythia.
  12 0.000000 # ve : 0.0 
  14 0.000000 # vm : 0.0 
  16 0.000000 # vt : 0.0 
  21 0.000000 # g : 0.0 
  22 0.000000 # a : 0.0 
  24 79.824360 # w+ : cmath.sqrt(MZ__exp__2/2. + cmath.sqrt(MZ__exp__4/4. - (aEW*cmath.pi*MZ__exp__2)/(Gf*sqrt__2))) 

###################################
## INFORMATION FOR SMINPUTS
###################################
Block sminputs 
    1 1.279000e+02 # aEWM1 
    2 1.166370e-05 # Gf 
    3 1.184000e-01 # aS 

###################################
## INFORMATION FOR YUKAWA
###################################
Block yukawa 
    1 5.040000e-03 # ymdo 
    2 2.550000e-03 # ymup 
    3 1.010000e-01 # yms 
    4 1.270000e+00 # ymc 
    5 4.700000e+00 # ymb 
    6 1.720000e+02 # ymt 
   11 5.110000e-04 # yme 
   13 1.056600e-01 # ymm 
   15 1.777000e+00 # ymtau 

###################################
## INFORMATION FOR DECAY
###################################
DECAY   6 1.508336e+00 # WT 
DECAY  23 2.495200e+00 # WZ 
DECAY  24 2.085000e+00 # WW 
DECAY  25 5.753088e-03 # WH 
## Dependent parameters, given by model restrictions.
## Those values should be edited following the 
## analytical expression. MG5 ignores those values 
## but they are important for interfacing the output of MG5
## to external program such as Pythia.
DECAY  1 0.000000 # d : 0.0 
DECAY  2 0.000000 # u : 0.0 
DECAY  3 0.000000 # s : 0.0 
DECAY  4 0.000000 # c : 0.0 
DECAY  5 0.000000 # b : 0.0 
DECAY  11 0.000000 # e- : 0.0 
DECAY  12 0.000000 # ve : 0.0 
DECAY  13 0.000000 # mu- : 0.0 
DECAY  14 0.000000 # vm : 0.0 
DECAY  15 0.000000 # ta- : 0.0 
DECAY  16 0.000000 # vt : 0.0 
DECAY  21 0.000000 # g : 0.0 
DECAY  22 0.000000 # a : 0.0 
DECAY  10030 0.308725 # zph : (gz__exp__2*MZph*(5 + cmath.sqrt(1 - (4*MT__exp__2)/MZph__exp__2)))/(144.*cmath.pi) 
DECAY  10031 0.132629 # zpl : (5*gz__exp__2*MZpl)/(144.*cmath.pi) 
#===========================================================
# QUANTUM NUMBERS OF NEW STATE(S) (NON SM PDG CODE)
#===========================================================

Block QNUMBERS 10030  # zph 
        1 0  # 3 times electric charge
        2 3  # number of spin states (2S+1)
        3 1  # colour rep (1: singlet, 3: triplet, 8: octet)
        4 0  # Particle/Antiparticle distinction (0=own anti)
Block QNUMBERS 10031  # zpl 
        1 0  # 3 times electric charge
        2 3  # number of spin states (2S+1)
        3 1  # colour rep (1: singlet, 3: triplet, 8: octet)
        4 0  # Particle/Antiparticle distinction (0=own anti)
</slha>
## END BANNER##
<MGGenerationInfo>
#  Number of Events        :         3998
#  Integrated weight (pb)  :  0.14336E+00
#  Max wgt                 :  0.49486E-04
#  Average wgt             :  0.35858E-04
</MGGenerationInfo>
</header>
<init>
     2212     2212  0.40000000000E+04  0.40000000000E+04 0 0  247000  247000 2   1
  0.14344476244E+00  0.25559103040E-03  0.49486450000E-04   0
</init>
<event>
 5   0  0.4948645E-04  0.1503637E+04  0.7818609E-02  0.8882038E-01
        2   -1    0    0  501    0  0.00000000000E+00  0.00000000000E+00  0.10485577317E+04  0.10485577317E+04  0.25500000920E-02 0.  1.
       -2   -1    0    0    0  501  0.00000000000E+00  0.00000000000E+00 -0.53905600286E+03  0.53905600286E+03  0.25500000920E-02 0. -1.
    10030    2    1    2    0    0  0.00000000000E+00  0.00000000000E+00  0.50950172879E+03  0.15876137345E+04  0.15036373760E+04 0.  0.
        1    1    3    3  502    0  0.17675370456E+03  0.72834902500E+03  0.31719042144E+03  0.81384515590E+03  0.50400001928E-02 0.  1.
       -1    1    3    3    0  502 -0.17675370456E+03 -0.72834902500E+03  0.19231130735E+03  0.77376857862E+03  0.50400001928E-02 0. -1.
</event>
<event>
 5   0  0.4948645E-04  0.1496186E+04  0.7818609E-02  0.8886993E-01
       -2   -1    0    0    0  501  0.00000000000E+00  0.00000000000E+00  0.56639269858E+03  0.56639269859E+03  0.25500000920E-02 0. -1.
        2   -1    0    0  501    0  0.00000000000E+00  0.00000000000E+00 -0.98808294341E+03  0.98808294342E+03  0.25500000920E-02 0.  1.
    10030    2    1    2    0    0  0.00000000000E+00  0.00000000000E+00 -0.42169024483E+03  0.15544756420E+04  0.14961857702E+04 0.  0.
        1    1    3    3  502    0  0.18055215811E+03 -0.71471835509E+03 -0.34317096070E+03  0.81313450129E+03  0.50400001928E-02 0. -1.
       -1    1    3    3    0  502 -0.18055215811E+03  0.71471835509E+03 -0.78519284136E+02  0.74134114071E+03  0.50400001928E-02 0.  1.
</event>
<event>
 5   0  0.4768387E-04  0.1498304E+04  0.7818609E-02  0.8885582E-01
       -2   -1    0    0    0  501  0.00000000000E+00  0.00000000000E+00  0.79666915994E+03  0.79666915995E+03  0.25500000920E-02 0. -1.
        2   -1    0    0  501    0  0.00000000000E+00  0.00000000000E+00 -0.70446895396E+03  0.70446895396E+03  0.25500000920E-02 0.  1.
    10030    2    1    2    0    0  0.00000000000E+00  0.00000000000E+00  0.92200205988E+02  0.15011381139E+04  0.14983039608E+04 0.  0.
        3    1    3    3  502    0  0.36897151856E+03  0.26485474609E+03 -0.55079580476E+03  0.71390758981E+03  0.10100000352E+00 0.  1.
       -3    1    3    3    0  502 -0.36897151856E+03 -0.26485474609E+03  0.64299601075E+03  0.78723052410E+03  0.10100000352E+00 0. -1.
</event>
<event>
 5   0  0.4948645E-04  0.1494789E+04  0.7818609E-02  0.8887926E-01
       -2   -1    0    0    0  501  0.00000000000E+00  0.00000000000E+00  0.11518561186E+04  0.11518561186E+04  0.25500000920E-02 0. -1.
        2   -1    0    0  501    0  0.00000000000E+00  0.00000000000E+00 -0.48495497996E+03  0.48495497997E+03  0.25500000920E-02 0.  1.
    10030    2    1    2    0    0  0.00000000000E+00  0.00000000000E+00  0.66690113866E+03  0.16368110986E+04  0.14947887622E+04 0.  0.
        1    1    3    3  502    0  0.59660883242E+03 -0.12430034957E+03 -0.14033109981E+03  0.62536828623E+03  0.50400001928E-02 0.  1.
       -1    1    3    3    0  502 -0.59660883242E+03  0.12430034957E+03  0.80723223847E+03  0.10114428124E+04  0.50400001928E-02 0. -1.
</event>
<event>
 5   0  0.4768387E-04  0.1504496E+04  0.7818609E-02  0.8881469E-01
        2   -1    0    0  501    0  0.00000000000E+00  0.00000000000E+00  0.13916342331E+04  0.13916342332E+04  0.25500000920E-02 0. -1.
       -2   -1    0    0    0  501  0.00000000000E+00  0.00000000000E+00 -0.40662765643E+03  0.40662765644E+03  0.25500000920E-02 0.  1.
    10030    2    1    2    0    0  0.00000000000E+00  0.00000000000E+00  0.98500657672E+03  0.17982618896E+04  0.15044958848E+04 0.  0.
        3    1    3    3  502    0 -0.40797448888E+03  0.18697234722E+03  0.12141022120E+04  0.12943902169E+04  0.10100000352E+00 0. -1.
       -3    1    3    3    0  502  0.40797448888E+03 -0.18697234722E+03 -0.22909563532E+03  0.50387167267E+03  0.10100000352E+00 0.  1.
</event>
<event>
 5   0  0.2542737E-04  0.1506020E+04  0.7818609E-02  0.8880459E-01
       -1   -1    0    0    0  501  0.00000000000E+00  0.00000000000E+00  0.54620561434E+03  0.54620561436E+03  0.50400001928E-02 0.  1.
        1   -1    0    0  501    0  0.00000000000E+00  0.00000000000E+00 -0.10381149404E+04  0.10381149404E+04  0.50400001928E-02 0. -1.
    10030    2    1    2    0    0  0.00000000000E+00  0.00000000000E+00 -0.49190932607E+03  0.15843205548E+04  0.15060201975E+04 0.  0.
        1    1    3    3  502    0  0.50990780290E+03 -0.55346310213E+03 -0.27372476803E+03  0.80078250576E+03  0.50400001928E-02 0.  1.
       -1    1    3    3    0  502 -0.50990780290E+03  0.55346310213E+03 -0.21818455804E+03  0.78353804902E+03  0.50400001928E-02 0. -1.
</event>
<event>
 5   0  0.2605471E-04  0.1515222E+04  0.7818609E-02  0.8874393E-01
        1   -1    0    0  501    0  0.00000000000E+00  0.00000000000E+00  0.25880024842E+04  0.25880024842E+04  0.50400001928E-02 0.  1.
       -1   -1    0    0    0  501  0.00000000000E+00  0.00000000000E+00 -0.22178289950E+03  0.22178289956E+03  0.50400001928E-02 0. -1.
    10030    2    1    2    0    0  0.00000000000E+00  0.00000000000E+00  0.23662195847E+04  0.28097853838E+04  0.15152223533E+04 0.  0.
        3    1    3    3  502    0 -0.38959314322E+03  0.73035026267E+02  0.23803759913E+04  0.24131528759E+04  0.10100000352E+00 0.  1.
       -3    1    3    3    0  502  0.38959314322E+03 -0.73035026267E+02 -0.14156406527E+02  0.39663250794E+03  0.10100000352E+00 0. -1.
</event>
<event>
 5   0  0.4948645E-04  0.1517902E+04  0.7818609E-02  0.8872635E-01
       -2   -1    0    0    0  501  0.00000000000E+00  0.00000000000E+00  0.42326672886E+03  0.42326672887E+03  0.25500000920E-02 0. -1.
        2   -1    0    0  501    0  0.00000000000E+00  0.00000000000E+00 -0.13608600537E+04  0.13608600537E+04  0.25500000920E-02 0.  1.
    10030    2    1    2    0    0  0.00000000000E+00  0.00000000000E+00 -0.93759332488E+03  0.17841267826E+04  0.15179022148E+04 0.  0.
        1    1    3    3  502    0 -0.23164132995E+03 -0.39417919835E+03 -0.11808266526E+04  0.12662489999E+04  0.50400001928E-02 0.  1.
       -1    1    3    3    0  502  0.23164132995E+03  0.39417919835E+03  0.24323332770E+03  0.51787778277E+03  0.50400001928E-02 0. -1.
</event>
<event>
 5   0  0.2603873E-04  0.1496040E+04  0.7818609E-02  0.8887091E-01
       -1   -1    0    0    0  501  0.00000000000E+00  0.00000000000E+00  0.51095173217E+03  0.51095173219E+03  0.50400001928E-02 0. -1.
        1   -1    0    0  501    0  0.00000000000E+00  0.00000000000E+00 -0.10950812277E+04  0.10950812277E+04  0.50400001928E-02 0.  1.
    10030    2    1    2    0    0  0.00000000000E+00  0.00000000000E+00 -0.58412949551E+03  0.16060329599E+04  0.14960396388E+04 0.  0.
        2    1    3    3  502    0  0.49423952440E+03  0.47345058907E+03 -0.61609354537E+03  0.92086884214E+03  0.25500000920E-02 0.  1.
       -2    1    3    3    0  502 -0.49423952440E+03 -0.47345058907E+03  0.31964049857E+02  0.68516411775E+03  0.25500000920E-02 0. -1.
</event>
<event>
 5   0  0.4948645E-04  0.1492829E+04  0.7818609E-02  0.8889236E-01
        2   -1    0    0  501    0  0.00000000000E+00  0.00000000000E+00  0.16786969772E+04  0.16786969772E+04  0.25500000920E-02 0.  1.
       -2   -1    0    0    0  501  0.00000000000E+00  0.00000000000E+00 -0.33188512674E+03  0.33188512675E+03  0.25500000920E-02 0. -1.
    10030    2    1    2    0    0  0.00000000000E+00  0.00000000000E+00  0.13468118505E+04  0.20105821040E+04  0.14928289374E+04 0.  0.
        1    1    3    3  502    0 -0.58201943167E+03 -0.18486566824E+03  0.95347862432E+02  0.61807212284E+03  0.50400001928E-02 0. -1.
       -1    1    3    3    0  502  0.58201943167E+03  0.18486566824E+03  0.12514639880E+04  0.13925099811E+04  0.50400001928E-02 0.  1.
</event>
<event>
 5   0  0.1792000E-04  0.1639864E+04  0.7818609E-02  0.8796425E-01
        4   -1    0    0  501    0  0.00000000000E+00  0.00000000000E+00  0.52525315680E+03  0.52525469215E+03  0.12699999809E+01 0. -1.
       -4   -1    0    0    0  501  0.00000000000E+00  0.00000000000E+00 -0.12799291243E+04  0.12799297544E+04  0.12699999809E+01 0.  1.
    10030    2    1    2    0    0  0.00000000000E+00  0.00000000000E+00 -0.75467596748E+03  0.18051844465E+04  0.16398643450E+04 0.  0.
        2    1    3    3  502    0  0.77005283546E+03 -0.69039385751E+02 -0.76791843883E+02  0.77694581116E+03  0.25500000920E-02 0. -1.
       -2    1    3    3    0  502 -0.77005283546E+03  0.69039385751E+02 -0.67788412360E+03  0.10282386353E+04  0.25500000920E-02 0.  1.
</event>
<event>
 5   0  0.4569211E-04  0.1503502E+04  0.7818609E-02  0.8882128E-01
       -2   -1    0    0    0  501  0.00000000000E+00  0.00000000000E+00  0.63311502205E+03  0.63311502206E+03  0.25500000920E-02 0.  1.
        2   -1    0    0  501    0  0.00000000000E+00  0.00000000000E+00 -0.89261735657E+03  0.89261735657E+03  0.25500000920E-02 0. -1.
    10030    2    1    2    0    0  0.00000000000E+00  0.00000000000E+00 -0.25950233452E+03  0.15257323786E+04  0.15035018555E+04 0.  0.
        5    1    3    3  502    0 -0.42039186229E+03 -0.26979153570E+03 -0.69983195871E+03  0.85982768684E+03  0.46999998093E+01 0. -1.
       -5    1    3    3    0  502  0.42039186229E+03  0.26979153570E+03  0.44032962419E+03  0.66590469180E+03  0.46999998093E+01 0.  1.
</event>
<event>
 5   0  0.2565416E-04  0.1483954E+04  0.7818609E-02  0.8895194E-01
       -1   -1    0    0    0  501  0.00000000000E+00  0.00000000000E+00  0.56131952372E+03  0.56131952374E+03  0.50400001928E-02 0. -1.
        1   -1    0    0  501    0  0.00000000000E+00  0.00000000000E+00 -0.98077855017E+03  0.98077855018E+03  0.50400001928E-02 0.  1.
    10030    2    1    2    0    0  0.00000000000E+00  0.00000000000E+00 -0.41945902645E+03  0.15420980739E+04  0.14839543776E+04 0.  0.
        5    1    3    3  502    0 -0.55792996300E+03 -0.46934844200E+03 -0.66736256633E+02  0.73215409687E+03  0.46999998093E+01 0. -1.
       -5    1    3    3    0  502  0.55792996300E+03  0.46934844200E+03 -0.35272276981E+03  0.80994397705E+03  0.46999998093E+01 0.  1.
</event>
<event>
 5   0  0.1792000E-04  0.1499219E+04  0.7818609E-02  0.8884972E-01
        3   -1    0    0  501    0  0.00000000000E+00  0.00000000000E+00  0.13761893649E+04  0.13761893686E+04  0.10100000352E+00 0. -1.
       -3   -1    0    0    0  501  0.00000000000E+00  0.00000000000E+00 -0.40831197570E+03  0.40831198820E+03  0.10100000352E+00 0.  1.
    10030    2    1    2    0    0  0.00000000000E+00  0.00000000000E+00  0.96787738922E+03  0.17845013568E+04  0.14992192808E+04 0.  0.
        3    1    3    3  502    0  0.42329740286E+03 -0.59171983201E+01 -0.25240458863E+03  0.49287299690E+03  0.10100000352E+00 0.  1.
       -3    1    3    3    0  502 -0.42329740286E+03  0.59171983201E+01  0.12202819778E+04  0.12916283599E+04  0.10100000352E+00 0. -1.
</event>
<event>
 5   0  0.2542737E-04  0.1500965E+04  0.7818609E-02  0.8883812E-01
       -1   -1    0    0    0  501  0.00000000000E+00  0.00000000000E+00  0.31290469876E+03  0.31290469880E+03  0.50400001928E-02 0.  1.
        1   -1    0    0  501    0  0.00000000000E+00  0.00000000000E+00 -0.17999852526E+04  0.17999852526E+04  0.50400001928E-02 0. -1.
    10030    2    1    2    0    0  0.00000000000E+00  0.00000000000E+00 -0.14870805538E+04  0.21128899514E+04  0.15009648141E+04 0.  0.
        1    1    3    3  502    0 -0.44601971640E+02  0.11401735451E+03 -0.17858326671E+04  0.17900244713E+04  0.50400001928E-02 0. -1.
       -1    1    3    3    0  502  0.44601971640E+02 -0.11401735451E+03  0.29875211328E+03  0.32286548007E+03  0.50400001928E-02 0.  1.
</event>
<event>
 5   0  0.2605471E-04  0.1471536E+04  0.7818609E-02  0.8903605E-01
        1   -1    0    0  501    0  0.00000000000E+00  0.00000000000E+00  0.10257298408E+04  0.10257298408E+04  0.50400001928E-02 0.  1.
       -1   -1    0    0    0  501  0.00000000000E+00  0.00000000000E+00 -0.52777464844E+03  0.52777464846E+03  0.50400001928E-02 0. -1.
    10030    2    1    2    0    0  0.00000000000E+00  0.00000000000E+00  0.49795519233E+03  0.15535044892E+04  0.14715355329E+04 0.  0.
        3    1    3    3  502    0  0.23116298102E+03  0.45563200327E+03  0.80791960114E+03  0.95591366676E+03  0.10100000352E+00 0.  1.
       -3    1    3    3    0  502 -0.23116298102E+03 -0.45563200327E+03 -0.30996440881E+03  0.59759082249E+03  0.10100000352E+00 0. -1.
</event>
<event>
 5   0  0.2605471E-04  0.1425952E+04  0.7818609E-02  0.8935245E-01
        1   -1    0    0  501    0  0.00000000000E+00  0.00000000000E+00  0.12231441125E+04  0.12231441125E+04  0.50400001928E-02 0. -1.
       -1   -1    0    0    0  501  0.00000000000E+00  0.00000000000E+00 -0.41559653779E+03  0.41559653782E+03  0.50400001928E-02 0.  1.
    10030    2    1    2    0    0  0.00000000000E+00  0.00000000000E+00  0.80754757472E+03  0.16387406503E+04  0.14259515537E+04 0.  0.
        3    1    3    3  502    0  0.14167858439E+03  0.46651072401E+03  0.10016247329E+04  0.11139825819E+04  0.10100000352E+00 0. -1.
       -3    1    3    3    0  502 -0.14167858439E+03 -0.46651072401E+03 -0.19407715820E+03  0.52475806847E+03  0.10100000352E+00 0.  1.
</event>
<event>
 5   0  0.4948645E-04  0.1504341E+04  0.7818609E-02  0.8881572E-01
        2   -1    0    0  501    0  0.00000000000E+00  0.00000000000E+00  0.90726660197E+03  0.90726660198E+03  0.25500000920E-02 0.  1.
       -2   -1    0    0    0  501  0.00000000000E+00  0.00000000000E+00 -0.62358766579E+03  0.62358766579E+03  0.25500000920E-02 0. -1.
    10030    2    1    2    0    0  0.00000000000E+00  0.00000000000E+00  0.28367893619E+03  0.15308542678E+04  0.15043407361E+04 0.  0.
        1    1    3    3  502    0 -0.17367084618E+03 -0.43162402610E+03  0.74327149780E+03  0.87687706218E+03  0.50400001928E-02 0.  1.
       -1    1    3    3    0  502  0.17367084618E+03  0.43162402610E+03 -0.45959256161E+03  0.65397720559E+03  0.50400001928E-02 0. -1.
</event>
<event>
 5   0  0.2544374E-04  0.1492743E+04  0.7818609E-02  0.8889293E-01
       -1   -1    0    0    0  501  0.00000000000E+00  0.00000000000E+00  0.29581447637E+03  0.29581447641E+03  0.50400001928E-02 0. -1.
        1   -1    0    0  501    0  0.00000000000E+00  0.00000000000E+00 -0.18831747940E+04  0.18831747940E+04  0.50400001928E-02 0.  1.
    10030    2    1    2    0    0  0.00000000000E+00  0.00000000000E+00 -0.15873603176E+04  0.21789892704E+04  0.14927429325E+04 0.  0.
        4    1    3    3  502    0  0.62405020747E+03  0.39153982517E+03 -0.61896020997E+03  0.96221382788E+03  0.12699999809E+01 0.  1.
       -4    1    3    3    0  502 -0.62405020747E+03 -0.39153982517E+03 -0.96840010764E+03  0.12167754425E+04  0.12699999809E+01 0. -1.
</event>
<event>
 5   0  0.2542737E-04  0.1496147E+04  0.7818609E-02  0.8887019E-01
        1   -1    0    0  501    0  0.00000000000E+00  0.00000000000E+00  0.10615111509E+04  0.10615111509E+04  0.50400001928E-02 0. -1.
       -1   -1    0    0    0  501  0.00000000000E+00  0.00000000000E+00 -0.52718638134E+03  0.52718638137E+03  0.50400001928E-02 0.  1.
    10030    2    1    2    0    0  0.00000000000E+00  0.00000000000E+00  0.53432476957E+03  0.15886975323E+04  0.14961473489E+04 0.  0.
        1    1    3    3  502    0  0.43729819111E+03 -0.48090617107E+03  0.66035684304E+03  0.92659139511E+03  0.50400001928E-02 0. -1.
       -1    1    3    3    0  502 -0.43729819111E+03  0.48090617107E+03 -0.12603207347E+03  0.66210613718E+03  0.50400001928E-02 0.  1.
</event>
<event>
 5   0  0.4726600E-04  0.1498891E+04  0.7818609E-02  0.8885191E-01
        2   -1    0    0  501    0  0.00000000000E+00  0.00000000000E+00  0.32341761373E+03  0.32341761374E+03  0.25500000920E-02 0.  1.
       -2   -1    0    0    0  501  0.00000000000E+00  0.00000000000E+00 -0.17366672438E+04  0.17366672438E+04  0.25500000920E-02 0. -1.
    10030    2    1    2    0    0  0.00000000000E+00  0.00000000000E+00 -0.14132496300E+04  0.20600848575E+04  0.14988912914E+04 0.  0.
        2    1    3    3  502    0 -0.57699356222E+02 -0.71574375742E+03 -0.41168606416E+03  0.82770994764E+03  0.25500000920E-02 0. -1.
       -2    1    3    3    0  502  0.57699356222E+02  0.71574375742E+03 -0.10015635659E+04  0.12323749099E+04  0.25500000920E-02 0.  1.
</event>
<event>
 5   0  0.2605471E-04  0.1488386E+04  0.7818609E-02  0.8892213E-01
       -1   -1    0    0    0  501  0.00000000000E+00  0.00000000000E+00  0.89527227612E+03  0.89527227613E+03  0.50400001928E-02 0. -1.
        1   -1    0    0  501    0  0.00000000000E+00  0.00000000000E+00 -0.61860885710E+03  0.61860885712E+03  0.50400001928E-02 0.  1.
    10030    2    1    2    0    0  0.00000000000E+00  0.00000000000E+00  0.27666341902E+03  0.15138811332E+04  0.14883861858E+04 0.  0.
        3    1    3    3  502    0  0.11678004411E+00 -0.30862857110E+03 -0.55044712009E+03  0.63106548848E+03  0.10100000352E+00 0.  1.
       -3    1    3    3    0  502 -0.11678004411E+00  0.30862857110E+03  0.82711053911E+03  0.88281564477E+03  0.10100000352E+00 0. -1.
</event>
<event>
 5   0  0.1792000E-04  0.1494467E+04  0.7818609E-02  0.8888141E-01
       -3   -1    0    0    0  501  0.00000000000E+00  0.00000000000E+00  0.31067621601E+03  0.31067623243E+03  0.10100000352E+00 0.  1.
        3   -1    0    0  501    0  0.00000000000E+00  0.00000000000E+00 -0.17972340685E+04  0.17972340714E+04  0.10100000352E+00 0. -1.
    10030    2    1    2    0    0  0.00000000000E+00  0.00000000000E+00 -0.14865578525E+04  0.21079103038E+04  0.14944669953E+04 0.  0.
        5    1    3    3  502    0  0.25400516577E+03  0.44339769405E+03  0.25677357777E+02  0.51166547278E+03  0.46999998093E+01 0.  1.
       -5    1    3    3    0  502 -0.25400516577E+03 -0.44339769405E+03 -0.15122352103E+04  0.15962448310E+04  0.46999998093E+01 0. -1.
</event>
<event>
 5   0  0.4768387E-04  0.1524236E+04  0.7818609E-02  0.8868494E-01
       -2   -1    0    0    0  501  0.00000000000E+00  0.00000000000E+00  0.73816324593E+03  0.73816324594E+03  0.25500000920E-02 0.  1.
        2   -1    0    0  501    0  0.00000000000E+00  0.00000000000E+00 -0.78685001632E+03  0.78685001632E+03  0.25500000920E-02 0. -1.
    10030    2    1    2    0    0  0.00000000000E+00  0.00000000000E+00 -0.48686770389E+02  0.15250132623E+04  0.15242358900E+04 0.  0.
        3    1    3    3  502    0 -0.73776481846E+03 -0.17364739292E+02  0.16608311025E+03  0.75642717511E+03  0.10100000352E+00 0. -1.
       -3    1    3    3    0  502  0.73776481846E+03  0.17364739292E+02 -0.21476988064E+03  0.76858608715E+03  0.10100000352E+00 0.  1.
</event>
<event>
 5   0  0.2542737E-04  0.1585734E+04  0.7818609E-02  0.8829361E-01
        1   -1    0    0  501    0  0.00000000000E+00  0.00000000000E+00  0.87873755504E+03  0.87873755505E+03  0.50400001928E-02 0. -1.
       -1   -1    0    0    0  501  0.00000000000E+00  0.00000000000E+00 -0.71538730232E+03  0.71538730234E+03  0.50400001928E-02 0.  1.
    10030    2    1    2    0    0  0.00000000000E+00  0.00000000000E+00  0.16335025272E+03  0.15941248574E+04  0.15857335072E+04 0.  0.
        1    1    3    3  502    0 -0.58768168631E+03  0.53155910498E+03  0.10851552138E+03  0.79981276866E+03  0.50400001928E-02 0. -1.
       -1    1    3    3    0  502  0.58768168631E+03 -0.53155910498E+03  0.54834731336E+02  0.79431208873E+03  0.50400001928E-02 0.  1.
</event>
<event>
 5   0  0.4726600E-04  0.1495497E+04  0.7818609E-02  0.8887453E-01
       -2   -1    0    0    0  501  0.00000000000E+00  0.00000000000E+00  0.57539088287E+03  0.57539088287E+03  0.25500000920E-02 0. -1.
        2   -1    0    0  501    0  0.00000000000E+00  0.00000000000E+00 -0.97173536936E+03  0.97173536937E+03  0.25500000920E-02 0.  1.
    10030    2    1    2    0    0  0.00000000000E+00  0.00000000000E+00 -0.39634448649E+03  0.15471262522E+04  0.14954968032E+04 0.  0.
        2    1    3    3  502    0  0.46730493735E+03  0.29034275723E+03  0.32572453246E+03  0.63935068015E+03  0.25500000920E-02 0. -1.
       -2    1    3    3    0  502 -0.46730493735E+03 -0.29034275723E+03 -0.72206901896E+03  0.90777557210E+03  0.25500000920E-02 0.  1.
</event>
<event>
 5   0  0.2603873E-04  0.1501022E+04  0.7818609E-02  0.8883773E-01
       -1   -1    0    0    0  501  0.00000000000E+00  0.00000000000E+00  0.79512875187E+03  0.79512875188E+03  0.50400001928E-02 0. -1.
        1   -1    0    0  501    0  0.00000000000E+00  0.00000000000E+00 -0.70839720062E+03  0.70839720064E+03  0.50400001928E-02 0.  1.
    10030    2    1    2    0    0  0.00000000000E+00  0.00000000000E+00  0.86731551244E+02  0.15035259525E+04  0.15010222943E+04 0.  0.
        2    1    3    3  502    0 -0.38788057158E+03 -0.10752703105E+03  0.67786814358E+03  0.78836452248E+03  0.25500000920E-02 0. -1.
       -2    1    3    3    0  502  0.38788057158E+03  0.10752703105E+03 -0.59113659234E+03  0.71516143004E+03  0.25500000920E-02 0.  1.
</event>
<event>
 5   0  0.4768387E-04  0.1505727E+04  0.7818609E-02  0.8880654E-01
        2   -1    0    0  501    0  0.00000000000E+00  0.00000000000E+00  0.29098059879E+03  0.29098059880E+03  0.25500000920E-02 0. -1.
       -2   -1    0    0    0  501  0.00000000000E+00  0.00000000000E+00 -0.19479071948E+04  0.19479071948E+04  0.25500000920E-02 0.  1.
    10030    2    1    2    0    0  0.00000000000E+00  0.00000000000E+00 -0.16569265960E+04  0.22388877936E+04  0.15057266710E+04 0.  0.
        3    1    3    3  502    0  0.35866845204E+03 -0.56835682397E+03 -0.13329871131E+04  0.14928252382E+04  0.10100000352E+00 0.  1.
       -3    1    3    3    0  502 -0.35866845204E+03  0.56835682397E+03 -0.32393948292E+03  0.74606255544E+03  0.10100000352E+00 0. -1.
</event>
<event>
 5   0  0.4569211E-04  0.1491309E+04  0.7818609E-02  0.8890253E-01
        2   -1    0    0  501    0  0.00000000000E+00  0.00000000000E+00  0.93961801310E+03  0.93961801311E+03  0.25500000920E-02 0.  1.
       -2   -1    0    0    0  501  0.00000000000E+00  0.00000000000E+00 -0.59173037199E+03  0.59173037200E+03  0.25500000920E-02 0. -1.
    10030    2    1    2    0    0  0.00000000000E+00  0.00000000000E+00  0.34788764111E+03  0.15313483851E+04  0.14913088432E+04 0.  0.
        5    1    3    3  502    0 -0.46978810597E+03 -0.31701697149E+03 -0.32360411396E+03  0.65264258004E+03  0.46999998093E+01 0. -1.
       -5    1    3    3    0  502  0.46978810597E+03  0.31701697149E+03  0.67149175507E+03  0.87870580506E+03  0.46999998093E+01 0.  1.
</event>
<event>
 5   0  0.2603873E-04  0.1493824E+04  0.7818609E-02  0.8888570E-01
       -1   -1    0    0    0  501  0.00000000000E+00  0.00000000000E+00  0.11821424487E+04  0.11821424487E+04  0.50400001928E-02 0.  1.
        1   -1    0    0  501    0  0.00000000000E+00  0.00000000000E+00 -0.47192058673E+03  0.47192058676E+03  0.50400001928E-02 0. -1.
    10030    2    1    2    0    0  0.00000000000E+00  0.00000000000E+00  0.71022186196E+03  0.16540630355E+04  0.14938237621E+04 0.  0.
        2    1    3    3  502    0  0.64016385641E+03 -0.29733087700E+03  0.62556990417E+03  0.94316123674E+03  0.25500000920E-02 0.  1.
       -2    1    3    3    0  502 -0.64016385641E+03  0.29733087700E+03  0.84651957796E+02  0.71090179873E+03  0.25500000920E-02 0. -1.
</event>
<event>
 5   0  0.4768387E-04  0.1497661E+04  0.7818609E-02  0.8886010E-01
        2   -1    0    0  501    0  0.00000000000E+00  0.00000000000E+00  0.41926611636E+03  0.41926611637E+03  0.25500000920E-02 0.  1.
       -2   -1    0    0    0  501  0.00000000000E+00  0.00000000000E+00 -0.13374489133E+04  0.13374489133E+04  0.25500000920E-02 0. -1.
    10030    2    1    2    0    0  0.00000000000E+00  0.00000000000E+00 -0.91818279695E+03  0.17567150297E+04  0.14976608584E+04 0.  0.
        3    1    3    3  502    0 -0.58378913067E+03  0.42945281889E+03 -0.23806300800E+03  0.76283253649E+03  0.10100000352E+00 0.  1.
       -3    1    3    3    0  502  0.58378913067E+03 -0.42945281889E+03 -0.68011978896E+03  0.99388249319E+03  0.10100000352E+00 0. -1.
</event>
<event>
 5   0  0.4948645E-04  0.1607729E+04  0.7818609E-02  0.8815814E-01
       -2   -1    0    0    0  501  0.00000000000E+00  0.00000000000E+00  0.60510699389E+03  0.60510699390E+03  0.25500000920E-02 0.  1.
        2   -1    0    0  501    0  0.00000000000E+00  0.00000000000E+00 -0.10679072846E+04  0.10679072846E+04  0.25500000920E-02 0. -1.
    10030    2    1    2    0    0  0.00000000000E+00  0.00000000000E+00 -0.46280029076E+03  0.16730142785E+04  0.16077290403E+04 0.  0.
        1    1    3    3  502    0 -0.10132433478E+03  0.20617206910E+03 -0.10330220439E+04  0.10582570983E+04  0.50400001928E-02 0. -1.
       -1    1    3    3    0  502  0.10132433478E+03 -0.20617206910E+03  0.57022175313E+03  0.61475718025E+03  0.50400001928E-02 0.  1.
</event>
<event>
 5   0  0.2605471E-04  0.1497297E+04  0.7818609E-02  0.8886252E-01
        1   -1    0    0  501    0  0.00000000000E+00  0.00000000000E+00  0.81542460949E+03  0.81542460950E+03  0.50400001928E-02 0. -1.
       -1   -1    0    0    0  501  0.00000000000E+00  0.00000000000E+00 -0.68734099888E+03  0.68734099890E+03  0.50400001928E-02 0.  1.
    10030    2    1    2    0    0  0.00000000000E+00  0.00000000000E+00  0.12808361060E+03  0.15027656084E+04  0.14972972525E+04 0.  0.
        3    1    3    3  502    0 -0.46679849137E+03  0.31436733867E+03  0.55955240448E+03  0.79361612807E+03  0.10100000352E+00 0. -1.
       -3    1    3    3    0  502  0.46679849137E+03 -0.31436733867E+03 -0.43146879388E+03  0.70914948033E+03  0.10100000352E+00 0.  1.
</event>
<event>
 5   0  0.4768387E-04  0.1486227E+04  0.7818609E-02  0.8893664E-01
        2   -1    0    0  501    0  0.00000000000E+00  0.00000000000E+00  0.17421312481E+04  0.17421312481E+04  0.25500000920E-02 0.  1.
       -2   -1    0    0    0  501  0.00000000000E+00  0.00000000000E+00 -0.31697830408E+03  0.31697830409E+03  0.25500000920E-02 0. -1.
    10030    2    1    2    0    0  0.00000000000E+00  0.00000000000E+00  0.14251529440E+04  0.20591095521E+04  0.14862271812E+04 0.  0.
        3    1    3    3  502    0  0.55452230535E+03 -0.17401916700E+03  0.13541512691E+04  0.14736021605E+04  0.10100000352E+00 0.  1.
       -3    1    3    3    0  502 -0.55452230535E+03  0.17401916700E+03  0.71001674851E+02  0.58550739162E+03  0.10100000352E+00 0. -1.
</event>
<event>
 5   0  0.2544374E-04  0.1519653E+04  0.7818609E-02  0.8871488E-01
        1   -1    0    0  501    0  0.00000000000E+00  0.00000000000E+00  0.13563253194E+04  0.13563253194E+04  0.50400001928E-02 0.  1.
       -1   -1    0    0    0  501  0.00000000000E+00  0.00000000000E+00 -0.42566235246E+03  0.42566235249E+03  0.50400001928E-02 0. -1.
    10030    2    1    2    0    0  0.00000000000E+00  0.00000000000E+00  0.93066296696E+03  0.17819876719E+04  0.15196534160E+04 0.  0.
        4    1    3    3  502    0  0.26709459546E+03 -0.42686051594E+03  0.11325819761E+04  0.12394728591E+04  0.12699999809E+01 0.  1.
       -4    1    3    3    0  502 -0.26709459546E+03  0.42686051594E+03 -0.20191900911E+03  0.54251481282E+03  0.12699999809E+01 0. -1.
</event>
<event>
 5   0  0.2542737E-04  0.1496587E+04  0.7818609E-02  0.8886725E-01
        1   -1    0    0  501    0  0.00000000000E+00  0.00000000000E+00  0.15708868390E+04  0.15708868390E+04  0.50400001928E-02 0. -1.
       -1   -1    0    0    0  501  0.00000000000E+00  0.00000000000E+00 -0.35645050504E+03  0.35645050508E+03  0.50400001928E-02 0.  1.
    10030    2    1    2    0    0  0.00000000000E+00  0.00000000000E+00  0.12144363340E+04  0.19273373441E+04  0.14965873275E+04 0.  0.
        1    1    3    3  502    0 -0.25898001466E+02 -0.14668393648E+03  0.15516019411E+04  0.15587352140E+04  0.50400001928E-02 0. -1.
       -1    1    3    3    0  502  0.25898001466E+02  0.14668393648E+03 -0.33716560710E+03  0.36860213013E+03  0.50400001928E-02 0.  1.
</event>
<event>
 5   0  0.2605471E-04  0.1496706E+04  0.7818609E-02  0.8886646E-01
       -1   -1    0    0    0  501  0.00000000000E+00  0.00000000000E+00  0.16009453850E+04  0.16009453850E+04  0.50400001928E-02 0. -1.
        1   -1    0    0  501    0  0.00000000000E+00  0.00000000000E+00 -0.34981339300E+03  0.34981339303E+03  0.50400001928E-02 0.  1.
    10030    2    1    2    0    0  0.00000000000E+00  0.00000000000E+00  0.12511319920E+04  0.19507587781E+04  0.14967058992E+04 0.  0.
        3    1    3    3  502    0 -0.57037981252E+03  0.66200471994E+01 -0.58014193005E+01  0.57044773838E+03  0.10100000352E+00 0.  1.
       -3    1    3    3    0  502  0.57037981252E+03 -0.66200471994E+01  0.12569334113E+04  0.13803110397E+04  0.10100000352E+00 0. -1.
</event>
<event>
 5   0  0.4785496E-04  0.1510020E+04  0.7818609E-02  0.8877817E-01
        2   -1    0    0  501    0  0.00000000000E+00  0.00000000000E+00  0.15450074776E+04  0.15450074776E+04  0.25500000920E-02 0. -1.
       -2   -1    0    0    0  501  0.00000000000E+00  0.00000000000E+00 -0.36895622092E+03  0.36895622093E+03  0.25500000920E-02 0.  1.
    10030    2    1    2    0    0  0.00000000000E+00  0.00000000000E+00  0.11760512567E+04  0.19139636986E+04  0.15100200267E+04 0.  0.
        4    1    3    3  502    0  0.12193764274E+03 -0.68745686926E+03  0.22380090660E+03  0.73318087434E+03  0.12699999809E+01 0.  1.
       -4    1    3    3    0  502 -0.12193764274E+03  0.68745686926E+03  0.95225035009E+03  0.11807828242E+04  0.12699999809E+01 0. -1.
</event>
<event>
 5   0  0.4785496E-04  0.1502290E+04  0.7818609E-02  0.8882932E-01
        2   -1    0    0  501    0  0.00000000000E+00  0.00000000000E+00  0.13594248151E+04  0.13594248151E+04  0.25500000920E-02 0.  1.
       -2   -1    0    0    0  501  0.00000000000E+00  0.00000000000E+00 -0.41504232587E+03  0.41504232587E+03  0.25500000920E-02 0. -1.
    10030    2    1    2    0    0  0.00000000000E+00  0.00000000000E+00  0.94438248923E+03  0.17744671410E+04  0.15022900347E+04 0.  0.
        4    1    3    3  502    0  0.53080766377E+03 -0.40906876594E+03  0.87296159892E+03  0.11005260548E+04  0.12699999809E+01 0.  1.
       -4    1    3    3    0  502 -0.53080766377E+03  0.40906876594E+03  0.71420890315E+02  0.67394108619E+03  0.12699999809E+01 0. -1.
</event>
<event>
 5   0  0.1792000E-04  0.1496024E+04  0.7818609E-02  0.8887101E-01
        4   -1    0    0  501    0  0.00000000000E+00  0.00000000000E+00  0.62149587182E+03  0.62149716941E+03  0.12699999809E+01 0.  1.
       -4   -1    0    0    0  501  0.00000000000E+00  0.00000000000E+00 -0.90028032031E+03  0.90028121609E+03  0.12699999809E+01 0. -1.
    10030    2    1    2    0    0  0.00000000000E+00  0.00000000000E+00 -0.27878444849E+03  0.15217783855E+04  0.14960242932E+04 0.  0.
        1    1    3    3  502    0  0.13790850883E+03  0.68988133439E+03 -0.39786726028E+03  0.80824091036E+03  0.50400001928E-02 0. -1.
       -1    1    3    3    0  502 -0.13790850883E+03 -0.68988133439E+03  0.11908281178E+03  0.71353747514E+03  0.50400001928E-02 0.  1.
</event>
<event>
 5   0  0.2605471E-04  0.1499617E+04  0.7818609E-02  0.8884708E-01
        1   -1    0    0  501    0  0.00000000000E+00  0.00000000000E+00  0.83660938444E+03  0.83660938446E+03  0.50400001928E-02 0.  1.
       -1   -1    0    0    0  501  0.00000000000E+00  0.00000000000E+00 -0.67201354762E+03  0.67201354764E+03  0.50400001928E-02 0. -1.
    10030    2    1    2    0    0  0.00000000000E+00  0.00000000000E+00  0.16459583682E+03  0.15086229321E+04  0.14996170717E+04 0.  0.
        3    1    3    3  502    0  0.21418020964E+03  0.54324153338E+03  0.55547170228E+03  0.80593631760E+03  0.10100000352E+00 0.  1.
       -3    1    3    3    0  502 -0.21418020964E+03 -0.54324153338E+03 -0.39087586546E+03  0.70268661449E+03  0.10100000352E+00 0. -1.
</event>
<event>
 5   0  0.2565416E-04  0.1494825E+04  0.7818609E-02  0.8887901E-01
       -1   -1    0    0    0  501  0.00000000000E+00  0.00000000000E+00  0.42048227025E+03  0.42048227028E+03  0.50400001928E-02 0.  1.
        1   -1    0    0  501    0  0.00000000000E+00  0.00000000000E+00 -0.13285359435E+04  0.13285359435E+04  0.50400001928E-02 0. -1.
    10030    2    1    2    0    0  0.00000000000E+00  0.00000000000E+00 -0.90805367325E+03  0.17490182138E+04  0.14948254877E+04 0.  0.
        5    1    3    3  502    0 -0.45921089267E+03 -0.19790750280E+03 -0.11039691987E+04  0.12119455867E+04  0.46999998093E+01 0. -1.
       -5    1    3    3    0  502  0.45921089267E+03  0.19790750280E+03  0.19591552543E+03  0.53707262704E+03  0.46999998093E+01 0.  1.
</event>
<event>
 5   0  0.4726600E-04  0.1521564E+04  0.7818609E-02  0.8870238E-01
        2   -1    0    0  501    0  0.00000000000E+00  0.00000000000E+00  0.94949151151E+03  0.94949151151E+03  0.25500000920E-02 0. -1.
       -2   -1    0    0    0  501  0.00000000000E+00  0.00000000000E+00 -0.60957812715E+03  0.60957812716E+03  0.25500000920E-02 0.  1.
    10030    2    1    2    0    0  0.00000000000E+00  0.00000000000E+00  0.33991338436E+03  0.15590696387E+04  0.15215640076E+04 0.  0.
        2    1    3    3  502    0  0.58248418683E+02 -0.15273565430E+00 -0.60728992602E+03  0.61007700814E+03  0.25500000920E-02 0.  1.
       -2    1    3    3    0  502 -0.58248418683E+02  0.15273565430E+00  0.94720331038E+03  0.94899263053E+03  0.25500000920E-02 0. -1.
</event>
<event>
 5   0  0.4768387E-04  0.1516066E+04  0.7818609E-02  0.8873839E-01
        2   -1    0    0  501    0  0.00000000000E+00  0.00000000000E+00  0.61696985935E+03  0.61696985936E+03  0.25500000920E-02 0.  1.
       -2   -1    0    0    0  501  0.00000000000E+00  0.00000000000E+00 -0.93134824747E+03  0.93134824747E+03  0.25500000920E-02 0. -1.
    10030    2    1    2    0    0  0.00000000000E+00  0.00000000000E+00 -0.31437838811E+03  0.15483181068E+04  0.15160656942E+04 0.  0.
        3    1    3    3  502    0  0.15957504491E+03 -0.34451568813E+03  0.51286176421E+03  0.63810849682E+03  0.10100000352E+00 0.  1.
       -3    1    3    3    0  502 -0.15957504491E+03  0.34451568813E+03 -0.82724015233E+03  0.91020961001E+03  0.10100000352E+00 0. -1.
</event>
<event>
 5   0  0.4948645E-04  0.1505517E+04  0.7818609E-02  0.8880793E-01
        2   -1    0    0  501    0  0.00000000000E+00  0.00000000000E+00  0.19611028242E+04  0.19611028242E+04  0.25500000920E-02 0.  1.
       -2   -1    0    0    0  501  0.00000000000E+00  0.00000000000E+00 -0.28894204897E+03  0.28894204898E+03  0.25500000920E-02 0. -1.
    10030    2    1    2    0    0  0.00000000000E+00  0.00000000000E+00  0.16721607753E+04  0.22500448732E+04  0.15055166134E+04 0.  0.
        1    1    3    3  502    0  0.68127270069E+03  0.24075550849E+03  0.11515273612E+04  0.13594524527E+04  0.50400001928E-02 0.  1.
       -1    1    3    3    0  502 -0.68127270069E+03 -0.24075550849E+03  0.52063341404E+03  0.89059242048E+03  0.50400001928E-02 0. -1.
</event>
<event>
 5   0  0.4726600E-04  0.1595058E+04  0.7818609E-02  0.8823590E-01
        2   -1    0    0  501    0  0.00000000000E+00  0.00000000000E+00  0.12191062511E+04  0.12191062511E+04  0.25500000920E-02 0.  1.
       -2   -1    0    0    0  501  0.00000000000E+00  0.00000000000E+00 -0.52173642483E+03  0.52173642484E+03  0.25500000920E-02 0. -1.
    10030    2    1    2    0    0  0.00000000000E+00  0.00000000000E+00  0.69736982631E+03  0.17408426760E+04  0.15950575375E+04 0.  0.
        2    1    3    3  502    0  0.53655110984E+03 -0.24555491969E+03 -0.23688632106E+03  0.63584545384E+03  0.25500000920E-02 0. -1.
       -2    1    3    3    0  502 -0.53655110984E+03  0.24555491969E+03  0.93425614737E+03  0.11049972221E+04  0.25500000920E-02 0.  1.
</event>
<event>
 5   0  0.4768387E-04  0.1463384E+04  0.7818609E-02  0.8909174E-01
       -2   -1    0    0    0  501  0.00000000000E+00  0.00000000000E+00  0.22816695711E+03  0.22816695713E+03  0.25500000920E-02 0. -1.
        2   -1    0    0  501    0  0.00000000000E+00  0.00000000000E+00 -0.23464107772E+04  0.23464107772E+04  0.25500000920E-02 0.  1.
    10030    2    1    2    0    0  0.00000000000E+00  0.00000000000E+00 -0.21182438201E+04  0.25745777344E+04  0.14633843066E+04 0.  0.
        3    1    3    3  502    0 -0.56119899497E+03  0.42048459615E+03 -0.69167097720E+03  0.98496718649E+03  0.10100000352E+00 0. -1.
       -3    1    3    3    0  502  0.56119899497E+03 -0.42048459615E+03 -0.14265728429E+04  0.15896105479E+04  0.10100000352E+00 0.  1.
</event>
<event>
 5   0  0.2605471E-04  0.1503647E+04  0.7818609E-02  0.8882032E-01
        1   -1    0    0  501    0  0.00000000000E+00  0.00000000000E+00  0.78009831373E+03  0.78009831375E+03  0.50400001928E-02 0.  1.
       -1   -1    0    0    0  501  0.00000000000E+00  0.00000000000E+00 -0.72457313676E+03  0.72457313677E+03  0.50400001928E-02 0. -1.
    10030    2    1    2    0    0  0.00000000000E+00  0.00000000000E+00  0.55525176973E+02  0.15046714505E+04  0.15036466103E+04 0.  0.
        3    1    3    3  502    0 -0.54354335155E+03 -0.86063985754E+02 -0.48482856050E+03  0.73342015784E+03  0.10100000352E+00 0. -1.
       -3    1    3    3    0  502  0.54354335155E+03  0.86063985754E+02  0.54035373747E+03  0.77125129268E+03  0.10100000352E+00 0.  1.
</event>
<event>
 5   0  0.4569211E-04  0.1501921E+04  0.7818609E-02  0.8883177E-01
       -2   -1    0    0    0  501  0.00000000000E+00  0.00000000000E+00  0.42657294460E+03  0.42657294460E+03  0.25500000920E-02 0. -1.
        2   -1    0    0  501    0  0.00000000000E+00  0.00000000000E+00 -0.13220283183E+04  0.13220283183E+04  0.25500000920E-02 0.  1.
    10030    2    1    2    0    0  0.00000000000E+00  0.00000000000E+00 -0.89545537372E+03  0.17486012629E+04  0.15019207870E+04 0.  0.
        5    1    3    3  502    0  0.10066491339E+03  0.19236444263E+03  0.38921826824E+03  0.44570220316E+03  0.46999998093E+01 0. -1.
       -5    1    3    3    0  502 -0.10066491339E+03 -0.19236444263E+03 -0.12846736420E+04  0.13028990598E+04  0.46999998093E+01 0.  1.
</event>
<event>
 5   0  0.2565416E-04  0.1500626E+04  0.7818609E-02  0.8884037E-01
       -1   -1    0    0    0  501  0.00000000000E+00  0.00000000000E+00  0.34331950674E+03  0.34331950678E+03  0.50400001928E-02 0. -1.
        1   -1    0    0  501    0  0.00000000000E+00  0.00000000000E+00 -0.16397823682E+04  0.16397823682E+04  0.50400001928E-02 0.  1.
    10030    2    1    2    0    0  0.00000000000E+00  0.00000000000E+00 -0.12964628614E+04  0.19831018749E+04  0.15006255680E+04 0.  0.
        5    1    3    3  502    0  0.29707828369E+03 -0.68494757211E+03 -0.74658016832E+03  0.10558469211E+04  0.46999998093E+01 0.  1.
       -5    1    3    3    0  502 -0.29707828369E+03  0.68494757211E+03 -0.54988269310E+03  0.92725495380E+03  0.46999998093E+01 0. -1.
</event>
<event>
 5   0  0.2605471E-04  0.1497611E+04  0.7818609E-02  0.8886043E-01
       -1   -1    0    0    0  501  0.00000000000E+00  0.00000000000E+00  0.10933352313E+04  0.10933352314E+04  0.50400001928E-02 0.  1.
        1   -1    0    0  501    0  0.00000000000E+00  0.00000000000E+00 -0.51284340845E+03  0.51284340847E+03  0.50400001928E-02 0. -1.
    10030    2    1    2    0    0  0.00000000000E+00  0.00000000000E+00  0.58049182290E+03  0.16061786398E+04  0.14976111199E+04 0.  0.
        3    1    3    3  502    0  0.31811247464E+03 -0.54121922024E+03  0.72799679357E+03  0.96129762953E+03  0.10100000352E+00 0.  1.
       -3    1    3    3    0  502 -0.31811247464E+03  0.54121922024E+03 -0.14750497067E+03  0.64488101031E+03  0.10100000352E+00 0. -1.
</event>
<event>
 5   0  0.4768387E-04  0.1468553E+04  0.7818609E-02  0.8905638E-01
       -2   -1    0    0    0  501  0.00000000000E+00  0.00000000000E+00  0.98271618613E+03  0.98271618613E+03  0.25500000920E-02 0. -1.
        2   -1    0    0  501    0  0.00000000000E+00  0.00000000000E+00 -0.54864472214E+03  0.54864472215E+03  0.25500000920E-02 0.  1.
    10030    2    1    2    0    0  0.00000000000E+00  0.00000000000E+00  0.43407146398E+03  0.15313609083E+04  0.14685530959E+04 0.  0.
        3    1    3    3  502    0 -0.69792359174E+03  0.22798420210E+03  0.22681234011E+03  0.76845167977E+03  0.10100000352E+00 0. -1.
       -3    1    3    3    0  502  0.69792359174E+03 -0.22798420210E+03  0.20725912387E+03  0.76290922851E+03  0.10100000352E+00 0.  1.
</event>
<event>
 5   0  0.2542737E-04  0.1493964E+04  0.7818609E-02  0.8888477E-01
        1   -1    0    0  501    0  0.00000000000E+00  0.00000000000E+00  0.29335371729E+04  0.29335371729E+04  0.50400001928E-02 0.  1.
       -1   -1    0    0    0  501  0.00000000000E+00  0.00000000000E+00 -0.19020789940E+03  0.19020789947E+03  0.50400001928E-02 0. -1.
    10030    2    1    2    0    0  0.00000000000E+00  0.00000000000E+00  0.27433292735E+04  0.31237450724E+04  0.14939637795E+04 0.  0.
        1    1    3    3  502    0 -0.43615627205E+03  0.58301411122E+03  0.17205661532E+04  0.18682841420E+04  0.50400001928E-02 0. -1.
       -1    1    3    3    0  502  0.43615627205E+03 -0.58301411122E+03  0.10227631203E+04  0.12554609304E+04  0.50400001928E-02 0.  1.
</event>
<event>
 5   0  0.2605471E-04  0.1484879E+04  0.7818609E-02  0.8894571E-01
        1   -1    0    0  501    0  0.00000000000E+00  0.00000000000E+00  0.45129729097E+03  0.45129729099E+03  0.50400001928E-02 0. -1.
       -1   -1    0    0    0  501  0.00000000000E+00  0.00000000000E+00 -0.12214034121E+04  0.12214034121E+04  0.50400001928E-02 0.  1.
    10030    2    1    2    0    0  0.00000000000E+00  0.00000000000E+00 -0.77010612112E+03  0.16727007031E+04  0.14848785150E+04 0.  0.
        3    1    3    3  502    0 -0.36563218772E+03 -0.44154911714E+03  0.14638702339E+03  0.59167701524E+03  0.10100000352E+00 0. -1.
       -3    1    3    3    0  502  0.36563218772E+03  0.44154911714E+03 -0.91649314451E+03  0.10810236878E+04  0.10100000352E+00 0.  1.
</event>
<event>
 5   0  0.2603873E-04  0.1483536E+04  0.7818609E-02  0.8895476E-01
        1   -1    0    0  501    0  0.00000000000E+00  0.00000000000E+00  0.11492710309E+04  0.11492710309E+04  0.50400001928E-02 0. -1.
       -1   -1    0    0    0  501  0.00000000000E+00  0.00000000000E+00 -0.47875534221E+03  0.47875534224E+03  0.50400001928E-02 0.  1.
    10030    2    1    2    0    0  0.00000000000E+00  0.00000000000E+00  0.67051568869E+03  0.16280263731E+04  0.14835358381E+04 0.  0.
        2    1    3    3  502    0  0.60356361789E+03 -0.73448646201E+02  0.80153612134E+03  0.10060536260E+04  0.25500000920E-02 0. -1.
       -2    1    3    3    0  502 -0.60356361789E+03  0.73448646201E+02 -0.13102043265E+03  0.62197274719E+03  0.25500000920E-02 0.  1.
</event>
<event>
 5   0  0.2565416E-04  0.1486518E+04  0.7818609E-02  0.8893468E-01
       -1   -1    0    0    0  501  0.00000000000E+00  0.00000000000E+00  0.13290692299E+04  0.13290692299E+04  0.50400001928E-02 0. -1.
        1   -1    0    0  501    0  0.00000000000E+00  0.00000000000E+00 -0.41565477969E+03  0.41565477972E+03  0.50400001928E-02 0.  1.
    10030    2    1    2    0    0  0.00000000000E+00  0.00000000000E+00  0.91341445020E+03  0.17447240096E+04  0.14865180496E+04 0.  0.
        5    1    3    3  502    0  0.61428844709E+02 -0.48576637947E+02 -0.41078118742E+03  0.41820624894E+03  0.46999998093E+01 0.  1.
       -5    1    3    3    0  502 -0.61428844709E+02  0.48576637947E+02  0.13241956376E+04  0.13265177607E+04  0.46999998093E+01 0. -1.
</event>
<event>
 5   0  0.4785496E-04  0.1491550E+04  0.7818609E-02  0.8890092E-01
       -2   -1    0    0    0  501  0.00000000000E+00  0.00000000000E+00  0.31082457126E+03  0.31082457127E+03  0.25500000920E-02 0. -1.
        2   -1    0    0  501    0  0.00000000000E+00  0.00000000000E+00 -0.17893700156E+04  0.17893700156E+04  0.25500000920E-02 0.  1.
    10030    2    1    2    0    0  0.00000000000E+00  0.00000000000E+00 -0.14785454444E+04  0.21001945869E+04  0.14915497551E+04 0.  0.
        4    1    3    3  502    0  0.34917465650E+03  0.43547345551E+03 -0.14356850089E+04  0.15403743470E+04  0.12699999809E+01 0.  1.
       -4    1    3    3    0  502 -0.34917465650E+03 -0.43547345551E+03 -0.42860435483E+02  0.55982023992E+03  0.12699999809E+01 0. -1.
</event>
<event>
 5   0  0.4948645E-04  0.1499924E+04  0.7818609E-02  0.8884504E-01
       -2   -1    0    0    0  501  0.00000000000E+00  0.00000000000E+00  0.33317280380E+03  0.33317280381E+03  0.25500000920E-02 0.  1.
        2   -1    0    0  501    0  0.00000000000E+00  0.00000000000E+00 -0.16881411438E+04  0.16881411438E+04  0.25500000920E-02 0. -1.
    10030    2    1    2    0    0  0.00000000000E+00  0.00000000000E+00 -0.13549683400E+04  0.20213139477E+04  0.14999236222E+04 0.  0.
        1    1    3    3  502    0  0.53564135286E+03 -0.29122576309E+03 -0.88964247656E+02  0.61614831118E+03  0.50400001928E-02 0.  1.
       -1    1    3    3    0  502 -0.53564135286E+03  0.29122576309E+03 -0.12660040924E+04  0.14051656365E+04  0.50400001928E-02 0. -1.
</event>
<event>
 5   0  0.2544374E-04  0.1472665E+04  0.7818609E-02  0.8902837E-01
        1   -1    0    0  501    0  0.00000000000E+00  0.00000000000E+00  0.12511978671E+04  0.12511978671E+04  0.50400001928E-02 0.  1.
       -1   -1    0    0    0  501  0.00000000000E+00  0.00000000000E+00 -0.43333319189E+03  0.43333319192E+03  0.50400001928E-02 0. -1.
    10030    2    1    2    0    0  0.00000000000E+00  0.00000000000E+00  0.81786467523E+03  0.16845310591E+04  0.14726650203E+04 0.  0.
        4    1    3    3  502    0 -0.45070444080E+03  0.41804014255E+03  0.87257471718E+03  0.10673707433E+04  0.12699999809E+01 0.  1.
       -4    1    3    3    0  502  0.45070444080E+03 -0.41804014255E+03 -0.54710041947E+02  0.61716031574E+03  0.12699999809E+01 0. -1.
</event>
<event>
 5   0  0.4726600E-04  0.1497045E+04  0.7818609E-02  0.8886421E-01
        2   -1    0    0  501    0  0.00000000000E+00  0.00000000000E+00  0.12098373800E+04  0.12098373800E+04  0.25500000920E-02 0. -1.
       -2   -1    0    0    0  501  0.00000000000E+00  0.00000000000E+00 -0.46310829831E+03  0.46310829832E+03  0.25500000920E-02 0.  1.
    10030    2    1    2    0    0  0.00000000000E+00  0.00000000000E+00  0.74672908164E+03  0.16729456783E+04  0.14970447292E+04 0.  0.
        2    1    3    3  502    0 -0.20323481455E+03  0.16267398360E+03 -0.41089235077E+03  0.48641519170E+03  0.25500000920E-02 0.  1.
       -2    1    3    3    0  502  0.20323481455E+03 -0.16267398360E+03  0.11576214324E+04  0.11865304866E+04  0.25500000920E-02 0. -1.
</event>
<event>
 5   0  0.2565416E-04  0.1516045E+04  0.7818609E-02  0.8873852E-01
       -1   -1    0    0    0  501  0.00000000000E+00  0.00000000000E+00  0.10221276803E+04  0.10221276803E+04  0.50400001928E-02 0. -1.
        1   -1    0    0  501    0  0.00000000000E+00  0.00000000000E+00 -0.56215919190E+03  0.56215919192E+03  0.50400001928E-02 0.  1.
    10030    2    1    2    0    0  0.00000000000E+00  0.00000000000E+00  0.45996848836E+03  0.15842868722E+04  0.15160454753E+04 0.  0.
        5    1    3    3  502    0  0.21362016720E+03  0.41885128508E+03  0.85131126215E+03  0.97253428213E+03  0.46999998093E+01 0. -1.
       -5    1    3    3    0  502 -0.21362016720E+03 -0.41885128508E+03 -0.39134277379E+03  0.61175259006E+03  0.46999998093E+01 0.  1.
</event>
<event>
 5   0  0.4726600E-04  0.1503920E+04  0.7818609E-02  0.8881850E-01
        2   -1    0    0  501    0  0.00000000000E+00  0.00000000000E+00  0.78718114734E+03  0.78718114734E+03  0.25500000920E-02 0. -1.
       -2   -1    0    0    0  501  0.00000000000E+00  0.00000000000E+00 -0.71831487749E+03  0.71831487749E+03  0.25500000920E-02 0.  1.
    10030    2    1    2    0    0  0.00000000000E+00  0.00000000000E+00  0.68866269850E+02  0.15054960248E+04  0.15039201168E+04 0.  0.
        2    1    3    3  502    0  0.67475915748E+03  0.29943149969E+03 -0.10884191154E+03  0.74619414721E+03  0.25500000920E-02 0.  1.
       -2    1    3    3    0  502 -0.67475915748E+03 -0.29943149969E+03  0.17770818139E+03  0.75930187762E+03  0.25500000920E-02 0. -1.
</event>
<event>
 5   0  0.2544374E-04  0.1493490E+04  0.7818609E-02  0.8888793E-01
        1   -1    0    0  501    0  0.00000000000E+00  0.00000000000E+00  0.82477579491E+03  0.82477579493E+03  0.50400001928E-02 0.  1.
       -1   -1    0    0    0  501  0.00000000000E+00  0.00000000000E+00 -0.67609679084E+03  0.67609679086E+03  0.50400001928E-02 0. -1.
    10030    2    1    2    0    0  0.00000000000E+00  0.00000000000E+00  0.14867900408E+03  0.15008725858E+04  0.14934902318E+04 0.  0.
        4    1    3    3  502    0 -0.39632273698E+03 -0.63191009788E+03  0.38886633749E+02  0.74692427115E+03  0.12699999809E+01 0. -1.
       -4    1    3    3    0  502  0.39632273698E+03  0.63191009788E+03  0.10979237033E+03  0.75394831463E+03  0.12699999809E+01 0.  1.
</event>
<event>
 5   0  0.2603873E-04  0.1505118E+04  0.7818609E-02  0.8881056E-01
        1   -1    0    0  501    0  0.00000000000E+00  0.00000000000E+00  0.58583134949E+03  0.58583134951E+03  0.50400001928E-02 0. -1.
       -1   -1    0    0    0  501  0.00000000000E+00  0.00000000000E+00 -0.96673774736E+03  0.96673774738E+03  0.50400001928E-02 0.  1.
    10030    2    1    2    0    0  0.00000000000E+00  0.00000000000E+00 -0.38090639787E+03  0.15525690969E+04  0.15051183065E+04 0.  0.
        2    1    3    3  502    0 -0.52501139997E+03 -0.86789072268E+02 -0.73937249131E+03  0.91095608789E+03  0.25500000920E-02 0.  1.
       -2    1    3    3    0  502  0.52501139997E+03  0.86789072268E+02  0.35846609343E+03  0.64161300899E+03  0.25500000920E-02 0. -1.
</event>
<event>
 5   0  0.2603873E-04  0.1515794E+04  0.7818609E-02  0.8874018E-01
        1   -1    0    0  501    0  0.00000000000E+00  0.00000000000E+00  0.24663271546E+04  0.24663271546E+04  0.50400001928E-02 0. -1.
       -1   -1    0    0    0  501  0.00000000000E+00  0.00000000000E+00 -0.23290007037E+03  0.23290007042E+03  0.50400001928E-02 0.  1.
    10030    2    1    2    0    0  0.00000000000E+00  0.00000000000E+00  0.22334270843E+04  0.26992272251E+04  0.15157938751E+04 0.  0.
        2    1    3    3  502    0  0.57735836845E+03 -0.28513293393E+03  0.18284826876E+04  0.19385542072E+04  0.25500000920E-02 0. -1.
       -2    1    3    3    0  502 -0.57735836845E+03  0.28513293393E+03  0.40494439671E+03  0.76067301784E+03  0.25500000920E-02 0.  1.
</event>
<event>
 5   0  0.4726600E-04  0.1500773E+04  0.7818609E-02  0.8883939E-01
       -2   -1    0    0    0  501  0.00000000000E+00  0.00000000000E+00  0.76966127374E+03  0.76966127375E+03  0.25500000920E-02 0.  1.
        2   -1    0    0  501    0  0.00000000000E+00  0.00000000000E+00 -0.73159482784E+03  0.73159482784E+03  0.25500000920E-02 0. -1.
    10030    2    1    2    0    0  0.00000000000E+00  0.00000000000E+00  0.38066445904E+02  0.15012561016E+04  0.15007734100E+04 0.  0.
        2    1    3    3  502    0  0.46835928116E+03 -0.19833868204E+03 -0.53285207772E+03  0.73663422794E+03  0.25500000920E-02 0. -1.
       -2    1    3    3    0  502 -0.46835928116E+03  0.19833868204E+03  0.57091852362E+03  0.76462187365E+03  0.25500000920E-02 0.  1.
</event>
<event>
 5   0  0.2565416E-04  0.1504006E+04  0.7818609E-02  0.8881793E-01
        1   -1    0    0  501    0  0.00000000000E+00  0.00000000000E+00  0.14523362906E+04  0.14523362906E+04  0.50400001928E-02 0.  1.
       -1   -1    0    0    0  501  0.00000000000E+00  0.00000000000E+00 -0.38937841225E+03  0.38937841228E+03  0.50400001928E-02 0. -1.
    10030    2    1    2    0    0  0.00000000000E+00  0.00000000000E+00  0.10629578783E+04  0.18417147029E+04  0.15040058496E+04 0.  0.
        5    1    3    3  502    0  0.70194057679E+03 -0.55222277363E+02  0.20815356084E+03  0.73424796095E+03  0.46999998093E+01 0.  1.
       -5    1    3    3    0  502 -0.70194057679E+03  0.55222277363E+02  0.85480431746E+03  0.11074667419E+04  0.46999998093E+01 0. -1.
</event>
<event>
 5   0  0.4569211E-04  0.1495523E+04  0.7818609E-02  0.8887436E-01
       -2   -1    0    0    0  501  0.00000000000E+00  0.00000000000E+00  0.84443559158E+03  0.84443559159E+03  0.25500000920E-02 0.  1.
        2   -1    0    0  501    0  0.00000000000E+00  0.00000000000E+00 -0.66215502084E+03  0.66215502084E+03  0.25500000920E-02 0. -1.
    10030    2    1    2    0    0  0.00000000000E+00  0.00000000000E+00  0.18228057075E+03  0.15065906124E+04  0.14955230078E+04 0.  0.
        5    1    3    3  502    0  0.17320066840E+02  0.52717822680E+03  0.62507044245E+03  0.81789486828E+03  0.46999998093E+01 0.  1.
       -5    1    3    3    0  502 -0.17320066840E+02 -0.52717822680E+03 -0.44278987170E+03  0.68869574415E+03  0.46999998093E+01 0. -1.
</event>
<event>
 5   0  0.4569211E-04  0.1507015E+04  0.7818609E-02  0.8879802E-01
        2   -1    0    0  501    0  0.00000000000E+00  0.00000000000E+00  0.49750340623E+03  0.49750340624E+03  0.25500000920E-02 0.  1.
       -2   -1    0    0    0  501  0.00000000000E+00  0.00000000000E+00 -0.11412448474E+04  0.11412448474E+04  0.25500000920E-02 0. -1.
    10030    2    1    2    0    0  0.00000000000E+00  0.00000000000E+00 -0.64374144119E+03  0.16387482537E+04  0.15070145307E+04 0.  0.
        5    1    3    3  502    0 -0.10904968710E+03  0.39585227806E+03 -0.10088892403E+04  0.10892522432E+04  0.46999998093E+01 0. -1.
       -5    1    3    3    0  502  0.10904968710E+03 -0.39585227806E+03  0.36514779907E+03  0.54949601042E+03  0.46999998093E+01 0.  1.
</event>
<event>
 5   0  0.4785496E-04  0.1603677E+04  0.7818609E-02  0.8818292E-01
       -2   -1    0    0    0  501  0.00000000000E+00  0.00000000000E+00  0.71496914800E+03  0.71496914800E+03  0.25500000920E-02 0. -1.
        2   -1    0    0  501    0  0.00000000000E+00  0.00000000000E+00 -0.89926292253E+03  0.89926292254E+03  0.25500000920E-02 0.  1.
    10030    2    1    2    0    0  0.00000000000E+00  0.00000000000E+00 -0.18429377454E+03  0.16142320705E+04  0.16036773311E+04 0.  0.
        4    1    3    3  502    0  0.52016884550E+03  0.95790110758E+02 -0.69876765333E+03  0.87637276281E+03  0.12699999809E+01 0.  1.
       -4    1    3    3    0  502 -0.52016884550E+03 -0.95790110758E+02  0.51447387880E+03  0.73785930773E+03  0.12699999809E+01 0. -1.
</event>
<event>
 5   0  0.2544374E-04  0.1469710E+04  0.7818609E-02  0.8904849E-01
        1   -1    0    0  501    0  0.00000000000E+00  0.00000000000E+00  0.11714108915E+04  0.11714108915E+04  0.50400001928E-02 0.  1.
       -1   -1    0    0    0  501  0.00000000000E+00  0.00000000000E+00 -0.46099246373E+03  0.46099246376E+03  0.50400001928E-02 0. -1.
    10030    2    1    2    0    0  0.00000000000E+00  0.00000000000E+00  0.71041842777E+03  0.16324033553E+04  0.14697096216E+04 0.  0.
        4    1    3    3  502    0  0.16348694208E+03  0.68012346382E+03  0.60533599283E+03  0.92505631363E+03  0.12699999809E+01 0.  1.
       -4    1    3    3    0  502 -0.16348694208E+03 -0.68012346382E+03  0.10508243494E+03  0.70734704163E+03  0.12699999809E+01 0. -1.
</event>
<event>
 5   0  0.2603873E-04  0.1498844E+04  0.7818609E-02  0.8885222E-01
       -1   -1    0    0    0  501  0.00000000000E+00  0.00000000000E+00  0.54508569432E+03  0.54508569434E+03  0.50400001928E-02 0.  1.
        1   -1    0    0  501    0  0.00000000000E+00  0.00000000000E+00 -0.10303578981E+04  0.10303578981E+04  0.50400001928E-02 0. -1.
    10030    2    1    2    0    0  0.00000000000E+00  0.00000000000E+00 -0.48527220381E+03  0.15754435925E+04  0.14988440217E+04 0.  0.
        2    1    3    3  502    0  0.35643862784E+03  0.60822113711E+03 -0.50989801663E+03  0.87004450140E+03  0.25500000920E-02 0. -1.
       -2    1    3    3    0  502 -0.35643862784E+03 -0.60822113711E+03  0.24625812820E+02  0.70539909108E+03  0.25500000920E-02 0.  1.
</event>
<event>
 5   0  0.4726600E-04  0.1500777E+04  0.7818609E-02  0.8883936E-01
       -2   -1    0    0    0  501  0.00000000000E+00  0.00000000000E+00  0.46083344187E+03  0.46083344187E+03  0.25500000920E-02 0.  1.
        2   -1    0    0  501    0  0.00000000000E+00  0.00000000000E+00 -0.12218799266E+04  0.12218799266E+04  0.25500000920E-02 0. -1.
    10030    2    1    2    0    0  0.00000000000E+00  0.00000000000E+00 -0.76104648477E+03  0.16827133685E+04  0.15007773081E+04 0.  0.
        2    1    3    3  502    0  0.63383087725E+03 -0.15821061418E+03 -0.79448408968E+03  0.10285801613E+04  0.25500000920E-02 0. -1.
       -2    1    3    3    0  502 -0.63383087725E+03  0.15821061418E+03  0.33437604911E+02  0.65413320725E+03  0.25500000920E-02 0.  1.
</event>
<event>
 5   0  0.2603873E-04  0.1537958E+04  0.7818609E-02  0.8859596E-01
       -1   -1    0    0    0  501  0.00000000000E+00  0.00000000000E+00  0.57017007265E+03  0.57017007267E+03  0.50400001928E-02 0.  1.
        1   -1    0    0  501    0  0.00000000000E+00  0.00000000000E+00 -0.10371098559E+04  0.10371098560E+04  0.50400001928E-02 0. -1.
    10030    2    1    2    0    0  0.00000000000E+00  0.00000000000E+00 -0.46693978329E+03  0.16072799286E+04  0.15379583895E+04 0.  0.
        2    1    3    3  502    0 -0.59037153371E+03 -0.49114763566E+03 -0.19213390111E+03  0.79163121704E+03  0.25500000920E-02 0. -1.
       -2    1    3    3    0  502  0.59037153371E+03  0.49114763566E+03 -0.27480588218E+03  0.81564871159E+03  0.25500000920E-02 0.  1.
</event>
<event>
 5   0  0.4768387E-04  0.1505194E+04  0.7818609E-02  0.8881006E-01
       -2   -1    0    0    0  501  0.00000000000E+00  0.00000000000E+00  0.37237251798E+03  0.37237251799E+03  0.25500000920E-02 0. -1.
        2   -1    0    0  501    0  0.00000000000E+00  0.00000000000E+00 -0.15210633294E+04  0.15210633294E+04  0.25500000920E-02 0.  1.
    10030    2    1    2    0    0  0.00000000000E+00  0.00000000000E+00 -0.11486908114E+04  0.18934358474E+04  0.15051939170E+04 0.  0.
        3    1    3    3  502    0  0.51151799912E+03  0.25159530653E+03  0.43774776101E+02  0.57172292496E+03  0.10100000352E+00 0. -1.
       -3    1    3    3    0  502 -0.51151799912E+03 -0.25159530653E+03 -0.11924655875E+04  0.13217129224E+04  0.10100000352E+00 0.  1.
</event>
<event>
 5   0  0.4569211E-04  0.1487086E+04  0.7818609E-02  0.8893086E-01
        2   -1    0    0  501    0  0.00000000000E+00  0.00000000000E+00  0.13249815874E+04  0.13249815874E+04  0.25500000920E-02 0.  1.
       -2   -1    0    0    0  501  0.00000000000E+00  0.00000000000E+00 -0.41725584663E+03  0.41725584664E+03  0.25500000920E-02 0. -1.
    10030    2    1    2    0    0  0.00000000000E+00  0.00000000000E+00  0.90772574072E+03  0.17422374340E+04  0.14870861630E+04 0.  0.
        5    1    3    3  502    0 -0.70604227510E+03 -0.23180850993E+03  0.42508531549E+03  0.85612527994E+03  0.46999998093E+01 0.  1.
       -5    1    3    3    0  502  0.70604227510E+03  0.23180850993E+03  0.48264042523E+03  0.88611215406E+03  0.46999998093E+01 0. -1.
</event>
<event>
 5   0  0.2565416E-04  0.1505904E+04  0.7818609E-02  0.8880536E-01
       -1   -1    0    0    0  501  0.00000000000E+00  0.00000000000E+00  0.53810241897E+03  0.53810241900E+03  0.50400001928E-02 0. -1.
        1   -1    0    0  501    0  0.00000000000E+00  0.00000000000E+00 -0.10535855046E+04  0.10535855046E+04  0.50400001928E-02 0.  1.
    10030    2    1    2    0    0  0.00000000000E+00  0.00000000000E+00 -0.51548308559E+03  0.15916879236E+04  0.15059042581E+04 0.  0.
        5    1    3    3  502    0  0.21315519648E+03  0.50284254680E+03 -0.80556049288E+03  0.97326027472E+03  0.46999998093E+01 0.  1.
       -5    1    3    3    0  502 -0.21315519648E+03 -0.50284254680E+03  0.29007740729E+03  0.61842764886E+03  0.46999998093E+01 0. -1.
</event>
<event>
 5   0  0.2605471E-04  0.1478811E+04  0.7818609E-02  0.8898667E-01
        1   -1    0    0  501    0  0.00000000000E+00  0.00000000000E+00  0.19579834915E+04  0.19579834915E+04  0.50400001928E-02 0. -1.
       -1   -1    0    0    0  501  0.00000000000E+00  0.00000000000E+00 -0.27922624479E+03  0.27922624483E+03  0.50400001928E-02 0.  1.
    10030    2    1    2    0    0  0.00000000000E+00  0.00000000000E+00  0.16787572467E+04  0.22372097363E+04  0.14788108435E+04 0.  0.
        3    1    3    3  502    0  0.54715506007E+03 -0.36534378330E+02  0.15897353150E+04  0.16816574570E+04  0.10100000352E+00 0. -1.
       -3    1    3    3    0  502 -0.54715506007E+03  0.36534378330E+02  0.89021931667E+02  0.55555227934E+03  0.10100000352E+00 0.  1.
</event>
<event>
 5   0  0.4768387E-04  0.1496702E+04  0.7818609E-02  0.8886649E-01
       -2   -1    0    0    0  501  0.00000000000E+00  0.00000000000E+00  0.30819327279E+03  0.30819327280E+03  0.25500000920E-02 0. -1.
        2   -1    0    0  501    0  0.00000000000E+00  0.00000000000E+00 -0.18171365717E+04  0.18171365717E+04  0.25500000920E-02 0.  1.
    10030    2    1    2    0    0  0.00000000000E+00  0.00000000000E+00 -0.15089432989E+04  0.21253298445E+04  0.14967020641E+04 0.  0.
        3    1    3    3  502    0  0.51601120863E+03 -0.15102737601E+03 -0.15313275737E+02  0.53787669809E+03  0.10100000352E+00 0. -1.
       -3    1    3    3    0  502 -0.51601120863E+03  0.15102737601E+03 -0.14936300232E+04  0.15874531464E+04  0.10100000352E+00 0.  1.
</event>
<event>
 5   0  0.4948645E-04  0.1348874E+04  0.7818609E-02  0.8991681E-01
        2   -1    0    0  501    0  0.00000000000E+00  0.00000000000E+00  0.14752354107E+04  0.14752354107E+04  0.25500000920E-02 0. -1.
       -2   -1    0    0    0  501  0.00000000000E+00  0.00000000000E+00 -0.30833408210E+03  0.30833408211E+03  0.25500000920E-02 0.  1.
    10030    2    1    2    0    0  0.00000000000E+00  0.00000000000E+00  0.11669013286E+04  0.17835694929E+04  0.13488741324E+04 0.  0.
        1    1    3    3  502    0  0.35144244262E+03 -0.11918897503E+03  0.13280956892E+04  0.13789691664E+04  0.50400001928E-02 0. -1.
       -1    1    3    3    0  502 -0.35144244262E+03  0.11918897503E+03 -0.16119436057E+03  0.40460032643E+03  0.50400001928E-02 0.  1.
</event>
<event>
 5   0  0.4948645E-04  0.1493058E+04  0.7818609E-02  0.8889083E-01
        2   -1    0    0  501    0  0.00000000000E+00  0.00000000000E+00  0.83071160228E+03  0.83071160229E+03  0.25500000920E-02 0. -1.
       -2   -1    0    0    0  501  0.00000000000E+00  0.00000000000E+00 -0.67087694461E+03  0.67087694461E+03  0.25500000920E-02 0.  1.
    10030    2    1    2    0    0  0.00000000000E+00  0.00000000000E+00  0.15983465768E+03  0.15015885469E+04  0.14930576166E+04 0.  0.
        1    1    3    3  502    0 -0.65542435529E+03  0.21936438644E+03  0.36367022523E+03  0.78099798481E+03  0.50400001928E-02 0.  1.
       -1    1    3    3    0  502  0.65542435529E+03 -0.21936438644E+03 -0.20383556755E+03  0.72059056208E+03  0.50400001928E-02 0. -1.
</event>
<event>
 5   0  0.4726600E-04  0.1491968E+04  0.7818609E-02  0.8889812E-01
       -2   -1    0    0    0  501  0.00000000000E+00  0.00000000000E+00  0.42871999421E+03  0.42871999422E+03  0.25500000920E-02 0.  1.
        2   -1    0    0  501    0  0.00000000000E+00  0.00000000000E+00 -0.12980317716E+04  0.12980317716E+04  0.25500000920E-02 0. -1.
    10030    2    1    2    0    0  0.00000000000E+00  0.00000000000E+00 -0.86931177742E+03  0.17267517658E+04  0.14919680608E+04 0.  0.
        2    1    3    3  502    0 -0.35054812507E+02  0.61234537288E+03  0.56776758317E+02  0.61597020695E+03  0.25500000920E-02 0. -1.
       -2    1    3    3    0  502  0.35054812507E+02 -0.61234537288E+03 -0.92608853573E+03  0.11107815589E+04  0.25500000920E-02 0.  1.
</event>
<event>
 5   0  0.2542737E-04  0.1500478E+04  0.7818609E-02  0.8884135E-01
        1   -1    0    0  501    0  0.00000000000E+00  0.00000000000E+00  0.15050703861E+04  0.15050703861E+04  0.50400001928E-02 0.  1.
       -1   -1    0    0    0  501  0.00000000000E+00  0.00000000000E+00 -0.37397512478E+03  0.37397512481E+03  0.50400001928E-02 0. -1.
    10030    2    1    2    0    0  0.00000000000E+00  0.00000000000E+00  0.11310952613E+04  0.18790455109E+04  0.15004784377E+04 0.  0.
        1    1    3    3  502    0  0.20257094002E+03 -0.24964495266E+03 -0.28334137919E+03  0.42853229203E+03  0.50400001928E-02 0. -1.
       -1    1    3    3    0  502 -0.20257094002E+03  0.24964495266E+03  0.14144366405E+04  0.14505132189E+04  0.50400001928E-02 0.  1.
</event>
<event>
 5   0  0.4948645E-04  0.1500338E+04  0.7818609E-02  0.8884228E-01
        2   -1    0    0  501    0  0.00000000000E+00  0.00000000000E+00  0.16520216564E+04  0.16520216564E+04  0.25500000920E-02 0. -1.
       -2   -1    0    0    0  501  0.00000000000E+00  0.00000000000E+00 -0.34064540847E+03  0.34064540848E+03  0.25500000920E-02 0.  1.
    10030    2    1    2    0    0  0.00000000000E+00  0.00000000000E+00  0.13113762479E+04  0.19926670649E+04  0.15003380845E+04 0.  0.
        1    1    3    3  502    0 -0.40409315554E+03 -0.53670071502E+03  0.10990075591E+04  0.12880825094E+04  0.50400001928E-02 0. -1.
       -1    1    3    3    0  502  0.40409315554E+03  0.53670071502E+03  0.21236868876E+03  0.70458455550E+03  0.50400001928E-02 0.  1.
</event>
<event>
 5   0  0.4785496E-04  0.1493880E+04  0.7818609E-02  0.8888533E-01
       -2   -1    0    0    0  501  0.00000000000E+00  0.00000000000E+00  0.37614743093E+03  0.37614743093E+03  0.25500000920E-02 0.  1.
        2   -1    0    0  501    0  0.00000000000E+00  0.00000000000E+00 -0.14832467024E+04  0.14832467024E+04  0.25500000920E-02 0. -1.
    10030    2    1    2    0    0  0.00000000000E+00  0.00000000000E+00 -0.11070992715E+04  0.18593941334E+04  0.14938800977E+04 0.  0.
        4    1    3    3  502    0  0.30054393738E+02 -0.11667875090E+02  0.37527966765E+03  0.37666410466E+03  0.12699999809E+01 0.  1.
       -4    1    3    3    0  502 -0.30054393738E+02  0.11667875090E+02 -0.14823789391E+04  0.14827300287E+04  0.12699999809E+01 0. -1.
</event>
<event>
 5   0  0.4768387E-04  0.1510044E+04  0.7818609E-02  0.8877801E-01
        2   -1    0    0  501    0  0.00000000000E+00  0.00000000000E+00  0.10238899588E+04  0.10238899588E+04  0.25500000920E-02 0.  1.
       -2   -1    0    0    0  501  0.00000000000E+00  0.00000000000E+00 -0.55675709759E+03  0.55675709759E+03  0.25500000920E-02 0. -1.
    10030    2    1    2    0    0  0.00000000000E+00  0.00000000000E+00  0.46713286119E+03  0.15806470564E+04  0.15100437102E+04 0.  0.
        3    1    3    3  502    0  0.27201403026E+03  0.26796121175E+03 -0.44824306147E+03  0.58882654154E+03  0.10100000352E+00 0. -1.
       -3    1    3    3    0  502 -0.27201403026E+03 -0.26796121175E+03  0.91537592266E+03  0.99182051484E+03  0.10100000352E+00 0.  1.
</event>
<event>
 5   0  0.2605471E-04  0.1491124E+04  0.7818609E-02  0.8890377E-01
        1   -1    0    0  501    0  0.00000000000E+00  0.00000000000E+00  0.23261523592E+04  0.23261523592E+04  0.50400001928E-02 0. -1.
       -1   -1    0    0    0  501  0.00000000000E+00  0.00000000000E+00 -0.23896235678E+03  0.23896235684E+03  0.50400001928E-02 0.  1.
    10030    2    1    2    0    0  0.00000000000E+00  0.00000000000E+00  0.20871900024E+04  0.25651147160E+04  0.14911242069E+04 0.  0.
        3    1    3    3  502    0  0.44197921886E+02 -0.23871718139E+03  0.22562513236E+04  0.22692750813E+04  0.10100000352E+00 0. -1.
       -3    1    3    3    0  502 -0.44197921886E+02  0.23871718139E+03 -0.16906132118E+03  0.29583963478E+03  0.10100000352E+00 0.  1.
</event>
<event>
 5   0  0.1792000E-04  0.1491186E+04  0.7818609E-02  0.8890335E-01
        4   -1    0    0  501    0  0.00000000000E+00  0.00000000000E+00  0.44306826381E+03  0.44307008395E+03  0.12699999809E+01 0.  1.
       -4   -1    0    0    0  501  0.00000000000E+00  0.00000000000E+00 -0.12546759508E+04  0.12546765936E+04  0.12699999809E+01 0. -1.
    10030    2    1    2    0    0  0.00000000000E+00  0.00000000000E+00 -0.81160768700E+03  0.16977466775E+04  0.14911863544E+04 0.  0.
        3    1    3    3  502    0 -0.70632909851E+03  0.77522940304E+02 -0.14869324185E+03  0.72596163263E+03  0.10100000352E+00 0.  1.
       -3    1    3    3    0  502  0.70632909851E+03 -0.77522940304E+02 -0.66291444514E+03  0.97178504488E+03  0.10100000352E+00 0. -1.
</event>
<event>
 5   0  0.4948645E-04  0.1491440E+04  0.7818609E-02  0.8890165E-01
       -2   -1    0    0    0  501  0.00000000000E+00  0.00000000000E+00  0.45862353754E+03  0.45862353754E+03  0.25500000920E-02 0. -1.
        2   -1    0    0  501    0  0.00000000000E+00  0.00000000000E+00 -0.12125383603E+04  0.12125383603E+04  0.25500000920E-02 0.  1.
    10030    2    1    2    0    0  0.00000000000E+00  0.00000000000E+00 -0.75391482277E+03  0.16711618979E+04  0.14914404208E+04 0.  0.
        1    1    3    3  502    0 -0.46016632037E+03  0.54289034598E+03 -0.12737038237E+03  0.72298422147E+03  0.50400001928E-02 0.  1.
       -1    1    3    3    0  502  0.46016632037E+03 -0.54289034598E+03 -0.62654444041E+03  0.94817767638E+03  0.50400001928E-02 0. -1.
</event>
<event>
 5   0  0.4785496E-04  0.1500589E+04  0.7818609E-02  0.8884062E-01
        2   -1    0    0  501    0  0.00000000000E+00  0.00000000000E+00  0.78982889197E+03  0.78982889198E+03  0.25500000920E-02 0. -1.
       -2   -1    0    0    0  501  0.00000000000E+00  0.00000000000E+00 -0.71273864629E+03  0.71273864630E+03  0.25500000920E-02 0.  1.
    10030    2    1    2    0    0  0.00000000000E+00  0.00000000000E+00  0.77090245677E+02  0.15025675383E+04  0.15005886515E+04 0.  0.
        4    1    3    3  502    0  0.17282752418E+03 -0.46321972899E+03 -0.52655546854E+03  0.72229090039E+03  0.12699999809E+01 0.  1.
       -4    1    3    3    0  502 -0.17282752418E+03  0.46321972899E+03  0.60364571421E+03  0.78027663788E+03  0.12699999809E+01 0. -1.
</event>
<event>
 5   0  0.4768387E-04  0.1471583E+04  0.7818609E-02  0.8903573E-01
       -2   -1    0    0    0  501  0.00000000000E+00  0.00000000000E+00  0.25654287299E+03  0.25654287300E+03  0.25500000920E-02 0.  1.
        2   -1    0    0  501    0  0.00000000000E+00  0.00000000000E+00 -0.21103254371E+04  0.21103254371E+04  0.25500000920E-02 0. -1.
    10030    2    1    2    0    0  0.00000000000E+00  0.00000000000E+00 -0.18537825641E+04  0.23668683101E+04  0.14715827542E+04 0.  0.
        3    1    3    3  502    0  0.48998470062E+03 -0.48703356520E+03 -0.13341083832E+04  0.15023754154E+04  0.10100000352E+00 0.  1.
       -3    1    3    3    0  502 -0.48998470062E+03  0.48703356520E+03 -0.51967418087E+03  0.86449289467E+03  0.10100000352E+00 0. -1.
</event>
<event>
 5   0  0.2542737E-04  0.1503434E+04  0.7818609E-02  0.8882172E-01
        1   -1    0    0  501    0  0.00000000000E+00  0.00000000000E+00  0.82047383420E+03  0.82047383421E+03  0.50400001928E-02 0. -1.
       -1   -1    0    0    0  501  0.00000000000E+00  0.00000000000E+00 -0.68872238267E+03  0.68872238269E+03  0.50400001928E-02 0.  1.
    10030    2    1    2    0    0  0.00000000000E+00  0.00000000000E+00  0.13175145152E+03  0.15091962169E+04  0.15034343272E+04 0.  0.
        1    1    3    3  502    0  0.17639039284E+02 -0.49439144085E+03 -0.50228340603E+03  0.70499833510E+03  0.50400001928E-02 0.  1.
       -1    1    3    3    0  502 -0.17639039284E+02  0.49439144085E+03  0.63403485755E+03  0.80419788181E+03  0.50400001928E-02 0. -1.
</event>
<event>
 5   0  0.4726600E-04  0.1501626E+04  0.7818609E-02  0.8883373E-01
        2   -1    0    0  501    0  0.00000000000E+00  0.00000000000E+00  0.12496481100E+04  0.12496481100E+04  0.25500000920E-02 0. -1.
       -2   -1    0    0    0  501  0.00000000000E+00  0.00000000000E+00 -0.45110282452E+03  0.45110282453E+03  0.25500000920E-02 0.  1.
    10030    2    1    2    0    0  0.00000000000E+00  0.00000000000E+00  0.79854528546E+03  0.17007509345E+04  0.15016255087E+04 0.  0.
        2    1    3    3  502    0 -0.23802216860E+03 -0.59123825181E+03  0.84876561075E+03  0.10614237067E+04  0.25500000920E-02 0. -1.
       -2    1    3    3    0  502  0.23802216860E+03  0.59123825181E+03 -0.50220325288E+02  0.63932722781E+03  0.25500000920E-02 0.  1.
</event>
<event>
 5   0  0.2542737E-04  0.1366325E+04  0.7818609E-02  0.8978561E-01
        1   -1    0    0  501    0  0.00000000000E+00  0.00000000000E+00  0.12240257946E+04  0.12240257946E+04  0.50400001928E-02 0. -1.
       -1   -1    0    0    0  501  0.00000000000E+00  0.00000000000E+00 -0.38129183676E+03  0.38129183680E+03  0.50400001928E-02 0.  1.
    10030    2    1    2    0    0  0.00000000000E+00  0.00000000000E+00  0.84273395779E+03  0.16053176314E+04  0.13663250616E+04 0.  0.
        1    1    3    3  502    0  0.47706664666E+03  0.40370530158E+03  0.74556829088E+03  0.97285283176E+03  0.50400001928E-02 0.  1.
       -1    1    3    3    0  502 -0.47706664666E+03 -0.40370530158E+03  0.97165666916E+02  0.63246479960E+03  0.50400001928E-02 0. -1.
</event>
<event>
 5   0  0.2603873E-04  0.1510633E+04  0.7818609E-02  0.8877413E-01
        1   -1    0    0  501    0  0.00000000000E+00  0.00000000000E+00  0.10032011375E+04  0.10032011376E+04  0.50400001928E-02 0. -1.
       -1   -1    0    0    0  501  0.00000000000E+00  0.00000000000E+00 -0.56868276332E+03  0.56868276334E+03  0.50400001928E-02 0.  1.
    10030    2    1    2    0    0  0.00000000000E+00  0.00000000000E+00  0.43451837423E+03  0.15718839009E+04  0.15106332382E+04 0.  0.
        2    1    3    3  502    0 -0.57823840167E+03 -0.36700870160E+03 -0.11416447715E+03  0.69432597824E+03  0.25500000920E-02 0.  1.
       -2    1    3    3    0  502  0.57823840167E+03  0.36700870160E+03  0.54868285138E+03  0.87755792265E+03  0.25500000920E-02 0. -1.
</event>
<event>
 5   0  0.4569211E-04  0.1499477E+04  0.7818609E-02  0.8884801E-01
       -2   -1    0    0    0  501  0.00000000000E+00  0.00000000000E+00  0.48945587477E+03  0.48945587478E+03  0.25500000920E-02 0.  1.
        2   -1    0    0  501    0  0.00000000000E+00  0.00000000000E+00 -0.11484344561E+04  0.11484344561E+04  0.25500000920E-02 0. -1.
    10030    2    1    2    0    0  0.00000000000E+00  0.00000000000E+00 -0.65897858137E+03  0.16378903309E+04  0.14994772307E+04 0.  0.
        5    1    3    3  502    0  0.60650447663E+03  0.22294804383E+03 -0.74475640235E+03  0.98602114544E+03  0.46999998093E+01 0. -1.
       -5    1    3    3    0  502 -0.60650447663E+03 -0.22294804383E+03  0.85777820976E+02  0.65186918549E+03  0.46999998093E+01 0.  1.
</event>
<event>
 5   0  0.2542737E-04  0.1496687E+04  0.7818609E-02  0.8886659E-01
       -1   -1    0    0    0  501  0.00000000000E+00  0.00000000000E+00  0.65799348324E+03  0.65799348326E+03  0.50400001928E-02 0.  1.
        1   -1    0    0  501    0  0.00000000000E+00  0.00000000000E+00 -0.85109911879E+03  0.85109911880E+03  0.50400001928E-02 0. -1.
    10030    2    1    2    0    0  0.00000000000E+00  0.00000000000E+00 -0.19310563555E+03  0.15090926021E+04  0.14966865721E+04 0.  0.
        1    1    3    3  502    0 -0.71014492578E+02 -0.10646210032E+03 -0.83998422446E+03  0.84967684112E+03  0.50400001928E-02 0. -1.
       -1    1    3    3    0  502  0.71014492578E+02  0.10646210032E+03  0.64687858892E+03  0.65941576095E+03  0.50400001928E-02 0.  1.
</event>
<event>
 5   0  0.4785496E-04  0.1502204E+04  0.7818609E-02  0.8882988E-01
        2   -1    0    0  501    0  0.00000000000E+00  0.00000000000E+00  0.53675037785E+03  0.53675037786E+03  0.25500000920E-02 0. -1.
       -2   -1    0    0    0  501  0.00000000000E+00  0.00000000000E+00 -0.10510553381E+04  0.10510553381E+04  0.25500000920E-02 0.  1.
    10030    2    1    2    0    0  0.00000000000E+00  0.00000000000E+00 -0.51430496024E+03  0.15878057160E+04  0.15022041804E+04 0.  0.
        4    1    3    3  502    0 -0.59077826814E+03  0.44510865457E+03 -0.39501520371E+03  0.83855786952E+03  0.12699999809E+01 0.  1.
       -4    1    3    3    0  502  0.59077826814E+03 -0.44510865457E+03 -0.11928975653E+03  0.74924784644E+03  0.12699999809E+01 0. -1.
</event>
<event>
 5   0  0.2565416E-04  0.1371266E+04  0.7818609E-02  0.8974884E-01
        1   -1    0    0  501    0  0.00000000000E+00  0.00000000000E+00  0.11362440321E+04  0.11362440321E+04  0.50400001928E-02 0. -1.
       -1   -1    0    0    0  501  0.00000000000E+00  0.00000000000E+00 -0.41372493147E+03  0.41372493150E+03  0.50400001928E-02 0.  1.
    10030    2    1    2    0    0  0.00000000000E+00  0.00000000000E+00  0.72251910059E+03  0.15499689636E+04  0.13712658157E+04 0.  0.
        5    1    3    3  502    0  0.54069883418E+03 -0.10668819925E+03  0.82224826388E+03  0.98987468833E+03  0.46999998093E+01 0. -1.
       -5    1    3    3    0  502 -0.54069883418E+03  0.10668819925E+03 -0.99729163299E+02  0.56009427524E+03  0.46999998093E+01 0.  1.
</event>
<event>
 5   0  0.4768387E-04  0.1521467E+04  0.7818609E-02  0.8870302E-01
        2   -1    0    0  501    0  0.00000000000E+00  0.00000000000E+00  0.22431495741E+04  0.22431495741E+04  0.25500000920E-02 0.  1.
       -2   -1    0    0    0  501  0.00000000000E+00  0.00000000000E+00 -0.25799234053E+03  0.25799234054E+03  0.25500000920E-02 0. -1.
    10030    2    1    2    0    0  0.00000000000E+00  0.00000000000E+00  0.19851572336E+04  0.25011419147E+04  0.15214669353E+04 0.  0.
        3    1    3    3  502    0 -0.40142513673E+03 -0.26251248271E+02  0.20539894039E+04  0.20930130792E+04  0.10100000352E+00 0.  1.
       -3    1    3    3    0  502  0.40142513673E+03  0.26251248271E+02 -0.68832170285E+02  0.40812883542E+03  0.10100000352E+00 0. -1.
</event>
<event>
 5   0  0.4768387E-04  0.1514697E+04  0.7818609E-02  0.8874738E-01
       -2   -1    0    0    0  501  0.00000000000E+00  0.00000000000E+00  0.57452055878E+03  0.57452055879E+03  0.25500000920E-02 0.  1.
        2   -1    0    0  501    0  0.00000000000E+00  0.00000000000E+00 -0.99835724828E+03  0.99835724829E+03  0.25500000920E-02 0. -1.
    10030    2    1    2    0    0  0.00000000000E+00  0.00000000000E+00 -0.42383668950E+03  0.15728778071E+04  0.15146970181E+04 0.  0.
        3    1    3    3  502    0 -0.54249196523E+03 -0.11239653357E+03  0.32429417139E+03  0.64194799859E+03  0.10100000352E+00 0.  1.
       -3    1    3    3    0  502  0.54249196523E+03  0.11239653357E+03 -0.74813086089E+03  0.93092980848E+03  0.10100000352E+00 0. -1.
</event>
<event>
 5   0  0.2605471E-04  0.1483723E+04  0.7818609E-02  0.8895350E-01
        1   -1    0    0  501    0  0.00000000000E+00  0.00000000000E+00  0.88257262968E+03  0.88257262969E+03  0.50400001928E-02 0.  1.
       -1   -1    0    0    0  501  0.00000000000E+00  0.00000000000E+00 -0.62358422146E+03  0.62358422148E+03  0.50400001928E-02 0. -1.
    10030    2    1    2    0    0  0.00000000000E+00  0.00000000000E+00  0.25898840821E+03  0.15061568512E+04  0.14837228396E+04 0.  0.
        3    1    3    3  502    0  0.33579327332E+03 -0.55181193926E+03 -0.24085746510E+03  0.68939529112E+03  0.10100000352E+00 0. -1.
       -3    1    3    3    0  502 -0.33579327332E+03  0.55181193926E+03  0.49984587331E+03  0.81676156006E+03  0.10100000352E+00 0.  1.
</event>
<event>
 5   0  0.4726600E-04  0.1462773E+04  0.7818609E-02  0.8909593E-01
        2   -1    0    0  501    0  0.00000000000E+00  0.00000000000E+00  0.11411299469E+04  0.11411299469E+04  0.25500000920E-02 0. -1.
       -2   -1    0    0    0  501  0.00000000000E+00  0.00000000000E+00 -0.46876900764E+03  0.46876900765E+03  0.25500000920E-02 0.  1.
    10030    2    1    2    0    0  0.00000000000E+00  0.00000000000E+00  0.67236093924E+03  0.16098989545E+04  0.14627731920E+04 0.  0.
        2    1    3    3  502    0  0.61720085132E+03  0.25584498932E+03  0.66365213916E+03  0.94171530265E+03  0.25500000920E-02 0. -1.
       -2    1    3    3    0  502 -0.61720085132E+03 -0.25584498932E+03  0.87088000839E+01  0.66818365188E+03  0.25500000920E-02 0.  1.
</event>
<event>
 5   0  0.4785496E-04  0.1493733E+04  0.7818609E-02  0.8888631E-01
       -2   -1    0    0    0  501  0.00000000000E+00  0.00000000000E+00  0.20918041369E+03  0.20918041370E+03  0.25500000920E-02 0. -1.
        2   -1    0    0  501    0  0.00000000000E+00  0.00000000000E+00 -0.26666436713E+04  0.26666436713E+04  0.25500000920E-02 0.  1.
    10030    2    1    2    0    0  0.00000000000E+00  0.00000000000E+00 -0.24574632576E+04  0.28758240850E+04  0.14937330770E+04 0.  0.
        4    1    3    3  502    0 -0.54763015086E+03 -0.15278894150E+02 -0.25143562288E+03  0.60278828132E+03  0.12699999809E+01 0. -1.
       -4    1    3    3    0  502  0.54763015086E+03  0.15278894150E+02 -0.22060276348E+04  0.22730358037E+04  0.12699999809E+01 0.  1.
</event>
<event>
 5   0  0.4785496E-04  0.1503468E+04  0.7818609E-02  0.8882150E-01
        2   -1    0    0  501    0  0.00000000000E+00  0.00000000000E+00  0.99106440517E+03  0.99106440517E+03  0.25500000920E-02 0.  1.
       -2   -1    0    0    0  501  0.00000000000E+00  0.00000000000E+00 -0.57019922082E+03  0.57019922083E+03  0.25500000920E-02 0. -1.
    10030    2    1    2    0    0  0.00000000000E+00  0.00000000000E+00  0.42086518434E+03  0.15612636260E+04  0.15034681927E+04 0.  0.
        4    1    3    3  502    0  0.77015581977E+01 -0.27930872316E+03 -0.51426996263E+03  0.58527590434E+03  0.12699999809E+01 0. -1.
       -4    1    3    3    0  502 -0.77015581977E+01  0.27930872316E+03  0.93513514698E+03  0.97598772166E+03  0.12699999809E+01 0.  1.
</event>
<event>
 5   0  0.2544374E-04  0.1493225E+04  0.7818609E-02  0.8888970E-01
        1   -1    0    0  501    0  0.00000000000E+00  0.00000000000E+00  0.11929344363E+04  0.11929344363E+04  0.50400001928E-02 0. -1.
       -1   -1    0    0    0  501  0.00000000000E+00  0.00000000000E+00 -0.46727677465E+03  0.46727677467E+03  0.50400001928E-02 0.  1.
    10030    2    1    2    0    0  0.00000000000E+00  0.00000000000E+00  0.72565766162E+03  0.16602112110E+04  0.14932254428E+04 0.  0.
        4    1    3    3  502    0  0.58373237280E+03 -0.35340158191E+03  0.69968323242E+03  0.97734047280E+03  0.12699999809E+01 0. -1.
       -4    1    3    3    0  502 -0.58373237280E+03  0.35340158191E+03  0.25974429208E+02  0.68287073815E+03  0.12699999809E+01 0.  1.
</event>
<event>
 5   0  0.2605471E-04  0.1479505E+04  0.7818609E-02  0.8898197E-01
        1   -1    0    0  501    0  0.00000000000E+00  0.00000000000E+00  0.13260964996E+04  0.13260964996E+04  0.50400001928E-02 0.  1.
       -1   -1    0    0    0  501  0.00000000000E+00  0.00000000000E+00 -0.41266508115E+03  0.41266508118E+03  0.50400001928E-02 0. -1.
    10030    2    1    2    0    0  0.00000000000E+00  0.00000000000E+00  0.91343141845E+03  0.17387615808E+04  0.14795049438E+04 0.  0.
        3    1    3    3  502    0 -0.22045440351E+03 -0.69402116013E+03  0.60980380980E+03  0.94980324878E+03  0.10100000352E+00 0.  1.
       -3    1    3    3    0  502  0.22045440351E+03  0.69402116013E+03  0.30362760865E+03  0.78895833202E+03  0.10100000352E+00 0. -1.
</event>
<event>
 5   0  0.2542737E-04  0.1481949E+04  0.7818609E-02  0.8896546E-01
        1   -1    0    0  501    0  0.00000000000E+00  0.00000000000E+00  0.16375776293E+04  0.16375776293E+04  0.50400001928E-02 0. -1.
       -1   -1    0    0    0  501  0.00000000000E+00  0.00000000000E+00 -0.33527779914E+03  0.33527779918E+03  0.50400001928E-02 0.  1.
    10030    2    1    2    0    0  0.00000000000E+00  0.00000000000E+00  0.13022998302E+04  0.19728554285E+04  0.14819492886E+04 0.  0.
        1    1    3    3  502    0  0.20002821088E+03 -0.41221788948E+03  0.14263811962E+04  0.14981649410E+04  0.50400001928E-02 0. -1.
       -1    1    3    3    0  502 -0.20002821088E+03  0.41221788948E+03 -0.12408136597E+03  0.47469048754E+03  0.50400001928E-02 0.  1.
</event>
<event>
 5   0  0.2544374E-04  0.1500433E+04  0.7818609E-02  0.8884165E-01
       -1   -1    0    0    0  501  0.00000000000E+00  0.00000000000E+00  0.17951588950E+04  0.17951588950E+04  0.50400001928E-02 0.  1.
        1   -1    0    0  501    0  0.00000000000E+00  0.00000000000E+00 -0.31352360748E+03  0.31352360752E+03  0.50400001928E-02 0. -1.
    10030    2    1    2    0    0  0.00000000000E+00  0.00000000000E+00  0.14816352875E+04  0.21086825025E+04  0.15004328613E+04 0.  0.
        4    1    3    3  502    0  0.22795576244E+02  0.43674994046E+03 -0.11583542122E+03  0.45242635477E+03  0.12699999809E+01 0. -1.
       -4    1    3    3    0  502 -0.22795576244E+02 -0.43674994046E+03  0.15974707087E+04  0.16562561477E+04  0.12699999809E+01 0.  1.
</event>
<event>
 5   0  0.2542737E-04  0.1502917E+04  0.7818609E-02  0.8882515E-01
        1   -1    0    0  501    0  0.00000000000E+00  0.00000000000E+00  0.47852770371E+03  0.47852770374E+03  0.50400001928E-02 0.  1.
       -1   -1    0    0    0  501  0.00000000000E+00  0.00000000000E+00 -0.11800575381E+04  0.11800575381E+04  0.50400001928E-02 0. -1.
    10030    2    1    2    0    0  0.00000000000E+00  0.00000000000E+00 -0.70152983441E+03  0.16585852419E+04  0.15029174615E+04 0.  0.
        1    1    3    3  502    0 -0.45329184290E+03 -0.37236732106E+03  0.16751616989E+03  0.61007588366E+03  0.50400001928E-02 0.  1.
       -1    1    3    3    0  502  0.45329184290E+03  0.37236732106E+03 -0.86904600430E+03  0.10485093582E+04  0.50400001928E-02 0. -1.
</event>
<event>
 5   0  0.4726600E-04  0.1504601E+04  0.7818609E-02  0.8881399E-01
        2   -1    0    0  501    0  0.00000000000E+00  0.00000000000E+00  0.13892998264E+04  0.13892998264E+04  0.25500000920E-02 0.  1.
       -2   -1    0    0    0  501  0.00000000000E+00  0.00000000000E+00 -0.40736778242E+03  0.40736778243E+03  0.25500000920E-02 0. -1.
    10030    2    1    2    0    0  0.00000000000E+00  0.00000000000E+00  0.98193204398E+03  0.17966676088E+04  0.15046009297E+04 0.  0.
        2    1    3    3  502    0 -0.34845277662E+01  0.66826492784E+03  0.78406675734E+02  0.67285790663E+03  0.25500000920E-02 0. -1.
       -2    1    3    3    0  502  0.34845277662E+01 -0.66826492784E+03  0.90352536825E+03  0.11238097022E+04  0.25500000920E-02 0.  1.
</event>
<event>
 5   0  0.2544374E-04  0.1493551E+04  0.7818609E-02  0.8888753E-01
       -1   -1    0    0    0  501  0.00000000000E+00  0.00000000000E+00  0.82812773988E+03  0.82812773990E+03  0.50400001928E-02 0.  1.
        1   -1    0    0  501    0  0.00000000000E+00  0.00000000000E+00 -0.67341523570E+03  0.67341523572E+03  0.50400001928E-02 0. -1.
    10030    2    1    2    0    0  0.00000000000E+00  0.00000000000E+00  0.15471250418E+03  0.15015429756E+04  0.14935512541E+04 0.  0.
        4    1    3    3  502    0  0.25486288824E+01 -0.68290086269E+02 -0.67026400888E+03  0.67373992452E+03  0.12699999809E+01 0. -1.
       -4    1    3    3    0  502 -0.25486288824E+01  0.68290086269E+02  0.82497651306E+03  0.82780305109E+03  0.12699999809E+01 0.  1.
</event>
<event>
 5   0  0.4726600E-04  0.1509419E+04  0.7818609E-02  0.8878213E-01
       -2   -1    0    0    0  501  0.00000000000E+00  0.00000000000E+00  0.26211964881E+03  0.26211964882E+03  0.25500000920E-02 0. -1.
        2   -1    0    0  501    0  0.00000000000E+00  0.00000000000E+00 -0.21730026990E+04  0.21730026990E+04  0.25500000920E-02 0.  1.
    10030    2    1    2    0    0  0.00000000000E+00  0.00000000000E+00 -0.19108830502E+04  0.24351223478E+04  0.15094193643E+04 0.  0.
        2    1    3    3  502    0 -0.47644400849E+03  0.49997367280E+03 -0.14464053714E+04  0.16028290817E+04  0.25500000920E-02 0.  1.
       -2    1    3    3    0  502  0.47644400849E+03 -0.49997367280E+03 -0.46447767879E+03  0.83229326612E+03  0.25500000920E-02 0. -1.
</event>
<event>
 5   0  0.2542737E-04  0.1564779E+04  0.7818609E-02  0.8842483E-01
       -1   -1    0    0    0  501  0.00000000000E+00  0.00000000000E+00  0.35161133997E+03  0.35161134001E+03  0.50400001928E-02 0. -1.
        1   -1    0    0  501    0  0.00000000000E+00  0.00000000000E+00 -0.17409373522E+04  0.17409373523E+04  0.50400001928E-02 0.  1.
    10030    2    1    2    0    0  0.00000000000E+00  0.00000000000E+00 -0.13893260123E+04  0.20925486923E+04  0.15647789815E+04 0.  0.
        1    1    3    3  502    0 -0.55226090660E+03  0.29643031515E+03 -0.68463892162E+02  0.63051593576E+03  0.50400001928E-02 0. -1.
       -1    1    3    3    0  502  0.55226090660E+03 -0.29643031515E+03 -0.13208621201E+04  0.14620327565E+04  0.50400001928E-02 0.  1.
</event>
<event>
 5   0  0.2605471E-04  0.1495885E+04  0.7818609E-02  0.8887194E-01
       -1   -1    0    0    0  501  0.00000000000E+00  0.00000000000E+00  0.10315146956E+04  0.10315146956E+04  0.50400001928E-02 0.  1.
        1   -1    0    0  501    0  0.00000000000E+00  0.00000000000E+00 -0.54232697304E+03  0.54232697306E+03  0.50400001928E-02 0. -1.
    10030    2    1    2    0    0  0.00000000000E+00  0.00000000000E+00  0.48918772252E+03  0.15738416686E+04  0.14958853466E+04 0.  0.
        3    1    3    3  502    0  0.46487069646E+02 -0.11161732598E+03  0.10211641768E+04  0.10282975062E+04  0.10100000352E+00 0.  1.
       -3    1    3    3    0  502 -0.46487069646E+02  0.11161732598E+03 -0.53197645425E+03  0.54554416245E+03  0.10100000352E+00 0. -1.
</event>
<event>
 5   0  0.4726600E-04  0.1491173E+04  0.7818609E-02  0.8890344E-01
       -2   -1    0    0    0  501  0.00000000000E+00  0.00000000000E+00  0.27769538572E+03  0.27769538573E+03  0.25500000920E-02 0.  1.
        2   -1    0    0  501    0  0.00000000000E+00  0.00000000000E+00 -0.20018316194E+04  0.20018316194E+04  0.25500000920E-02 0. -1.
    10030    2    1    2    0    0  0.00000000000E+00  0.00000000000E+00 -0.17241362337E+04  0.22795270051E+04  0.14911732343E+04 0.  0.
        2    1    3    3  502    0  0.13110040565E+03  0.51373967042E+03 -0.60736872127E+02  0.53367099693E+03  0.25500000920E-02 0.  1.
       -2    1    3    3    0  502 -0.13110040565E+03 -0.51373967042E+03 -0.16633993616E+04  0.17458560082E+04  0.25500000920E-02 0. -1.
</event>
<event>
 5   0  0.4768387E-04  0.1511284E+04  0.7818609E-02  0.8876983E-01
       -2   -1    0    0    0  501  0.00000000000E+00  0.00000000000E+00  0.61211391764E+03  0.61211391765E+03  0.25500000920E-02 0.  1.
        2   -1    0    0  501    0  0.00000000000E+00  0.00000000000E+00 -0.93282502987E+03  0.93282502988E+03  0.25500000920E-02 0. -1.
    10030    2    1    2    0    0  0.00000000000E+00  0.00000000000E+00 -0.32071111223E+03  0.15449389475E+04  0.15112844650E+04 0.  0.
        3    1    3    3  502    0 -0.34778343205E+03  0.51473307852E+02  0.52341340655E+03  0.63052709806E+03  0.10100000352E+00 0.  1.
       -3    1    3    3    0  502  0.34778343205E+03 -0.51473307852E+02 -0.84412451878E+03  0.91441184946E+03  0.10100000352E+00 0. -1.
</event>
<event>
 5   0  0.4569211E-04  0.1452415E+04  0.7818609E-02  0.8916728E-01
        2   -1    0    0  501    0  0.00000000000E+00  0.00000000000E+00  0.89010088429E+03  0.89010088429E+03  0.25500000920E-02 0.  1.
       -2   -1    0    0    0  501  0.00000000000E+00  0.00000000000E+00 -0.59249202667E+03  0.59249202667E+03  0.25500000920E-02 0. -1.
    10030    2    1    2    0    0  0.00000000000E+00  0.00000000000E+00  0.29760885762E+03  0.14825929110E+04  0.14524154734E+04 0.  0.
        5    1    3    3  502    0 -0.16887911456E+03  0.30910155282E+03  0.79705166449E+03  0.87142261340E+03  0.46999998093E+01 0.  1.
       -5    1    3    3    0  502  0.16887911456E+03 -0.30910155282E+03 -0.49944280687E+03  0.61117029756E+03  0.46999998093E+01 0. -1.
</event>
<event>
 5   0  0.2544374E-04  0.1471799E+04  0.7818609E-02  0.8903426E-01
       -1   -1    0    0    0  501  0.00000000000E+00  0.00000000000E+00  0.87593928938E+03  0.87593928939E+03  0.50400001928E-02 0. -1.
        1   -1    0    0  501    0  0.00000000000E+00  0.00000000000E+00 -0.61824812369E+03  0.61824812371E+03  0.50400001928E-02 0.  1.
    10030    2    1    2    0    0  0.00000000000E+00  0.00000000000E+00  0.25769116569E+03  0.14941874131E+04  0.14717986576E+04 0.  0.
        4    1    3    3  502    0  0.72077463370E+03  0.92297484277E+02  0.10839222044E+02  0.72674204490E+03  0.12699999809E+01 0.  1.
       -4    1    3    3    0  502 -0.72077463370E+03 -0.92297484277E+02  0.24685194364E+03  0.76744536820E+03  0.12699999809E+01 0. -1.
</event>
<event>
 5   0  0.2542737E-04  0.1511376E+04  0.7818609E-02  0.8876923E-01
        1   -1    0    0  501    0  0.00000000000E+00  0.00000000000E+00  0.10470738318E+04  0.10470738318E+04  0.50400001928E-02 0.  1.
       -1   -1    0    0    0  501  0.00000000000E+00  0.00000000000E+00 -0.54539069885E+03  0.54539069888E+03  0.50400001928E-02 0. -1.
    10030    2    1    2    0    0  0.00000000000E+00  0.00000000000E+00  0.50168313297E+03  0.15924645307E+04  0.15113759677E+04 0.  0.
        1    1    3    3  502    0 -0.52801927560E+03 -0.47628215074E+03  0.52032798289E+03  0.88113009954E+03  0.50400001928E-02 0.  1.
       -1    1    3    3    0  502  0.52801927560E+03  0.47628215074E+03 -0.18644849918E+02  0.71133443117E+03  0.50400001928E-02 0. -1.
</event>
<event>
 5   0  0.2605471E-04  0.1502648E+04  0.7818609E-02  0.8882694E-01
        1   -1    0    0  501    0  0.00000000000E+00  0.00000000000E+00  0.99972950812E+03  0.99972950813E+03  0.50400001928E-02 0.  1.
       -1   -1    0    0    0  501  0.00000000000E+00  0.00000000000E+00 -0.56464028717E+03  0.56464028719E+03  0.50400001928E-02 0. -1.
    10030    2    1    2    0    0  0.00000000000E+00  0.00000000000E+00  0.43508922095E+03  0.15643697953E+04  0.15026477386E+04 0.  0.
        3    1    3    3  502    0  0.53481603348E+03 -0.43050953152E+03  0.53523627657E+03  0.87054266314E+03  0.10100000352E+00 0.  1.
       -3    1    3    3    0  502 -0.53481603348E+03  0.43050953152E+03 -0.10014705562E+03  0.69382713218E+03  0.10100000352E+00 0. -1.
</event>
<event>
 5   0  0.4768387E-04  0.1491450E+04  0.7818609E-02  0.8890159E-01
        2   -1    0    0  501    0  0.00000000000E+00  0.00000000000E+00  0.37097327459E+03  0.37097327460E+03  0.25500000920E-02 0. -1.
       -2   -1    0    0    0  501  0.00000000000E+00  0.00000000000E+00 -0.14990445902E+04  0.14990445902E+04  0.25500000920E-02 0.  1.
    10030    2    1    2    0    0  0.00000000000E+00  0.00000000000E+00 -0.11280713156E+04  0.18700178648E+04  0.14914496041E+04 0.  0.
        3    1    3    3  502    0  0.59496737171E+03 -0.22495580862E+03 -0.10520850920E+04  0.12294203269E+04  0.10100000352E+00 0.  1.
       -3    1    3    3    0  502 -0.59496737171E+03  0.22495580862E+03 -0.75986223673E+02  0.64059753794E+03  0.10100000352E+00 0. -1.
</event>
<event>
 5   0  0.4726600E-04  0.1504816E+04  0.7818609E-02  0.8881257E-01
       -2   -1    0    0    0  501  0.00000000000E+00  0.00000000000E+00  0.75381927320E+03  0.75381927321E+03  0.25500000920E-02 0. -1.
        2   -1    0    0  501    0  0.00000000000E+00  0.00000000000E+00 -0.75099926639E+03  0.75099926639E+03  0.25500000920E-02 0.  1.
    10030    2    1    2    0    0  0.00000000000E+00  0.00000000000E+00  0.28200068166E+01  0.15048185396E+04  0.15048158973E+04 0.  0.
        2    1    3    3  502    0 -0.29718567553E+03 -0.66732359483E+03 -0.17880578188E+03  0.75207154819E+03  0.25500000920E-02 0.  1.
       -2    1    3    3    0  502  0.29718567553E+03  0.66732359483E+03  0.18162578869E+03  0.75274699141E+03  0.25500000920E-02 0. -1.
</event>
<event>
 5   0  0.1792000E-04  0.1500403E+04  0.7818609E-02  0.8884185E-01
        4   -1    0    0  501    0  0.00000000000E+00  0.00000000000E+00  0.76651230658E+03  0.76651335868E+03  0.12699999809E+01 0.  1.
       -4   -1    0    0    0  501  0.00000000000E+00  0.00000000000E+00 -0.73423523428E+03  0.73423633263E+03  0.12699999809E+01 0. -1.
    10030    2    1    2    0    0  0.00000000000E+00  0.00000000000E+00  0.32277072298E+02  0.15007496913E+04  0.15004025548E+04 0.  0.
        3    1    3    3  502    0 -0.42164328451E+03  0.67748459394E+02  0.63307053199E+03  0.76364338654E+03  0.10100000352E+00 0.  1.
       -3    1    3    3    0  502  0.42164328451E+03 -0.67748459394E+02 -0.60079345969E+03  0.73710630477E+03  0.10100000352E+00 0. -1.
</event>
<event>
 5   0  0.2603873E-04  0.1437098E+04  0.7818609E-02  0.8927394E-01
        1   -1    0    0  501    0  0.00000000000E+00  0.00000000000E+00  0.21592030912E+04  0.21592030912E+04  0.50400001928E-02 0.  1.
       -1   -1    0    0    0  501  0.00000000000E+00  0.00000000000E+00 -0.23912191527E+03  0.23912191532E+03  0.50400001928E-02 0. -1.
    10030    2    1    2    0    0  0.00000000000E+00  0.00000000000E+00  0.19200811759E+04  0.23983250065E+04  0.14370981576E+04 0.  0.
        2    1    3    3  502    0 -0.32354545365E+03  0.20756616084E+03  0.19731778373E+04  0.20102726554E+04  0.25500000920E-02 0.  1.
       -2    1    3    3    0  502  0.32354545365E+03 -0.20756616084E+03 -0.53096661369E+02  0.38805235105E+03  0.25500000920E-02 0. -1.
</event>
<event>
 5   0  0.4785496E-04  0.1467441E+04  0.7818609E-02  0.8906398E-01
        2   -1    0    0  501    0  0.00000000000E+00  0.00000000000E+00  0.13633029448E+04  0.13633029448E+04  0.25500000920E-02 0. -1.
       -2   -1    0    0    0  501  0.00000000000E+00  0.00000000000E+00 -0.39488337308E+03  0.39488337309E+03  0.25500000920E-02 0.  1.
    10030    2    1    2    0    0  0.00000000000E+00  0.00000000000E+00  0.96841957170E+03  0.17581863179E+04  0.14674408545E+04 0.  0.
        4    1    3    3  502    0 -0.47063884679E+03 -0.49992798292E+03  0.17427773756E+03  0.70838072738E+03  0.12699999809E+01 0. -1.
       -4    1    3    3    0  502  0.47063884679E+03  0.49992798292E+03  0.79414183414E+03  0.10498055905E+04  0.12699999809E+01 0.  1.
</event>
<event>
 5   0  0.2605471E-04  0.1496610E+04  0.7818609E-02  0.8886710E-01
       -1   -1    0    0    0  501  0.00000000000E+00  0.00000000000E+00  0.26646717230E+03  0.26646717235E+03  0.50400001928E-02 0.  1.
        1   -1    0    0  501    0  0.00000000000E+00  0.00000000000E+00 -0.21014244912E+04  0.21014244912E+04  0.50400001928E-02 0. -1.
    10030    2    1    2    0    0  0.00000000000E+00  0.00000000000E+00 -0.18349573189E+04  0.23678916635E+04  0.14966103595E+04 0.  0.
        3    1    3    3  502    0 -0.16138720672E+02  0.74588823671E+03 -0.82589150133E+03  0.11129719233E+04  0.10100000352E+00 0. -1.
       -3    1    3    3    0  502  0.16138720672E+02 -0.74588823671E+03 -0.10090658175E+04  0.12549197402E+04  0.10100000352E+00 0.  1.
</event>
<event>
 5   0  0.4948645E-04  0.1539116E+04  0.7818609E-02  0.8858850E-01
        2   -1    0    0  501    0  0.00000000000E+00  0.00000000000E+00  0.10762676449E+04  0.10762676449E+04  0.25500000920E-02 0. -1.
       -2   -1    0    0    0  501  0.00000000000E+00  0.00000000000E+00 -0.55025334546E+03  0.55025334546E+03  0.25500000920E-02 0.  1.
    10030    2    1    2    0    0  0.00000000000E+00  0.00000000000E+00  0.52601429943E+03  0.16265209904E+04  0.15391164637E+04 0.  0.
        1    1    3    3  502    0  0.42446461281E+02 -0.12840919272E+03  0.10636104346E+04  0.10721743232E+04  0.50400001928E-02 0. -1.
       -1    1    3    3    0  502 -0.42446461281E+02  0.12840919272E+03 -0.53759613512E+03  0.55434666714E+03  0.50400001928E-02 0.  1.
</event>
<event>
 5   0  0.1792000E-04  0.1496306E+04  0.7818609E-02  0.8886913E-01
       -4   -1    0    0    0  501  0.00000000000E+00  0.00000000000E+00  0.71611211480E+03  0.71611324095E+03  0.12699999809E+01 0.  1.
        4   -1    0    0  501    0  0.00000000000E+00  0.00000000000E+00 -0.78162548734E+03  0.78162651910E+03  0.12699999809E+01 0. -1.
    10030    2    1    2    0    0  0.00000000000E+00  0.00000000000E+00 -0.65513372544E+02  0.14977397601E+04  0.14963062477E+04 0.  0.
        5    1    3    3  502    0 -0.38756392435E+03  0.23337248092E+03 -0.62918196063E+03  0.77495841172E+03  0.46999998093E+01 0. -1.
       -5    1    3    3    0  502  0.38756392435E+03 -0.23337248092E+03  0.56366858808E+03  0.72278134834E+03  0.46999998093E+01 0.  1.
</event>
<event>
 5   0  0.2544374E-04  0.1488698E+04  0.7818609E-02  0.8892003E-01
        1   -1    0    0  501    0  0.00000000000E+00  0.00000000000E+00  0.49525371157E+03  0.49525371160E+03  0.50400001928E-02 0. -1.
       -1   -1    0    0    0  501  0.00000000000E+00  0.00000000000E+00 -0.11187309227E+04  0.11187309227E+04  0.50400001928E-02 0.  1.
    10030    2    1    2    0    0  0.00000000000E+00  0.00000000000E+00 -0.62347721110E+03  0.16139846343E+04  0.14886982794E+04 0.  0.
        4    1    3    3  502    0 -0.73947234931E+03  0.82249988310E+02 -0.33523291594E+03  0.81606809569E+03  0.12699999809E+01 0.  1.
       -4    1    3    3    0  502  0.73947234931E+03 -0.82249988310E+02 -0.28824429516E+03  0.79791653860E+03  0.12699999809E+01 0. -1.
</event>
<event>
 5   0  0.4785496E-04  0.1500455E+04  0.7818609E-02  0.8884150E-01
       -2   -1    0    0    0  501  0.00000000000E+00  0.00000000000E+00  0.99169129305E+03  0.99169129305E+03  0.25500000920E-02 0. -1.
        2   -1    0    0  501    0  0.00000000000E+00  0.00000000000E+00 -0.56755718949E+03  0.56755718950E+03  0.25500000920E-02 0.  1.
    10030    2    1    2    0    0  0.00000000000E+00  0.00000000000E+00  0.42413410356E+03  0.15592484826E+04  0.15004552951E+04 0.  0.
        4    1    3    3  502    0  0.67073014293E+03  0.26983959345E+03  0.38472865683E+01  0.72298599250E+03  0.12699999809E+01 0. -1.
       -4    1    3    3    0  502 -0.67073014293E+03 -0.26983959345E+03  0.42028681699E+03  0.83626249005E+03  0.12699999809E+01 0.  1.
</event>
<event>
 5   0  0.4726600E-04  0.1445410E+04  0.7818609E-02  0.8921589E-01
       -2   -1    0    0    0  501  0.00000000000E+00  0.00000000000E+00  0.37682332889E+03  0.37682332889E+03  0.25500000920E-02 0.  1.
        2   -1    0    0  501    0  0.00000000000E+00  0.00000000000E+00 -0.13860677466E+04  0.13860677467E+04  0.25500000920E-02 0. -1.
    10030    2    1    2    0    0  0.00000000000E+00  0.00000000000E+00 -0.10092444178E+04  0.17628910755E+04  0.14454102011E+04 0.  0.
        2    1    3    3  502    0 -0.10189486866E+03 -0.51047774558E+03 -0.11160691114E+04  0.12314951703E+04  0.25500000920E-02 0. -1.
       -2    1    3    3    0  502  0.10189486866E+03  0.51047774558E+03  0.10682469361E+03  0.53139590529E+03  0.25500000920E-02 0.  1.
</event>
<event>
 5   0  0.2565416E-04  0.1495326E+04  0.7818609E-02  0.8887567E-01
        1   -1    0    0  501    0  0.00000000000E+00  0.00000000000E+00  0.10588969233E+04  0.10588969234E+04  0.50400001928E-02 0. -1.
       -1   -1    0    0    0  501  0.00000000000E+00  0.00000000000E+00 -0.52790759876E+03  0.52790759879E+03  0.50400001928E-02 0.  1.
    10030    2    1    2    0    0  0.00000000000E+00  0.00000000000E+00  0.53098932458E+03  0.15868045221E+04  0.14953256932E+04 0.  0.
        5    1    3    3  502    0  0.53041591456E+03  0.33297684346E+03  0.69884337571E+03  0.93841290191E+03  0.46999998093E+01 0. -1.
       -5    1    3    3    0  502 -0.53041591456E+03 -0.33297684346E+03 -0.16785405113E+03  0.64839162023E+03  0.46999998093E+01 0.  1.
</event>
<event>
 5   0  0.4569211E-04  0.1519244E+04  0.7818609E-02  0.8871756E-01
        2   -1    0    0  501    0  0.00000000000E+00  0.00000000000E+00  0.54380935275E+03  0.54380935276E+03  0.25500000920E-02 0. -1.
       -2   -1    0    0    0  501  0.00000000000E+00  0.00000000000E+00 -0.10610804437E+04  0.10610804437E+04  0.25500000920E-02 0.  1.
    10030    2    1    2    0    0  0.00000000000E+00  0.00000000000E+00 -0.51727109092E+03  0.16048897964E+04  0.15192438505E+04 0.  0.
        5    1    3    3  502    0 -0.67058231829E+03 -0.33817967069E+03 -0.37888248947E+03  0.84120162036E+03  0.46999998093E+01 0.  1.
       -5    1    3    3    0  502  0.67058231829E+03  0.33817967069E+03 -0.13838860144E+03  0.76368817607E+03  0.46999998093E+01 0. -1.
</event>
<event>
 5   0  0.4726600E-04  0.1489387E+04  0.7818609E-02  0.8891541E-01
       -2   -1    0    0    0  501  0.00000000000E+00  0.00000000000E+00  0.26993564385E+03  0.26993564386E+03  0.25500000920E-02 0.  1.
        2   -1    0    0  501    0  0.00000000000E+00  0.00000000000E+00 -0.20544473161E+04  0.20544473161E+04  0.25500000920E-02 0. -1.
    10030    2    1    2    0    0  0.00000000000E+00  0.00000000000E+00 -0.17845116723E+04  0.23243829600E+04  0.14893872016E+04 0.  0.
        2    1    3    3  502    0  0.41127102572E+03  0.45529125680E+03 -0.23357629383E+03  0.65649971071E+03  0.25500000920E-02 0.  1.
       -2    1    3    3    0  502 -0.41127102572E+03 -0.45529125680E+03 -0.15509353784E+04  0.16678832493E+04  0.25500000920E-02 0. -1.
</event>
<event>
 5   0  0.4569211E-04  0.1504688E+04  0.7818609E-02  0.8881341E-01
       -2   -1    0    0    0  501  0.00000000000E+00  0.00000000000E+00  0.23312771577E+03  0.23312771578E+03  0.25500000920E-02 0.  1.
        2   -1    0    0  501    0  0.00000000000E+00  0.00000000000E+00 -0.24279471144E+04  0.24279471144E+04  0.25500000920E-02 0. -1.
    10030    2    1    2    0    0  0.00000000000E+00  0.00000000000E+00 -0.21948193986E+04  0.26610748301E+04  0.15046883595E+04 0.  0.
        5    1    3    3  502    0 -0.41516160950E+03 -0.49691530362E+03 -0.42000405361E+03  0.77182217902E+03  0.46999998093E+01 0.  1.
       -5    1    3    3    0  502  0.41516160950E+03  0.49691530362E+03 -0.17748153450E+04  0.18892526511E+04  0.46999998093E+01 0. -1.
</event>
<event>
 5   0  0.2605471E-04  0.1561058E+04  0.7818609E-02  0.8844835E-01
        1   -1    0    0  501    0  0.00000000000E+00  0.00000000000E+00  0.18908906440E+04  0.18908906440E+04  0.50400001928E-02 0.  1.
       -1   -1    0    0    0  501  0.00000000000E+00  0.00000000000E+00 -0.32218963260E+03  0.32218963264E+03  0.50400001928E-02 0. -1.
    10030    2    1    2    0    0  0.00000000000E+00  0.00000000000E+00  0.15687010114E+04  0.22130802767E+04  0.15610577977E+04 0.  0.
        3    1    3    3  502    0 -0.30207988883E+03 -0.35015872732E+03 -0.10705564058E+03  0.47468338283E+03  0.10100000352E+00 0. -1.
       -3    1    3    3    0  502  0.30207988883E+03  0.35015872732E+03  0.16757566520E+04  0.17383968938E+04  0.10100000352E+00 0.  1.
</event>
<event>
 5   0  0.4948645E-04  0.1495115E+04  0.7818609E-02  0.8887708E-01
        2   -1    0    0  501    0  0.00000000000E+00  0.00000000000E+00  0.81556653655E+03  0.81556653655E+03  0.25500000920E-02 0.  1.
       -2   -1    0    0    0  501  0.00000000000E+00  0.00000000000E+00 -0.68521975464E+03  0.68521975464E+03  0.25500000920E-02 0. -1.
    10030    2    1    2    0    0  0.00000000000E+00  0.00000000000E+00  0.13034678191E+03  0.15007862912E+04  0.14951151154E+04 0.  0.
        1    1    3    3  502    0  0.29927749446E+03 -0.48395784609E+03  0.55184237353E+03  0.79266147928E+03  0.50400001928E-02 0.  1.
       -1    1    3    3    0  502 -0.29927749446E+03  0.48395784609E+03 -0.42149559161E+03  0.70812481192E+03  0.50400001928E-02 0. -1.
</event>
<event>
 5   0  0.2605471E-04  0.1506516E+04  0.7818609E-02  0.8880132E-01
        1   -1    0    0  501    0  0.00000000000E+00  0.00000000000E+00  0.40893286999E+03  0.40893287002E+03  0.50400001928E-02 0.  1.
       -1   -1    0    0    0  501  0.00000000000E+00  0.00000000000E+00 -0.13875074173E+04  0.13875074173E+04  0.50400001928E-02 0. -1.
    10030    2    1    2    0    0  0.00000000000E+00  0.00000000000E+00 -0.97857454728E+03  0.17964402873E+04  0.15065157023E+04 0.  0.
        3    1    3    3  502    0 -0.43777395514E+02  0.58555156369E+03  0.73328283966E+02  0.59174668696E+03  0.10100000352E+00 0.  1.
       -3    1    3    3    0  502  0.43777395514E+02 -0.58555156369E+03 -0.10519028312E+04  0.12046936003E+04  0.10100000352E+00 0. -1.
</event>
<event>
 5   0  0.4726600E-04  0.1500041E+04  0.7818609E-02  0.8884425E-01
        2   -1    0    0  501    0  0.00000000000E+00  0.00000000000E+00  0.72108559391E+03  0.72108559392E+03  0.25500000920E-02 0.  1.
       -2   -1    0    0    0  501  0.00000000000E+00  0.00000000000E+00 -0.78011689864E+03  0.78011689865E+03  0.25500000920E-02 0. -1.
    10030    2    1    2    0    0  0.00000000000E+00  0.00000000000E+00 -0.59031304727E+02  0.15012024926E+04  0.15000414090E+04 0.  0.
        2    1    3    3  502    0  0.32259584642E+03  0.19098926805E+03  0.62059171784E+03  0.72503728242E+03  0.25500000920E-02 0.  1.
       -2    1    3    3    0  502 -0.32259584642E+03 -0.19098926805E+03 -0.67962302256E+03  0.77616521015E+03  0.25500000920E-02 0. -1.
</event>
<event>
 5   0  0.4768387E-04  0.1504684E+04  0.7818609E-02  0.8881344E-01
        2   -1    0    0  501    0  0.00000000000E+00  0.00000000000E+00  0.20576375880E+04  0.20576375880E+04  0.25500000920E-02 0.  1.
       -2   -1    0    0    0  501  0.00000000000E+00  0.00000000000E+00 -0.27508155953E+03  0.27508155954E+03  0.25500000920E-02 0. -1.
    10030    2    1    2    0    0  0.00000000000E+00  0.00000000000E+00  0.17825560285E+04  0.23327191476E+04  0.15046835636E+04 0.  0.
        3    1    3    3  502    0 -0.14808573221E+03  0.21395009990E+03 -0.20310381257E+03  0.33008362307E+03  0.10100000352E+00 0. -1.
       -3    1    3    3    0  502  0.14808573221E+03 -0.21395009990E+03  0.19856598411E+04  0.20026355245E+04  0.10100000352E+00 0.  1.
</event>
<event>
 5   0  0.4948645E-04  0.1500431E+04  0.7818609E-02  0.8884166E-01
       -2   -1    0    0    0  501  0.00000000000E+00  0.00000000000E+00  0.42307936297E+03  0.42307936298E+03  0.25500000920E-02 0. -1.
        2   -1    0    0  501    0  0.00000000000E+00  0.00000000000E+00 -0.13303018304E+04  0.13303018304E+04  0.25500000920E-02 0.  1.
    10030    2    1    2    0    0  0.00000000000E+00  0.00000000000E+00 -0.90722246740E+03  0.17533811934E+04  0.15004309394E+04 0.  0.
        1    1    3    3  502    0  0.73277102038E+02  0.74171680917E+03 -0.35369965517E+03  0.82499503319E+03  0.50400001928E-02 0. -1.
       -1    1    3    3    0  502 -0.73277102038E+02 -0.74171680917E+03 -0.55352281224E+03  0.92838616016E+03  0.50400001928E-02 0.  1.
</event>
<event>
 5   0  0.4569211E-04  0.1493975E+04  0.7818609E-02  0.8888469E-01
       -2   -1    0    0    0  501  0.00000000000E+00  0.00000000000E+00  0.56326880618E+03  0.56326880619E+03  0.25500000920E-02 0.  1.
        2   -1    0    0  501    0  0.00000000000E+00  0.00000000000E+00 -0.99062922674E+03  0.99062922675E+03  0.25500000920E-02 0. -1.
    10030    2    1    2    0    0  0.00000000000E+00  0.00000000000E+00 -0.42736042056E+03  0.15538980329E+04  0.14939752902E+04 0.  0.
        5    1    3    3  502    0  0.70144821883E+03  0.94397679389E+01  0.53224434398E+02  0.70354363286E+03  0.46999998093E+01 0.  1.
       -5    1    3    3    0  502 -0.70144821883E+03 -0.94397679389E+01 -0.48058485496E+03  0.85035440008E+03  0.46999998093E+01 0. -1.
</event>
<event>
 5   0  0.2544374E-04  0.1501080E+04  0.7818609E-02  0.8883735E-01
        1   -1    0    0  501    0  0.00000000000E+00  0.00000000000E+00  0.18616455529E+04  0.18616455529E+04  0.50400001928E-02 0.  1.
       -1   -1    0    0    0  501  0.00000000000E+00  0.00000000000E+00 -0.30258716224E+03  0.30258716229E+03  0.50400001928E-02 0. -1.
    10030    2    1    2    0    0  0.00000000000E+00  0.00000000000E+00  0.15590583907E+04  0.21642327152E+04  0.15010796715E+04 0.  0.
        4    1    3    3  502    0 -0.36343519924E+03 -0.25116562456E+03 -0.95265613865E+02  0.45193635071E+03  0.12699999809E+01 0. -1.
       -4    1    3    3    0  502  0.36343519924E+03  0.25116562456E+03  0.16543240045E+04  0.17122963645E+04  0.12699999809E+01 0.  1.
</event>
<event>
 5   0  0.2565416E-04  0.1504991E+04  0.7818609E-02  0.8881141E-01
        1   -1    0    0  501    0  0.00000000000E+00  0.00000000000E+00  0.10240510994E+04  0.10240510994E+04  0.50400001928E-02 0.  1.
       -1   -1    0    0    0  501  0.00000000000E+00  0.00000000000E+00 -0.55295047713E+03  0.55295047715E+03  0.50400001928E-02 0. -1.
    10030    2    1    2    0    0  0.00000000000E+00  0.00000000000E+00  0.47110062226E+03  0.15770015766E+04  0.15049910884E+04 0.  0.
        5    1    3    3  502    0 -0.84463730327E+02 -0.74715730180E+03  0.20501316692E+03  0.77937837023E+03  0.46999998093E+01 0. -1.
       -5    1    3    3    0  502  0.84463730327E+02  0.74715730180E+03  0.26608745535E+03  0.79762320632E+03  0.46999998093E+01 0.  1.
</event>
<event>
 5   0  0.4785496E-04  0.1497189E+04  0.7818609E-02  0.8886324E-01
       -2   -1    0    0    0  501  0.00000000000E+00  0.00000000000E+00  0.63515456801E+03  0.63515456801E+03  0.25500000920E-02 0. -1.
        2   -1    0    0  501    0  0.00000000000E+00  0.00000000000E+00 -0.88229496563E+03  0.88229496563E+03  0.25500000920E-02 0.  1.
    10030    2    1    2    0    0  0.00000000000E+00  0.00000000000E+00 -0.24714039762E+03  0.15174495336E+04  0.14971889363E+04 0.  0.
        4    1    3    3  502    0  0.52236513070E+02 -0.37961543520E+02 -0.87946587024E+03  0.88183420318E+03  0.12699999809E+01 0.  1.
       -4    1    3    3    0  502 -0.52236513070E+02  0.37961543520E+02  0.63232547262E+03  0.63561533046E+03  0.12699999809E+01 0. -1.
</event>
<event>
 5   0  0.2544374E-04  0.1478764E+04  0.7818609E-02  0.8898698E-01
        1   -1    0    0  501    0  0.00000000000E+00  0.00000000000E+00  0.11187948161E+04  0.11187948162E+04  0.50400001928E-02 0.  1.
       -1   -1    0    0    0  501  0.00000000000E+00  0.00000000000E+00 -0.48863840213E+03  0.48863840216E+03  0.50400001928E-02 0. -1.
    10030    2    1    2    0    0  0.00000000000E+00  0.00000000000E+00  0.63015641401E+03  0.16074332183E+04  0.14787644996E+04 0.  0.
        4    1    3    3  502    0 -0.66884120719E+03 -0.93279462041E+02 -0.12173262071E+02  0.67542536204E+03  0.12699999809E+01 0. -1.
       -4    1    3    3    0  502  0.66884120719E+03  0.93279462041E+02  0.64232967608E+03  0.93200785627E+03  0.12699999809E+01 0.  1.
</event>
<event>
 5   0  0.2542737E-04  0.1498799E+04  0.7818609E-02  0.8885252E-01
       -1   -1    0    0    0  501  0.00000000000E+00  0.00000000000E+00  0.29147597724E+03  0.29147597729E+03  0.50400001928E-02 0. -1.
        1   -1    0    0  501    0  0.00000000000E+00  0.00000000000E+00 -0.19267430222E+04  0.19267430222E+04  0.50400001928E-02 0.  1.
    10030    2    1    2    0    0  0.00000000000E+00  0.00000000000E+00 -0.16352670450E+04  0.22182189995E+04  0.14987985927E+04 0.  0.
        1    1    3    3  502    0  0.23725071495E+03 -0.58932575135E+03 -0.14059333302E+04  0.15428030568E+04  0.50400001928E-02 0.  1.
       -1    1    3    3    0  502 -0.23725071495E+03  0.58932575135E+03 -0.22933371475E+03  0.67541594273E+03  0.50400001928E-02 0. -1.
</event>
<event>
 5   0  0.4948645E-04  0.1496946E+04  0.7818609E-02  0.8886486E-01
       -2   -1    0    0    0  501  0.00000000000E+00  0.00000000000E+00  0.30882736789E+03  0.30882736791E+03  0.25500000920E-02 0.  1.
        2   -1    0    0  501    0  0.00000000000E+00  0.00000000000E+00 -0.18139966063E+04  0.18139966063E+04  0.25500000920E-02 0. -1.
    10030    2    1    2    0    0  0.00000000000E+00  0.00000000000E+00 -0.15051692384E+04  0.21228239742E+04  0.14969459540E+04 0.  0.
        1    1    3    3  502    0 -0.63702110101E+03 -0.21490582244E+03 -0.12191199132E+04  0.13922046395E+04  0.50400001928E-02 0. -1.
       -1    1    3    3    0  502  0.63702110101E+03  0.21490582244E+03 -0.28604932519E+03  0.73061933462E+03  0.50400001928E-02 0.  1.
</event>
<event>
 5   0  0.2565416E-04  0.1498582E+04  0.7818609E-02  0.8885396E-01
        1   -1    0    0  501    0  0.00000000000E+00  0.00000000000E+00  0.15387925337E+04  0.15387925337E+04  0.50400001928E-02 0. -1.
       -1   -1    0    0    0  501  0.00000000000E+00  0.00000000000E+00 -0.36485570280E+03  0.36485570284E+03  0.50400001928E-02 0.  1.
    10030    2    1    2    0    0  0.00000000000E+00  0.00000000000E+00  0.11739368309E+04  0.19036482366E+04  0.14985823052E+04 0.  0.
        5    1    3    3  502    0 -0.80066062450E+02  0.47956712228E+03  0.13111727252E+04  0.13984245437E+04  0.46999998093E+01 0. -1.
       -5    1    3    3    0  502  0.80066062450E+02 -0.47956712228E+03 -0.13723589430E+03  0.50522369284E+03  0.46999998093E+01 0.  1.
</event>
<event>
 5   0  0.4785496E-04  0.1498668E+04  0.7818609E-02  0.8885339E-01
       -2   -1    0    0    0  501  0.00000000000E+00  0.00000000000E+00  0.87427617784E+03  0.87427617784E+03  0.25500000920E-02 0.  1.
        2   -1    0    0  501    0  0.00000000000E+00  0.00000000000E+00 -0.64224699294E+03  0.64224699294E+03  0.25500000920E-02 0. -1.
    10030    2    1    2    0    0  0.00000000000E+00  0.00000000000E+00  0.23202918490E+03  0.15165231708E+04  0.14986677366E+04 0.  0.
        4    1    3    3  502    0  0.61163059797E+03 -0.15681313595E+03 -0.29229910300E+03  0.69578928311E+03  0.12699999809E+01 0. -1.
       -4    1    3    3    0  502 -0.61163059797E+03  0.15681313595E+03  0.52432828790E+03  0.82073388767E+03  0.12699999809E+01 0.  1.
</event>
<event>
 5   0  0.4948645E-04  0.1428803E+04  0.7818609E-02  0.8933229E-01
       -2   -1    0    0    0  501  0.00000000000E+00  0.00000000000E+00  0.35047386560E+03  0.35047386561E+03  0.25500000920E-02 0.  1.
        2   -1    0    0  501    0  0.00000000000E+00  0.00000000000E+00 -0.14562278670E+04  0.14562278670E+04  0.25500000920E-02 0. -1.
    10030    2    1    2    0    0  0.00000000000E+00  0.00000000000E+00 -0.11057540014E+04  0.18067017326E+04  0.14288034291E+04 0.  0.
        1    1    3    3  502    0 -0.80585107953E+02 -0.63660637022E+03 -0.94995008355E+03  0.11463711404E+04  0.50400001928E-02 0. -1.
       -1    1    3    3    0  502  0.80585107953E+02  0.63660637022E+03 -0.15580391790E+03  0.66033059227E+03  0.50400001928E-02 0.  1.
</event>
<event>
 5   0  0.4768387E-04  0.1494295E+04  0.7818609E-02  0.8888255E-01
       -2   -1    0    0    0  501  0.00000000000E+00  0.00000000000E+00  0.83463894003E+03  0.83463894004E+03  0.25500000920E-02 0.  1.
        2   -1    0    0  501    0  0.00000000000E+00  0.00000000000E+00 -0.66882765144E+03  0.66882765145E+03  0.25500000920E-02 0. -1.
    10030    2    1    2    0    0  0.00000000000E+00  0.00000000000E+00  0.16581128859E+03  0.15034665915E+04  0.14942952882E+04 0.  0.
        3    1    3    3  502    0  0.13794665112E+03  0.38168521288E+03  0.71406488531E+03  0.82134131208E+03  0.10100000352E+00 0.  1.
       -3    1    3    3    0  502 -0.13794665112E+03 -0.38168521288E+03 -0.54825359672E+03  0.68212527941E+03  0.10100000352E+00 0. -1.
</event>
<event>
 5   0  0.4726600E-04  0.1512225E+04  0.7818609E-02  0.8876364E-01
       -2   -1    0    0    0  501  0.00000000000E+00  0.00000000000E+00  0.52155465617E+03  0.52155465618E+03  0.25500000920E-02 0.  1.
        2   -1    0    0  501    0  0.00000000000E+00  0.00000000000E+00 -0.10961569848E+04  0.10961569848E+04  0.25500000920E-02 0. -1.
    10030    2    1    2    0    0  0.00000000000E+00  0.00000000000E+00 -0.57460232867E+03  0.16177116410E+04  0.15122245592E+04 0.  0.
        2    1    3    3  502    0  0.15302767275E+03 -0.18067826606E+03  0.48087295501E+03  0.53600457397E+03  0.25500000920E-02 0.  1.
       -2    1    3    3    0  502 -0.15302767275E+03  0.18067826606E+03 -0.10554752837E+04  0.10817070671E+04  0.25500000920E-02 0. -1.
</event>
<event>
 5   0  0.4948645E-04  0.1504896E+04  0.7818609E-02  0.8881204E-01
       -2   -1    0    0    0  501  0.00000000000E+00  0.00000000000E+00  0.50157624450E+03  0.50157624451E+03  0.25500000920E-02 0.  1.
        2   -1    0    0  501    0  0.00000000000E+00  0.00000000000E+00 -0.11287976418E+04  0.11287976418E+04  0.25500000920E-02 0. -1.
    10030    2    1    2    0    0  0.00000000000E+00  0.00000000000E+00 -0.62722139727E+03  0.16303738863E+04  0.15048961186E+04 0.  0.
        1    1    3    3  502    0 -0.42948910563E+03 -0.43303174492E+03 -0.79103671551E+03  0.99885758207E+03  0.50400001928E-02 0. -1.
       -1    1    3    3    0  502  0.42948910563E+03  0.43303174492E+03  0.16381531823E+03  0.63151630420E+03  0.50400001928E-02 0.  1.
</event>
<event>
 5   0  0.4569211E-04  0.1494823E+04  0.7818609E-02  0.8887903E-01
       -2   -1    0    0    0  501  0.00000000000E+00  0.00000000000E+00  0.46488099506E+03  0.46488099507E+03  0.25500000920E-02 0. -1.
        2   -1    0    0  501    0  0.00000000000E+00  0.00000000000E+00 -0.12016495707E+04  0.12016495707E+04  0.25500000920E-02 0.  1.
    10030    2    1    2    0    0  0.00000000000E+00  0.00000000000E+00 -0.73676857564E+03  0.16665305658E+04  0.14948231309E+04 0.  0.
        5    1    3    3  502    0  0.31955331337E+03  0.67166451673E+03 -0.44996349670E+03  0.86933122656E+03  0.46999998093E+01 0. -1.
       -5    1    3    3    0  502 -0.31955331337E+03 -0.67166451673E+03 -0.28680507894E+03  0.79719933920E+03  0.46999998093E+01 0.  1.
</event>
<event>
 5   0  0.4726600E-04  0.1501464E+04  0.7818609E-02  0.8883480E-01
        2   -1    0    0  501    0  0.00000000000E+00  0.00000000000E+00  0.81675660398E+03  0.81675660398E+03  0.25500000920E-02 0.  1.
       -2   -1    0    0    0  501  0.00000000000E+00  0.00000000000E+00 -0.69004509407E+03  0.69004509407E+03  0.25500000920E-02 0. -1.
    10030    2    1    2    0    0  0.00000000000E+00  0.00000000000E+00  0.12671150991E+03  0.15068016981E+04  0.15014644686E+04 0.  0.
        2    1    3    3  502    0 -0.29200885984E+03 -0.39778218100E+03  0.63113986494E+03  0.80114753127E+03  0.25500000920E-02 0.  1.
       -2    1    3    3    0  502  0.29200885984E+03  0.39778218100E+03 -0.50442835503E+03  0.70565416679E+03  0.25500000920E-02 0. -1.
</event>
<event>
 5   0  0.2605471E-04  0.1489286E+04  0.7818609E-02  0.8891609E-01
        1   -1    0    0  501    0  0.00000000000E+00  0.00000000000E+00  0.91048307175E+03  0.91048307176E+03  0.50400001928E-02 0. -1.
       -1   -1    0    0    0  501  0.00000000000E+00  0.00000000000E+00 -0.60900969171E+03  0.60900969173E+03  0.50400001928E-02 0.  1.
    10030    2    1    2    0    0  0.00000000000E+00  0.00000000000E+00  0.30147338004E+03  0.15194927635E+04  0.14892857548E+04 0.  0.
        3    1    3    3  502    0  0.56319630075E+03  0.18195344086E+03  0.61178250577E+03  0.85121969690E+03  0.10100000352E+00 0. -1.
       -3    1    3    3    0  502 -0.56319630075E+03 -0.18195344086E+03 -0.31030912573E+03  0.66827306659E+03  0.10100000352E+00 0.  1.
</event>
<event>
 5   0  0.2542737E-04  0.1496197E+04  0.7818609E-02  0.8886986E-01
       -1   -1    0    0    0  501  0.00000000000E+00  0.00000000000E+00  0.62361061060E+03  0.62361061062E+03  0.50400001928E-02 0.  1.
        1   -1    0    0  501    0  0.00000000000E+00  0.00000000000E+00 -0.89743728869E+03  0.89743728870E+03  0.50400001928E-02 0. -1.
    10030    2    1    2    0    0  0.00000000000E+00  0.00000000000E+00 -0.27382667809E+03  0.15210478993E+04  0.14961970667E+04 0.  0.
        1    1    3    3  502    0 -0.11212420891E+02  0.18811727995E+03 -0.87291152483E+03  0.89302203758E+03  0.50400001928E-02 0. -1.
       -1    1    3    3    0  502  0.11212420891E+02 -0.18811727995E+03  0.59908484674E+03  0.62802586174E+03  0.50400001928E-02 0.  1.
</event>
<event>
 5   0  0.4726600E-04  0.1498811E+04  0.7818609E-02  0.8885244E-01
        2   -1    0    0  501    0  0.00000000000E+00  0.00000000000E+00  0.23703965905E+04  0.23703965905E+04  0.25500000920E-02 0.  1.
       -2   -1    0    0    0  501  0.00000000000E+00  0.00000000000E+00 -0.23692590836E+03  0.23692590837E+03  0.25500000920E-02 0. -1.
    10030    2    1    2    0    0  0.00000000000E+00  0.00000000000E+00  0.21334706821E+04  0.26073224989E+04  0.14988106824E+04 0.  0.
        2    1    3    3  502    0 -0.43520557800E+02  0.67536478524E+03  0.16266489238E+04  0.17618167763E+04  0.25500000920E-02 0.  1.
       -2    1    3    3    0  502  0.43520557800E+02 -0.67536478524E+03  0.50682175833E+03  0.84550572252E+03  0.25500000920E-02 0. -1.
</event>
<event>
 5   0  0.4569211E-04  0.1506502E+04  0.7818609E-02  0.8880141E-01
       -2   -1    0    0    0  501  0.00000000000E+00  0.00000000000E+00  0.73152446089E+03  0.73152446089E+03  0.25500000920E-02 0. -1.
        2   -1    0    0  501    0  0.00000000000E+00  0.00000000000E+00 -0.77562260590E+03  0.77562260591E+03  0.25500000920E-02 0.  1.
    10030    2    1    2    0    0  0.00000000000E+00  0.00000000000E+00 -0.44098145015E+02  0.15071470668E+04  0.15065017871E+04 0.  0.
        5    1    3    3  502    0  0.32475301854E+03  0.60811256994E+03 -0.32565788763E+03  0.76245693028E+03  0.46999998093E+01 0.  1.
       -5    1    3    3    0  502 -0.32475301854E+03 -0.60811256994E+03  0.28155974261E+03  0.74469013652E+03  0.46999998093E+01 0. -1.
</event>
<event>
 5   0  0.4569211E-04  0.1498449E+04  0.7818609E-02  0.8885485E-01
        2   -1    0    0  501    0  0.00000000000E+00  0.00000000000E+00  0.38669107845E+03  0.38669107846E+03  0.25500000920E-02 0. -1.
       -2   -1    0    0    0  501  0.00000000000E+00  0.00000000000E+00 -0.14516430888E+04  0.14516430888E+04  0.25500000920E-02 0.  1.
    10030    2    1    2    0    0  0.00000000000E+00  0.00000000000E+00 -0.10649520103E+04  0.18383341673E+04  0.14984491070E+04 0.  0.
        5    1    3    3  502    0  0.72807233008E+03 -0.59269787241E+02 -0.73670864079E+03  0.10374796080E+04  0.46999998093E+01 0.  1.
       -5    1    3    3    0  502 -0.72807233008E+03  0.59269787241E+02 -0.32824336956E+03  0.80085455931E+03  0.46999998093E+01 0. -1.
</event>
<event>
 5   0  0.2544374E-04  0.1488358E+04  0.7818609E-02  0.8892232E-01
       -1   -1    0    0    0  501  0.00000000000E+00  0.00000000000E+00  0.56557687658E+03  0.56557687660E+03  0.50400001928E-02 0.  1.
        1   -1    0    0  501    0  0.00000000000E+00  0.00000000000E+00 -0.97918135031E+03  0.97918135033E+03  0.50400001928E-02 0. -1.
    10030    2    1    2    0    0  0.00000000000E+00  0.00000000000E+00 -0.41360447373E+03  0.15447582269E+04  0.14883579270E+04 0.  0.
        4    1    3    3  502    0 -0.45952662689E+03  0.56072966429E+03 -0.32453787047E+02  0.72569782860E+03  0.12699999809E+01 0.  1.
       -4    1    3    3    0  502  0.45952662689E+03 -0.56072966429E+03 -0.38115068669E+03  0.81906039833E+03  0.12699999809E+01 0. -1.
</event>
<event>
 5   0  0.2565416E-04  0.1498307E+04  0.7818609E-02  0.8885580E-01
        1   -1    0    0  501    0  0.00000000000E+00  0.00000000000E+00  0.52366869381E+03  0.52366869383E+03  0.50400001928E-02 0.  1.
       -1   -1    0    0    0  501  0.00000000000E+00  0.00000000000E+00 -0.10717283841E+04  0.10717283841E+04  0.50400001928E-02 0. -1.
    10030    2    1    2    0    0  0.00000000000E+00  0.00000000000E+00 -0.54805969029E+03  0.15953970779E+04  0.14983065148E+04 0.  0.
        5    1    3    3  502    0  0.13438334041E+03 -0.66915126488E+03 -0.60288975525E+03  0.91067032698E+03  0.46999998093E+01 0. -1.
       -5    1    3    3    0  502 -0.13438334041E+03  0.66915126488E+03  0.54830064957E+02  0.68472675096E+03  0.46999998093E+01 0.  1.
</event>
<event>
 5   0  0.4948645E-04  0.1476491E+04  0.7818609E-02  0.8900239E-01
       -2   -1    0    0    0  501  0.00000000000E+00  0.00000000000E+00  0.32233962691E+03  0.32233962692E+03  0.25500000920E-02 0. -1.
        2   -1    0    0  501    0  0.00000000000E+00  0.00000000000E+00 -0.16907824351E+04  0.16907824351E+04  0.25500000920E-02 0.  1.
    10030    2    1    2    0    0  0.00000000000E+00  0.00000000000E+00 -0.13684428082E+04  0.20131220620E+04  0.14764906763E+04 0.  0.
        1    1    3    3  502    0  0.37556541506E+02  0.42908170092E+03  0.13326310590E+03  0.45086656040E+03  0.50400001928E-02 0. -1.
       -1    1    3    3    0  502 -0.37556541506E+02 -0.42908170092E+03 -0.15017059141E+04  0.15622555016E+04  0.50400001928E-02 0.  1.
</event>
<event>
 5   0  0.4785496E-04  0.1505410E+04  0.7818609E-02  0.8880863E-01
       -2   -1    0    0    0  501  0.00000000000E+00  0.00000000000E+00  0.32801949241E+03  0.32801949242E+03  0.25500000920E-02 0.  1.
        2   -1    0    0  501    0  0.00000000000E+00  0.00000000000E+00 -0.17272292319E+04  0.17272292319E+04  0.25500000920E-02 0. -1.
    10030    2    1    2    0    0  0.00000000000E+00  0.00000000000E+00 -0.13992097395E+04  0.20552487243E+04  0.15054100517E+04 0.  0.
        4    1    3    3  502    0  0.38383192393E+02  0.22245476364E+03  0.28071465468E+03  0.36022454327E+03  0.12699999809E+01 0.  1.
       -4    1    3    3    0  502 -0.38383192393E+02 -0.22245476364E+03 -0.16799243942E+04  0.16950241810E+04  0.12699999809E+01 0. -1.
</event>
<event>
 5   0  0.4726600E-04  0.1502217E+04  0.7818609E-02  0.8882980E-01
        2   -1    0    0  501    0  0.00000000000E+00  0.00000000000E+00  0.65428963491E+03  0.65428963492E+03  0.25500000920E-02 0. -1.
       -2   -1    0    0    0  501  0.00000000000E+00  0.00000000000E+00 -0.86225376515E+03  0.86225376516E+03  0.25500000920E-02 0.  1.
    10030    2    1    2    0    0  0.00000000000E+00  0.00000000000E+00 -0.20796413024E+03  0.15165434001E+04  0.15022166305E+04 0.  0.
        2    1    3    3  502    0 -0.58299511990E+02  0.70106742060E+03 -0.36968282856E+03  0.79470733925E+03  0.25500000920E-02 0.  1.
       -2    1    3    3    0  502  0.58299511990E+02 -0.70106742060E+03  0.16171869832E+03  0.72183606083E+03  0.25500000920E-02 0. -1.
</event>
<event>
 5   0  0.4726600E-04  0.1499913E+04  0.7818609E-02  0.8884511E-01
        2   -1    0    0  501    0  0.00000000000E+00  0.00000000000E+00  0.74667979643E+03  0.74667979643E+03  0.25500000920E-02 0. -1.
       -2   -1    0    0    0  501  0.00000000000E+00  0.00000000000E+00 -0.75324745534E+03  0.75324745534E+03  0.25500000920E-02 0.  1.
    10030    2    1    2    0    0  0.00000000000E+00  0.00000000000E+00 -0.65676589127E+01  0.14999272518E+04  0.14999128730E+04 0.  0.
        2    1    3    3  502    0 -0.55826839159E+03  0.46297239668E+03  0.18757820947E+03  0.74912790751E+03  0.25500000920E-02 0.  1.
       -2    1    3    3    0  502  0.55826839159E+03 -0.46297239668E+03 -0.19414586838E+03  0.75079934427E+03  0.25500000920E-02 0. -1.
</event>
<event>
 5   0  0.1792000E-04  0.1522693E+04  0.7818609E-02  0.8869501E-01
        4   -1    0    0  501    0  0.00000000000E+00  0.00000000000E+00  0.39383989264E+03  0.39384194029E+03  0.12699999809E+01 0.  1.
       -4   -1    0    0    0  501  0.00000000000E+00  0.00000000000E+00 -0.14717813826E+04  0.14717819305E+04  0.12699999809E+01 0. -1.
    10030    2    1    2    0    0  0.00000000000E+00  0.00000000000E+00 -0.10779414899E+04  0.18656238708E+04  0.15226931968E+04 0.  0.
        1    1    3    3  502    0 -0.80470346614E+02  0.29783814311E+03 -0.13917628244E+04  0.14255478931E+04  0.50400001928E-02 0. -1.
       -1    1    3    3    0  502  0.80470346614E+02 -0.29783814311E+03  0.31382133444E+03  0.44007597770E+03  0.50400001928E-02 0.  1.
</event>
<event>
 5   0  0.2605471E-04  0.1507023E+04  0.7818609E-02  0.8879796E-01
       -1   -1    0    0    0  501  0.00000000000E+00  0.00000000000E+00  0.54060828193E+03  0.54060828195E+03  0.50400001928E-02 0.  1.
        1   -1    0    0  501    0  0.00000000000E+00  0.00000000000E+00 -0.10502610373E+04  0.10502610373E+04  0.50400001928E-02 0. -1.
    10030    2    1    2    0    0  0.00000000000E+00  0.00000000000E+00 -0.50965275536E+03  0.15908693193E+04  0.15070233110E+04 0.  0.
        3    1    3    3  502    0  0.26024122521E+03 -0.50633135451E+03  0.26628077668E+03  0.62849216231E+03  0.10100000352E+00 0.  1.
       -3    1    3    3    0  502 -0.26024122521E+03  0.50633135451E+03 -0.77593353204E+03  0.96237715694E+03  0.10100000352E+00 0. -1.
</event>
<event>
 5   0  0.4569211E-04  0.1538561E+04  0.7818609E-02  0.8859208E-01
       -2   -1    0    0    0  501  0.00000000000E+00  0.00000000000E+00  0.75605843804E+03  0.75605843805E+03  0.25500000920E-02 0.  1.
        2   -1    0    0  501    0  0.00000000000E+00  0.00000000000E+00 -0.78273376063E+03  0.78273376063E+03  0.25500000920E-02 0. -1.
    10030    2    1    2    0    0  0.00000000000E+00  0.00000000000E+00 -0.26675322585E+02  0.15387921987E+04  0.15385609698E+04 0.  0.
        5    1    3    3  502    0  0.30162258078E+03 -0.46531406536E+03  0.51991881328E+03  0.76015197366E+03  0.46999998093E+01 0.  1.
       -5    1    3    3    0  502 -0.30162258078E+03  0.46531406536E+03 -0.54659413587E+03  0.77864022502E+03  0.46999998093E+01 0. -1.
</event>
<event>
 5   0  0.4948645E-04  0.1513412E+04  0.7818609E-02  0.8875583E-01
       -2   -1    0    0    0  501  0.00000000000E+00  0.00000000000E+00  0.75112153094E+03  0.75112153094E+03  0.25500000920E-02 0.  1.
        2   -1    0    0  501    0  0.00000000000E+00  0.00000000000E+00 -0.76233223559E+03  0.76233223559E+03  0.25500000920E-02 0. -1.
    10030    2    1    2    0    0  0.00000000000E+00  0.00000000000E+00 -0.11210704651E+02  0.15134537665E+04  0.15134122451E+04 0.  0.
        1    1    3    3  502    0  0.27883534878E+02 -0.97096760054E+02 -0.75555851321E+03  0.76228206016E+03  0.50400001928E-02 0. -1.
       -1    1    3    3    0  502 -0.27883534878E+02  0.97096760054E+02  0.74434780856E+03  0.75117170637E+03  0.50400001928E-02 0.  1.
</event>
<event>
 5   0  0.2544374E-04  0.1501857E+04  0.7818609E-02  0.8883219E-01
        1   -1    0    0  501    0  0.00000000000E+00  0.00000000000E+00  0.79779522655E+03  0.79779522657E+03  0.50400001928E-02 0. -1.
       -1   -1    0    0    0  501  0.00000000000E+00  0.00000000000E+00 -0.70681463387E+03  0.70681463389E+03  0.50400001928E-02 0.  1.
    10030    2    1    2    0    0  0.00000000000E+00  0.00000000000E+00  0.90980592684E+02  0.15046098605E+04  0.15018566389E+04 0.  0.
        4    1    3    3  502    0  0.40588501986E+03  0.62589405357E+03 -0.40723912536E+02  0.74709173840E+03  0.12699999809E+01 0.  1.
       -4    1    3    3    0  502 -0.40588501986E+03 -0.62589405357E+03  0.13170450522E+03  0.75751812205E+03  0.12699999809E+01 0. -1.
</event>
<event>
 5   0  0.2605471E-04  0.1497908E+04  0.7818609E-02  0.8885845E-01
       -1   -1    0    0    0  501  0.00000000000E+00  0.00000000000E+00  0.31965199629E+03  0.31965199633E+03  0.50400001928E-02 0.  1.
        1   -1    0    0  501    0  0.00000000000E+00  0.00000000000E+00 -0.17548210816E+04  0.17548210816E+04  0.50400001928E-02 0. -1.
    10030    2    1    2    0    0  0.00000000000E+00  0.00000000000E+00 -0.14351690853E+04  0.20744730779E+04  0.14979079570E+04 0.  0.
        3    1    3    3  502    0 -0.64633722423E+03  0.36786521947E+03 -0.59483849786E+03  0.95231794893E+03  0.10100000352E+00 0.  1.
       -3    1    3    3    0  502  0.64633722423E+03 -0.36786521947E+03 -0.84033058741E+03  0.11221551290E+04  0.10100000352E+00 0. -1.
</event>
<event>
 5   0  0.4569211E-04  0.1519110E+04  0.7818609E-02  0.8871844E-01
        2   -1    0    0  501    0  0.00000000000E+00  0.00000000000E+00  0.69943556417E+03  0.69943556418E+03  0.25500000920E-02 0. -1.
       -2   -1    0    0    0  501  0.00000000000E+00  0.00000000000E+00 -0.82484159244E+03  0.82484159244E+03  0.25500000920E-02 0.  1.
    10030    2    1    2    0    0  0.00000000000E+00  0.00000000000E+00 -0.12540602827E+03  0.15242771566E+04  0.15191096663E+04 0.  0.
        5    1    3    3  502    0  0.36805525841E+03 -0.25125933439E+03  0.55445469434E+03  0.71136349669E+03  0.46999998093E+01 0. -1.
       -5    1    3    3    0  502 -0.36805525841E+03  0.25125933439E+03 -0.67986072260E+03  0.81291365993E+03  0.46999998093E+01 0.  1.
</event>
<event>
 5   0  0.4569211E-04  0.1486400E+04  0.7818609E-02  0.8893547E-01
        2   -1    0    0  501    0  0.00000000000E+00  0.00000000000E+00  0.20541109916E+04  0.20541109916E+04  0.25500000920E-02 0.  1.
       -2   -1    0    0    0  501  0.00000000000E+00  0.00000000000E+00 -0.26889796281E+03  0.26889796283E+03  0.25500000920E-02 0. -1.
    10030    2    1    2    0    0  0.00000000000E+00  0.00000000000E+00  0.17852130288E+04  0.23230089544E+04  0.14864000283E+04 0.  0.
        5    1    3    3  502    0 -0.74306736619E+03 -0.50203847555E+01  0.91173816185E+03  0.11762069889E+04  0.46999998093E+01 0. -1.
       -5    1    3    3    0  502  0.74306736619E+03  0.50203847555E+01  0.87347486690E+03  0.11468019655E+04  0.46999998093E+01 0.  1.
</event>
<event>
 5   0  0.4726600E-04  0.1499246E+04  0.7818609E-02  0.8884954E-01
        2   -1    0    0  501    0  0.00000000000E+00  0.00000000000E+00  0.15741099867E+04  0.15741099867E+04  0.25500000920E-02 0.  1.
       -2   -1    0    0    0  501  0.00000000000E+00  0.00000000000E+00 -0.35698576004E+03  0.35698576005E+03  0.25500000920E-02 0. -1.
    10030    2    1    2    0    0  0.00000000000E+00  0.00000000000E+00  0.12171242267E+04  0.19310957468E+04  0.14992462773E+04 0.  0.
        2    1    3    3  502    0 -0.33772453316E+02  0.70561692058E+03  0.93159951758E+03  0.11691507509E+04  0.25500000920E-02 0.  1.
       -2    1    3    3    0  502  0.33772453316E+02 -0.70561692058E+03  0.28552470912E+03  0.76194499587E+03  0.25500000920E-02 0. -1.
</event>
<event>
 5   0  0.4785496E-04  0.1493147E+04  0.7818609E-02  0.8889023E-01
        2   -1    0    0  501    0  0.00000000000E+00  0.00000000000E+00  0.26497968900E+04  0.26497968900E+04  0.25500000920E-02 0. -1.
       -2   -1    0    0    0  501  0.00000000000E+00  0.00000000000E+00 -0.21034526896E+03  0.21034526897E+03  0.25500000920E-02 0.  1.
    10030    2    1    2    0    0  0.00000000000E+00  0.00000000000E+00  0.24394516210E+04  0.28601421590E+04  0.14931473330E+04 0.  0.
        4    1    3    3  502    0  0.33531955196E+03  0.15608830659E+03  0.24619586321E+04  0.24895872510E+04  0.12699999809E+01 0. -1.
       -4    1    3    3    0  502 -0.33531955196E+03 -0.15608830659E+03 -0.22507011026E+02  0.37055490798E+03  0.12699999809E+01 0.  1.
</event>
<event>
 5   0  0.2542737E-04  0.1500969E+04  0.7818609E-02  0.8883809E-01
        1   -1    0    0  501    0  0.00000000000E+00  0.00000000000E+00  0.14785091064E+04  0.14785091064E+04  0.50400001928E-02 0.  1.
       -1   -1    0    0    0  501  0.00000000000E+00  0.00000000000E+00 -0.38094259522E+03  0.38094259525E+03  0.50400001928E-02 0. -1.
    10030    2    1    2    0    0  0.00000000000E+00  0.00000000000E+00  0.10975665111E+04  0.18594517016E+04  0.15009691483E+04 0.  0.
        1    1    3    3  502    0 -0.19614543049E+03 -0.70536300403E+03  0.75316121120E+03  0.10503627028E+04  0.50400001928E-02 0. -1.
       -1    1    3    3    0  502  0.19614543049E+03  0.70536300403E+03  0.34440529994E+03  0.80908899882E+03  0.50400001928E-02 0.  1.
</event>
<event>
 5   0  0.2542737E-04  0.1504992E+04  0.7818609E-02  0.8881140E-01
       -1   -1    0    0    0  501  0.00000000000E+00  0.00000000000E+00  0.41461445274E+03  0.41461445277E+03  0.50400001928E-02 0.  1.
        1   -1    0    0  501    0  0.00000000000E+00  0.00000000000E+00 -0.13657265722E+04  0.13657265722E+04  0.50400001928E-02 0. -1.
    10030    2    1    2    0    0  0.00000000000E+00  0.00000000000E+00 -0.95111211946E+03  0.17803410250E+04  0.15049916616E+04 0.  0.
        1    1    3    3  502    0 -0.34740864501E+03  0.54040749006E+03 -0.12058686357E+02  0.64255617178E+03  0.50400001928E-02 0.  1.
       -1    1    3    3    0  502  0.34740864501E+03 -0.54040749006E+03 -0.93905343311E+03  0.11377848532E+04  0.50400001928E-02 0. -1.
</event>
<event>
 5   0  0.2605471E-04  0.1498313E+04  0.7818609E-02  0.8885576E-01
        1   -1    0    0  501    0  0.00000000000E+00  0.00000000000E+00  0.67428487181E+03  0.67428487183E+03  0.50400001928E-02 0. -1.
       -1   -1    0    0    0  501  0.00000000000E+00  0.00000000000E+00 -0.83234139508E+03  0.83234139510E+03  0.50400001928E-02 0.  1.
    10030    2    1    2    0    0  0.00000000000E+00  0.00000000000E+00 -0.15805652327E+03  0.15066262669E+04  0.14983126655E+04 0.  0.
        3    1    3    3  502    0  0.26723251517E+02 -0.45979006595E+03 -0.67316556187E+03  0.81564264283E+03  0.10100000352E+00 0.  1.
       -3    1    3    3    0  502 -0.26723251517E+02  0.45979006595E+03  0.51510903860E+03  0.69098362409E+03  0.10100000352E+00 0. -1.
</event>
<event>
 5   0  0.4948645E-04  0.1497537E+04  0.7818609E-02  0.8886092E-01
        2   -1    0    0  501    0  0.00000000000E+00  0.00000000000E+00  0.11859267150E+04  0.11859267150E+04  0.25500000920E-02 0. -1.
       -2   -1    0    0    0  501  0.00000000000E+00  0.00000000000E+00 -0.47275628117E+03  0.47275628118E+03  0.25500000920E-02 0.  1.
    10030    2    1    2    0    0  0.00000000000E+00  0.00000000000E+00  0.71317043380E+03  0.16586829961E+04  0.14975370493E+04 0.  0.
        1    1    3    3  502    0  0.36298658210E+03 -0.44798016315E+03  0.88570259767E+03  0.10568417937E+04  0.50400001928E-02 0. -1.
       -1    1    3    3    0  502 -0.36298658210E+03  0.44798016315E+03 -0.17253216388E+03  0.60184120244E+03  0.50400001928E-02 0.  1.
</event>
<event>
 5   0  0.1792000E-04  0.1408433E+04  0.7818609E-02  0.8947737E-01
       -3   -1    0    0    0  501  0.00000000000E+00  0.00000000000E+00  0.80584295330E+03  0.80584295963E+03  0.10100000352E+00 0.  1.
        3   -1    0    0  501    0  0.00000000000E+00  0.00000000000E+00 -0.61540618269E+03  0.61540619098E+03  0.10100000352E+00 0. -1.
    10030    2    1    2    0    0  0.00000000000E+00  0.00000000000E+00  0.19043677062E+03  0.14212491506E+04  0.14084328115E+04 0.  0.
        1    1    3    3  502    0 -0.32153829496E+03  0.32635561404E+02  0.72658651608E+03  0.79522318903E+03  0.50400001928E-02 0.  1.
       -1    1    3    3    0  502  0.32153829496E+03 -0.32635561404E+02 -0.53614974546E+03  0.62602596158E+03  0.50400001928E-02 0. -1.
</event>
<event>
 5   0  0.4785496E-04  0.1500287E+04  0.7818609E-02  0.8884262E-01
       -2   -1    0    0    0  501  0.00000000000E+00  0.00000000000E+00  0.37633865753E+03  0.37633865753E+03  0.25500000920E-02 0.  1.
        2   -1    0    0  501    0  0.00000000000E+00  0.00000000000E+00 -0.14952355682E+04  0.14952355683E+04  0.25500000920E-02 0. -1.
    10030    2    1    2    0    0  0.00000000000E+00  0.00000000000E+00 -0.11188969107E+04  0.18715742258E+04  0.15002865679E+04 0.  0.
        4    1    3    3  502    0 -0.22716935328E+03 -0.70394627828E+03 -0.40380313221E+03  0.84273653075E+03  0.12699999809E+01 0. -1.
       -4    1    3    3    0  502  0.22716935328E+03  0.70394627828E+03 -0.71509377851E+03  0.10288376950E+04  0.12699999809E+01 0.  1.
</event>
<event>
 5   0  0.2544374E-04  0.1551668E+04  0.7818609E-02  0.8850803E-01
       -1   -1    0    0    0  501  0.00000000000E+00  0.00000000000E+00  0.14025919683E+04  0.14025919683E+04  0.50400001928E-02 0. -1.
        1   -1    0    0  501    0  0.00000000000E+00  0.00000000000E+00 -0.42914717436E+03  0.42914717439E+03  0.50400001928E-02 0.  1.
    10030    2    1    2    0    0  0.00000000000E+00  0.00000000000E+00  0.97344479394E+03  0.18317391427E+04  0.15516679800E+04 0.  0.
        4    1    3    3  502    0 -0.64421346423E+03  0.43015370795E+03  0.53781987426E+03  0.94302440584E+03  0.12699999809E+01 0. -1.
       -4    1    3    3    0  502  0.64421346423E+03 -0.43015370795E+03  0.43562491968E+03  0.88871473685E+03  0.12699999809E+01 0.  1.
</event>
<event>
 5   0  0.2565416E-04  0.1509505E+04  0.7818609E-02  0.8878157E-01
       -1   -1    0    0    0  501  0.00000000000E+00  0.00000000000E+00  0.84503650117E+03  0.84503650119E+03  0.50400001928E-02 0.  1.
        1   -1    0    0  501    0  0.00000000000E+00  0.00000000000E+00 -0.67411457727E+03  0.67411457729E+03  0.50400001928E-02 0. -1.
    10030    2    1    2    0    0  0.00000000000E+00  0.00000000000E+00  0.17092192390E+03  0.15191510785E+04  0.15095051160E+04 0.  0.
        5    1    3    3  502    0  0.35895287659E+02 -0.32198878626E+03  0.77147962287E+03  0.83676050854E+03  0.46999998093E+01 0.  1.
       -5    1    3    3    0  502 -0.35895287659E+02  0.32198878626E+03 -0.60055769897E+03  0.68239056994E+03  0.46999998093E+01 0. -1.
</event>
<event>
 5   0  0.4948645E-04  0.1509100E+04  0.7818609E-02  0.8878424E-01
        2   -1    0    0  501    0  0.00000000000E+00  0.00000000000E+00  0.12348042291E+04  0.12348042291E+04  0.25500000920E-02 0.  1.
       -2   -1    0    0    0  501  0.00000000000E+00  0.00000000000E+00 -0.46108169562E+03  0.46108169563E+03  0.25500000920E-02 0. -1.
    10030    2    1    2    0    0  0.00000000000E+00  0.00000000000E+00  0.77372253351E+03  0.16958859248E+04  0.15090999009E+04 0.  0.
        1    1    3    3  502    0 -0.15359637688E+03  0.40570349601E+03 -0.30693414517E+03  0.53140920500E+03  0.50400001928E-02 0. -1.
       -1    1    3    3    0  502  0.15359637688E+03 -0.40570349601E+03  0.10806566787E+04  0.11644767198E+04  0.50400001928E-02 0.  1.
</event>
<event>
 5   0  0.2605471E-04  0.1503930E+04  0.7818609E-02  0.8881844E-01
        1   -1    0    0  501    0  0.00000000000E+00  0.00000000000E+00  0.15779646749E+04  0.15779646749E+04  0.50400001928E-02 0. -1.
       -1   -1    0    0    0  501  0.00000000000E+00  0.00000000000E+00 -0.35834214680E+03  0.35834214683E+03  0.50400001928E-02 0.  1.
    10030    2    1    2    0    0  0.00000000000E+00  0.00000000000E+00  0.12196225281E+04  0.19363068218E+04  0.15039298511E+04 0.  0.
        3    1    3    3  502    0 -0.28861932655E+03 -0.48333654631E+03 -0.32049998889E+02  0.56386394217E+03  0.10100000352E+00 0.  1.
       -3    1    3    3    0  502  0.28861932655E+03  0.48333654631E+03  0.12516725270E+04  0.13724428796E+04  0.10100000352E+00 0. -1.
</event>
<event>
 5   0  0.4726600E-04  0.1518174E+04  0.7818609E-02  0.8872457E-01
        2   -1    0    0  501    0  0.00000000000E+00  0.00000000000E+00  0.11672475875E+04  0.11672475875E+04  0.25500000920E-02 0.  1.
       -2   -1    0    0    0  501  0.00000000000E+00  0.00000000000E+00 -0.49365101844E+03  0.49365101844E+03  0.25500000920E-02 0. -1.
    10030    2    1    2    0    0  0.00000000000E+00  0.00000000000E+00  0.67359656907E+03  0.16608986059E+04  0.15181738508E+04 0.  0.
        2    1    3    3  502    0  0.14322052081E+03  0.22744543174E+02  0.11519527277E+04  0.11610445809E+04  0.25500000920E-02 0.  1.
       -2    1    3    3    0  502 -0.14322052081E+03 -0.22744543174E+02 -0.47835615868E+03  0.49985402507E+03  0.25500000920E-02 0. -1.
</event>
<event>
 5   0  0.4726600E-04  0.1499148E+04  0.7818609E-02  0.8885019E-01
       -2   -1    0    0    0  501  0.00000000000E+00  0.00000000000E+00  0.36339639798E+03  0.36339639799E+03  0.25500000920E-02 0. -1.
        2   -1    0    0  501    0  0.00000000000E+00  0.00000000000E+00 -0.15461393938E+04  0.15461393939E+04  0.25500000920E-02 0.  1.
    10030    2    1    2    0    0  0.00000000000E+00  0.00000000000E+00 -0.11827429959E+04  0.19095357918E+04  0.14991484069E+04 0.  0.
        2    1    3    3  502    0  0.28743295036E+03 -0.57519922583E+02 -0.14701048469E+04  0.14990445302E+04  0.25500000920E-02 0.  1.
       -2    1    3    3    0  502 -0.28743295036E+03  0.57519922583E+02  0.28736185108E+03  0.41049126167E+03  0.25500000920E-02 0. -1.
</event>
<event>
 5   0  0.4785496E-04  0.1497423E+04  0.7818609E-02  0.8886168E-01
        2   -1    0    0  501    0  0.00000000000E+00  0.00000000000E+00  0.11413179499E+04  0.11413179500E+04  0.25500000920E-02 0. -1.
       -2   -1    0    0    0  501  0.00000000000E+00  0.00000000000E+00 -0.49115925199E+03  0.49115925199E+03  0.25500000920E-02 0.  1.
    10030    2    1    2    0    0  0.00000000000E+00  0.00000000000E+00  0.65015869796E+03  0.16324772019E+04  0.14974229470E+04 0.  0.
        4    1    3    3  502    0 -0.55639148211E+03 -0.42445992178E+03  0.61522087140E+03  0.93179184375E+03  0.12699999809E+01 0. -1.
       -4    1    3    3    0  502  0.55639148211E+03  0.42445992178E+03  0.34937826561E+02  0.70068535820E+03  0.12699999809E+01 0.  1.
</event>
<event>
 5   0  0.4768387E-04  0.1502979E+04  0.7818609E-02  0.8882474E-01
       -2   -1    0    0    0  501  0.00000000000E+00  0.00000000000E+00  0.41730453084E+03  0.41730453084E+03  0.25500000920E-02 0. -1.
        2   -1    0    0  501    0  0.00000000000E+00  0.00000000000E+00 -0.13532953905E+04  0.13532953905E+04  0.25500000920E-02 0.  1.
    10030    2    1    2    0    0  0.00000000000E+00  0.00000000000E+00 -0.93599085971E+03  0.17705999214E+04  0.15029787730E+04 0.  0.
        3    1    3    3  502    0  0.37185714086E+03  0.43091383321E+03  0.11006124999E+03  0.57972230750E+03  0.10100000352E+00 0. -1.
       -3    1    3    3    0  502 -0.37185714086E+03 -0.43091383321E+03 -0.10460521097E+04  0.11908776139E+04  0.10100000352E+00 0.  1.
</event>
<event>
 5   0  0.4948645E-04  0.1478315E+04  0.7818609E-02  0.8899003E-01
        2   -1    0    0  501    0  0.00000000000E+00  0.00000000000E+00  0.94909847609E+03  0.94909847610E+03  0.25500000920E-02 0.  1.
       -2   -1    0    0    0  501  0.00000000000E+00  0.00000000000E+00 -0.57565522863E+03  0.57565522864E+03  0.25500000920E-02 0. -1.
    10030    2    1    2    0    0  0.00000000000E+00  0.00000000000E+00  0.37344324746E+03  0.15247537047E+04  0.14783145812E+04 0.  0.
        1    1    3    3  502    0  0.23650464653E+03 -0.50440468452E+03 -0.31433199940E+03  0.63965861165E+03  0.50400001928E-02 0. -1.
       -1    1    3    3    0  502 -0.23650464653E+03  0.50440468452E+03  0.68777524686E+03  0.88509509309E+03  0.50400001928E-02 0.  1.
</event>
<event>
 5   0  0.4569211E-04  0.1490076E+04  0.7818609E-02  0.8891079E-01
       -2   -1    0    0    0  501  0.00000000000E+00  0.00000000000E+00  0.31781268094E+03  0.31781268095E+03  0.25500000920E-02 0.  1.
        2   -1    0    0  501    0  0.00000000000E+00  0.00000000000E+00 -0.17465689288E+04  0.17465689288E+04  0.25500000920E-02 0. -1.
    10030    2    1    2    0    0  0.00000000000E+00  0.00000000000E+00 -0.14287562479E+04  0.20643816098E+04  0.14900761775E+04 0.  0.
        5    1    3    3  502    0 -0.49616354125E+03 -0.24148716593E+03 -0.20885223922E+02  0.55222512941E+03  0.46999998093E+01 0.  1.
       -5    1    3    3    0  502  0.49616354125E+03  0.24148716593E+03 -0.14078710240E+04  0.15121564804E+04  0.46999998093E+01 0. -1.
</event>
<event>
 5   0  0.2544374E-04  0.1501826E+04  0.7818609E-02  0.8883240E-01
       -1   -1    0    0    0  501  0.00000000000E+00  0.00000000000E+00  0.38019487287E+03  0.38019487291E+03  0.50400001928E-02 0.  1.
        1   -1    0    0  501    0  0.00000000000E+00  0.00000000000E+00 -0.14831078549E+04  0.14831078549E+04  0.50400001928E-02 0. -1.
    10030    2    1    2    0    0  0.00000000000E+00  0.00000000000E+00 -0.11029129820E+04  0.18633027278E+04  0.15018255590E+04 0.  0.
        4    1    3    3  502    0 -0.71672037977E+03  0.13143567033E+03 -0.32639843946E+03  0.79843659260E+03  0.12699999809E+01 0.  1.
       -4    1    3    3    0  502  0.71672037977E+03 -0.13143567033E+03 -0.77651454255E+03  0.10648661352E+04  0.12699999809E+01 0. -1.
</event>
<event>
 5   0  0.2565416E-04  0.1502321E+04  0.7818609E-02  0.8882911E-01
       -1   -1    0    0    0  501  0.00000000000E+00  0.00000000000E+00  0.31335117039E+03  0.31335117043E+03  0.50400001928E-02 0.  1.
        1   -1    0    0  501    0  0.00000000000E+00  0.00000000000E+00 -0.18006689513E+04  0.18006689513E+04  0.50400001928E-02 0. -1.
    10030    2    1    2    0    0  0.00000000000E+00  0.00000000000E+00 -0.14873177809E+04  0.21140201217E+04  0.15023205030E+04 0.  0.
        5    1    3    3  502    0  0.87858715045E+02  0.27597284110E+03 -0.17189194468E+04  0.17431541290E+04  0.46999998093E+01 0. -1.
       -5    1    3    3    0  502 -0.87858715045E+02 -0.27597284110E+03  0.23160166598E+03  0.37086599267E+03  0.46999998093E+01 0.  1.
</event>
<event>
 5   0  0.4785496E-04  0.1499417E+04  0.7818609E-02  0.8884841E-01
        2   -1    0    0  501    0  0.00000000000E+00  0.00000000000E+00  0.21113930372E+04  0.21113930372E+04  0.25500000920E-02 0.  1.
       -2   -1    0    0    0  501  0.00000000000E+00  0.00000000000E+00 -0.26620463704E+03  0.26620463706E+03  0.25500000920E-02 0. -1.
    10030    2    1    2    0    0  0.00000000000E+00  0.00000000000E+00  0.18451884001E+04  0.23775976742E+04  0.14994167094E+04 0.  0.
        4    1    3    3  502    0 -0.61474715596E+03  0.42180829973E+03  0.10476993307E+04  0.12858895006E+04  0.12699999809E+01 0.  1.
       -4    1    3    3    0  502  0.61474715596E+03 -0.42180829973E+03  0.79748906948E+03  0.10917081736E+04  0.12699999809E+01 0. -1.
</event>
<event>
 5   0  0.4726600E-04  0.1502490E+04  0.7818609E-02  0.8882799E-01
       -2   -1    0    0    0  501  0.00000000000E+00  0.00000000000E+00  0.86218449119E+03  0.86218449120E+03  0.25500000920E-02 0. -1.
        2   -1    0    0  501    0  0.00000000000E+00  0.00000000000E+00 -0.65458040248E+03  0.65458040249E+03  0.25500000920E-02 0.  1.
    10030    2    1    2    0    0  0.00000000000E+00  0.00000000000E+00  0.20760408871E+03  0.15167648937E+04  0.15024900283E+04 0.  0.
        2    1    3    3  502    0 -0.49010568308E+03  0.10382645593E+03 -0.46132508822E+03  0.68103182787E+03  0.25500000920E-02 0.  1.
       -2    1    3    3    0  502  0.49010568308E+03 -0.10382645593E+03  0.66892917693E+03  0.83573306582E+03  0.25500000920E-02 0. -1.
</event>
<event>
 5   0  0.2565416E-04  0.1489167E+04  0.7818609E-02  0.8891689E-01
       -1   -1    0    0    0  501  0.00000000000E+00  0.00000000000E+00  0.37145155352E+03  0.37145155356E+03  0.50400001928E-02 0. -1.
        1   -1    0    0  501    0  0.00000000000E+00  0.00000000000E+00 -0.14925356141E+04  0.14925356141E+04  0.50400001928E-02 0.  1.
    10030    2    1    2    0    0  0.00000000000E+00  0.00000000000E+00 -0.11210840606E+04  0.18639871677E+04  0.14891671130E+04 0.  0.
        5    1    3    3  502    0 -0.21718342041E+03  0.28777824704E+03  0.25488659669E+03  0.44155885762E+03  0.46999998093E+01 0. -1.
       -5    1    3    3    0  502  0.21718342041E+03 -0.28777824704E+03 -0.13759706573E+04  0.14224283101E+04  0.46999998093E+01 0.  1.
</event>
<event>
 5   0  0.2603873E-04  0.1390677E+04  0.7818609E-02  0.8960595E-01
        1   -1    0    0  501    0  0.00000000000E+00  0.00000000000E+00  0.39804161305E+03  0.39804161308E+03  0.50400001928E-02 0.  1.
       -1   -1    0    0    0  501  0.00000000000E+00  0.00000000000E+00 -0.12146867640E+04  0.12146867640E+04  0.50400001928E-02 0. -1.
    10030    2    1    2    0    0  0.00000000000E+00  0.00000000000E+00 -0.81664515092E+03  0.16127283771E+04  0.13906773586E+04 0.  0.
        2    1    3    3  502    0  0.61194497446E+03  0.20129757114E+03 -0.10481088619E+03  0.65267349094E+03  0.25500000920E-02 0.  1.
       -2    1    3    3    0  502 -0.61194497446E+03 -0.20129757114E+03 -0.71183426473E+03  0.96005488612E+03  0.25500000920E-02 0. -1.
</event>
<event>
 5   0  0.4569211E-04  0.1478383E+04  0.7818609E-02  0.8898957E-01
        2   -1    0    0  501    0  0.00000000000E+00  0.00000000000E+00  0.16619326753E+04  0.16619326754E+04  0.25500000920E-02 0. -1.
       -2   -1    0    0    0  501  0.00000000000E+00  0.00000000000E+00 -0.32877632248E+03  0.32877632249E+03  0.25500000920E-02 0.  1.
    10030    2    1    2    0    0  0.00000000000E+00  0.00000000000E+00  0.13331563529E+04  0.19907089978E+04  0.14783830535E+04 0.  0.
        5    1    3    3  502    0 -0.60914909095E+03  0.41172837812E+03  0.56403588748E+03  0.92668303357E+03  0.46999998093E+01 0. -1.
       -5    1    3    3    0  502  0.60914909095E+03 -0.41172837812E+03  0.76912046539E+03  0.10640259643E+04  0.46999998093E+01 0.  1.
</event>
<event>
 5   0  0.2603873E-04  0.1500068E+04  0.7818609E-02  0.8884408E-01
        1   -1    0    0  501    0  0.00000000000E+00  0.00000000000E+00  0.88223578462E+03  0.88223578463E+03  0.50400001928E-02 0.  1.
       -1   -1    0    0    0  501  0.00000000000E+00  0.00000000000E+00 -0.63764247415E+03  0.63764247417E+03  0.50400001928E-02 0. -1.
    10030    2    1    2    0    0  0.00000000000E+00  0.00000000000E+00  0.24459331047E+03  0.15198782588E+04  0.15000680098E+04 0.  0.
        2    1    3    3  502    0 -0.25934175646E+03 -0.14518542445E+03 -0.57542959692E+03  0.64765436394E+03  0.25500000920E-02 0. -1.
       -2    1    3    3    0  502  0.25934175646E+03  0.14518542445E+03  0.82002290738E+03  0.87222389486E+03  0.25500000920E-02 0.  1.
</event>
<event>
 5   0  0.2605471E-04  0.1488903E+04  0.7818609E-02  0.8891866E-01
       -1   -1    0    0    0  501  0.00000000000E+00  0.00000000000E+00  0.91906060698E+03  0.91906060700E+03  0.50400001928E-02 0.  1.
        1   -1    0    0  501    0  0.00000000000E+00  0.00000000000E+00 -0.60301568872E+03  0.60301568875E+03  0.50400001928E-02 0. -1.
    10030    2    1    2    0    0  0.00000000000E+00  0.00000000000E+00  0.31604491826E+03  0.15220762957E+04  0.14889029047E+04 0.  0.
        3    1    3    3  502    0 -0.94176530346E+02  0.73844547182E+03  0.16424251260E+03  0.76232968385E+03  0.10100000352E+00 0.  1.
       -3    1    3    3    0  502  0.94176530346E+02 -0.73844547182E+03  0.15180240566E+03  0.75974661190E+03  0.10100000352E+00 0. -1.
</event>
<event>
 5   0  0.2542737E-04  0.1468294E+04  0.7818609E-02  0.8905815E-01
        1   -1    0    0  501    0  0.00000000000E+00  0.00000000000E+00  0.39922775570E+03  0.39922775574E+03  0.50400001928E-02 0. -1.
       -1   -1    0    0    0  501  0.00000000000E+00  0.00000000000E+00 -0.13500351109E+04  0.13500351109E+04  0.50400001928E-02 0.  1.
    10030    2    1    2    0    0  0.00000000000E+00  0.00000000000E+00 -0.95080735517E+03  0.17492628666E+04  0.14682935503E+04 0.  0.
        1    1    3    3  502    0 -0.65723594460E+03  0.29166999489E+03 -0.29893381815E+03  0.77871169276E+03  0.50400001928E-02 0.  1.
       -1    1    3    3    0  502  0.65723594460E+03 -0.29166999489E+03 -0.65187353702E+03  0.97055117386E+03  0.50400001928E-02 0. -1.
</event>
<event>
 5   0  0.4948645E-04  0.1500175E+04  0.7818609E-02  0.8884336E-01
        2   -1    0    0  501    0  0.00000000000E+00  0.00000000000E+00  0.16475008685E+04  0.16475008685E+04  0.25500000920E-02 0. -1.
       -2   -1    0    0    0  501  0.00000000000E+00  0.00000000000E+00 -0.34150605709E+03  0.34150605710E+03  0.25500000920E-02 0.  1.
    10030    2    1    2    0    0  0.00000000000E+00  0.00000000000E+00  0.13059948114E+04  0.19890069256E+04  0.15001753573E+04 0.  0.
        1    1    3    3  502    0 -0.25792339259E+03  0.58937914280E+03  0.14166054767E+03  0.65875637470E+03  0.50400001928E-02 0.  1.
       -1    1    3    3    0  502  0.25792339259E+03 -0.58937914280E+03  0.11643342637E+04  0.13302505509E+04  0.50400001928E-02 0. -1.
</event>
<event>
 5   0  0.1792000E-04  0.1500316E+04  0.7818609E-02  0.8884243E-01
        3   -1    0    0  501    0  0.00000000000E+00  0.00000000000E+00  0.15528785995E+04  0.15528786028E+04  0.10100000352E+00 0.  1.
       -3   -1    0    0    0  501  0.00000000000E+00  0.00000000000E+00 -0.36238292917E+03  0.36238294325E+03  0.10100000352E+00 0. -1.
    10030    2    1    2    0    0  0.00000000000E+00  0.00000000000E+00  0.11904956704E+04  0.19152615461E+04  0.15003155830E+04 0.  0.
        3    1    3    3  502    0 -0.33611250319E+03  0.30243900188E+03  0.13593761446E+04  0.14326005994E+04  0.10100000352E+00 0.  1.
       -3    1    3    3    0  502  0.33611250319E+03 -0.30243900188E+03 -0.16888047425E+03  0.48266094667E+03  0.10100000352E+00 0. -1.
</event>
<event>
 5   0  0.4768387E-04  0.1502043E+04  0.7818609E-02  0.8883095E-01
        2   -1    0    0  501    0  0.00000000000E+00  0.00000000000E+00  0.18558688620E+04  0.18558688620E+04  0.25500000920E-02 0.  1.
       -2   -1    0    0    0  501  0.00000000000E+00  0.00000000000E+00 -0.30391887621E+03  0.30391887622E+03  0.25500000920E-02 0. -1.
    10030    2    1    2    0    0  0.00000000000E+00  0.00000000000E+00  0.15519499858E+04  0.21597877382E+04  0.15020433801E+04 0.  0.
        3    1    3    3  502    0  0.16963414689E+03 -0.69980174667E+03  0.46914141171E+03  0.85941369713E+03  0.10100000352E+00 0. -1.
       -3    1    3    3    0  502 -0.16963414689E+03  0.69980174667E+03  0.10828085741E+04  0.13003740411E+04  0.10100000352E+00 0.  1.
</event>
<event>
 5   0  0.4569211E-04  0.1538240E+04  0.7818609E-02  0.8859414E-01
        2   -1    0    0  501    0  0.00000000000E+00  0.00000000000E+00  0.41739381801E+03  0.41739381801E+03  0.25500000920E-02 0.  1.
       -2   -1    0    0    0  501  0.00000000000E+00  0.00000000000E+00 -0.14172367720E+04  0.14172367720E+04  0.25500000920E-02 0. -1.
    10030    2    1    2    0    0  0.00000000000E+00  0.00000000000E+00 -0.99984295397E+03  0.18346305900E+04  0.15382403808E+04 0.  0.
        5    1    3    3  502    0 -0.22932183666E+03  0.26384579373E+03 -0.13169914740E+04  0.13626047630E+04  0.46999998093E+01 0. -1.
       -5    1    3    3    0  502  0.22932183666E+03 -0.26384579373E+03  0.31714851998E+03  0.47202582701E+03  0.46999998093E+01 0.  1.
</event>
<event>
 5   0  0.4785496E-04  0.1495412E+04  0.7818609E-02  0.8887510E-01
        2   -1    0    0  501    0  0.00000000000E+00  0.00000000000E+00  0.61730012742E+03  0.61730012742E+03  0.25500000920E-02 0. -1.
       -2   -1    0    0    0  501  0.00000000000E+00  0.00000000000E+00 -0.90566056265E+03  0.90566056265E+03  0.25500000920E-02 0.  1.
    10030    2    1    2    0    0  0.00000000000E+00  0.00000000000E+00 -0.28836043523E+03  0.15229606901E+04  0.14954121582E+04 0.  0.
        4    1    3    3  502    0 -0.37309610409E+03  0.64777731052E+03 -0.12818674596E+03  0.75845210900E+03  0.12699999809E+01 0. -1.
       -4    1    3    3    0  502  0.37309610409E+03 -0.64777731052E+03 -0.16017368927E+03  0.76450858108E+03  0.12699999809E+01 0.  1.
</event>
<event>
 5   0  0.4948645E-04  0.1518147E+04  0.7818609E-02  0.8872474E-01
        2   -1    0    0  501    0  0.00000000000E+00  0.00000000000E+00  0.63728165279E+03  0.63728165279E+03  0.25500000920E-02 0.  1.
       -2   -1    0    0    0  501  0.00000000000E+00  0.00000000000E+00 -0.90414159143E+03  0.90414159143E+03  0.25500000920E-02 0. -1.
    10030    2    1    2    0    0  0.00000000000E+00  0.00000000000E+00 -0.26685993864E+03  0.15414232442E+04  0.15181473548E+04 0.  0.
        1    1    3    3  502    0  0.18102577824E+03  0.60176187964E+03  0.29889772168E+03  0.69586459906E+03  0.50400001928E-02 0.  1.
       -1    1    3    3    0  502 -0.18102577824E+03 -0.60176187964E+03 -0.56575766032E+03  0.84555864516E+03  0.50400001928E-02 0. -1.
</event>
<event>
 5   0  0.2603873E-04  0.1498585E+04  0.7818609E-02  0.8885394E-01
        1   -1    0    0  501    0  0.00000000000E+00  0.00000000000E+00  0.93002760597E+03  0.93002760598E+03  0.50400001928E-02 0. -1.
       -1   -1    0    0    0  501  0.00000000000E+00  0.00000000000E+00 -0.60368023643E+03  0.60368023645E+03  0.50400001928E-02 0.  1.
    10030    2    1    2    0    0  0.00000000000E+00  0.00000000000E+00  0.32634736954E+03  0.15337078424E+04  0.14985850461E+04 0.  0.
        2    1    3    3  502    0  0.50568401202E+03  0.36219991658E+03 -0.26439067370E+03  0.67587537899E+03  0.25500000920E-02 0.  1.
       -2    1    3    3    0  502 -0.50568401202E+03 -0.36219991658E+03  0.59073804324E+03  0.85783246344E+03  0.25500000920E-02 0. -1.
</event>
<event>
 5   0  0.2605471E-04  0.1487772E+04  0.7818609E-02  0.8892625E-01
        1   -1    0    0  501    0  0.00000000000E+00  0.00000000000E+00  0.16359447440E+04  0.16359447440E+04  0.50400001928E-02 0.  1.
       -1   -1    0    0    0  501  0.00000000000E+00  0.00000000000E+00 -0.33825492494E+03  0.33825492498E+03  0.50400001928E-02 0. -1.
    10030    2    1    2    0    0  0.00000000000E+00  0.00000000000E+00  0.12976898190E+04  0.19741996690E+04  0.14877719807E+04 0.  0.
        3    1    3    3  502    0  0.63354263701E+03 -0.38594093401E+03  0.72200404408E+03  0.10351891264E+04  0.10100000352E+00 0.  1.
       -3    1    3    3    0  502 -0.63354263701E+03  0.38594093401E+03  0.57568577496E+03  0.93901054261E+03  0.10100000352E+00 0. -1.
</event>
<event>
 5   0  0.4768387E-04  0.1501544E+04  0.7818609E-02  0.8883427E-01
       -2   -1    0    0    0  501  0.00000000000E+00  0.00000000000E+00  0.61594657056E+03  0.61594657057E+03  0.25500000920E-02 0.  1.
        2   -1    0    0  501    0  0.00000000000E+00  0.00000000000E+00 -0.91510910749E+03  0.91510910749E+03  0.25500000920E-02 0. -1.
    10030    2    1    2    0    0  0.00000000000E+00  0.00000000000E+00 -0.29916253693E+03  0.15310556781E+04  0.15015436277E+04 0.  0.
        3    1    3    3  502    0  0.48301373707E+03 -0.33343972856E+03  0.32778038562E+03  0.67225316227E+03  0.10100000352E+00 0.  1.
       -3    1    3    3    0  502 -0.48301373707E+03  0.33343972856E+03 -0.62694292255E+03  0.85880251579E+03  0.10100000352E+00 0. -1.
</event>
<event>
 5   0  0.4768387E-04  0.1460392E+04  0.7818609E-02  0.8911227E-01
        2   -1    0    0  501    0  0.00000000000E+00  0.00000000000E+00  0.13485349684E+04  0.13485349684E+04  0.25500000920E-02 0.  1.
       -2   -1    0    0    0  501  0.00000000000E+00  0.00000000000E+00 -0.39538205905E+03  0.39538205906E+03  0.25500000920E-02 0. -1.
    10030    2    1    2    0    0  0.00000000000E+00  0.00000000000E+00  0.95315290935E+03  0.17439170275E+04  0.14603924576E+04 0.  0.
        3    1    3    3  502    0  0.52288148368E+03 -0.30399267898E+03 -0.11957721404E+02  0.60494594151E+03  0.10100000352E+00 0. -1.
       -3    1    3    3    0  502 -0.52288148368E+03  0.30399267898E+03  0.96511063075E+03  0.11389710860E+04  0.10100000352E+00 0.  1.
</event>
<event>
 5   0  0.2603873E-04  0.1505596E+04  0.7818609E-02  0.8880740E-01
       -1   -1    0    0    0  501  0.00000000000E+00  0.00000000000E+00  0.53630131418E+03  0.53630131421E+03  0.50400001928E-02 0.  1.
        1   -1    0    0  501    0  0.00000000000E+00  0.00000000000E+00 -0.10566913869E+04  0.10566913869E+04  0.50400001928E-02 0. -1.
    10030    2    1    2    0    0  0.00000000000E+00  0.00000000000E+00 -0.52039007273E+03  0.15929927011E+04  0.15055962002E+04 0.  0.
        2    1    3    3  502    0 -0.70779416498E+02 -0.54781322828E+03  0.28095882233E+03  0.61971519163E+03  0.25500000920E-02 0.  1.
       -2    1    3    3    0  502  0.70779416498E+02  0.54781322828E+03 -0.80134889506E+03  0.97327750950E+03  0.25500000920E-02 0. -1.
</event>
<event>
 5   0  0.2542737E-04  0.1403587E+04  0.7818609E-02  0.8951226E-01
        1   -1    0    0  501    0  0.00000000000E+00  0.00000000000E+00  0.11525916956E+04  0.11525916956E+04  0.50400001928E-02 0.  1.
       -1   -1    0    0    0  501  0.00000000000E+00  0.00000000000E+00 -0.42731006819E+03  0.42731006822E+03  0.50400001928E-02 0. -1.
    10030    2    1    2    0    0  0.00000000000E+00  0.00000000000E+00  0.72528162743E+03  0.15799017639E+04  0.14035868852E+04 0.  0.
        1    1    3    3  502    0  0.42949163864E+03 -0.17775565020E+03 -0.22919622458E+03  0.51825770446E+03  0.50400001928E-02 0. -1.
       -1    1    3    3    0  502 -0.42949163864E+03  0.17775565020E+03  0.95447785202E+03  0.10616440594E+04  0.50400001928E-02 0.  1.
</event>
<event>
 5   0  0.4569211E-04  0.1506727E+04  0.7818609E-02  0.8879992E-01
        2   -1    0    0  501    0  0.00000000000E+00  0.00000000000E+00  0.19174190267E+04  0.19174190267E+04  0.25500000920E-02 0. -1.
       -2   -1    0    0    0  501  0.00000000000E+00  0.00000000000E+00 -0.29600032297E+03  0.29600032298E+03  0.25500000920E-02 0.  1.
    10030    2    1    2    0    0  0.00000000000E+00  0.00000000000E+00  0.16214187037E+04  0.22134193497E+04  0.15067271169E+04 0.  0.
        5    1    3    3  502    0  0.12933035729E+02 -0.29090908186E+03  0.18313794288E+04  0.18543915605E+04  0.46999998093E+01 0. -1.
       -5    1    3    3    0  502 -0.12933035729E+02  0.29090908186E+03 -0.20996072509E+03  0.35902778918E+03  0.46999998093E+01 0.  1.
</event>
<event>
 5   0  0.2544374E-04  0.1490694E+04  0.7818609E-02  0.8890665E-01
        1   -1    0    0  501    0  0.00000000000E+00  0.00000000000E+00  0.12817288142E+04  0.12817288142E+04  0.50400001928E-02 0. -1.
       -1   -1    0    0    0  501  0.00000000000E+00  0.00000000000E+00 -0.43343174309E+03  0.43343174312E+03  0.50400001928E-02 0.  1.
    10030    2    1    2    0    0  0.00000000000E+00  0.00000000000E+00  0.84829707115E+03  0.17151605574E+04  0.14906937367E+04 0.  0.
        4    1    3    3  502    0  0.39896374918E+02 -0.68097311923E+03  0.78545180619E+02  0.68664915942E+03  0.12699999809E+01 0.  1.
       -4    1    3    3    0  502 -0.39896374918E+02  0.68097311923E+03  0.76975189053E+03  0.10285113979E+04  0.12699999809E+01 0. -1.
</event>
<event>
 5   0  0.2542737E-04  0.1502648E+04  0.7818609E-02  0.8882694E-01
       -1   -1    0    0    0  501  0.00000000000E+00  0.00000000000E+00  0.89997212625E+03  0.89997212626E+03  0.50400001928E-02 0.  1.
        1   -1    0    0  501    0  0.00000000000E+00  0.00000000000E+00 -0.62722828716E+03  0.62722828718E+03  0.50400001928E-02 0. -1.
    10030    2    1    2    0    0  0.00000000000E+00  0.00000000000E+00  0.27274383909E+03  0.15272004134E+04  0.15026482959E+04 0.  0.
        1    1    3    3  502    0 -0.13337173808E+03 -0.36534104138E+03  0.78970168578E+03  0.88027884763E+03  0.50400001928E-02 0.  1.
       -1    1    3    3    0  502  0.13337173808E+03  0.36534104138E+03 -0.51695784669E+03  0.64692156581E+03  0.50400001928E-02 0. -1.
</event>
<event>
 5   0  0.4785496E-04  0.1488950E+04  0.7818609E-02  0.8891834E-01
        2   -1    0    0  501    0  0.00000000000E+00  0.00000000000E+00  0.12456481158E+04  0.12456481158E+04  0.25500000920E-02 0.  1.
       -2   -1    0    0    0  501  0.00000000000E+00  0.00000000000E+00 -0.44494377573E+03  0.44494377573E+03  0.25500000920E-02 0. -1.
    10030    2    1    2    0    0  0.00000000000E+00  0.00000000000E+00  0.80070434007E+03  0.16905918915E+04  0.14889504705E+04 0.  0.
        4    1    3    3  502    0 -0.43422448444E+03  0.47415854220E+02 -0.28415254472E+03  0.52109830904E+03  0.12699999809E+01 0. -1.
       -4    1    3    3    0  502  0.43422448444E+03 -0.47415854220E+02  0.10848568848E+04  0.11694935825E+04  0.12699999809E+01 0.  1.
</event>
<event>
 5   0  0.2542737E-04  0.1498074E+04  0.7818609E-02  0.8885734E-01
       -1   -1    0    0    0  501  0.00000000000E+00  0.00000000000E+00  0.87109088053E+03  0.87109088055E+03  0.50400001928E-02 0. -1.
        1   -1    0    0  501    0  0.00000000000E+00  0.00000000000E+00 -0.64408525911E+03  0.64408525913E+03  0.50400001928E-02 0.  1.
    10030    2    1    2    0    0  0.00000000000E+00  0.00000000000E+00  0.22700562142E+03  0.15151761397E+04  0.14980744915E+04 0.  0.
        1    1    3    3  502    0  0.12425994696E+03 -0.57104628481E+03  0.58738363611E+03  0.82858549940E+03  0.50400001928E-02 0.  1.
       -1    1    3    3    0  502 -0.12425994696E+03  0.57104628481E+03 -0.36037801469E+03  0.68659064028E+03  0.50400001928E-02 0. -1.
</event>
<event>
 5   0  0.2542737E-04  0.1497864E+04  0.7818609E-02  0.8885875E-01
       -1   -1    0    0    0  501  0.00000000000E+00  0.00000000000E+00  0.50225170963E+03  0.50225170965E+03  0.50400001928E-02 0. -1.
        1   -1    0    0  501    0  0.00000000000E+00  0.00000000000E+00 -0.11167689713E+04  0.11167689713E+04  0.50400001928E-02 0.  1.
    10030    2    1    2    0    0  0.00000000000E+00  0.00000000000E+00 -0.61451726169E+03  0.16190206810E+04  0.14978639793E+04 0.  0.
        1    1    3    3  502    0  0.37094180481E+03 -0.64655463321E+03 -0.22880378856E+03  0.77973193468E+03  0.50400001928E-02 0.  1.
       -1    1    3    3    0  502 -0.37094180481E+03  0.64655463321E+03 -0.38571347313E+03  0.83928874629E+03  0.50400001928E-02 0. -1.
</event>
<event>
 5   0  0.2542737E-04  0.1505783E+04  0.7818609E-02  0.8880617E-01
        1   -1    0    0  501    0  0.00000000000E+00  0.00000000000E+00  0.68663983273E+03  0.68663983275E+03  0.50400001928E-02 0.  1.
       -1   -1    0    0    0  501  0.00000000000E+00  0.00000000000E+00 -0.82553528005E+03  0.82553528007E+03  0.50400001928E-02 0. -1.
    10030    2    1    2    0    0  0.00000000000E+00  0.00000000000E+00 -0.13889544732E+03  0.15121751128E+04  0.15057827289E+04 0.  0.
        1    1    3    3  502    0  0.58175936281E+03 -0.12901811712E+03  0.39267508817E+03  0.71364091506E+03  0.50400001928E-02 0.  1.
       -1    1    3    3    0  502 -0.58175936281E+03  0.12901811712E+03 -0.53157053549E+03  0.79853419776E+03  0.50400001928E-02 0. -1.
</event>
<event>
 5   0  0.2565416E-04  0.1491181E+04  0.7818609E-02  0.8890339E-01
        1   -1    0    0  501    0  0.00000000000E+00  0.00000000000E+00  0.24399751915E+04  0.24399751915E+04  0.50400001928E-02 0. -1.
       -1   -1    0    0    0  501  0.00000000000E+00  0.00000000000E+00 -0.22783221088E+03  0.22783221094E+03  0.50400001928E-02 0.  1.
    10030    2    1    2    0    0  0.00000000000E+00  0.00000000000E+00  0.22121429806E+04  0.26678074024E+04  0.14911806630E+04 0.  0.
        5    1    3    3  502    0 -0.29263639329E+03 -0.13346129615E+03 -0.97307008828E+02  0.33606356574E+03  0.46999998093E+01 0.  1.
       -5    1    3    3    0  502  0.29263639329E+03  0.13346129615E+03  0.23094499894E+04  0.23317438367E+04  0.46999998093E+01 0. -1.
</event>
<event>
 5   0  0.2565416E-04  0.1497674E+04  0.7818609E-02  0.8886001E-01
        1   -1    0    0  501    0  0.00000000000E+00  0.00000000000E+00  0.64059338585E+03  0.64059338587E+03  0.50400001928E-02 0. -1.
       -1   -1    0    0    0  501  0.00000000000E+00  0.00000000000E+00 -0.87537136592E+03  0.87537136594E+03  0.50400001928E-02 0.  1.
    10030    2    1    2    0    0  0.00000000000E+00  0.00000000000E+00 -0.23477798007E+03  0.15159647518E+04  0.14976743400E+04 0.  0.
        5    1    3    3  502    0  0.45424636054E+03 -0.58708691677E+03 -0.21720471204E+03  0.77344087094E+03  0.46999998093E+01 0. -1.
       -5    1    3    3    0  502 -0.45424636054E+03  0.58708691677E+03 -0.17573268026E+02  0.74252388087E+03  0.46999998093E+01 0.  1.
</event>
<event>
 5   0  0.2603873E-04  0.1463824E+04  0.7818609E-02  0.8908872E-01
        1   -1    0    0  501    0  0.00000000000E+00  0.00000000000E+00  0.43956918550E+03  0.43956918553E+03  0.50400001928E-02 0.  1.
       -1   -1    0    0    0  501  0.00000000000E+00  0.00000000000E+00 -0.12186829804E+04  0.12186829804E+04  0.50400001928E-02 0. -1.
    10030    2    1    2    0    0  0.00000000000E+00  0.00000000000E+00 -0.77911379487E+03  0.16582521659E+04  0.14638244227E+04 0.  0.
        2    1    3    3  502    0  0.13036338833E+03 -0.17870728192E+03  0.40079603437E+03  0.45778637682E+03  0.25500000920E-02 0.  1.
       -2    1    3    3    0  502 -0.13036338833E+03  0.17870728192E+03 -0.11799098292E+04  0.12004657891E+04  0.25500000920E-02 0. -1.
</event>
<event>
 5   0  0.2603873E-04  0.1503512E+04  0.7818609E-02  0.8882121E-01
        1   -1    0    0  501    0  0.00000000000E+00  0.00000000000E+00  0.69248544577E+03  0.69248544579E+03  0.50400001928E-02 0. -1.
       -1   -1    0    0    0  501  0.00000000000E+00  0.00000000000E+00 -0.81609948900E+03  0.81609948902E+03  0.50400001928E-02 0.  1.
    10030    2    1    2    0    0  0.00000000000E+00  0.00000000000E+00 -0.12361404323E+03  0.15085849348E+04  0.15035119134E+04 0.  0.
        2    1    3    3  502    0 -0.73897561735E+03 -0.11654873047E+03  0.12391451714E+02  0.74821261530E+03  0.25500000920E-02 0.  1.
       -2    1    3    3    0  502  0.73897561735E+03  0.11654873047E+03 -0.13600549495E+03  0.76037231951E+03  0.25500000920E-02 0. -1.
</event>
<event>
 5   0  0.2603873E-04  0.1501251E+04  0.7818609E-02  0.8883621E-01
        1   -1    0    0  501    0  0.00000000000E+00  0.00000000000E+00  0.20884025062E+04  0.20884025062E+04  0.50400001928E-02 0. -1.
       -1   -1    0    0    0  501  0.00000000000E+00  0.00000000000E+00 -0.26979411030E+03  0.26979411035E+03  0.50400001928E-02 0.  1.
    10030    2    1    2    0    0  0.00000000000E+00  0.00000000000E+00  0.18186083959E+04  0.23581966166E+04  0.15012510732E+04 0.  0.
        2    1    3    3  502    0  0.59263764242E+03  0.46027637404E+03  0.93931388679E+03  0.12022413625E+04  0.25500000920E-02 0.  1.
       -2    1    3    3    0  502 -0.59263764242E+03 -0.46027637404E+03  0.87929450915E+03  0.11559552541E+04  0.25500000920E-02 0. -1.
</event>
<event>
 5   0  0.4569211E-04  0.1549929E+04  0.7818609E-02  0.8851913E-01
        2   -1    0    0  501    0  0.00000000000E+00  0.00000000000E+00  0.77189916967E+03  0.77189916967E+03  0.25500000920E-02 0.  1.
       -2   -1    0    0    0  501  0.00000000000E+00  0.00000000000E+00 -0.77804161372E+03  0.77804161372E+03  0.25500000920E-02 0. -1.
    10030    2    1    2    0    0  0.00000000000E+00  0.00000000000E+00 -0.61424440553E+01  0.15499407834E+04  0.15499286120E+04 0.  0.
        5    1    3    3  502    0  0.39571328630E+03 -0.43063728739E+03 -0.51151410717E+03  0.77698536028E+03  0.46999998093E+01 0. -1.
       -5    1    3    3    0  502 -0.39571328630E+03  0.43063728739E+03  0.50537166312E+03  0.77295542312E+03  0.46999998093E+01 0.  1.
</event>
<event>
 5   0  0.2542737E-04  0.1460408E+04  0.7818609E-02  0.8911217E-01
       -1   -1    0    0    0  501  0.00000000000E+00  0.00000000000E+00  0.52343567527E+03  0.52343567529E+03  0.50400001928E-02 0. -1.
        1   -1    0    0  501    0  0.00000000000E+00  0.00000000000E+00 -0.10186501345E+04  0.10186501345E+04  0.50400001928E-02 0.  1.
    10030    2    1    2    0    0  0.00000000000E+00  0.00000000000E+00 -0.49521445923E+03  0.15420858098E+04  0.14604079170E+04 0.  0.
        1    1    3    3  502    0  0.37330143410E+03  0.62421550172E+03 -0.31602996916E+03  0.79301569639E+03  0.50400001928E-02 0. -1.
       -1    1    3    3    0  502 -0.37330143410E+03 -0.62421550172E+03 -0.17918449007E+03  0.74907011341E+03  0.50400001928E-02 0.  1.
</event>
<event>
 5   0  0.1792000E-04  0.1411827E+04  0.7818609E-02  0.8945302E-01
       -3   -1    0    0    0  501  0.00000000000E+00  0.00000000000E+00  0.12198113221E+04  0.12198113262E+04  0.10100000352E+00 0.  1.
        3   -1    0    0  501    0  0.00000000000E+00  0.00000000000E+00 -0.40851724282E+03  0.40851725531E+03  0.10100000352E+00 0. -1.
    10030    2    1    2    0    0  0.00000000000E+00  0.00000000000E+00  0.81129407924E+03  0.16283285815E+04  0.14118271447E+04 0.  0.
        2    1    3    3  502    0  0.60158906351E+03 -0.17664147796E+02 -0.19831530631E+02  0.60217498542E+03  0.25500000920E-02 0.  1.
       -2    1    3    3    0  502 -0.60158906351E+03  0.17664147796E+02  0.83112560987E+03  0.10261535961E+04  0.25500000920E-02 0. -1.
</event>
<event>
 5   0  0.4768387E-04  0.1525647E+04  0.7818609E-02  0.8867575E-01
        2   -1    0    0  501    0  0.00000000000E+00  0.00000000000E+00  0.10202130068E+04  0.10202130068E+04  0.25500000920E-02 0. -1.
       -2   -1    0    0    0  501  0.00000000000E+00  0.00000000000E+00 -0.57037100146E+03  0.57037100146E+03  0.25500000920E-02 0.  1.
    10030    2    1    2    0    0  0.00000000000E+00  0.00000000000E+00  0.44984200532E+03  0.15905840082E+04  0.15256472913E+04 0.  0.
        3    1    3    3  502    0 -0.41567731112E+03 -0.25090845633E+03 -0.38847249651E+03  0.62181474025E+03  0.10100000352E+00 0.  1.
       -3    1    3    3    0  502  0.41567731112E+03  0.25090845633E+03  0.83831450182E+03  0.96876926799E+03  0.10100000352E+00 0. -1.
</event>
<event>
 5   0  0.2544374E-04  0.1506475E+04  0.7818609E-02  0.8880159E-01
       -1   -1    0    0    0  501  0.00000000000E+00  0.00000000000E+00  0.76779553392E+03  0.76779553394E+03  0.50400001928E-02 0.  1.
        1   -1    0    0  501    0  0.00000000000E+00  0.00000000000E+00 -0.73895532489E+03  0.73895532491E+03  0.50400001928E-02 0. -1.
    10030    2    1    2    0    0  0.00000000000E+00  0.00000000000E+00  0.28840209032E+02  0.15067508588E+04  0.15064748232E+04 0.  0.
        4    1    3    3  502    0  0.35388036175E+03  0.58605634034E+03  0.32859808582E+03  0.75938900400E+03  0.12699999809E+01 0.  1.
       -4    1    3    3    0  502 -0.35388036175E+03 -0.58605634034E+03 -0.29975787678E+03  0.74736185485E+03  0.12699999809E+01 0. -1.
</event>
<event>
 5   0  0.4785496E-04  0.1511718E+04  0.7818609E-02  0.8876698E-01
        2   -1    0    0  501    0  0.00000000000E+00  0.00000000000E+00  0.73991168224E+03  0.73991168225E+03  0.25500000920E-02 0.  1.
       -2   -1    0    0    0  501  0.00000000000E+00  0.00000000000E+00 -0.77214969878E+03  0.77214969878E+03  0.25500000920E-02 0. -1.
    10030    2    1    2    0    0  0.00000000000E+00  0.00000000000E+00 -0.32238016536E+02  0.15120613810E+04  0.15117176755E+04 0.  0.
        4    1    3    3  502    0  0.55165764471E+03 -0.51473152159E+03 -0.61365046562E+02  0.75699536202E+03  0.12699999809E+01 0. -1.
       -4    1    3    3    0  502 -0.55165764471E+03  0.51473152159E+03  0.29127030026E+02  0.75506601901E+03  0.12699999809E+01 0.  1.
</event>
<event>
 5   0  0.4948645E-04  0.1511806E+04  0.7818609E-02  0.8876640E-01
        2   -1    0    0  501    0  0.00000000000E+00  0.00000000000E+00  0.19980523447E+04  0.19980523447E+04  0.25500000920E-02 0.  1.
       -2   -1    0    0    0  501  0.00000000000E+00  0.00000000000E+00 -0.28597320609E+03  0.28597320611E+03  0.25500000920E-02 0. -1.
    10030    2    1    2    0    0  0.00000000000E+00  0.00000000000E+00  0.17120791386E+04  0.22840255508E+04  0.15118061185E+04 0.  0.
        1    1    3    3  502    0 -0.78068730243E+02 -0.35718114808E+03  0.18555820048E+04  0.18912582255E+04  0.50400001928E-02 0.  1.
       -1    1    3    3    0  502  0.78068730243E+02  0.35718114808E+03 -0.14350286616E+03  0.39276732528E+03  0.50400001928E-02 0. -1.
</event>
<event>
 5   0  0.2605471E-04  0.1498388E+04  0.7818609E-02  0.8885525E-01
       -1   -1    0    0    0  501  0.00000000000E+00  0.00000000000E+00  0.13315470290E+04  0.13315470290E+04  0.50400001928E-02 0.  1.
        1   -1    0    0  501    0  0.00000000000E+00  0.00000000000E+00 -0.42153357911E+03  0.42153357914E+03  0.50400001928E-02 0. -1.
    10030    2    1    2    0    0  0.00000000000E+00  0.00000000000E+00  0.91001344992E+03  0.17530806082E+04  0.14983881806E+04 0.  0.
        3    1    3    3  502    0  0.37069251043E+03  0.25598659643E+03 -0.24536897532E+03  0.51297955037E+03  0.10100000352E+00 0. -1.
       -3    1    3    3    0  502 -0.37069251043E+03 -0.25598659643E+03  0.11553824252E+04  0.12401010578E+04  0.10100000352E+00 0.  1.
</event>
<event>
 5   0  0.4768387E-04  0.1501772E+04  0.7818609E-02  0.8883276E-01
        2   -1    0    0  501    0  0.00000000000E+00  0.00000000000E+00  0.15913638057E+04  0.15913638057E+04  0.25500000920E-02 0.  1.
       -2   -1    0    0    0  501  0.00000000000E+00  0.00000000000E+00 -0.35430588280E+03  0.35430588281E+03  0.25500000920E-02 0. -1.
    10030    2    1    2    0    0  0.00000000000E+00  0.00000000000E+00  0.12370579229E+04  0.19456696885E+04  0.15017716978E+04 0.  0.
        3    1    3    3  502    0 -0.74220048181E+03  0.55125157624E+02  0.74762786031E+03  0.10549159995E+04  0.10100000352E+00 0.  1.
       -3    1    3    3    0  502  0.74220048181E+03 -0.55125157624E+02  0.48943006258E+03  0.89075368905E+03  0.10100000352E+00 0. -1.
</event>
<event>
 5   0  0.2544374E-04  0.1497627E+04  0.7818609E-02  0.8886032E-01
       -1   -1    0    0    0  501  0.00000000000E+00  0.00000000000E+00  0.39190083107E+03  0.39190083110E+03  0.50400001928E-02 0. -1.
        1   -1    0    0  501    0  0.00000000000E+00  0.00000000000E+00 -0.14307748773E+04  0.14307748773E+04  0.50400001928E-02 0.  1.
    10030    2    1    2    0    0  0.00000000000E+00  0.00000000000E+00 -0.10388740462E+04  0.18226757084E+04  0.14976272748E+04 0.  0.
        4    1    3    3  502    0 -0.14254158858E+03  0.63728370172E+03 -0.73475084403E+02  0.65715205385E+03  0.12699999809E+01 0. -1.
       -4    1    3    3    0  502  0.14254158858E+03 -0.63728370172E+03 -0.96539896184E+03  0.11655236546E+04  0.12699999809E+01 0.  1.
</event>
<event>
 5   0  0.4726600E-04  0.1502866E+04  0.7818609E-02  0.8882549E-01
       -2   -1    0    0    0  501  0.00000000000E+00  0.00000000000E+00  0.64944426976E+03  0.64944426977E+03  0.25500000920E-02 0. -1.
        2   -1    0    0  501    0  0.00000000000E+00  0.00000000000E+00 -0.86943776565E+03  0.86943776565E+03  0.25500000920E-02 0.  1.
    10030    2    1    2    0    0  0.00000000000E+00  0.00000000000E+00 -0.21999349589E+03  0.15188820354E+04  0.15028657622E+04 0.  0.
        2    1    3    3  502    0  0.27004576272E+03 -0.29516878133E+03  0.53286545929E+03  0.66632943890E+03  0.25500000920E-02 0. -1.
       -2    1    3    3    0  502 -0.27004576272E+03  0.29516878133E+03 -0.75285895518E+03  0.85255259652E+03  0.25500000920E-02 0.  1.
</event>
<event>
 5   0  0.2544374E-04  0.1499232E+04  0.7818609E-02  0.8884964E-01
        1   -1    0    0  501    0  0.00000000000E+00  0.00000000000E+00  0.17407715469E+04  0.17407715469E+04  0.50400001928E-02 0. -1.
       -1   -1    0    0    0  501  0.00000000000E+00  0.00000000000E+00 -0.32280189449E+03  0.32280189453E+03  0.50400001928E-02 0.  1.
    10030    2    1    2    0    0  0.00000000000E+00  0.00000000000E+00  0.14179696524E+04  0.20635734414E+04  0.14992322746E+04 0.  0.
        4    1    3    3  502    0  0.21982220506E+03 -0.71068274257E+03  0.83611551978E+03  0.11191436627E+04  0.12699999809E+01 0. -1.
       -4    1    3    3    0  502 -0.21982220506E+03  0.71068274257E+03  0.58185413264E+03  0.94442977876E+03  0.12699999809E+01 0.  1.
</event>
<event>
 5   0  0.2544374E-04  0.1505589E+04  0.7818609E-02  0.8880745E-01
        1   -1    0    0  501    0  0.00000000000E+00  0.00000000000E+00  0.76882789021E+03  0.76882789023E+03  0.50400001928E-02 0. -1.
       -1   -1    0    0    0  501  0.00000000000E+00  0.00000000000E+00 -0.73709501559E+03  0.73709501561E+03  0.50400001928E-02 0.  1.
    10030    2    1    2    0    0  0.00000000000E+00  0.00000000000E+00  0.31732874621E+02  0.15059229058E+04  0.15055885304E+04 0.  0.
        4    1    3    3  502    0  0.25571799050E+03 -0.20617803274E+03 -0.66162919471E+03  0.73868523475E+03  0.12699999809E+01 0.  1.
       -4    1    3    3    0  502 -0.25571799050E+03  0.20617803274E+03  0.69336206933E+03  0.76723767109E+03  0.12699999809E+01 0. -1.
</event>
<event>
 5   0  0.2603873E-04  0.1504942E+04  0.7818609E-02  0.8881173E-01
        1   -1    0    0  501    0  0.00000000000E+00  0.00000000000E+00  0.11962030697E+04  0.11962030698E+04  0.50400001928E-02 0.  1.
       -1   -1    0    0    0  501  0.00000000000E+00  0.00000000000E+00 -0.47334180980E+03  0.47334180983E+03  0.50400001928E-02 0. -1.
    10030    2    1    2    0    0  0.00000000000E+00  0.00000000000E+00  0.72286125994E+03  0.16695448796E+04  0.15049424254E+04 0.  0.
        2    1    3    3  502    0  0.19574199112E+03  0.57644907146E+03  0.85207587759E+03  0.10472066464E+04  0.25500000920E-02 0.  1.
       -2    1    3    3    0  502 -0.19574199112E+03 -0.57644907146E+03 -0.12921461765E+03  0.62233823319E+03  0.25500000920E-02 0. -1.
</event>
<event>
 5   0  0.4726600E-04  0.1538627E+04  0.7818609E-02  0.8859165E-01
       -2   -1    0    0    0  501  0.00000000000E+00  0.00000000000E+00  0.67549189553E+03  0.67549189553E+03  0.25500000920E-02 0. -1.
        2   -1    0    0  501    0  0.00000000000E+00  0.00000000000E+00 -0.87616630733E+03  0.87616630733E+03  0.25500000920E-02 0.  1.
    10030    2    1    2    0    0  0.00000000000E+00  0.00000000000E+00 -0.20067441180E+03  0.15516582029E+04  0.15386269720E+04 0.  0.
        2    1    3    3  502    0  0.37269410900E+03  0.20075982775E+02 -0.77874506230E+03  0.86356691462E+03  0.25500000920E-02 0.  1.
       -2    1    3    3    0  502 -0.37269410900E+03 -0.20075982775E+02  0.57807065051E+03  0.68809128824E+03  0.25500000920E-02 0. -1.
</event>
<event>
 5   0  0.4948645E-04  0.1516978E+04  0.7818609E-02  0.8873241E-01
        2   -1    0    0  501    0  0.00000000000E+00  0.00000000000E+00  0.14837727634E+04  0.14837727634E+04  0.25500000920E-02 0.  1.
       -2   -1    0    0    0  501  0.00000000000E+00  0.00000000000E+00 -0.38773161810E+03  0.38773161811E+03  0.25500000920E-02 0. -1.
    10030    2    1    2    0    0  0.00000000000E+00  0.00000000000E+00  0.10960411453E+04  0.18715043815E+04  0.15169780677E+04 0.  0.
        1    1    3    3  502    0  0.23088091459E+03 -0.50035108611E+03 -0.94985580297E+02  0.55917749113E+03  0.50400001928E-02 0. -1.
       -1    1    3    3    0  502 -0.23088091459E+03  0.50035108611E+03  0.11910267256E+04  0.13123268904E+04  0.50400001928E-02 0.  1.
</event>
<event>
 5   0  0.4569211E-04  0.1495149E+04  0.7818609E-02  0.8887685E-01
       -2   -1    0    0    0  501  0.00000000000E+00  0.00000000000E+00  0.58304363435E+03  0.58304363436E+03  0.25500000920E-02 0.  1.
        2   -1    0    0  501    0  0.00000000000E+00  0.00000000000E+00 -0.95853521223E+03  0.95853521224E+03  0.25500000920E-02 0. -1.
    10030    2    1    2    0    0  0.00000000000E+00  0.00000000000E+00 -0.37549157788E+03  0.15415788466E+04  0.14951492953E+04 0.  0.
        5    1    3    3  502    0  0.23064890673E+03  0.66553740184E+03 -0.44593526970E+03  0.83367817903E+03  0.46999998093E+01 0.  1.
       -5    1    3    3    0  502 -0.23064890673E+03 -0.66553740184E+03  0.70443691821E+02  0.70790066757E+03  0.46999998093E+01 0. -1.
</event>
<event>
 5   0  0.4948645E-04  0.1499684E+04  0.7818609E-02  0.8884663E-01
       -2   -1    0    0    0  501  0.00000000000E+00  0.00000000000E+00  0.68707575966E+03  0.68707575967E+03  0.25500000920E-02 0.  1.
        2   -1    0    0  501    0  0.00000000000E+00  0.00000000000E+00 -0.81834230539E+03  0.81834230540E+03  0.25500000920E-02 0. -1.
    10030    2    1    2    0    0  0.00000000000E+00  0.00000000000E+00 -0.13126654573E+03  0.15054180651E+04  0.14996841816E+04 0.  0.
        1    1    3    3  502    0 -0.19617011471E+03 -0.38896109752E+03  0.54701957080E+03  0.69928810954E+03  0.50400001928E-02 0.  1.
       -1    1    3    3    0  502  0.19617011471E+03  0.38896109752E+03 -0.67828611653E+03  0.80612995552E+03  0.50400001928E-02 0. -1.
</event>
<event>
 5   0  0.2542737E-04  0.1579744E+04  0.7818609E-02  0.8833089E-01
        1   -1    0    0  501    0  0.00000000000E+00  0.00000000000E+00  0.12149139900E+04  0.12149139900E+04  0.50400001928E-02 0.  1.
       -1   -1    0    0    0  501  0.00000000000E+00  0.00000000000E+00 -0.51353269000E+03  0.51353269002E+03  0.50400001928E-02 0. -1.
    10030    2    1    2    0    0  0.00000000000E+00  0.00000000000E+00  0.70138129995E+03  0.17284466800E+04  0.15797443457E+04 0.  0.
        1    1    3    3  502    0  0.13563439319E+03 -0.17638140716E+03 -0.47853547319E+03  0.52773410780E+03  0.50400001928E-02 0. -1.
       -1    1    3    3    0  502 -0.13563439319E+03  0.17638140716E+03  0.11799167731E+04  0.12007125722E+04  0.50400001928E-02 0.  1.
</event>
<event>
 5   0  0.4569211E-04  0.1502271E+04  0.7818609E-02  0.8882944E-01
        2   -1    0    0  501    0  0.00000000000E+00  0.00000000000E+00  0.20309353081E+04  0.20309353081E+04  0.25500000920E-02 0.  1.
       -2   -1    0    0    0  501  0.00000000000E+00  0.00000000000E+00 -0.27780542378E+03  0.27780542379E+03  0.25500000920E-02 0. -1.
    10030    2    1    2    0    0  0.00000000000E+00  0.00000000000E+00  0.17531298843E+04  0.23087407319E+04  0.15022714055E+04 0.  0.
        5    1    3    3  502    0 -0.15496534793E+03  0.34332628785E+03 -0.12213498732E+03  0.39601293427E+03  0.46999998093E+01 0. -1.
       -5    1    3    3    0  502  0.15496534793E+03 -0.34332628785E+03  0.18752648716E+04  0.19127277976E+04  0.46999998093E+01 0.  1.
</event>
<event>
 5   0  0.1792000E-04  0.1479160E+04  0.7818609E-02  0.8898431E-01
       -3   -1    0    0    0  501  0.00000000000E+00  0.00000000000E+00  0.43107663042E+03  0.43107664225E+03  0.10100000352E+00 0. -1.
        3   -1    0    0  501    0  0.00000000000E+00  0.00000000000E+00 -0.12688659775E+04  0.12688659815E+04  0.10100000352E+00 0.  1.
    10030    2    1    2    0    0  0.00000000000E+00  0.00000000000E+00 -0.83778934706E+03  0.16999426237E+04  0.14791598744E+04 0.  0.
        4    1    3    3  502    0 -0.80054237072E+02  0.65692554405E+03 -0.39434415179E+02  0.66296043419E+03  0.12699999809E+01 0. -1.
       -4    1    3    3    0  502  0.80054237072E+02 -0.65692554405E+03 -0.79835493188E+03  0.10369821896E+04  0.12699999809E+01 0.  1.
</event>
<event>
 5   0  0.4785496E-04  0.1525418E+04  0.7818609E-02  0.8867724E-01
       -2   -1    0    0    0  501  0.00000000000E+00  0.00000000000E+00  0.68043926648E+03  0.68043926649E+03  0.25500000920E-02 0. -1.
        2   -1    0    0  501    0  0.00000000000E+00  0.00000000000E+00 -0.85492588131E+03  0.85492588131E+03  0.25500000920E-02 0.  1.
    10030    2    1    2    0    0  0.00000000000E+00  0.00000000000E+00 -0.17448661483E+03  0.15353651478E+04  0.15254181585E+04 0.  0.
        4    1    3    3  502    0 -0.30903757230E+03  0.63924878979E+03  0.19310534086E+03  0.73582234399E+03  0.12699999809E+01 0.  1.
       -4    1    3    3    0  502  0.30903757230E+03 -0.63924878979E+03 -0.36759195568E+03  0.79954280381E+03  0.12699999809E+01 0. -1.
</event>
<event>
 5   0  0.4785496E-04  0.1482229E+04  0.7818609E-02  0.8896357E-01
        2   -1    0    0  501    0  0.00000000000E+00  0.00000000000E+00  0.12512888583E+04  0.12512888583E+04  0.25500000920E-02 0.  1.
       -2   -1    0    0    0  501  0.00000000000E+00  0.00000000000E+00 -0.43894779741E+03  0.43894779742E+03  0.25500000920E-02 0. -1.
    10030    2    1    2    0    0  0.00000000000E+00  0.00000000000E+00  0.81234106085E+03  0.16902366557E+04  0.14822287115E+04 0.  0.
        4    1    3    3  502    0 -0.50029862509E+03 -0.33532839728E+03  0.89863801988E+03  0.10818020854E+04  0.12699999809E+01 0. -1.
       -4    1    3    3    0  502  0.50029862509E+03  0.33532839728E+03 -0.86296959026E+02  0.60843457029E+03  0.12699999809E+01 0.  1.
</event>
<event>
 5   0  0.2603873E-04  0.1592985E+04  0.7818609E-02  0.8824869E-01
       -1   -1    0    0    0  501  0.00000000000E+00  0.00000000000E+00  0.67277617969E+03  0.67277617970E+03  0.50400001928E-02 0.  1.
        1   -1    0    0  501    0  0.00000000000E+00  0.00000000000E+00 -0.94295894904E+03  0.94295894905E+03  0.50400001928E-02 0. -1.
    10030    2    1    2    0    0  0.00000000000E+00  0.00000000000E+00 -0.27018276935E+03  0.16157351288E+04  0.15929850211E+04 0.  0.
        2    1    3    3  502    0  0.62814626963E+03 -0.18854627833E+03 -0.59352289970E+03  0.88452635212E+03  0.25500000920E-02 0. -1.
       -2    1    3    3    0  502 -0.62814626963E+03  0.18854627833E+03  0.32334013034E+03  0.73120877663E+03  0.25500000920E-02 0.  1.
</event>
<event>
 5   0  0.2542737E-04  0.1495055E+04  0.7818609E-02  0.8887748E-01
        1   -1    0    0  501    0  0.00000000000E+00  0.00000000000E+00  0.72528423780E+03  0.72528423782E+03  0.50400001928E-02 0. -1.
       -1   -1    0    0    0  501  0.00000000000E+00  0.00000000000E+00 -0.77045293820E+03  0.77045293822E+03  0.50400001928E-02 0.  1.
    10030    2    1    2    0    0  0.00000000000E+00  0.00000000000E+00 -0.45168700399E+02  0.14957371760E+04  0.14950550118E+04 0.  0.
        1    1    3    3  502    0  0.60953110003E+03  0.34604870312E+03  0.23737936826E+03  0.74001812906E+03  0.50400001928E-02 0.  1.
       -1    1    3    3    0  502 -0.60953110003E+03 -0.34604870312E+03 -0.28254806866E+03  0.75571904698E+03  0.50400001928E-02 0. -1.
</event>
<event>
 5   0  0.2565416E-04  0.1496057E+04  0.7818609E-02  0.8887079E-01
       -1   -1    0    0    0  501  0.00000000000E+00  0.00000000000E+00  0.23587434675E+03  0.23587434681E+03  0.50400001928E-02 0. -1.
        1   -1    0    0  501    0  0.00000000000E+00  0.00000000000E+00 -0.23722241983E+04  0.23722241983E+04  0.50400001928E-02 0.  1.
    10030    2    1    2    0    0  0.00000000000E+00  0.00000000000E+00 -0.21363498516E+04  0.26080985452E+04  0.14960572626E+04 0.  0.
        5    1    3    3  502    0  0.56792495950E+03  0.26551853927E+03 -0.35685578578E+03  0.72139240096E+03  0.46999998093E+01 0. -1.
       -5    1    3    3    0  502 -0.56792495950E+03 -0.26551853927E+03 -0.17794940658E+04  0.18867061442E+04  0.46999998093E+01 0.  1.
</event>
<event>
 5   0  0.4785496E-04  0.1521980E+04  0.7818609E-02  0.8869967E-01
        2   -1    0    0  501    0  0.00000000000E+00  0.00000000000E+00  0.12501439033E+04  0.12501439033E+04  0.25500000920E-02 0. -1.
       -2   -1    0    0    0  501  0.00000000000E+00  0.00000000000E+00 -0.46323130794E+03  0.46323130794E+03  0.25500000920E-02 0.  1.
    10030    2    1    2    0    0  0.00000000000E+00  0.00000000000E+00  0.78691259532E+03  0.17133752112E+04  0.15219800201E+04 0.  0.
        4    1    3    3  502    0 -0.44633792013E+03 -0.55848394312E+03  0.99933696732E+02  0.72187963700E+03  0.12699999809E+01 0.  1.
       -4    1    3    3    0  502  0.44633792013E+03  0.55848394312E+03  0.68697889858E+03  0.99149557420E+03  0.12699999809E+01 0. -1.
</event>
<event>
 5   0  0.4569211E-04  0.1507524E+04  0.7818609E-02  0.8879465E-01
        2   -1    0    0  501    0  0.00000000000E+00  0.00000000000E+00  0.10336148615E+04  0.10336148615E+04  0.25500000920E-02 0. -1.
       -2   -1    0    0    0  501  0.00000000000E+00  0.00000000000E+00 -0.54967958121E+03  0.54967958122E+03  0.25500000920E-02 0.  1.
    10030    2    1    2    0    0  0.00000000000E+00  0.00000000000E+00  0.48393528029E+03  0.15832944427E+04  0.15075237766E+04 0.  0.
        5    1    3    3  502    0 -0.48462353246E+03 -0.44751119982E+02  0.84645893953E+03  0.97641049629E+03  0.46999998093E+01 0.  1.
       -5    1    3    3    0  502  0.48462353246E+03  0.44751119982E+02 -0.36252365923E+03  0.60688394645E+03  0.46999998093E+01 0. -1.
</event>
<event>
 5   0  0.4948645E-04  0.1484581E+04  0.7818609E-02  0.8894772E-01
       -2   -1    0    0    0  501  0.00000000000E+00  0.00000000000E+00  0.63867634788E+03  0.63867634789E+03  0.25500000920E-02 0. -1.
        2   -1    0    0  501    0  0.00000000000E+00  0.00000000000E+00 -0.86271406462E+03  0.86271406462E+03  0.25500000920E-02 0.  1.
    10030    2    1    2    0    0  0.00000000000E+00  0.00000000000E+00 -0.22403771674E+03  0.15013904125E+04  0.14845808406E+04 0.  0.
        1    1    3    3  502    0 -0.37779511997E+03  0.61482925569E+03 -0.28791606762E+03  0.77694261587E+03  0.50400001928E-02 0.  1.
       -1    1    3    3    0  502  0.37779511997E+03 -0.61482925569E+03  0.63878350885E+02  0.72444779665E+03  0.50400001928E-02 0. -1.
</event>
<event>
 5   0  0.4948645E-04  0.1634577E+04  0.7818609E-02  0.8799583E-01
        2   -1    0    0  501    0  0.00000000000E+00  0.00000000000E+00  0.18763520451E+04  0.18763520451E+04  0.25500000920E-02 0. -1.
       -2   -1    0    0    0  501  0.00000000000E+00  0.00000000000E+00 -0.35598867844E+03  0.35598867845E+03  0.25500000920E-02 0.  1.
    10030    2    1    2    0    0  0.00000000000E+00  0.00000000000E+00  0.15203633667E+04  0.22323407236E+04  0.16345765015E+04 0.  0.
        1    1    3    3  502    0 -0.79071342636E+03 -0.17600686760E+03  0.61211850995E+03  0.10153300992E+04  0.50400001928E-02 0.  1.
       -1    1    3    3    0  502  0.79071342636E+03  0.17600686760E+03  0.90824485673E+03  0.12170106244E+04  0.50400001928E-02 0. -1.
</event>
<event>
 5   0  0.2565416E-04  0.1496759E+04  0.7818609E-02  0.8886611E-01
        1   -1    0    0  501    0  0.00000000000E+00  0.00000000000E+00  0.57158129016E+03  0.57158129018E+03  0.50400001928E-02 0. -1.
       -1   -1    0    0    0  501  0.00000000000E+00  0.00000000000E+00 -0.97986332229E+03  0.97986332231E+03  0.50400001928E-02 0.  1.
    10030    2    1    2    0    0  0.00000000000E+00  0.00000000000E+00 -0.40828203214E+03  0.15514446125E+04  0.14967585536E+04 0.  0.
        5    1    3    3  502    0  0.14982100773E+03 -0.43832571204E+03 -0.81338607385E+03  0.93605275456E+03  0.46999998093E+01 0.  1.
       -5    1    3    3    0  502 -0.14982100773E+03  0.43832571204E+03  0.40510404171E+03  0.61539185793E+03  0.46999998093E+01 0. -1.
</event>
<event>
 5   0  0.2565416E-04  0.1498156E+04  0.7818609E-02  0.8885680E-01
        1   -1    0    0  501    0  0.00000000000E+00  0.00000000000E+00  0.45447439352E+03  0.45447439355E+03  0.50400001928E-02 0. -1.
       -1   -1    0    0    0  501  0.00000000000E+00  0.00000000000E+00 -0.12346521990E+04  0.12346521990E+04  0.50400001928E-02 0.  1.
    10030    2    1    2    0    0  0.00000000000E+00  0.00000000000E+00 -0.78017780551E+03  0.16891265926E+04  0.14981559457E+04 0.  0.
        5    1    3    3  502    0 -0.73670629431E+03  0.20705880972E+02 -0.54106398490E+03  0.91429602610E+03  0.46999998093E+01 0. -1.
       -5    1    3    3    0  502  0.73670629431E+03 -0.20705880972E+02 -0.23911382061E+03  0.77483056650E+03  0.46999998093E+01 0.  1.
</event>
<event>
 5   0  0.4785496E-04  0.1499232E+04  0.7818609E-02  0.8884964E-01
       -2   -1    0    0    0  501  0.00000000000E+00  0.00000000000E+00  0.58427470593E+03  0.58427470593E+03  0.25500000920E-02 0.  1.
        2   -1    0    0  501    0  0.00000000000E+00  0.00000000000E+00 -0.96174651852E+03  0.96174651853E+03  0.25500000920E-02 0. -1.
    10030    2    1    2    0    0  0.00000000000E+00  0.00000000000E+00 -0.37747181260E+03  0.15460212245E+04  0.14992320225E+04 0.  0.
        4    1    3    3  502    0  0.73847343636E+03  0.12592507282E+03 -0.16101937730E+03  0.76624342930E+03  0.12699999809E+01 0.  1.
       -4    1    3    3    0  502 -0.73847343636E+03 -0.12592507282E+03 -0.21645243529E+03  0.77977779516E+03  0.12699999809E+01 0. -1.
</event>
<event>
 5   0  0.2544374E-04  0.1502589E+04  0.7818609E-02  0.8882733E-01
       -1   -1    0    0    0  501  0.00000000000E+00  0.00000000000E+00  0.21142602763E+04  0.21142602763E+04  0.50400001928E-02 0.  1.
        1   -1    0    0  501    0  0.00000000000E+00  0.00000000000E+00 -0.26696972549E+03  0.26696972554E+03  0.50400001928E-02 0. -1.
    10030    2    1    2    0    0  0.00000000000E+00  0.00000000000E+00  0.18472905508E+04  0.23812300018E+04  0.15025890797E+04 0.  0.
        4    1    3    3  502    0 -0.40057268641E+03 -0.35570493847E+03  0.88889816756E+02  0.54303544338E+03  0.12699999809E+01 0. -1.
       -4    1    3    3    0  502  0.40057268641E+03  0.35570493847E+03  0.17584007340E+04  0.18381945584E+04  0.12699999809E+01 0.  1.
</event>
<event>
 5   0  0.4785496E-04  0.1508297E+04  0.7818609E-02  0.8878954E-01
       -2   -1    0    0    0  501  0.00000000000E+00  0.00000000000E+00  0.72349848798E+03  0.72349848799E+03  0.25500000920E-02 0. -1.
        2   -1    0    0  501    0  0.00000000000E+00  0.00000000000E+00 -0.78609671130E+03  0.78609671131E+03  0.25500000920E-02 0.  1.
    10030    2    1    2    0    0  0.00000000000E+00  0.00000000000E+00 -0.62598223321E+02  0.15095951993E+04  0.15082967640E+04 0.  0.
        4    1    3    3  502    0  0.64739948553E+03  0.22731834118E+03 -0.34451970898E+03  0.76778588479E+03  0.12699999809E+01 0. -1.
       -4    1    3    3    0  502 -0.64739948553E+03 -0.22731834118E+03  0.28192148566E+03  0.74180931450E+03  0.12699999809E+01 0.  1.
</event>
<event>
 5   0  0.2605471E-04  0.1472171E+04  0.7818609E-02  0.8903173E-01
       -1   -1    0    0    0  501  0.00000000000E+00  0.00000000000E+00  0.45377494627E+03  0.45377494630E+03  0.50400001928E-02 0.  1.
        1   -1    0    0  501    0  0.00000000000E+00  0.00000000000E+00 -0.11940325166E+04  0.11940325166E+04  0.50400001928E-02 0. -1.
    10030    2    1    2    0    0  0.00000000000E+00  0.00000000000E+00 -0.74025757032E+03  0.16478074629E+04  0.14721712415E+04 0.  0.
        3    1    3    3  502    0  0.77027719265E+02 -0.14486669821E+02  0.44909094805E+03  0.45587917584E+03  0.10100000352E+00 0.  1.
       -3    1    3    3    0  502 -0.77027719265E+02  0.14486669821E+02 -0.11893485184E+04  0.11919282871E+04  0.10100000352E+00 0. -1.
</event>
<event>
 5   0  0.2544374E-04  0.1490384E+04  0.7818609E-02  0.8890872E-01
       -1   -1    0    0    0  501  0.00000000000E+00  0.00000000000E+00  0.34725414847E+03  0.34725414851E+03  0.50400001928E-02 0.  1.
        1   -1    0    0  501    0  0.00000000000E+00  0.00000000000E+00 -0.15991500225E+04  0.15991500225E+04  0.50400001928E-02 0. -1.
    10030    2    1    2    0    0  0.00000000000E+00  0.00000000000E+00 -0.12518958740E+04  0.19464041710E+04  0.14903844865E+04 0.  0.
        4    1    3    3  502    0  0.22267237350E+03 -0.56908603550E+03 -0.69002296774E+02  0.61498360269E+03  0.12699999809E+01 0.  1.
       -4    1    3    3    0  502 -0.22267237350E+03  0.56908603550E+03 -0.11828935772E+04  0.13314205683E+04  0.12699999809E+01 0. -1.
</event>
<event>
 5   0  0.2603873E-04  0.1499111E+04  0.7818609E-02  0.8885044E-01
        1   -1    0    0  501    0  0.00000000000E+00  0.00000000000E+00  0.10687900864E+04  0.10687900864E+04  0.50400001928E-02 0.  1.
       -1   -1    0    0    0  501  0.00000000000E+00  0.00000000000E+00 -0.52567263991E+03  0.52567263994E+03  0.50400001928E-02 0. -1.
    10030    2    1    2    0    0  0.00000000000E+00  0.00000000000E+00  0.54311744647E+03  0.15944627263E+04  0.14991113451E+04 0.  0.
        2    1    3    3  502    0  0.31768843859E+03 -0.45383914564E+03 -0.26547009365E+03  0.61430471653E+03  0.25500000920E-02 0. -1.
       -2    1    3    3    0  502 -0.31768843859E+03  0.45383914564E+03  0.80858754012E+03  0.98015800980E+03  0.25500000920E-02 0.  1.
</event>
<event>
 5   0  0.4948645E-04  0.1488450E+04  0.7818609E-02  0.8892170E-01
       -2   -1    0    0    0  501  0.00000000000E+00  0.00000000000E+00  0.50871673097E+03  0.50871673097E+03  0.25500000920E-02 0. -1.
        2   -1    0    0  501    0  0.00000000000E+00  0.00000000000E+00 -0.10887603312E+04  0.10887603312E+04  0.25500000920E-02 0.  1.
    10030    2    1    2    0    0  0.00000000000E+00  0.00000000000E+00 -0.58004360026E+03  0.15974770622E+04  0.14884496586E+04 0.  0.
        1    1    3    3  502    0  0.17639478663E+03 -0.41861365613E+03  0.34266559743E+03  0.56900986419E+03  0.50400001928E-02 0. -1.
       -1    1    3    3    0  502 -0.17639478663E+03  0.41861365613E+03 -0.92270919769E+03  0.10284671980E+04  0.50400001928E-02 0.  1.
</event>
<event>
 5   0  0.2542737E-04  0.1502091E+04  0.7818609E-02  0.8883064E-01
       -1   -1    0    0    0  501  0.00000000000E+00  0.00000000000E+00  0.10367411801E+04  0.10367411801E+04  0.50400001928E-02 0.  1.
        1   -1    0    0  501    0  0.00000000000E+00  0.00000000000E+00 -0.54407916537E+03  0.54407916540E+03  0.50400001928E-02 0. -1.
    10030    2    1    2    0    0  0.00000000000E+00  0.00000000000E+00  0.49266201471E+03  0.15808203455E+04  0.15020909107E+04 0.  0.
        1    1    3    3  502    0  0.31594664871E+03  0.32556193940E+03  0.87624794522E+03  0.98672352903E+03  0.50400001928E-02 0.  1.
       -1    1    3    3    0  502 -0.31594664871E+03 -0.32556193940E+03 -0.38358593051E+03  0.59409681646E+03  0.50400001928E-02 0. -1.
</event>
<event>
 5   0  0.4948645E-04  0.1503114E+04  0.7818609E-02  0.8882385E-01
        2   -1    0    0  501    0  0.00000000000E+00  0.00000000000E+00  0.10356786898E+04  0.10356786898E+04  0.25500000920E-02 0. -1.
       -2   -1    0    0    0  501  0.00000000000E+00  0.00000000000E+00 -0.54537970728E+03  0.54537970728E+03  0.25500000920E-02 0.  1.
    10030    2    1    2    0    0  0.00000000000E+00  0.00000000000E+00  0.49029898250E+03  0.15810583971E+04  0.15031142880E+04 0.  0.
        1    1    3    3  502    0  0.21624745772E+03  0.68635867964E+03  0.47315455483E+03  0.86123541083E+03  0.50400001928E-02 0. -1.
       -1    1    3    3    0  502 -0.21624745772E+03 -0.68635867964E+03  0.17144427676E+02  0.71982298624E+03  0.50400001928E-02 0.  1.
</event>
<event>
 5   0  0.4726600E-04  0.1504704E+04  0.7818609E-02  0.8881331E-01
       -2   -1    0    0    0  501  0.00000000000E+00  0.00000000000E+00  0.82790138668E+03  0.82790138668E+03  0.25500000920E-02 0.  1.
        2   -1    0    0  501    0  0.00000000000E+00  0.00000000000E+00 -0.68369702856E+03  0.68369702856E+03  0.25500000920E-02 0. -1.
    10030    2    1    2    0    0  0.00000000000E+00  0.00000000000E+00  0.14420435812E+03  0.15115984152E+04  0.15047042474E+04 0.  0.
        2    1    3    3  502    0 -0.66735931904E+02  0.41093803168E+02  0.82378937622E+03  0.82750910668E+03  0.25500000920E-02 0.  1.
       -2    1    3    3    0  502  0.66735931904E+02 -0.41093803168E+02 -0.67958501810E+03  0.68408930857E+03  0.25500000920E-02 0. -1.
</event>
<event>
 5   0  0.4785496E-04  0.1493378E+04  0.7818609E-02  0.8888868E-01
        2   -1    0    0  501    0  0.00000000000E+00  0.00000000000E+00  0.10701505240E+04  0.10701505240E+04  0.25500000920E-02 0.  1.
       -2   -1    0    0    0  501  0.00000000000E+00  0.00000000000E+00 -0.52099644221E+03  0.52099644221E+03  0.25500000920E-02 0. -1.
    10030    2    1    2    0    0  0.00000000000E+00  0.00000000000E+00  0.54915408177E+03  0.15911469662E+04  0.14933782048E+04 0.  0.
        4    1    3    3  502    0 -0.33448293819E+03 -0.13739380020E+03  0.97063616987E+03  0.10358050393E+04  0.12699999809E+01 0.  1.
       -4    1    3    3    0  502  0.33448293819E+03  0.13739380020E+03 -0.42148208810E+03  0.55534192689E+03  0.12699999809E+01 0. -1.
</event>
<event>
 5   0  0.2603873E-04  0.1508505E+04  0.7818609E-02  0.8878817E-01
       -1   -1    0    0    0  501  0.00000000000E+00  0.00000000000E+00  0.14734999939E+04  0.14734999939E+04  0.50400001928E-02 0.  1.
        1   -1    0    0  501    0  0.00000000000E+00  0.00000000000E+00 -0.38608525448E+03  0.38608525452E+03  0.50400001928E-02 0. -1.
    10030    2    1    2    0    0  0.00000000000E+00  0.00000000000E+00  0.10874147395E+04  0.18595852485E+04  0.15085047168E+04 0.  0.
        2    1    3    3  502    0 -0.11973924558E+02 -0.12881216545E+03  0.14597214617E+04  0.14654428322E+04  0.25500000920E-02 0.  1.
       -2    1    3    3    0  502  0.11973924558E+02  0.12881216545E+03 -0.37230672224E+03  0.39414241622E+03  0.25500000920E-02 0. -1.
</event>
<event>
 5   0  0.2542737E-04  0.1382182E+04  0.7818609E-02  0.8966818E-01
        1   -1    0    0  501    0  0.00000000000E+00  0.00000000000E+00  0.98162708167E+03  0.98162708168E+03  0.50400001928E-02 0. -1.
       -1   -1    0    0    0  501  0.00000000000E+00  0.00000000000E+00 -0.48654615094E+03  0.48654615097E+03  0.50400001928E-02 0.  1.
    10030    2    1    2    0    0  0.00000000000E+00  0.00000000000E+00  0.49508093073E+03  0.14681732327E+04  0.13821821563E+04 0.  0.
        1    1    3    3  502    0 -0.35389771612E+03  0.58022504206E+03  0.11443617035E+03  0.68920267703E+03  0.50400001928E-02 0.  1.
       -1    1    3    3    0  502  0.35389771612E+03 -0.58022504206E+03  0.38064476038E+03  0.77897055563E+03  0.50400001928E-02 0. -1.
</event>
<event>
 5   0  0.4785496E-04  0.1496979E+04  0.7818609E-02  0.8886464E-01
        2   -1    0    0  501    0  0.00000000000E+00  0.00000000000E+00  0.73722793371E+03  0.73722793372E+03  0.25500000920E-02 0.  1.
       -2   -1    0    0    0  501  0.00000000000E+00  0.00000000000E+00 -0.75992298351E+03  0.75992298351E+03  0.25500000920E-02 0. -1.
    10030    2    1    2    0    0  0.00000000000E+00  0.00000000000E+00 -0.22695049792E+02  0.14971509172E+04  0.14969788922E+04 0.  0.
        4    1    3    3  502    0 -0.61308020865E+03 -0.12170380590E+03  0.40047118591E+03  0.74233277056E+03  0.12699999809E+01 0.  1.
       -4    1    3    3    0  502  0.61308020865E+03  0.12170380590E+03 -0.42316623570E+03  0.75481814667E+03  0.12699999809E+01 0. -1.
</event>
<event>
 5   0  0.4569211E-04  0.1495661E+04  0.7818609E-02  0.8887344E-01
        2   -1    0    0  501    0  0.00000000000E+00  0.00000000000E+00  0.10342735362E+04  0.10342735362E+04  0.25500000920E-02 0.  1.
       -2   -1    0    0    0  501  0.00000000000E+00  0.00000000000E+00 -0.54071792888E+03  0.54071792889E+03  0.25500000920E-02 0. -1.
    10030    2    1    2    0    0  0.00000000000E+00  0.00000000000E+00  0.49355560731E+03  0.15749914651E+04  0.14956607161E+04 0.  0.
        5    1    3    3  502    0 -0.37495819306E+03 -0.47829724731E+03  0.70562597514E+03  0.93128513900E+03  0.46999998093E+01 0. -1.
       -5    1    3    3    0  502  0.37495819306E+03  0.47829724731E+03 -0.21207036783E+03  0.64370632608E+03  0.46999998093E+01 0.  1.
</event>
<event>
 5   0  0.2603873E-04  0.1624786E+04  0.7818609E-02  0.8805464E-01
       -1   -1    0    0    0  501  0.00000000000E+00  0.00000000000E+00  0.88764684207E+03  0.88764684209E+03  0.50400001928E-02 0.  1.
        1   -1    0    0  501    0  0.00000000000E+00  0.00000000000E+00 -0.74351882758E+03  0.74351882760E+03  0.50400001928E-02 0. -1.
    10030    2    1    2    0    0  0.00000000000E+00  0.00000000000E+00  0.14412801449E+03  0.16311656697E+04  0.16247856958E+04 0.  0.
        2    1    3    3  502    0  0.70865799307E+03 -0.24174366171E+03  0.38849364711E+03  0.84354221173E+03  0.25500000920E-02 0.  1.
       -2    1    3    3    0  502 -0.70865799307E+03  0.24174366171E+03 -0.24436563262E+03  0.78762345796E+03  0.25500000920E-02 0. -1.
</event>
<event>
 5   0  0.1792000E-04  0.1423142E+04  0.7818609E-02  0.8937236E-01
        3   -1    0    0  501    0  0.00000000000E+00  0.00000000000E+00  0.48192263098E+03  0.48192264156E+03  0.10100000352E+00 0.  1.
       -3   -1    0    0    0  501  0.00000000000E+00  0.00000000000E+00 -0.10506524203E+04  0.10506524251E+04  0.10100000352E+00 0. -1.
    10030    2    1    2    0    0  0.00000000000E+00  0.00000000000E+00 -0.56872978932E+03  0.15325750667E+04  0.14231418629E+04 0.  0.
        3    1    3    3  502    0 -0.32257040809E+03  0.61571672324E+03 -0.12042748026E+03  0.70545130211E+03  0.10100000352E+00 0.  1.
       -3    1    3    3    0  502  0.32257040809E+03 -0.61571672324E+03 -0.44830230906E+03  0.82712376459E+03  0.10100000352E+00 0. -1.
</event>
<event>
 5   0  0.2605471E-04  0.1496003E+04  0.7818609E-02  0.8887115E-01
       -1   -1    0    0    0  501  0.00000000000E+00  0.00000000000E+00  0.24878545837E+03  0.24878545842E+03  0.50400001928E-02 0.  1.
        1   -1    0    0  501    0  0.00000000000E+00  0.00000000000E+00 -0.22489517739E+04  0.22489517739E+04  0.50400001928E-02 0. -1.
    10030    2    1    2    0    0  0.00000000000E+00  0.00000000000E+00 -0.20001663155E+04  0.24977372323E+04  0.14960033396E+04 0.  0.
        3    1    3    3  502    0 -0.22833873111E+03 -0.54272296499E+03 -0.17703125595E+04  0.18656616417E+04  0.10100000352E+00 0. -1.
       -3    1    3    3    0  502  0.22833873111E+03  0.54272296499E+03 -0.22985375599E+03  0.63207559057E+03  0.10100000352E+00 0.  1.
</event>
<event>
 5   0  0.4726600E-04  0.1503624E+04  0.7818609E-02  0.8882047E-01
       -2   -1    0    0    0  501  0.00000000000E+00  0.00000000000E+00  0.46721951872E+03  0.46721951873E+03  0.25500000920E-02 0. -1.
        2   -1    0    0  501    0  0.00000000000E+00  0.00000000000E+00 -0.12097549574E+04  0.12097549574E+04  0.25500000920E-02 0.  1.
    10030    2    1    2    0    0  0.00000000000E+00  0.00000000000E+00 -0.74253543865E+03  0.16769744761E+04  0.15036237947E+04 0.  0.
        2    1    3    3  502    0 -0.37137935835E+03 -0.89224777750E+02 -0.10934870073E+04  0.11582735099E+04  0.25500000920E-02 0.  1.
       -2    1    3    3    0  502  0.37137935835E+03  0.89224777750E+02  0.35095156862E+03  0.51870096616E+03  0.25500000920E-02 0. -1.
</event>
<event>
 5   0  0.4785496E-04  0.1524041E+04  0.7818609E-02  0.8868622E-01
       -2   -1    0    0    0  501  0.00000000000E+00  0.00000000000E+00  0.75799375991E+03  0.75799375992E+03  0.25500000920E-02 0.  1.
        2   -1    0    0  501    0  0.00000000000E+00  0.00000000000E+00 -0.76606819909E+03  0.76606819910E+03  0.25500000920E-02 0. -1.
    10030    2    1    2    0    0  0.00000000000E+00  0.00000000000E+00 -0.80744391787E+01  0.15240619590E+04  0.15240405698E+04 0.  0.
        4    1    3    3  502    0 -0.40275539950E+03 -0.32992615250E+03  0.55239679653E+03  0.75908300709E+03  0.12699999809E+01 0.  1.
       -4    1    3    3    0  502  0.40275539950E+03  0.32992615250E+03 -0.56047123571E+03  0.76497895193E+03  0.12699999809E+01 0. -1.
</event>
<event>
 5   0  0.2542737E-04  0.1415807E+04  0.7818609E-02  0.8942455E-01
        1   -1    0    0  501    0  0.00000000000E+00  0.00000000000E+00  0.10934933862E+04  0.10934933862E+04  0.50400001928E-02 0.  1.
       -1   -1    0    0    0  501  0.00000000000E+00  0.00000000000E+00 -0.45828138816E+03  0.45828138818E+03  0.50400001928E-02 0. -1.
    10030    2    1    2    0    0  0.00000000000E+00  0.00000000000E+00  0.63521199800E+03  0.15517747744E+04  0.14158074261E+04 0.  0.
        1    1    3    3  502    0 -0.51085809234E+03 -0.15601295895E+03  0.82677496724E+03  0.98431340555E+03  0.50400001928E-02 0.  1.
       -1    1    3    3    0  502  0.51085809234E+03  0.15601295895E+03 -0.19156296924E+03  0.56746136880E+03  0.50400001928E-02 0. -1.
</event>
<event>
 5   0  0.2542737E-04  0.1442449E+04  0.7818609E-02  0.8923652E-01
       -1   -1    0    0    0  501  0.00000000000E+00  0.00000000000E+00  0.17009013093E+04  0.17009013093E+04  0.50400001928E-02 0.  1.
        1   -1    0    0  501    0  0.00000000000E+00  0.00000000000E+00 -0.30581709826E+03  0.30581709830E+03  0.50400001928E-02 0. -1.
    10030    2    1    2    0    0  0.00000000000E+00  0.00000000000E+00  0.13950842110E+04  0.20067184076E+04  0.14424488939E+04 0.  0.
        1    1    3    3  502    0  0.32635228405E+03 -0.21300723207E+03 -0.14672346943E+03  0.41642006522E+03  0.50400001928E-02 0. -1.
       -1    1    3    3    0  502 -0.32635228405E+03  0.21300723207E+03  0.15418076805E+04  0.15902983424E+04  0.50400001928E-02 0.  1.
</event>
<event>
 5   0  0.4768387E-04  0.1401223E+04  0.7818609E-02  0.8952934E-01
        2   -1    0    0  501    0  0.00000000000E+00  0.00000000000E+00  0.90155656497E+03  0.90155656497E+03  0.25500000920E-02 0. -1.
       -2   -1    0    0    0  501  0.00000000000E+00  0.00000000000E+00 -0.54445422513E+03  0.54445422513E+03  0.25500000920E-02 0.  1.
    10030    2    1    2    0    0  0.00000000000E+00  0.00000000000E+00  0.35710233984E+03  0.14460107901E+04  0.14012227246E+04 0.  0.
        3    1    3    3  502    0 -0.50808664127E+03 -0.24360989807E+03 -0.25112065212E+03  0.61689497453E+03  0.10100000352E+00 0.  1.
       -3    1    3    3    0  502  0.50808664127E+03  0.24360989807E+03  0.60822299196E+03  0.82911581557E+03  0.10100000352E+00 0. -1.
</event>
<event>
 5   0  0.2544374E-04  0.1500872E+04  0.7818609E-02  0.8883873E-01
        1   -1    0    0  501    0  0.00000000000E+00  0.00000000000E+00  0.40190902797E+03  0.40190902801E+03  0.50400001928E-02 0.  1.
       -1   -1    0    0    0  501  0.00000000000E+00  0.00000000000E+00 -0.14011983401E+04  0.14011983401E+04  0.50400001928E-02 0. -1.
    10030    2    1    2    0    0  0.00000000000E+00  0.00000000000E+00 -0.99928931208E+03  0.18031073681E+04  0.15008720970E+04 0.  0.
        4    1    3    3  502    0  0.14028435384E+03  0.72672128829E+03 -0.35080466549E+03  0.81906596622E+03  0.12699999809E+01 0.  1.
       -4    1    3    3    0  502 -0.14028435384E+03 -0.72672128829E+03 -0.64848464659E+03  0.98404140185E+03  0.12699999809E+01 0. -1.
</event>
<event>
 5   0  0.2542737E-04  0.1497018E+04  0.7818609E-02  0.8886438E-01
        1   -1    0    0  501    0  0.00000000000E+00  0.00000000000E+00  0.12352527211E+04  0.12352527211E+04  0.50400001928E-02 0.  1.
       -1   -1    0    0    0  501  0.00000000000E+00  0.00000000000E+00 -0.45356382709E+03  0.45356382712E+03  0.50400001928E-02 0. -1.
    10030    2    1    2    0    0  0.00000000000E+00  0.00000000000E+00  0.78168889404E+03  0.16888165483E+04  0.14970183054E+04 0.  0.
        1    1    3    3  502    0 -0.58904235345E+02 -0.55345488118E+03 -0.17376131437E+03  0.58307375935E+03  0.50400001928E-02 0. -1.
       -1    1    3    3    0  502  0.58904235345E+02  0.55345488118E+03  0.95545020841E+03  0.11057427889E+04  0.50400001928E-02 0.  1.
</event>
<event>
 5   0  0.2542737E-04  0.1487897E+04  0.7818609E-02  0.8892542E-01
       -1   -1    0    0    0  501  0.00000000000E+00  0.00000000000E+00  0.79641420347E+03  0.79641420349E+03  0.50400001928E-02 0.  1.
        1   -1    0    0  501    0  0.00000000000E+00  0.00000000000E+00 -0.69493889450E+03  0.69493889452E+03  0.50400001928E-02 0. -1.
    10030    2    1    2    0    0  0.00000000000E+00  0.00000000000E+00  0.10147530897E+03  0.14913530980E+04  0.14878967789E+04 0.  0.
        1    1    3    3  502    0  0.37291966090E+03 -0.20598829895E+03 -0.56056345727E+03  0.70408212762E+03  0.50400001928E-02 0. -1.
       -1    1    3    3    0  502 -0.37291966090E+03  0.20598829895E+03  0.66203876624E+03  0.78727097039E+03  0.50400001928E-02 0.  1.
</event>
<event>
 5   0  0.2605471E-04  0.1491656E+04  0.7818609E-02  0.8890020E-01
       -1   -1    0    0    0  501  0.00000000000E+00  0.00000000000E+00  0.37305697226E+03  0.37305697229E+03  0.50400001928E-02 0. -1.
        1   -1    0    0  501    0  0.00000000000E+00  0.00000000000E+00 -0.14910848850E+04  0.14910848850E+04  0.50400001928E-02 0.  1.
    10030    2    1    2    0    0  0.00000000000E+00  0.00000000000E+00 -0.11180279127E+04  0.18641418573E+04  0.14916562776E+04 0.  0.
        3    1    3    3  502    0  0.11908815086E+03 -0.63549643489E+03 -0.10236347271E+04  0.12107294377E+04  0.10100000352E+00 0.  1.
       -3    1    3    3    0  502 -0.11908815086E+03  0.63549643489E+03 -0.94393185591E+02  0.65341241963E+03  0.10100000352E+00 0. -1.
</event>
<event>
 5   0  0.4569211E-04  0.1498336E+04  0.7818609E-02  0.8885560E-01
        2   -1    0    0  501    0  0.00000000000E+00  0.00000000000E+00  0.16386782430E+04  0.16386782430E+04  0.25500000920E-02 0. -1.
       -2   -1    0    0    0  501  0.00000000000E+00  0.00000000000E+00 -0.34250351163E+03  0.34250351164E+03  0.25500000920E-02 0.  1.
    10030    2    1    2    0    0  0.00000000000E+00  0.00000000000E+00  0.12961747313E+04  0.19811817546E+04  0.14983364811E+04 0.  0.
        5    1    3    3  502    0  0.74462774176E+03  0.53936160983E+02  0.73014577936E+03  0.10442770381E+04  0.46999998093E+01 0. -1.
       -5    1    3    3    0  502 -0.74462774176E+03 -0.53936160983E+02  0.56602895198E+03  0.93690471647E+03  0.46999998093E+01 0.  1.
</event>
<event>
 5   0  0.2544374E-04  0.1511876E+04  0.7818609E-02  0.8876593E-01
        1   -1    0    0  501    0  0.00000000000E+00  0.00000000000E+00  0.85996114822E+03  0.85996114823E+03  0.50400001928E-02 0.  1.
       -1   -1    0    0    0  501  0.00000000000E+00  0.00000000000E+00 -0.66449815385E+03  0.66449815387E+03  0.50400001928E-02 0. -1.
    10030    2    1    2    0    0  0.00000000000E+00  0.00000000000E+00  0.19546299436E+03  0.15244593021E+04  0.15118764439E+04 0.  0.
        4    1    3    3  502    0  0.53404464528E+03  0.29665254128E+03  0.54667245599E+03  0.81979192508E+03  0.12699999809E+01 0.  1.
       -4    1    3    3    0  502 -0.53404464528E+03 -0.29665254128E+03 -0.35120946163E+03  0.70466737702E+03  0.12699999809E+01 0. -1.
</event>
<event>
 5   0  0.2542737E-04  0.1499275E+04  0.7818609E-02  0.8884935E-01
       -1   -1    0    0    0  501  0.00000000000E+00  0.00000000000E+00  0.68383791182E+03  0.68383791183E+03  0.50400001928E-02 0. -1.
        1   -1    0    0  501    0  0.00000000000E+00  0.00000000000E+00 -0.82176833399E+03  0.82176833400E+03  0.50400001928E-02 0.  1.
    10030    2    1    2    0    0  0.00000000000E+00  0.00000000000E+00 -0.13793042217E+03  0.15056062458E+04  0.14992749468E+04 0.  0.
        1    1    3    3  502    0 -0.65615142798E+02  0.73128499117E+03  0.82912527268E+02  0.73888941830E+03  0.50400001928E-02 0. -1.
       -1    1    3    3    0  502  0.65615142798E+02 -0.73128499117E+03 -0.22084294944E+03  0.76671682753E+03  0.50400001928E-02 0.  1.
</event>
<event>
 5   0  0.2542737E-04  0.1462420E+04  0.7818609E-02  0.8909835E-01
        1   -1    0    0  501    0  0.00000000000E+00  0.00000000000E+00  0.12060634076E+04  0.12060634077E+04  0.50400001928E-02 0. -1.
       -1   -1    0    0    0  501  0.00000000000E+00  0.00000000000E+00 -0.44331653954E+03  0.44331653957E+03  0.50400001928E-02 0.  1.
    10030    2    1    2    0    0  0.00000000000E+00  0.00000000000E+00  0.76274686810E+03  0.16493799472E+04  0.14624197159E+04 0.  0.
        1    1    3    3  502    0 -0.35645182861E+03 -0.21723175628E+03 -0.29572733532E+03  0.51156837171E+03  0.50400001928E-02 0.  1.
       -1    1    3    3    0  502  0.35645182861E+03  0.21723175628E+03  0.10584742034E+04  0.11378115755E+04  0.50400001928E-02 0. -1.
</event>
<event>
 5   0  0.4569211E-04  0.1501678E+04  0.7818609E-02  0.8883338E-01
        2   -1    0    0  501    0  0.00000000000E+00  0.00000000000E+00  0.62502638891E+03  0.62502638891E+03  0.25500000920E-02 0. -1.
       -2   -1    0    0    0  501  0.00000000000E+00  0.00000000000E+00 -0.90197622989E+03  0.90197622989E+03  0.25500000920E-02 0.  1.
    10030    2    1    2    0    0  0.00000000000E+00  0.00000000000E+00 -0.27694984098E+03  0.15270026188E+04  0.15016776563E+04 0.  0.
        5    1    3    3  502    0  0.18127532473E+03  0.72799289562E+03 -0.10792738442E+03  0.75796095528E+03  0.46999998093E+01 0.  1.
       -5    1    3    3    0  502 -0.18127532473E+03 -0.72799289562E+03 -0.16902245656E+03  0.76904166353E+03  0.46999998093E+01 0. -1.
</event>
<event>
 5   0  0.4785496E-04  0.1492671E+04  0.7818609E-02  0.8889341E-01
        2   -1    0    0  501    0  0.00000000000E+00  0.00000000000E+00  0.13505087895E+04  0.13505087895E+04  0.25500000920E-02 0. -1.
       -2   -1    0    0    0  501  0.00000000000E+00  0.00000000000E+00 -0.41244948293E+03  0.41244948294E+03  0.25500000920E-02 0.  1.
    10030    2    1    2    0    0  0.00000000000E+00  0.00000000000E+00  0.93805930659E+03  0.17629582725E+04  0.14926709643E+04 0.  0.
        4    1    3    3  502    0 -0.39813612436E+03 -0.30921993995E+02 -0.27565415833E+03  0.48523743790E+03  0.12699999809E+01 0.  1.
       -4    1    3    3    0  502  0.39813612436E+03  0.30921993995E+02  0.12137134649E+04  0.12777208346E+04  0.12699999809E+01 0. -1.
</event>
<event>
 5   0  0.2565416E-04  0.1493529E+04  0.7818609E-02  0.8888767E-01
       -1   -1    0    0    0  501  0.00000000000E+00  0.00000000000E+00  0.67228506885E+03  0.67228506887E+03  0.50400001928E-02 0. -1.
        1   -1    0    0  501    0  0.00000000000E+00  0.00000000000E+00 -0.82949554689E+03  0.82949554690E+03  0.50400001928E-02 0.  1.
    10030    2    1    2    0    0  0.00000000000E+00  0.00000000000E+00 -0.15721047803E+03  0.15017806158E+04  0.14935293380E+04 0.  0.
        5    1    3    3  502    0  0.68538498076E+03  0.10219147827E+03 -0.35842256209E+03  0.78018234606E+03  0.46999998093E+01 0.  1.
       -5    1    3    3    0  502 -0.68538498076E+03 -0.10219147827E+03  0.20121208406E+03  0.72159826971E+03  0.46999998093E+01 0. -1.
</event>
<event>
 5   0  0.4785496E-04  0.1502169E+04  0.7818609E-02  0.8883012E-01
        2   -1    0    0  501    0  0.00000000000E+00  0.00000000000E+00  0.19119535193E+04  0.19119535193E+04  0.25500000920E-02 0.  1.
       -2   -1    0    0    0  501  0.00000000000E+00  0.00000000000E+00 -0.29505299575E+03  0.29505299576E+03  0.25500000920E-02 0. -1.
    10030    2    1    2    0    0  0.00000000000E+00  0.00000000000E+00  0.16169005235E+04  0.22070065150E+04  0.15021685839E+04 0.  0.
        4    1    3    3  502    0 -0.22470400279E+03 -0.31026430746E+03  0.17576238479E+04  0.17988882769E+04  0.12699999809E+01 0.  1.
       -4    1    3    3    0  502  0.22470400279E+03  0.31026430746E+03 -0.14072332435E+03  0.40811823810E+03  0.12699999809E+01 0. -1.
</event>
<event>
 5   0  0.2605471E-04  0.1490811E+04  0.7818609E-02  0.8890587E-01
       -1   -1    0    0    0  501  0.00000000000E+00  0.00000000000E+00  0.28252324834E+03  0.28252324838E+03  0.50400001928E-02 0. -1.
        1   -1    0    0  501    0  0.00000000000E+00  0.00000000000E+00 -0.19666676509E+04  0.19666676509E+04  0.50400001928E-02 0.  1.
    10030    2    1    2    0    0  0.00000000000E+00  0.00000000000E+00 -0.16841444025E+04  0.22491908993E+04  0.14908109648E+04 0.  0.
        3    1    3    3  502    0 -0.28451865965E+03 -0.33248404623E+03 -0.17524751342E+04  0.18062850314E+04  0.10100000352E+00 0.  1.
       -3    1    3    3    0  502  0.28451865965E+03  0.33248404623E+03  0.68330731624E+02  0.44290586784E+03  0.10100000352E+00 0. -1.
</event>
<event>
 5   0  0.4726600E-04  0.1498856E+04  0.7818609E-02  0.8885214E-01
       -2   -1    0    0    0  501  0.00000000000E+00  0.00000000000E+00  0.65936590152E+03  0.65936590152E+03  0.25500000920E-02 0. -1.
        2   -1    0    0  501    0  0.00000000000E+00  0.00000000000E+00 -0.85179119492E+03  0.85179119492E+03  0.25500000920E-02 0.  1.
    10030    2    1    2    0    0  0.00000000000E+00  0.00000000000E+00 -0.19242529340E+03  0.15111570964E+04  0.14988556557E+04 0.  0.
        2    1    3    3  502    0 -0.86621203753E+02 -0.57727968708E+03  0.37763080305E+03  0.69524103265E+03  0.25500000920E-02 0. -1.
       -2    1    3    3    0  502  0.86621203753E+02  0.57727968708E+03 -0.57005609646E+03  0.81591606380E+03  0.25500000920E-02 0.  1.
</event>
<event>
 5   0  0.4948645E-04  0.1531508E+04  0.7818609E-02  0.8863767E-01
       -2   -1    0    0    0  501  0.00000000000E+00  0.00000000000E+00  0.49520266633E+03  0.49520266634E+03  0.25500000920E-02 0. -1.
        2   -1    0    0  501    0  0.00000000000E+00  0.00000000000E+00 -0.11841193106E+04  0.11841193106E+04  0.25500000920E-02 0.  1.
    10030    2    1    2    0    0  0.00000000000E+00  0.00000000000E+00 -0.68891664428E+03  0.16793219770E+04  0.15315078059E+04 0.  0.
        1    1    3    3  502    0  0.32525425130E+03  0.38698730565E+03  0.28623305816E+03  0.58092931268E+03  0.50400001928E-02 0. -1.
       -1    1    3    3    0  502 -0.32525425130E+03 -0.38698730565E+03 -0.97514970245E+03  0.10983926643E+04  0.50400001928E-02 0.  1.
</event>
<event>
 5   0  0.2544374E-04  0.1503608E+04  0.7818609E-02  0.8882057E-01
       -1   -1    0    0    0  501  0.00000000000E+00  0.00000000000E+00  0.39437970341E+03  0.39437970344E+03  0.50400001928E-02 0. -1.
        1   -1    0    0  501    0  0.00000000000E+00  0.00000000000E+00 -0.14331597523E+04  0.14331597523E+04  0.50400001928E-02 0.  1.
    10030    2    1    2    0    0  0.00000000000E+00  0.00000000000E+00 -0.10387800489E+04  0.18275394557E+04  0.15036078187E+04 0.  0.
        4    1    3    3  502    0  0.16870992137E+02 -0.61349715883E+03  0.83726508779E+01  0.61378751083E+03  0.12699999809E+01 0. -1.
       -4    1    3    3    0  502 -0.16870992137E+02  0.61349715883E+03 -0.10471526998E+04  0.12137519449E+04  0.12699999809E+01 0.  1.
</event>
<event>
 5   0  0.4948645E-04  0.1513854E+04  0.7818609E-02  0.8875292E-01
       -2   -1    0    0    0  501  0.00000000000E+00  0.00000000000E+00  0.56616491456E+03  0.56616491457E+03  0.25500000920E-02 0. -1.
        2   -1    0    0  501    0  0.00000000000E+00  0.00000000000E+00 -0.10119636871E+04  0.10119636871E+04  0.25500000920E-02 0.  1.
    10030    2    1    2    0    0  0.00000000000E+00  0.00000000000E+00 -0.44579877251E+03  0.15781286016E+04  0.15138538033E+04 0.  0.
        1    1    3    3  502    0 -0.25418025420E+03 -0.69711945157E+03 -0.67034687723E+02  0.74503475139E+03  0.50400001928E-02 0. -1.
       -1    1    3    3    0  502  0.25418025420E+03  0.69711945157E+03 -0.37876408479E+03  0.83309385026E+03  0.50400001928E-02 0.  1.
</event>
<event>
 5   0  0.1792000E-04  0.1459822E+04  0.7818609E-02  0.8911620E-01
       -4   -1    0    0    0  501  0.00000000000E+00  0.00000000000E+00  0.60732863422E+03  0.60732996208E+03  0.12699999809E+01 0.  1.
        4   -1    0    0  501    0  0.00000000000E+00  0.00000000000E+00 -0.87723204977E+03  0.87723296908E+03  0.12699999809E+01 0. -1.
    10030    2    1    2    0    0  0.00000000000E+00  0.00000000000E+00 -0.26990341556E+03  0.14845629312E+04  0.14598216476E+04 0.  0.
        3    1    3    3  502    0 -0.22872858958E+03 -0.37904076986E+03  0.45521225427E+03  0.63498573177E+03  0.10100000352E+00 0.  1.
       -3    1    3    3    0  502  0.22872858958E+03  0.37904076986E+03 -0.72511566983E+03  0.84957719940E+03  0.10100000352E+00 0. -1.
</event>
<event>
 5   0  0.4785496E-04  0.1499283E+04  0.7818609E-02  0.8884930E-01
        2   -1    0    0  501    0  0.00000000000E+00  0.00000000000E+00  0.59773008748E+03  0.59773008749E+03  0.25500000920E-02 0.  1.
       -2   -1    0    0    0  501  0.00000000000E+00  0.00000000000E+00 -0.94016098229E+03  0.94016098229E+03  0.25500000920E-02 0. -1.
    10030    2    1    2    0    0  0.00000000000E+00  0.00000000000E+00 -0.34243089481E+03  0.15378910698E+04  0.14992831703E+04 0.  0.
        4    1    3    3  502    0  0.37905668093E+03 -0.46358616912E+02  0.49047562734E+03  0.62161164938E+03  0.12699999809E+01 0.  1.
       -4    1    3    3    0  502 -0.37905668093E+03  0.46358616912E+02 -0.83290652215E+03  0.91627942041E+03  0.12699999809E+01 0. -1.
</event>
<event>
 5   0  0.4768387E-04  0.1501084E+04  0.7818609E-02  0.8883732E-01
        2   -1    0    0  501    0  0.00000000000E+00  0.00000000000E+00  0.10531554174E+04  0.10531554174E+04  0.25500000920E-02 0. -1.
       -2   -1    0    0    0  501  0.00000000000E+00  0.00000000000E+00 -0.53488144014E+03  0.53488144014E+03  0.25500000920E-02 0.  1.
    10030    2    1    2    0    0  0.00000000000E+00  0.00000000000E+00  0.51827397722E+03  0.15880368575E+04  0.15010839901E+04 0.  0.
        3    1    3    3  502    0  0.17986871475E+03 -0.35785420681E+03 -0.41237643302E+03  0.57486234926E+03  0.10100000352E+00 0.  1.
       -3    1    3    3    0  502 -0.17986871475E+03  0.35785420681E+03  0.93065041024E+03  0.10131745082E+04  0.10100000352E+00 0. -1.
</event>
<event>
 5   0  0.2603873E-04  0.1493521E+04  0.7818609E-02  0.8888773E-01
       -1   -1    0    0    0  501  0.00000000000E+00  0.00000000000E+00  0.10738885795E+04  0.10738885795E+04  0.50400001928E-02 0. -1.
        1   -1    0    0  501    0  0.00000000000E+00  0.00000000000E+00 -0.51928198678E+03  0.51928198680E+03  0.50400001928E-02 0.  1.
    10030    2    1    2    0    0  0.00000000000E+00  0.00000000000E+00  0.55460659268E+03  0.15931705663E+04  0.14935206663E+04 0.  0.
        2    1    3    3  502    0  0.63904852745E+03 -0.17389482576E+02 -0.13440915798E+03  0.65326199667E+03  0.25500000920E-02 0.  1.
       -2    1    3    3    0  502 -0.63904852745E+03  0.17389482576E+02  0.68901575065E+03  0.93990856959E+03  0.25500000920E-02 0. -1.
</event>
<event>
 5   0  0.2544374E-04  0.1499714E+04  0.7818609E-02  0.8884643E-01
        1   -1    0    0  501    0  0.00000000000E+00  0.00000000000E+00  0.12457444491E+04  0.12457444491E+04  0.50400001928E-02 0.  1.
       -1   -1    0    0    0  501  0.00000000000E+00  0.00000000000E+00 -0.45136493835E+03  0.45136493838E+03  0.50400001928E-02 0. -1.
    10030    2    1    2    0    0  0.00000000000E+00  0.00000000000E+00  0.79437951074E+03  0.16971093875E+04  0.14997137947E+04 0.  0.
        4    1    3    3  502    0  0.24520140470E+03  0.16609001571E+03 -0.38237730505E+03  0.48365652947E+03  0.12699999809E+01 0. -1.
       -4    1    3    3    0  502 -0.24520140470E+03 -0.16609001571E+03  0.11767568158E+04  0.12134528580E+04  0.12699999809E+01 0.  1.
</event>
<event>
 5   0  0.2605471E-04  0.1507255E+04  0.7818609E-02  0.8879643E-01
        1   -1    0    0  501    0  0.00000000000E+00  0.00000000000E+00  0.94682169141E+03  0.94682169142E+03  0.50400001928E-02 0. -1.
       -1   -1    0    0    0  501  0.00000000000E+00  0.00000000000E+00 -0.59985368163E+03  0.59985368165E+03  0.50400001928E-02 0.  1.
    10030    2    1    2    0    0  0.00000000000E+00  0.00000000000E+00  0.34696800978E+03  0.15466753731E+04  0.15072550912E+04 0.  0.
        3    1    3    3  502    0  0.44681742983E+02  0.30524964075E+03  0.87905751123E+03  0.93162005109E+03  0.10100000352E+00 0. -1.
       -3    1    3    3    0  502 -0.44681742983E+02 -0.30524964075E+03 -0.53208950145E+03  0.61505532198E+03  0.10100000352E+00 0.  1.
</event>
<event>
 5   0  0.2605471E-04  0.1499928E+04  0.7818609E-02  0.8884501E-01
       -1   -1    0    0    0  501  0.00000000000E+00  0.00000000000E+00  0.18396746466E+03  0.18396746473E+03  0.50400001928E-02 0. -1.
        1   -1    0    0  501    0  0.00000000000E+00  0.00000000000E+00 -0.30573107979E+04  0.30573107980E+04  0.50400001928E-02 0.  1.
    10030    2    1    2    0    0  0.00000000000E+00  0.00000000000E+00 -0.28733433333E+04  0.32412782627E+04  0.14999276200E+04 0.  0.
        3    1    3    3  502    0  0.25397875085E+03  0.66904711886E+03 -0.19214029215E+04  0.20503459342E+04  0.10100000352E+00 0.  1.
       -3    1    3    3    0  502 -0.25397875085E+03 -0.66904711886E+03 -0.95194041183E+03  0.11909323285E+04  0.10100000352E+00 0. -1.
</event>
<event>
 5   0  0.4948645E-04  0.1493530E+04  0.7818609E-02  0.8888767E-01
       -2   -1    0    0    0  501  0.00000000000E+00  0.00000000000E+00  0.74349713325E+03  0.74349713326E+03  0.25500000920E-02 0.  1.
        2   -1    0    0  501    0  0.00000000000E+00  0.00000000000E+00 -0.75004713283E+03  0.75004713284E+03  0.25500000920E-02 0. -1.
    10030    2    1    2    0    0  0.00000000000E+00  0.00000000000E+00 -0.65499995795E+01  0.14935442661E+04  0.14935299034E+04 0.  0.
        1    1    3    3  502    0 -0.25533543569E+03 -0.20741630594E+03 -0.67368444826E+03  0.74971224115E+03  0.50400001928E-02 0. -1.
       -1    1    3    3    0  502  0.25533543569E+03  0.20741630594E+03  0.66713444868E+03  0.74383202494E+03  0.50400001928E-02 0.  1.
</event>
<event>
 5   0  0.4569211E-04  0.1467170E+04  0.7818609E-02  0.8906583E-01
        2   -1    0    0  501    0  0.00000000000E+00  0.00000000000E+00  0.23303401586E+04  0.23303401586E+04  0.25500000920E-02 0.  1.
       -2   -1    0    0    0  501  0.00000000000E+00  0.00000000000E+00 -0.23093050962E+03  0.23093050964E+03  0.25500000920E-02 0. -1.
    10030    2    1    2    0    0  0.00000000000E+00  0.00000000000E+00  0.20994096490E+04  0.25612706683E+04  0.14671695750E+04 0.  0.
        5    1    3    3  502    0  0.39027051069E+03 -0.46001866352E+03  0.17783140013E+04  0.18778580935E+04  0.46999998093E+01 0.  1.
       -5    1    3    3    0  502 -0.39027051069E+03  0.46001866352E+03  0.32109564770E+03  0.68341257471E+03  0.46999998093E+01 0. -1.
</event>
<event>
 5   0  0.4726600E-04  0.1499847E+04  0.7818609E-02  0.8884555E-01
       -2   -1    0    0    0  501  0.00000000000E+00  0.00000000000E+00  0.54071496151E+03  0.54071496151E+03  0.25500000920E-02 0.  1.
        2   -1    0    0  501    0  0.00000000000E+00  0.00000000000E+00 -0.10400768339E+04  0.10400768339E+04  0.25500000920E-02 0. -1.
    10030    2    1    2    0    0  0.00000000000E+00  0.00000000000E+00 -0.49936187235E+03  0.15807917954E+04  0.14998467991E+04 0.  0.
        2    1    3    3  502    0  0.56564198776E+03  0.44100571496E+03 -0.48046932481E+03  0.86330045235E+03  0.25500000920E-02 0. -1.
       -2    1    3    3    0  502 -0.56564198776E+03 -0.44100571496E+03 -0.18892547540E+02  0.71749134302E+03  0.25500000920E-02 0.  1.
</event>
<event>
 5   0  0.2542737E-04  0.1494210E+04  0.7818609E-02  0.8888313E-01
        1   -1    0    0  501    0  0.00000000000E+00  0.00000000000E+00  0.14482093341E+04  0.14482093341E+04  0.50400001928E-02 0.  1.
       -1   -1    0    0    0  501  0.00000000000E+00  0.00000000000E+00 -0.38541777322E+03  0.38541777325E+03  0.50400001928E-02 0. -1.
    10030    2    1    2    0    0  0.00000000000E+00  0.00000000000E+00  0.10627915609E+04  0.18336271073E+04  0.14942096462E+04 0.  0.
        1    1    3    3  502    0  0.14251250614E+03  0.58280199175E+03  0.10777178252E+04  0.12334681539E+04  0.50400001928E-02 0.  1.
       -1    1    3    3    0  502 -0.14251250614E+03 -0.58280199175E+03 -0.14926264308E+02  0.60015895343E+03  0.50400001928E-02 0. -1.
</event>
<event>
 5   0  0.4726600E-04  0.1502007E+04  0.7818609E-02  0.8883119E-01
        2   -1    0    0  501    0  0.00000000000E+00  0.00000000000E+00  0.15705516255E+04  0.15705516255E+04  0.25500000920E-02 0.  1.
       -2   -1    0    0    0  501  0.00000000000E+00  0.00000000000E+00 -0.35911349373E+03  0.35911349373E+03  0.25500000920E-02 0. -1.
    10030    2    1    2    0    0  0.00000000000E+00  0.00000000000E+00  0.12114381318E+04  0.19296651193E+04  0.15020070324E+04 0.  0.
        2    1    3    3  502    0  0.26193480913E+03  0.56367022517E+03  0.11472457483E+04  0.13048014309E+04  0.25500000920E-02 0. -1.
       -2    1    3    3    0  502 -0.26193480913E+03 -0.56367022517E+03  0.64192383490E+02  0.62486368840E+03  0.25500000920E-02 0.  1.
</event>
<event>
 5   0  0.2542737E-04  0.1498016E+04  0.7818609E-02  0.8885773E-01
       -1   -1    0    0    0  501  0.00000000000E+00  0.00000000000E+00  0.41014031518E+03  0.41014031521E+03  0.50400001928E-02 0.  1.
        1   -1    0    0  501    0  0.00000000000E+00  0.00000000000E+00 -0.13678567568E+04  0.13678567568E+04  0.50400001928E-02 0. -1.
    10030    2    1    2    0    0  0.00000000000E+00  0.00000000000E+00 -0.95771644158E+03  0.17779970720E+04  0.14980162901E+04 0.  0.
        1    1    3    3  502    0 -0.51238889969E+03  0.54625433456E+03 -0.46844193619E+03  0.88338781413E+03  0.50400001928E-02 0. -1.
       -1    1    3    3    0  502  0.51238889969E+03 -0.54625433456E+03 -0.48927450539E+03  0.89460925784E+03  0.50400001928E-02 0.  1.
</event>
<event>
 5   0  0.2565416E-04  0.1503140E+04  0.7818609E-02  0.8882367E-01
       -1   -1    0    0    0  501  0.00000000000E+00  0.00000000000E+00  0.64947452681E+03  0.64947452683E+03  0.50400001928E-02 0.  1.
        1   -1    0    0  501    0  0.00000000000E+00  0.00000000000E+00 -0.86971483689E+03  0.86971483690E+03  0.50400001928E-02 0. -1.
    10030    2    1    2    0    0  0.00000000000E+00  0.00000000000E+00 -0.22024031008E+03  0.15191893637E+04  0.15031402226E+04 0.  0.
        5    1    3    3  502    0 -0.13616676042E+03  0.73187873473E+03 -0.58308505691E+01  0.74447562607E+03  0.46999998093E+01 0.  1.
       -5    1    3    3    0  502  0.13616676042E+03 -0.73187873473E+03 -0.21440945951E+03  0.77471373766E+03  0.46999998093E+01 0. -1.
</event>
<event>
 5   0  0.4785496E-04  0.1500756E+04  0.7818609E-02  0.8883950E-01
       -2   -1    0    0    0  501  0.00000000000E+00  0.00000000000E+00  0.60015115406E+03  0.60015115407E+03  0.25500000920E-02 0.  1.
        2   -1    0    0  501    0  0.00000000000E+00  0.00000000000E+00 -0.93820885143E+03  0.93820885143E+03  0.25500000920E-02 0. -1.
    10030    2    1    2    0    0  0.00000000000E+00  0.00000000000E+00 -0.33805769737E+03  0.15383600055E+04  0.15007559761E+04 0.  0.
        4    1    3    3  502    0 -0.17418091036E+03  0.19273709627E+03  0.55258410029E+03  0.61060410956E+03  0.12699999809E+01 0.  1.
       -4    1    3    3    0  502  0.17418091036E+03 -0.19273709627E+03 -0.89064179766E+03  0.92775589594E+03  0.12699999809E+01 0. -1.
</event>
<event>
 5   0  0.2542737E-04  0.1511540E+04  0.7818609E-02  0.8876815E-01
        1   -1    0    0  501    0  0.00000000000E+00  0.00000000000E+00  0.13498937938E+04  0.13498937938E+04  0.50400001928E-02 0. -1.
       -1   -1    0    0    0  501  0.00000000000E+00  0.00000000000E+00 -0.42313588292E+03  0.42313588295E+03  0.50400001928E-02 0.  1.
    10030    2    1    2    0    0  0.00000000000E+00  0.00000000000E+00  0.92675791083E+03  0.17730296767E+04  0.15115402771E+04 0.  0.
        1    1    3    3  502    0  0.83038582811E+02  0.43357526390E+03 -0.25618038280E+03  0.51040308019E+03  0.50400001928E-02 0.  1.
       -1    1    3    3    0  502 -0.83038582811E+02 -0.43357526390E+03  0.11829382936E+04  0.12626265965E+04  0.50400001928E-02 0. -1.
</event>
<event>
 5   0  0.1792000E-04  0.1499172E+04  0.7818609E-02  0.8885004E-01
       -3   -1    0    0    0  501  0.00000000000E+00  0.00000000000E+00  0.64514586961E+03  0.64514587751E+03  0.10100000352E+00 0.  1.
        3   -1    0    0  501    0  0.00000000000E+00  0.00000000000E+00 -0.87093304970E+03  0.87093305556E+03  0.10100000352E+00 0. -1.
    10030    2    1    2    0    0  0.00000000000E+00  0.00000000000E+00 -0.22578718010E+03  0.15160789331E+04  0.14991715981E+04 0.  0.
        2    1    3    3  502    0  0.68168159901E+03 -0.20117762843E+03 -0.35373195731E+03  0.79390713452E+03  0.25500000920E-02 0. -1.
       -2    1    3    3    0  502 -0.68168159901E+03  0.20117762843E+03  0.12794477722E+03  0.72217179856E+03  0.25500000920E-02 0.  1.
</event>
<event>
 5   0  0.2542737E-04  0.1410826E+04  0.7818609E-02  0.8946019E-01
        1   -1    0    0  501    0  0.00000000000E+00  0.00000000000E+00  0.39774334852E+03  0.39774334855E+03  0.50400001928E-02 0. -1.
       -1   -1    0    0    0  501  0.00000000000E+00  0.00000000000E+00 -0.12510770390E+04  0.12510770391E+04  0.50400001928E-02 0.  1.
    10030    2    1    2    0    0  0.00000000000E+00  0.00000000000E+00 -0.85333369053E+03  0.16488203876E+04  0.14108260996E+04 0.  0.
        1    1    3    3  502    0  0.47928840972E+03  0.18594963838E+03  0.13784006284E+03  0.53225419741E+03  0.50400001928E-02 0. -1.
       -1    1    3    3    0  502 -0.47928840972E+03 -0.18594963838E+03 -0.99117375337E+03  0.11165661902E+04  0.50400001928E-02 0.  1.
</event>
<event>
 5   0  0.2603873E-04  0.1495784E+04  0.7818609E-02  0.8887261E-01
        1   -1    0    0  501    0  0.00000000000E+00  0.00000000000E+00  0.75809245180E+03  0.75809245182E+03  0.50400001928E-02 0.  1.
       -1   -1    0    0    0  501  0.00000000000E+00  0.00000000000E+00 -0.73782905931E+03  0.73782905933E+03  0.50400001928E-02 0. -1.
    10030    2    1    2    0    0  0.00000000000E+00  0.00000000000E+00  0.20263392490E+02  0.14959215111E+04  0.14957842633E+04 0.  0.
        2    1    3    3  502    0  0.12968049819E+03  0.54150014013E+03 -0.48921683902E+03  0.74119670058E+03  0.25500000920E-02 0. -1.
       -2    1    3    3    0  502 -0.12968049819E+03 -0.54150014013E+03  0.50948023151E+03  0.75472481056E+03  0.25500000920E-02 0.  1.
</event>
<event>
 5   0  0.2544374E-04  0.1496237E+04  0.7818609E-02  0.8886959E-01
        1   -1    0    0  501    0  0.00000000000E+00  0.00000000000E+00  0.10529362659E+04  0.10529362660E+04  0.50400001928E-02 0. -1.
       -1   -1    0    0    0  501  0.00000000000E+00  0.00000000000E+00 -0.53154362964E+03  0.53154362966E+03  0.50400001928E-02 0.  1.
    10030    2    1    2    0    0  0.00000000000E+00  0.00000000000E+00  0.52139263631E+03  0.15844798956E+04  0.14962373670E+04 0.  0.
        4    1    3    3  502    0  0.35710486539E+03 -0.11424402274E+02  0.95674714274E+03  0.10212840496E+04  0.12699999809E+01 0. -1.
       -4    1    3    3    0  502 -0.35710486539E+03  0.11424402274E+02 -0.43535450642E+03  0.56319584606E+03  0.12699999809E+01 0.  1.
</event>
<event>
 5   0  0.2565416E-04  0.1498873E+04  0.7818609E-02  0.8885202E-01
       -1   -1    0    0    0  501  0.00000000000E+00  0.00000000000E+00  0.21649654625E+03  0.21649654631E+03  0.50400001928E-02 0. -1.
        1   -1    0    0  501    0  0.00000000000E+00  0.00000000000E+00 -0.25942924803E+04  0.25942924803E+04  0.50400001928E-02 0.  1.
    10030    2    1    2    0    0  0.00000000000E+00  0.00000000000E+00 -0.23777959341E+04  0.28107890266E+04  0.14988733930E+04 0.  0.
        5    1    3    3  502    0 -0.45052431208E+03 -0.39191208743E+03 -0.20380983141E+04  0.21237782530E+04  0.46999998093E+01 0.  1.
       -5    1    3    3    0  502  0.45052431208E+03  0.39191208743E+03 -0.33969761998E+03  0.68701077362E+03  0.46999998093E+01 0. -1.
</event>
<event>
 5   0  0.4948645E-04  0.1498314E+04  0.7818609E-02  0.8885575E-01
       -2   -1    0    0    0  501  0.00000000000E+00  0.00000000000E+00  0.62016569628E+03  0.62016569629E+03  0.25500000920E-02 0. -1.
        2   -1    0    0  501    0  0.00000000000E+00  0.00000000000E+00 -0.90497809119E+03  0.90497809119E+03  0.25500000920E-02 0.  1.
    10030    2    1    2    0    0  0.00000000000E+00  0.00000000000E+00 -0.28481239491E+03  0.15251437875E+04  0.14983142101E+04 0.  0.
        1    1    3    3  502    0 -0.51788860704E+03  0.32053328556E+03  0.30162297696E+03  0.67965183492E+03  0.50400001928E-02 0. -1.
       -1    1    3    3    0  502  0.51788860704E+03 -0.32053328556E+03 -0.58643537186E+03  0.84549195256E+03  0.50400001928E-02 0.  1.
</event>
<event>
 5   0  0.2603873E-04  0.1501071E+04  0.7818609E-02  0.8883741E-01
        1   -1    0    0  501    0  0.00000000000E+00  0.00000000000E+00  0.17493804872E+04  0.17493804872E+04  0.50400001928E-02 0. -1.
       -1   -1    0    0    0  501  0.00000000000E+00  0.00000000000E+00 -0.32200190313E+03  0.32200190317E+03  0.50400001928E-02 0.  1.
    10030    2    1    2    0    0  0.00000000000E+00  0.00000000000E+00  0.14273785841E+04  0.20713823904E+04  0.15010714123E+04 0.  0.
        2    1    3    3  502    0 -0.39166820169E+02  0.27532437501E+03 -0.24828175354E+03  0.37280206601E+03  0.25500000920E-02 0.  1.
       -2    1    3    3    0  502  0.39166820169E+02 -0.27532437501E+03  0.16756603376E+04  0.16985803244E+04  0.25500000920E-02 0. -1.
</event>
<event>
 5   0  0.4768387E-04  0.1498053E+04  0.7818609E-02  0.8885749E-01
        2   -1    0    0  501    0  0.00000000000E+00  0.00000000000E+00  0.90085487897E+03  0.90085487897E+03  0.25500000920E-02 0. -1.
       -2   -1    0    0    0  501  0.00000000000E+00  0.00000000000E+00 -0.62278691189E+03  0.62278691189E+03  0.25500000920E-02 0.  1.
    10030    2    1    2    0    0  0.00000000000E+00  0.00000000000E+00  0.27806796708E+03  0.15236417909E+04  0.14980529071E+04 0.  0.
        3    1    3    3  502    0  0.50223060847E+02 -0.46774179450E+03  0.73185887377E+03  0.87001273754E+03  0.10100000352E+00 0. -1.
       -3    1    3    3    0  502 -0.50223060847E+02  0.46774179450E+03 -0.45379090668E+03  0.65362905333E+03  0.10100000352E+00 0.  1.
</event>
<event>
 5   0  0.2544374E-04  0.1507140E+04  0.7818609E-02  0.8879718E-01
       -1   -1    0    0    0  501  0.00000000000E+00  0.00000000000E+00  0.26098780481E+03  0.26098780486E+03  0.50400001928E-02 0.  1.
        1   -1    0    0  501    0  0.00000000000E+00  0.00000000000E+00 -0.21758412412E+04  0.21758412413E+04  0.50400001928E-02 0. -1.
    10030    2    1    2    0    0  0.00000000000E+00  0.00000000000E+00 -0.19148534364E+04  0.24368290461E+04  0.15071403773E+04 0.  0.
        4    1    3    3  502    0 -0.14300093609E+03  0.25202926954E+03 -0.20821571574E+04  0.21022245507E+04  0.12699999809E+01 0. -1.
       -4    1    3    3    0  502  0.14300093609E+03 -0.25202926954E+03  0.16730372096E+03  0.33460449544E+03  0.12699999809E+01 0.  1.
</event>
<event>
 5   0  0.4948645E-04  0.1497206E+04  0.7818609E-02  0.8886313E-01
        2   -1    0    0  501    0  0.00000000000E+00  0.00000000000E+00  0.31139739688E+03  0.31139739689E+03  0.25500000920E-02 0.  1.
       -2   -1    0    0    0  501  0.00000000000E+00  0.00000000000E+00 -0.17996501511E+04  0.17996501511E+04  0.25500000920E-02 0. -1.
    10030    2    1    2    0    0  0.00000000000E+00  0.00000000000E+00 -0.14882527542E+04  0.21110475480E+04  0.14972058941E+04 0.  0.
        1    1    3    3  502    0  0.20112993014E+02  0.31229029025E+03 -0.17030000079E+04  0.17315134377E+04  0.50400001928E-02 0. -1.
       -1    1    3    3    0  502 -0.20112993014E+02 -0.31229029025E+03  0.21474725372E+03  0.37953411030E+03  0.50400001928E-02 0.  1.
</event>
<event>
 5   0  0.2605471E-04  0.1505825E+04  0.7818609E-02  0.8880589E-01
        1   -1    0    0  501    0  0.00000000000E+00  0.00000000000E+00  0.10473536454E+04  0.10473536454E+04  0.50400001928E-02 0. -1.
       -1   -1    0    0    0  501  0.00000000000E+00  0.00000000000E+00 -0.54124704891E+03  0.54124704894E+03  0.50400001928E-02 0.  1.
    10030    2    1    2    0    0  0.00000000000E+00  0.00000000000E+00  0.50610659651E+03  0.15886006944E+04  0.15058247837E+04 0.  0.
        3    1    3    3  502    0  0.57566561442E+03  0.70642533214E+02  0.75954438655E+03  0.95566152610E+03  0.10100000352E+00 0. -1.
       -3    1    3    3    0  502 -0.57566561442E+03 -0.70642533214E+02 -0.25343779003E+03  0.63293916828E+03  0.10100000352E+00 0.  1.
</event>
<event>
 5   0  0.4785496E-04  0.1464056E+04  0.7818609E-02  0.8908714E-01
       -2   -1    0    0    0  501  0.00000000000E+00  0.00000000000E+00  0.36918866748E+03  0.36918866749E+03  0.25500000920E-02 0. -1.
        2   -1    0    0  501    0  0.00000000000E+00  0.00000000000E+00 -0.14514657030E+04  0.14514657030E+04  0.25500000920E-02 0.  1.
    10030    2    1    2    0    0  0.00000000000E+00  0.00000000000E+00 -0.10822770355E+04  0.18206543705E+04  0.14640555847E+04 0.  0.
        4    1    3    3  502    0 -0.28282200077E+03 -0.45487366876E+03  0.79357304733E+02  0.54147717714E+03  0.12699999809E+01 0. -1.
       -4    1    3    3    0  502  0.28282200077E+03  0.45487366876E+03 -0.11616343403E+04  0.12791771934E+04  0.12699999809E+01 0.  1.
</event>
<event>
 5   0  0.1792000E-04  0.1497691E+04  0.7818609E-02  0.8885990E-01
        3   -1    0    0  501    0  0.00000000000E+00  0.00000000000E+00  0.89936029284E+03  0.89936029851E+03  0.10100000352E+00 0.  1.
       -3   -1    0    0    0  501  0.00000000000E+00  0.00000000000E+00 -0.62352027483E+03  0.62352028301E+03  0.10100000352E+00 0. -1.
    10030    2    1    2    0    0  0.00000000000E+00  0.00000000000E+00  0.27584001800E+03  0.15228805815E+04  0.14976907391E+04 0.  0.
        3    1    3    3  502    0  0.60603047950E+03 -0.35236515215E+03  0.40566459623E+03  0.80993698358E+03  0.10100000352E+00 0.  1.
       -3    1    3    3    0  502 -0.60603047950E+03  0.35236515215E+03 -0.12982457823E+03  0.71294359794E+03  0.10100000352E+00 0. -1.
</event>
<event>
 5   0  0.4726600E-04  0.1457319E+04  0.7818609E-02  0.8913342E-01
        2   -1    0    0  501    0  0.00000000000E+00  0.00000000000E+00  0.59945923902E+03  0.59945923902E+03  0.25500000920E-02 0. -1.
       -2   -1    0    0    0  501  0.00000000000E+00  0.00000000000E+00 -0.88570627594E+03  0.88570627594E+03  0.25500000920E-02 0.  1.
    10030    2    1    2    0    0  0.00000000000E+00  0.00000000000E+00 -0.28624703692E+03  0.14851655150E+04  0.14573191966E+04 0.  0.
        2    1    3    3  502    0 -0.64953254289E+03 -0.15957407232E+03 -0.43776451886E+03  0.79937111707E+03  0.25500000920E-02 0.  1.
       -2    1    3    3    0  502  0.64953254289E+03  0.15957407232E+03  0.15151748194E+03  0.68579439789E+03  0.25500000920E-02 0. -1.
</event>
<event>
 5   0  0.4569211E-04  0.1499587E+04  0.7818609E-02  0.8884728E-01
       -2   -1    0    0    0  501  0.00000000000E+00  0.00000000000E+00  0.34118493037E+03  0.34118493038E+03  0.25500000920E-02 0.  1.
        2   -1    0    0  501    0  0.00000000000E+00  0.00000000000E+00 -0.16477580174E+04  0.16477580175E+04  0.25500000920E-02 0. -1.
    10030    2    1    2    0    0  0.00000000000E+00  0.00000000000E+00 -0.13065730871E+04  0.19889429478E+04  0.14995868824E+04 0.  0.
        5    1    3    3  502    0  0.13839564123E+03  0.58135063343E+03 -0.12538744150E+04  0.13890086577E+04  0.46999998093E+01 0. -1.
       -5    1    3    3    0  502 -0.13839564123E+03 -0.58135063343E+03 -0.52698672102E+02  0.59993429018E+03  0.46999998093E+01 0.  1.
</event>
<event>
 5   0  0.4726600E-04  0.1506181E+04  0.7818609E-02  0.8880353E-01
       -2   -1    0    0    0  501  0.00000000000E+00  0.00000000000E+00  0.28143001325E+03  0.28143001327E+03  0.25500000920E-02 0.  1.
        2   -1    0    0  501    0  0.00000000000E+00  0.00000000000E+00 -0.20152268941E+04  0.20152268941E+04  0.25500000920E-02 0. -1.
    10030    2    1    2    0    0  0.00000000000E+00  0.00000000000E+00 -0.17337968808E+04  0.22966569073E+04  0.15061810403E+04 0.  0.
        2    1    3    3  502    0 -0.27354190927E+03 -0.24588820888E+03 -0.18689498543E+04  0.19047991351E+04  0.25500000920E-02 0. -1.
       -2    1    3    3    0  502  0.27354190927E+03  0.24588820888E+03  0.13515297346E+03  0.39185777220E+03  0.25500000920E-02 0.  1.
</event>
<event>
 5   0  0.4768387E-04  0.1531193E+04  0.7818609E-02  0.8863971E-01
       -2   -1    0    0    0  501  0.00000000000E+00  0.00000000000E+00  0.44636609519E+03  0.44636609520E+03  0.25500000920E-02 0. -1.
        2   -1    0    0  501    0  0.00000000000E+00  0.00000000000E+00 -0.13131327304E+04  0.13131327304E+04  0.25500000920E-02 0.  1.
    10030    2    1    2    0    0  0.00000000000E+00  0.00000000000E+00 -0.86676663518E+03  0.17594988256E+04  0.15311929066E+04 0.  0.
        3    1    3    3  502    0  0.56756463092E+03 -0.40919869349E+03 -0.76300990626E+02  0.70384304528E+03  0.10100000352E+00 0. -1.
       -3    1    3    3    0  502 -0.56756463092E+03  0.40919869349E+03 -0.79046564455E+03  0.10556557803E+04  0.10100000352E+00 0.  1.
</event>
<event>
 5   0  0.4768387E-04  0.1516393E+04  0.7818609E-02  0.8873624E-01
        2   -1    0    0  501    0  0.00000000000E+00  0.00000000000E+00  0.14910646188E+04  0.14910646188E+04  0.25500000920E-02 0.  1.
       -2   -1    0    0    0  501  0.00000000000E+00  0.00000000000E+00 -0.38553793056E+03  0.38553793057E+03  0.25500000920E-02 0. -1.
    10030    2    1    2    0    0  0.00000000000E+00  0.00000000000E+00  0.11055266882E+04  0.18766025494E+04  0.15163930460E+04 0.  0.
        3    1    3    3  502    0 -0.68549904986E+02  0.69458322162E+03  0.91928736526E+03  0.11542245065E+04  0.10100000352E+00 0.  1.
       -3    1    3    3    0  502  0.68549904986E+02 -0.69458322162E+03  0.18623932299E+03  0.72237804290E+03  0.10100000352E+00 0. -1.
</event>
<event>
 5   0  0.4726600E-04  0.1545244E+04  0.7818609E-02  0.8854911E-01
       -2   -1    0    0    0  501  0.00000000000E+00  0.00000000000E+00  0.63622546333E+03  0.63622546334E+03  0.25500000920E-02 0. -1.
        2   -1    0    0  501    0  0.00000000000E+00  0.00000000000E+00 -0.93825971110E+03  0.93825971110E+03  0.25500000920E-02 0.  1.
    10030    2    1    2    0    0  0.00000000000E+00  0.00000000000E+00 -0.30203424776E+03  0.15744851744E+04  0.15452439541E+04 0.  0.
        2    1    3    3  502    0 -0.41482275329E+03 -0.61117171509E+03  0.79844779055E+02  0.74295623742E+03  0.25500000920E-02 0. -1.
       -2    1    3    3    0  502  0.41482275329E+03  0.61117171509E+03 -0.38187902682E+03  0.83152893702E+03  0.25500000920E-02 0.  1.
</event>
<event>
 5   0  0.1792000E-04  0.1499026E+04  0.7818609E-02  0.8885101E-01
       -3   -1    0    0    0  501  0.00000000000E+00  0.00000000000E+00  0.51219898061E+03  0.51219899057E+03  0.10100000352E+00 0.  1.
        3   -1    0    0  501    0  0.00000000000E+00  0.00000000000E+00 -0.10967799403E+04  0.10967799450E+04  0.10100000352E+00 0. -1.
    10030    2    1    2    0    0  0.00000000000E+00  0.00000000000E+00 -0.58458095972E+03  0.16089789355E+04  0.14990257892E+04 0.  0.
        4    1    3    3  502    0  0.26934290404E+03 -0.32863820688E+03  0.37042740486E+03  0.56370803272E+03  0.12699999809E+01 0.  1.
       -4    1    3    3    0  502 -0.26934290404E+03  0.32863820688E+03 -0.95500836458E+03  0.10452709028E+04  0.12699999809E+01 0. -1.
</event>
<event>
 5   0  0.4569211E-04  0.1310679E+04  0.7818609E-02  0.9021139E-01
       -2   -1    0    0    0  501  0.00000000000E+00  0.00000000000E+00  0.74640470935E+03  0.74640470935E+03  0.25500000920E-02 0.  1.
        2   -1    0    0  501    0  0.00000000000E+00  0.00000000000E+00 -0.57538508323E+03  0.57538508323E+03  0.25500000920E-02 0. -1.
    10030    2    1    2    0    0  0.00000000000E+00  0.00000000000E+00  0.17101962612E+03  0.13217897926E+04  0.13106794205E+04 0.  0.
        5    1    3    3  502    0 -0.36578874979E+03 -0.44558013380E+03 -0.22874842154E+03  0.62023462937E+03  0.46999998093E+01 0. -1.
       -5    1    3    3    0  502  0.36578874979E+03  0.44558013380E+03  0.39976804766E+03  0.70155516322E+03  0.46999998093E+01 0.  1.
</event>
<event>
 5   0  0.4768387E-04  0.1500377E+04  0.7818609E-02  0.8884203E-01
        2   -1    0    0  501    0  0.00000000000E+00  0.00000000000E+00  0.99895010244E+03  0.99895010244E+03  0.25500000920E-02 0.  1.
       -2   -1    0    0    0  501  0.00000000000E+00  0.00000000000E+00 -0.56337397253E+03  0.56337397254E+03  0.25500000920E-02 0. -1.
    10030    2    1    2    0    0  0.00000000000E+00  0.00000000000E+00  0.43557612991E+03  0.15623240750E+04  0.15003766028E+04 0.  0.
        3    1    3    3  502    0  0.38879352115E+03 -0.59564657737E+03  0.46601510368E+03  0.85036776414E+03  0.10100000352E+00 0.  1.
       -3    1    3    3    0  502 -0.38879352115E+03  0.59564657737E+03 -0.30438973777E+02  0.71195631084E+03  0.10100000352E+00 0. -1.
</event>
<event>
 5   0  0.2544374E-04  0.1434224E+04  0.7818609E-02  0.8929412E-01
       -1   -1    0    0    0  501  0.00000000000E+00  0.00000000000E+00  0.56958415149E+03  0.56958415151E+03  0.50400001928E-02 0. -1.
        1   -1    0    0  501    0  0.00000000000E+00  0.00000000000E+00 -0.90285064559E+03  0.90285064560E+03  0.50400001928E-02 0.  1.
    10030    2    1    2    0    0  0.00000000000E+00  0.00000000000E+00 -0.33326649410E+03  0.14724347971E+04  0.14342237188E+04 0.  0.
        4    1    3    3  502    0 -0.60654209925E+03 -0.30818928854E+03 -0.39932994990E+03  0.78888527526E+03  0.12699999809E+01 0.  1.
       -4    1    3    3    0  502  0.60654209925E+03  0.30818928854E+03  0.66063455796E+02  0.68354952185E+03  0.12699999809E+01 0. -1.
</event>
<event>
 5   0  0.4948645E-04  0.1498493E+04  0.7818609E-02  0.8885456E-01
       -2   -1    0    0    0  501  0.00000000000E+00  0.00000000000E+00  0.67469335038E+03  0.67469335038E+03  0.25500000920E-02 0.  1.
        2   -1    0    0  501    0  0.00000000000E+00  0.00000000000E+00 -0.83203798539E+03  0.83203798539E+03  0.25500000920E-02 0. -1.
    10030    2    1    2    0    0  0.00000000000E+00  0.00000000000E+00 -0.15734463501E+03  0.15067313358E+04  0.14984932379E+04 0.  0.
        1    1    3    3  502    0 -0.36021253401E+02  0.74837932924E+03 -0.79838370345E+02  0.75348743622E+03  0.50400001928E-02 0. -1.
       -1    1    3    3    0  502  0.36021253401E+02 -0.74837932924E+03 -0.77506264664E+02  0.75324389956E+03  0.50400001928E-02 0.  1.
</event>
<event>
 5   0  0.4726600E-04  0.1495129E+04  0.7818609E-02  0.8887699E-01
       -2   -1    0    0    0  501  0.00000000000E+00  0.00000000000E+00  0.79648478396E+03  0.79648478396E+03  0.25500000920E-02 0.  1.
        2   -1    0    0  501    0  0.00000000000E+00  0.00000000000E+00 -0.70164874387E+03  0.70164874387E+03  0.25500000920E-02 0. -1.
    10030    2    1    2    0    0  0.00000000000E+00  0.00000000000E+00  0.94836040089E+02  0.14981335278E+04  0.14951288214E+04 0.  0.
        2    1    3    3  502    0 -0.36097216957E+03  0.41215905622E+03  0.55704268970E+03  0.78132743007E+03  0.25500000920E-02 0.  1.
       -2    1    3    3    0  502  0.36097216957E+03 -0.41215905622E+03 -0.46220664961E+03  0.71680609776E+03  0.25500000920E-02 0. -1.
</event>
<event>
 5   0  0.2603873E-04  0.1614870E+04  0.7818609E-02  0.8811465E-01
       -1   -1    0    0    0  501  0.00000000000E+00  0.00000000000E+00  0.98181403950E+03  0.98181403951E+03  0.50400001928E-02 0.  1.
        1   -1    0    0  501    0  0.00000000000E+00  0.00000000000E+00 -0.66402688076E+03  0.66402688078E+03  0.50400001928E-02 0. -1.
    10030    2    1    2    0    0  0.00000000000E+00  0.00000000000E+00  0.31778715874E+03  0.16458409203E+04  0.16148695479E+04 0.  0.
        2    1    3    3  502    0  0.47879849083E+03 -0.22680728833E+03 -0.46210455341E+03  0.70301504902E+03  0.25500000920E-02 0. -1.
       -2    1    3    3    0  502 -0.47879849083E+03  0.22680728833E+03  0.77989171215E+03  0.94282587127E+03  0.25500000920E-02 0.  1.
</event>
<event>
 5   0  0.4569211E-04  0.1474198E+04  0.7818609E-02  0.8901795E-01
       -2   -1    0    0    0  501  0.00000000000E+00  0.00000000000E+00  0.59663397634E+03  0.59663397635E+03  0.25500000920E-02 0.  1.
        2   -1    0    0  501    0  0.00000000000E+00  0.00000000000E+00 -0.91063329306E+03  0.91063329307E+03  0.25500000920E-02 0. -1.
    10030    2    1    2    0    0  0.00000000000E+00  0.00000000000E+00 -0.31399931672E+03  0.15072672694E+04  0.14741977651E+04 0.  0.
        5    1    3    3  502    0  0.52232095857E+03 -0.48005551796E+03  0.47538379427E+02  0.71102353800E+03  0.46999998093E+01 0.  1.
       -5    1    3    3    0  502 -0.52232095857E+03  0.48005551796E+03 -0.36153769615E+03  0.79624373141E+03  0.46999998093E+01 0. -1.
</event>
<event>
 5   0  0.2605471E-04  0.1518088E+04  0.7818609E-02  0.8872513E-01
       -1   -1    0    0    0  501  0.00000000000E+00  0.00000000000E+00  0.46140726501E+03  0.46140726504E+03  0.50400001928E-02 0. -1.
        1   -1    0    0  501    0  0.00000000000E+00  0.00000000000E+00 -0.12486749566E+04  0.12486749566E+04  0.50400001928E-02 0.  1.
    10030    2    1    2    0    0  0.00000000000E+00  0.00000000000E+00 -0.78726769160E+03  0.17100822217E+04  0.15180878718E+04 0.  0.
        3    1    3    3  502    0 -0.52624222494E+03  0.28103893427E+03  0.13500879445E+03  0.61167078291E+03  0.10100000352E+00 0. -1.
       -3    1    3    3    0  502  0.52624222494E+03 -0.28103893427E+03 -0.92227648605E+03  0.10984114388E+04  0.10100000352E+00 0.  1.
</event>
<event>
 5   0  0.2605471E-04  0.1483065E+04  0.7818609E-02  0.8895793E-01
        1   -1    0    0  501    0  0.00000000000E+00  0.00000000000E+00  0.10267957659E+04  0.10267957659E+04  0.50400001928E-02 0.  1.
       -1   -1    0    0    0  501  0.00000000000E+00  0.00000000000E+00 -0.53552062857E+03  0.53552062859E+03  0.50400001928E-02 0. -1.
    10030    2    1    2    0    0  0.00000000000E+00  0.00000000000E+00  0.49127513736E+03  0.15623163945E+04  0.14830648186E+04 0.  0.
        3    1    3    3  502    0 -0.32235525665E+03  0.41825208728E+03  0.79405543932E+03  0.95360986306E+03  0.10100000352E+00 0.  1.
       -3    1    3    3    0  502  0.32235525665E+03 -0.41825208728E+03 -0.30278030195E+03  0.60870653147E+03  0.10100000352E+00 0. -1.
</event>
<event>
 5   0  0.2544374E-04  0.1532807E+04  0.7818609E-02  0.8862925E-01
       -1   -1    0    0    0  501  0.00000000000E+00  0.00000000000E+00  0.37417319242E+03  0.37417319246E+03  0.50400001928E-02 0.  1.
        1   -1    0    0  501    0  0.00000000000E+00  0.00000000000E+00 -0.15697928401E+04  0.15697928401E+04  0.50400001928E-02 0. -1.
    10030    2    1    2    0    0  0.00000000000E+00  0.00000000000E+00 -0.11956196477E+04  0.19439660326E+04  0.15328070961E+04 0.  0.
        4    1    3    3  502    0  0.13513151858E+03  0.33288766212E+02  0.35801193175E+03  0.38411303733E+03  0.12699999809E+01 0.  1.
       -4    1    3    3    0  502 -0.13513151858E+03 -0.33288766212E+02 -0.15536315794E+04  0.15598529952E+04  0.12699999809E+01 0. -1.
</event>
<event>
 5   0  0.4785496E-04  0.1471587E+04  0.7818609E-02  0.8903570E-01
        2   -1    0    0  501    0  0.00000000000E+00  0.00000000000E+00  0.18675031883E+04  0.18675031883E+04  0.25500000920E-02 0.  1.
       -2   -1    0    0    0  501  0.00000000000E+00  0.00000000000E+00 -0.28990151904E+03  0.28990151905E+03  0.25500000920E-02 0. -1.
    10030    2    1    2    0    0  0.00000000000E+00  0.00000000000E+00  0.15776016692E+04  0.21574047073E+04  0.14715869137E+04 0.  0.
        4    1    3    3  502    0 -0.48685556064E+03  0.53150806402E+03  0.57203886301E+03  0.92019521447E+03  0.12699999809E+01 0. -1.
       -4    1    3    3    0  502  0.48685556064E+03 -0.53150806402E+03  0.10055628062E+04  0.12372094928E+04  0.12699999809E+01 0.  1.
</event>
<event>
 5   0  0.4726600E-04  0.1496620E+04  0.7818609E-02  0.8886703E-01
        2   -1    0    0  501    0  0.00000000000E+00  0.00000000000E+00  0.83414481409E+03  0.83414481409E+03  0.25500000920E-02 0.  1.
       -2   -1    0    0    0  501  0.00000000000E+00  0.00000000000E+00 -0.67130814525E+03  0.67130814525E+03  0.25500000920E-02 0. -1.
    10030    2    1    2    0    0  0.00000000000E+00  0.00000000000E+00  0.16283666884E+03  0.15054529593E+04  0.14966204703E+04 0.  0.
        2    1    3    3  502    0  0.62265777393E+03  0.39093814233E+03 -0.58806204276E+02  0.73755915304E+03  0.25500000920E-02 0. -1.
       -2    1    3    3    0  502 -0.62265777393E+03 -0.39093814233E+03  0.22164287311E+03  0.76789380631E+03  0.25500000920E-02 0.  1.
</event>
<event>
 5   0  0.4785496E-04  0.1504846E+04  0.7818609E-02  0.8881237E-01
       -2   -1    0    0    0  501  0.00000000000E+00  0.00000000000E+00  0.37485910723E+03  0.37485910724E+03  0.25500000920E-02 0.  1.
        2   -1    0    0  501    0  0.00000000000E+00  0.00000000000E+00 -0.15102747260E+04  0.15102747260E+04  0.25500000920E-02 0. -1.
    10030    2    1    2    0    0  0.00000000000E+00  0.00000000000E+00 -0.11354156188E+04  0.18851338332E+04  0.15048458200E+04 0.  0.
        4    1    3    3  502    0  0.46491941430E+03 -0.50194993122E+03 -0.17547819967E+03  0.70632712443E+03  0.12699999809E+01 0.  1.
       -4    1    3    3    0  502 -0.46491941430E+03  0.50194993122E+03 -0.95993741910E+03  0.11788067088E+04  0.12699999809E+01 0. -1.
</event>
<event>
 5   0  0.4948645E-04  0.1563349E+04  0.7818609E-02  0.8843386E-01
       -2   -1    0    0    0  501  0.00000000000E+00  0.00000000000E+00  0.82418049477E+03  0.82418049477E+03  0.25500000920E-02 0. -1.
        2   -1    0    0  501    0  0.00000000000E+00  0.00000000000E+00 -0.74136024713E+03  0.74136024713E+03  0.25500000920E-02 0.  1.
    10030    2    1    2    0    0  0.00000000000E+00  0.00000000000E+00  0.82820247641E+02  0.15655407419E+04  0.15633485284E+04 0.  0.
        1    1    3    3  502    0 -0.39622980759E+02 -0.35365845757E+03  0.73835326653E+03  0.81964006213E+03  0.50400001928E-02 0. -1.
       -1    1    3    3    0  502  0.39622980759E+02  0.35365845757E+03 -0.65553301889E+03  0.74590067978E+03  0.50400001928E-02 0.  1.
</event>
<event>
 5   0  0.4768387E-04  0.1494291E+04  0.7818609E-02  0.8888258E-01
        2   -1    0    0  501    0  0.00000000000E+00  0.00000000000E+00  0.11580673392E+04  0.11580673392E+04  0.25500000920E-02 0. -1.
       -2   -1    0    0    0  501  0.00000000000E+00  0.00000000000E+00 -0.48203298391E+03  0.48203298392E+03  0.25500000920E-02 0.  1.
    10030    2    1    2    0    0  0.00000000000E+00  0.00000000000E+00  0.67603435526E+03  0.16401003231E+04  0.14942913439E+04 0.  0.
        3    1    3    3  502    0  0.69547159684E+03 -0.21055630144E+03  0.14724084799E+03  0.74141390303E+03  0.10100000352E+00 0.  1.
       -3    1    3    3    0  502 -0.69547159684E+03  0.21055630144E+03  0.52879350727E+03  0.89868642007E+03  0.10100000352E+00 0. -1.
</event>
<event>
 5   0  0.2542737E-04  0.1539726E+04  0.7818609E-02  0.8858457E-01
        1   -1    0    0  501    0  0.00000000000E+00  0.00000000000E+00  0.21498922810E+04  0.21498922810E+04  0.50400001928E-02 0.  1.
       -1   -1    0    0    0  501  0.00000000000E+00  0.00000000000E+00 -0.27568324604E+03  0.27568324608E+03  0.50400001928E-02 0. -1.
    10030    2    1    2    0    0  0.00000000000E+00  0.00000000000E+00  0.18742090349E+04  0.24255755271E+04  0.15397263169E+04 0.  0.
        1    1    3    3  502    0  0.23836501732E+03 -0.60303849426E+03  0.28336010865E+03  0.70764840016E+03  0.50400001928E-02 0. -1.
       -1    1    3    3    0  502 -0.23836501732E+03  0.60303849426E+03  0.15908489263E+04  0.17179271269E+04  0.50400001928E-02 0.  1.
</event>
<event>
 5   0  0.4726600E-04  0.1498702E+04  0.7818609E-02  0.8885317E-01
        2   -1    0    0  501    0  0.00000000000E+00  0.00000000000E+00  0.21220310237E+04  0.21220310237E+04  0.25500000920E-02 0. -1.
       -2   -1    0    0    0  501  0.00000000000E+00  0.00000000000E+00 -0.26461767696E+03  0.26461767698E+03  0.25500000920E-02 0.  1.
    10030    2    1    2    0    0  0.00000000000E+00  0.00000000000E+00  0.18574133467E+04  0.23866487007E+04  0.14987019983E+04 0.  0.
        2    1    3    3  502    0  0.33606030689E+03  0.65594544438E+03  0.11442857599E+04  0.13610991354E+04  0.25500000920E-02 0. -1.
       -2    1    3    3    0  502 -0.33606030689E+03 -0.65594544438E+03  0.71312758682E+03  0.10255495653E+04  0.25500000920E-02 0.  1.
</event>
<event>
 5   0  0.2603873E-04  0.1510823E+04  0.7818609E-02  0.8877288E-01
        1   -1    0    0  501    0  0.00000000000E+00  0.00000000000E+00  0.95873506811E+03  0.95873506812E+03  0.50400001928E-02 0. -1.
       -1   -1    0    0    0  501  0.00000000000E+00  0.00000000000E+00 -0.59520741446E+03  0.59520741448E+03  0.50400001928E-02 0.  1.
    10030    2    1    2    0    0  0.00000000000E+00  0.00000000000E+00  0.36352765364E+03  0.15539424826E+04  0.15108225853E+04 0.  0.
        2    1    3    3  502    0  0.19187469816E+03  0.17163346466E+03  0.91222489536E+03  0.94785452771E+03  0.25500000920E-02 0. -1.
       -2    1    3    3    0  502 -0.19187469816E+03 -0.17163346466E+03 -0.54869724172E+03  0.60608795489E+03  0.25500000920E-02 0.  1.
</event>
<event>
 5   0  0.4726600E-04  0.1523851E+04  0.7818609E-02  0.8868745E-01
       -2   -1    0    0    0  501  0.00000000000E+00  0.00000000000E+00  0.62770027956E+03  0.62770027957E+03  0.25500000920E-02 0. -1.
        2   -1    0    0  501    0  0.00000000000E+00  0.00000000000E+00 -0.92485331486E+03  0.92485331486E+03  0.25500000920E-02 0.  1.
    10030    2    1    2    0    0  0.00000000000E+00  0.00000000000E+00 -0.29715303530E+03  0.15525535944E+04  0.15238512845E+04 0.  0.
        2    1    3    3  502    0  0.46070356494E+03 -0.45204512112E+03 -0.56109554790E+03  0.85523141907E+03  0.25500000920E-02 0.  1.
       -2    1    3    3    0  502 -0.46070356494E+03  0.45204512112E+03  0.26394251261E+03  0.69732217536E+03  0.25500000920E-02 0. -1.
</event>
<event>
 5   0  0.4785496E-04  0.1500069E+04  0.7818609E-02  0.8884407E-01
        2   -1    0    0  501    0  0.00000000000E+00  0.00000000000E+00  0.15179435811E+04  0.15179435811E+04  0.25500000920E-02 0.  1.
       -2   -1    0    0    0  501  0.00000000000E+00  0.00000000000E+00 -0.37060099829E+03  0.37060099830E+03  0.25500000920E-02 0. -1.
    10030    2    1    2    0    0  0.00000000000E+00  0.00000000000E+00  0.11473425828E+04  0.18885445794E+04  0.15000685404E+04 0.  0.
        4    1    3    3  502    0 -0.43913267537E+03  0.59416239740E+02 -0.18817021923E+03  0.48143269563E+03  0.12699999809E+01 0. -1.
       -4    1    3    3    0  502  0.43913267537E+03 -0.59416239740E+02  0.13355128020E+04  0.14071118837E+04  0.12699999809E+01 0.  1.
</event>
<event>
 5   0  0.2542737E-04  0.1502933E+04  0.7818609E-02  0.8882505E-01
        1   -1    0    0  501    0  0.00000000000E+00  0.00000000000E+00  0.94775618636E+03  0.94775618637E+03  0.50400001928E-02 0. -1.
       -1   -1    0    0    0  501  0.00000000000E+00  0.00000000000E+00 -0.59582998099E+03  0.59582998101E+03  0.50400001928E-02 0.  1.
    10030    2    1    2    0    0  0.00000000000E+00  0.00000000000E+00  0.35192620537E+03  0.15435861674E+04  0.15029325341E+04 0.  0.
        1    1    3    3  502    0  0.77296187168E+02  0.40905686584E+03 -0.46657876525E+03  0.62529830021E+03  0.50400001928E-02 0.  1.
       -1    1    3    3    0  502 -0.77296187168E+02 -0.40905686584E+03  0.81850497062E+03  0.91828786717E+03  0.50400001928E-02 0. -1.
</event>
<event>
 5   0  0.2605471E-04  0.1492656E+04  0.7818609E-02  0.8889351E-01
        1   -1    0    0  501    0  0.00000000000E+00  0.00000000000E+00  0.98231148242E+03  0.98231148243E+03  0.50400001928E-02 0. -1.
       -1   -1    0    0    0  501  0.00000000000E+00  0.00000000000E+00 -0.56703570304E+03  0.56703570306E+03  0.50400001928E-02 0.  1.
    10030    2    1    2    0    0  0.00000000000E+00  0.00000000000E+00  0.41527577938E+03  0.15493471855E+04  0.14926562659E+04 0.  0.
        3    1    3    3  502    0 -0.48782315953E+03 -0.19505095488E+02 -0.37829581681E+03  0.61762417289E+03  0.10100000352E+00 0.  1.
       -3    1    3    3    0  502  0.48782315953E+03  0.19505095488E+02  0.79357159619E+03  0.93172301260E+03  0.10100000352E+00 0. -1.
</event>
<event>
 5   0  0.4768387E-04  0.1496700E+04  0.7818609E-02  0.8886650E-01
       -2   -1    0    0    0  501  0.00000000000E+00  0.00000000000E+00  0.87642100885E+03  0.87642100885E+03  0.25500000920E-02 0. -1.
        2   -1    0    0  501    0  0.00000000000E+00  0.00000000000E+00 -0.63899375965E+03  0.63899375965E+03  0.25500000920E-02 0.  1.
    10030    2    1    2    0    0  0.00000000000E+00  0.00000000000E+00  0.23742724920E+03  0.15154147685E+04  0.14966997768E+04 0.  0.
        3    1    3    3  502    0  0.35361701613E+02  0.38451919774E+03 -0.53033399481E+03  0.65601800252E+03  0.10100000352E+00 0.  1.
       -3    1    3    3    0  502 -0.35361701613E+02 -0.38451919774E+03  0.76776124402E+03  0.85939676599E+03  0.10100000352E+00 0. -1.
</event>
<event>
 5   0  0.2565416E-04  0.1510303E+04  0.7818609E-02  0.8877630E-01
       -1   -1    0    0    0  501  0.00000000000E+00  0.00000000000E+00  0.56310303263E+03  0.56310303266E+03  0.50400001928E-02 0. -1.
        1   -1    0    0  501    0  0.00000000000E+00  0.00000000000E+00 -0.10126990518E+04  0.10126990518E+04  0.50400001928E-02 0.  1.
    10030    2    1    2    0    0  0.00000000000E+00  0.00000000000E+00 -0.44959601913E+03  0.15758020844E+04  0.15103031579E+04 0.  0.
        5    1    3    3  502    0  0.53579670150E+03 -0.33736759406E+03 -0.65414976013E+03  0.91040045998E+03  0.46999998093E+01 0.  1.
       -5    1    3    3    0  502 -0.53579670150E+03  0.33736759406E+03  0.20455374100E+03  0.66540162445E+03  0.46999998093E+01 0. -1.
</event>
<event>
 5   0  0.2544374E-04  0.1504044E+04  0.7818609E-02  0.8881768E-01
        1   -1    0    0  501    0  0.00000000000E+00  0.00000000000E+00  0.97835163226E+03  0.97835163227E+03  0.50400001928E-02 0.  1.
       -1   -1    0    0    0  501  0.00000000000E+00  0.00000000000E+00 -0.57805072963E+03  0.57805072965E+03  0.50400001928E-02 0. -1.
    10030    2    1    2    0    0  0.00000000000E+00  0.00000000000E+00  0.40030090263E+03  0.15564023619E+04  0.15040437160E+04 0.  0.
        4    1    3    3  502    0  0.92615328069E-01  0.11707202357E+03 -0.56856186084E+03  0.58049123144E+03  0.12699999809E+01 0. -1.
       -4    1    3    3    0  502 -0.92615328069E-01 -0.11707202357E+03  0.96886276346E+03  0.97591113049E+03  0.12699999809E+01 0.  1.
</event>
<event>
 5   0  0.4785496E-04  0.1500222E+04  0.7818609E-02  0.8884306E-01
       -2   -1    0    0    0  501  0.00000000000E+00  0.00000000000E+00  0.67231181035E+03  0.67231181035E+03  0.25500000920E-02 0.  1.
        2   -1    0    0  501    0  0.00000000000E+00  0.00000000000E+00 -0.83691258599E+03  0.83691258600E+03  0.25500000920E-02 0. -1.
    10030    2    1    2    0    0  0.00000000000E+00  0.00000000000E+00 -0.16460077565E+03  0.15092243964E+04  0.15002216047E+04 0.  0.
        4    1    3    3  502    0 -0.65814513033E+03 -0.28274190904E+03 -0.30627200213E+03  0.77903924927E+03  0.12699999809E+01 0. -1.
       -4    1    3    3    0  502  0.65814513033E+03  0.28274190904E+03  0.14167122648E+03  0.73018514708E+03  0.12699999809E+01 0.  1.
</event>
<event>
 5   0  0.4948645E-04  0.1493391E+04  0.7818609E-02  0.8888860E-01
       -2   -1    0    0    0  501  0.00000000000E+00  0.00000000000E+00  0.55187943049E+03  0.55187943049E+03  0.25500000920E-02 0.  1.
        2   -1    0    0  501    0  0.00000000000E+00  0.00000000000E+00 -0.10102824379E+04  0.10102824379E+04  0.25500000920E-02 0. -1.
    10030    2    1    2    0    0  0.00000000000E+00  0.00000000000E+00 -0.45840300740E+03  0.15621618684E+04  0.14933909019E+04 0.  0.
        1    1    3    3  502    0 -0.64491160099E+03 -0.37635206025E+03 -0.22763239890E+03  0.78062049384E+03  0.50400001928E-02 0.  1.
       -1    1    3    3    0  502  0.64491160099E+03  0.37635206025E+03 -0.23077060850E+03  0.78154137455E+03  0.50400001928E-02 0. -1.
</event>
<event>
 5   0  0.2603873E-04  0.1498874E+04  0.7818609E-02  0.8885202E-01
        1   -1    0    0  501    0  0.00000000000E+00  0.00000000000E+00  0.11502946529E+04  0.11502946529E+04  0.50400001928E-02 0.  1.
       -1   -1    0    0    0  501  0.00000000000E+00  0.00000000000E+00 -0.48827139940E+03  0.48827139943E+03  0.50400001928E-02 0. -1.
    10030    2    1    2    0    0  0.00000000000E+00  0.00000000000E+00  0.66202325349E+03  0.16385660523E+04  0.14988742174E+04 0.  0.
        2    1    3    3  502    0 -0.48740584580E+03  0.38686512718E+03 -0.12555639327E+03  0.63481768489E+03  0.25500000920E-02 0. -1.
       -2    1    3    3    0  502  0.48740584580E+03 -0.38686512718E+03  0.78757964676E+03  0.10037483674E+04  0.25500000920E-02 0.  1.
</event>
<event>
 5   0  0.4726600E-04  0.1508624E+04  0.7818609E-02  0.8878738E-01
        2   -1    0    0  501    0  0.00000000000E+00  0.00000000000E+00  0.95562841544E+03  0.95562841544E+03  0.25500000920E-02 0. -1.
       -2   -1    0    0    0  501  0.00000000000E+00  0.00000000000E+00 -0.59540567475E+03  0.59540567476E+03  0.25500000920E-02 0.  1.
    10030    2    1    2    0    0  0.00000000000E+00  0.00000000000E+00  0.36022274069E+03  0.15510340902E+04  0.15086239843E+04 0.  0.
        2    1    3    3  502    0  0.16377130001E+03 -0.53430906780E+03 -0.34076638604E+03  0.65454484071E+03  0.25500000920E-02 0.  1.
       -2    1    3    3    0  502 -0.16377130001E+03  0.53430906780E+03  0.70098912672E+03  0.89648924948E+03  0.25500000920E-02 0. -1.
</event>
<event>
 5   0  0.4948645E-04  0.1494960E+04  0.7818609E-02  0.8887811E-01
        2   -1    0    0  501    0  0.00000000000E+00  0.00000000000E+00  0.13480375565E+04  0.13480375565E+04  0.25500000920E-02 0.  1.
       -2   -1    0    0    0  501  0.00000000000E+00  0.00000000000E+00 -0.41447387141E+03  0.41447387142E+03  0.25500000920E-02 0. -1.
    10030    2    1    2    0    0  0.00000000000E+00  0.00000000000E+00  0.93356368508E+03  0.17625114279E+04  0.14949599926E+04 0.  0.
        1    1    3    3  502    0 -0.36830031611E+03  0.48869163273E+03  0.97286271102E+03  0.11493156613E+04  0.50400001928E-02 0.  1.
       -1    1    3    3    0  502  0.36830031611E+03 -0.48869163273E+03 -0.39299025937E+02  0.61319576663E+03  0.50400001928E-02 0. -1.
</event>
<event>
 5   0  0.4768387E-04  0.1489333E+04  0.7818609E-02  0.8891578E-01
       -2   -1    0    0    0  501  0.00000000000E+00  0.00000000000E+00  0.72466038337E+03  0.72466038337E+03  0.25500000920E-02 0.  1.
        2   -1    0    0  501    0  0.00000000000E+00  0.00000000000E+00 -0.76522444848E+03  0.76522444848E+03  0.25500000920E-02 0. -1.
    10030    2    1    2    0    0  0.00000000000E+00  0.00000000000E+00 -0.40564065110E+02  0.14898848319E+04  0.14893325246E+04 0.  0.
        3    1    3    3  502    0  0.23489937213E+03  0.14447717252E+03  0.67169441782E+03  0.72610245113E+03  0.10100000352E+00 0.  1.
       -3    1    3    3    0  502 -0.23489937213E+03 -0.14447717252E+03 -0.71225848293E+03  0.76378238073E+03  0.10100000352E+00 0. -1.
</event>
<event>
 5   0  0.4726600E-04  0.1502516E+04  0.7818609E-02  0.8882781E-01
        2   -1    0    0  501    0  0.00000000000E+00  0.00000000000E+00  0.51507090150E+03  0.51507090151E+03  0.25500000920E-02 0. -1.
       -2   -1    0    0    0  501  0.00000000000E+00  0.00000000000E+00 -0.10957495107E+04  0.10957495107E+04  0.25500000920E-02 0.  1.
    10030    2    1    2    0    0  0.00000000000E+00  0.00000000000E+00 -0.58067860921E+03  0.16108204122E+04  0.15025161408E+04 0.  0.
        2    1    3    3  502    0 -0.45379975113E+03 -0.57446563650E+03 -0.10952987602E+03  0.74023089330E+03  0.25500000920E-02 0. -1.
       -2    1    3    3    0  502  0.45379975113E+03  0.57446563650E+03 -0.47114873320E+03  0.87058951892E+03  0.25500000920E-02 0.  1.
</event>
<event>
 5   0  0.2565416E-04  0.1378404E+04  0.7818609E-02  0.8969601E-01
        1   -1    0    0  501    0  0.00000000000E+00  0.00000000000E+00  0.53747402130E+03  0.53747402133E+03  0.50400001928E-02 0.  1.
       -1   -1    0    0    0  501  0.00000000000E+00  0.00000000000E+00 -0.88376232287E+03  0.88376232288E+03  0.50400001928E-02 0. -1.
    10030    2    1    2    0    0  0.00000000000E+00  0.00000000000E+00 -0.34628830156E+03  0.14212363442E+04  0.13784038444E+04 0.  0.
        5    1    3    3  502    0  0.67800953238E+03  0.18675228441E+02 -0.29913577812E+03  0.74131639258E+03  0.46999998093E+01 0. -1.
       -5    1    3    3    0  502 -0.67800953238E+03 -0.18675228441E+02 -0.47152523446E+02  0.67991995163E+03  0.46999998093E+01 0.  1.
</event>
<event>
 5   0  0.4785496E-04  0.1502400E+04  0.7818609E-02  0.8882859E-01
        2   -1    0    0  501    0  0.00000000000E+00  0.00000000000E+00  0.90059922124E+03  0.90059922125E+03  0.25500000920E-02 0.  1.
       -2   -1    0    0    0  501  0.00000000000E+00  0.00000000000E+00 -0.62658400664E+03  0.62658400664E+03  0.25500000920E-02 0. -1.
    10030    2    1    2    0    0  0.00000000000E+00  0.00000000000E+00  0.27401521461E+03  0.15271832279E+04  0.15023995054E+04 0.  0.
        4    1    3    3  502    0 -0.34968011634E+03  0.56808065152E+03  0.48811490056E+03  0.82658912371E+03  0.12699999809E+01 0.  1.
       -4    1    3    3    0  502  0.34968011634E+03 -0.56808065152E+03 -0.21409968595E+03  0.70059410418E+03  0.12699999809E+01 0. -1.
</event>
<event>
 5   0  0.2605471E-04  0.1528566E+04  0.7818609E-02  0.8865676E-01
       -1   -1    0    0    0  501  0.00000000000E+00  0.00000000000E+00  0.41949190466E+03  0.41949190469E+03  0.50400001928E-02 0.  1.
        1   -1    0    0  501    0  0.00000000000E+00  0.00000000000E+00 -0.13924673913E+04  0.13924673913E+04  0.50400001928E-02 0. -1.
    10030    2    1    2    0    0  0.00000000000E+00  0.00000000000E+00 -0.97297548666E+03  0.18119592960E+04  0.15285663848E+04 0.  0.
        3    1    3    3  502    0 -0.24076947608E+03  0.28482769213E+02  0.37269886734E+03  0.44461856087E+03  0.10100000352E+00 0.  1.
       -3    1    3    3    0  502  0.24076947608E+03 -0.28482769213E+02 -0.13456743540E+04  0.13673407351E+04  0.10100000352E+00 0. -1.
</event>
<event>
 5   0  0.2542737E-04  0.1491566E+04  0.7818609E-02  0.8890081E-01
        1   -1    0    0  501    0  0.00000000000E+00  0.00000000000E+00  0.89242075741E+03  0.89242075742E+03  0.50400001928E-02 0. -1.
       -1   -1    0    0    0  501  0.00000000000E+00  0.00000000000E+00 -0.62323976883E+03  0.62323976885E+03  0.50400001928E-02 0.  1.
    10030    2    1    2    0    0  0.00000000000E+00  0.00000000000E+00  0.26918098858E+03  0.15156605263E+04  0.14915657633E+04 0.  0.
        1    1    3    3  502    0  0.83170265943E+02 -0.49201347279E+03 -0.42861698293E+03  0.65780473442E+03  0.50400001928E-02 0.  1.
       -1    1    3    3    0  502 -0.83170265943E+02  0.49201347279E+03  0.69779797151E+03  0.85785579185E+03  0.50400001928E-02 0. -1.
</event>
<event>
 5   0  0.4768387E-04  0.1504653E+04  0.7818609E-02  0.8881364E-01
       -2   -1    0    0    0  501  0.00000000000E+00  0.00000000000E+00  0.59242272986E+03  0.59242272986E+03  0.25500000920E-02 0. -1.
        2   -1    0    0  501    0  0.00000000000E+00  0.00000000000E+00 -0.95539099881E+03  0.95539099881E+03  0.25500000920E-02 0.  1.
    10030    2    1    2    0    0  0.00000000000E+00  0.00000000000E+00 -0.36296826895E+03  0.15478137287E+04  0.15046532406E+04 0.  0.
        3    1    3    3  502    0 -0.71706784399E+03  0.87369210581E+01 -0.41545666411E+03  0.82877432190E+03  0.10100000352E+00 0.  1.
       -3    1    3    3    0  502  0.71706784399E+03 -0.87369210581E+01  0.52488395160E+02  0.71903940678E+03  0.10100000352E+00 0. -1.
</event>
<event>
 5   0  0.1792000E-04  0.1498407E+04  0.7818609E-02  0.8885513E-01
        3   -1    0    0  501    0  0.00000000000E+00  0.00000000000E+00  0.87126069638E+03  0.87126070224E+03  0.10100000352E+00 0. -1.
       -3   -1    0    0    0  501  0.00000000000E+00  0.00000000000E+00 -0.64424592626E+03  0.64424593418E+03  0.10100000352E+00 0.  1.
    10030    2    1    2    0    0  0.00000000000E+00  0.00000000000E+00  0.22701477012E+03  0.15155066364E+04  0.14984073742E+04 0.  0.
        2    1    3    3  502    0 -0.37738242126E+03 -0.45809600443E+03  0.57593018147E+03  0.82702177425E+03  0.25500000920E-02 0.  1.
       -2    1    3    3    0  502  0.37738242126E+03  0.45809600443E+03 -0.34891541135E+03  0.68848486217E+03  0.25500000920E-02 0. -1.
</event>
<event>
 5   0  0.2605471E-04  0.1479093E+04  0.7818609E-02  0.8898476E-01
       -1   -1    0    0    0  501  0.00000000000E+00  0.00000000000E+00  0.75869401109E+03  0.75869401111E+03  0.50400001928E-02 0. -1.
        1   -1    0    0  501    0  0.00000000000E+00  0.00000000000E+00 -0.72088253324E+03  0.72088253326E+03  0.50400001928E-02 0.  1.
    10030    2    1    2    0    0  0.00000000000E+00  0.00000000000E+00  0.37811477848E+02  0.14795765444E+04  0.14790933178E+04 0.  0.
        3    1    3    3  502    0  0.27351164928E+03  0.67081362183E+03 -0.12990345130E+03  0.73598536288E+03  0.10100000352E+00 0.  1.
       -3    1    3    3    0  502 -0.27351164928E+03 -0.67081362183E+03  0.16771492915E+03  0.74359118148E+03  0.10100000352E+00 0. -1.
</event>
<event>
 5   0  0.2544374E-04  0.1499279E+04  0.7818609E-02  0.8884933E-01
        1   -1    0    0  501    0  0.00000000000E+00  0.00000000000E+00  0.74458472939E+03  0.74458472940E+03  0.50400001928E-02 0. -1.
       -1   -1    0    0    0  501  0.00000000000E+00  0.00000000000E+00 -0.75472809022E+03  0.75472809024E+03  0.50400001928E-02 0.  1.
    10030    2    1    2    0    0  0.00000000000E+00  0.00000000000E+00 -0.10143360837E+02  0.14993128196E+04  0.14992785076E+04 0.  0.
        4    1    3    3  502    0 -0.18498085871E+03 -0.72022388744E+03  0.89888545696E+02  0.74901397162E+03  0.12699999809E+01 0. -1.
       -4    1    3    3    0  502  0.18498085871E+03  0.72022388744E+03 -0.10003190653E+03  0.75029884803E+03  0.12699999809E+01 0.  1.
</event>
<event>
 5   0  0.2565416E-04  0.1495423E+04  0.7818609E-02  0.8887502E-01
       -1   -1    0    0    0  501  0.00000000000E+00  0.00000000000E+00  0.60803657373E+03  0.60803657375E+03  0.50400001928E-02 0.  1.
        1   -1    0    0  501    0  0.00000000000E+00  0.00000000000E+00 -0.91947199220E+03  0.91947199221E+03  0.50400001928E-02 0. -1.
    10030    2    1    2    0    0  0.00000000000E+00  0.00000000000E+00 -0.31143541847E+03  0.15275085660E+04  0.14954231505E+04 0.  0.
        5    1    3    3  502    0  0.58036070695E+03 -0.39398785447E+03 -0.42012588422E+03  0.81766302854E+03  0.46999998093E+01 0. -1.
       -5    1    3    3    0  502 -0.58036070695E+03  0.39398785447E+03  0.10869046575E+03  0.70984553742E+03  0.46999998093E+01 0.  1.
</event>
<event>
 5   0  0.2544374E-04  0.1494601E+04  0.7818609E-02  0.8888051E-01
        1   -1    0    0  501    0  0.00000000000E+00  0.00000000000E+00  0.54151321315E+03  0.54151321317E+03  0.50400001928E-02 0. -1.
       -1   -1    0    0    0  501  0.00000000000E+00  0.00000000000E+00 -0.10312920677E+04  0.10312920677E+04  0.50400001928E-02 0.  1.
    10030    2    1    2    0    0  0.00000000000E+00  0.00000000000E+00 -0.48977885452E+03  0.15728052809E+04  0.14946013265E+04 0.  0.
        4    1    3    3  502    0 -0.56484793117E+03 -0.39220761770E+03  0.62952153785E+02  0.69053934522E+03  0.12699999809E+01 0. -1.
       -4    1    3    3    0  502  0.56484793117E+03  0.39220761770E+03 -0.55273100831E+03  0.88226593563E+03  0.12699999809E+01 0.  1.
</event>
<event>
 5   0  0.4768387E-04  0.1507368E+04  0.7818609E-02  0.8879568E-01
        2   -1    0    0  501    0  0.00000000000E+00  0.00000000000E+00  0.46655909102E+03  0.46655909102E+03  0.25500000920E-02 0.  1.
       -2   -1    0    0    0  501  0.00000000000E+00  0.00000000000E+00 -0.12175090818E+04  0.12175090818E+04  0.25500000920E-02 0. -1.
    10030    2    1    2    0    0  0.00000000000E+00  0.00000000000E+00 -0.75094999076E+03  0.16840681728E+04  0.15073684759E+04 0.  0.
        3    1    3    3  502    0 -0.27761585833E+02  0.15318258530E+03 -0.11993504466E+04  0.12094118876E+04  0.10100000352E+00 0. -1.
       -3    1    3    3    0  502  0.27761585833E+02 -0.15318258530E+03  0.44840045580E+03  0.47465628517E+03  0.10100000352E+00 0.  1.
</event>
<event>
 5   0  0.2544374E-04  0.1501700E+04  0.7818609E-02  0.8883323E-01
       -1   -1    0    0    0  501  0.00000000000E+00  0.00000000000E+00  0.49976432194E+03  0.49976432197E+03  0.50400001928E-02 0. -1.
        1   -1    0    0  501    0  0.00000000000E+00  0.00000000000E+00 -0.11280832122E+04  0.11280832122E+04  0.50400001928E-02 0.  1.
    10030    2    1    2    0    0  0.00000000000E+00  0.00000000000E+00 -0.62831889021E+03  0.16278475341E+04  0.15017000255E+04 0.  0.
        4    1    3    3  502    0 -0.59156130905E+03  0.24349500244E+03  0.11197862198E+03  0.64944239410E+03  0.12699999809E+01 0. -1.
       -4    1    3    3    0  502  0.59156130905E+03 -0.24349500244E+03 -0.74029751219E+03  0.97840514003E+03  0.12699999809E+01 0.  1.
</event>
<event>
 5   0  0.4768387E-04  0.1490230E+04  0.7818609E-02  0.8890976E-01
       -2   -1    0    0    0  501  0.00000000000E+00  0.00000000000E+00  0.79790297516E+03  0.79790297516E+03  0.25500000920E-02 0.  1.
        2   -1    0    0  501    0  0.00000000000E+00  0.00000000000E+00 -0.69581910585E+03  0.69581910586E+03  0.25500000920E-02 0. -1.
    10030    2    1    2    0    0  0.00000000000E+00  0.00000000000E+00  0.10208386931E+03  0.14937220810E+04  0.14902296934E+04 0.  0.
        3    1    3    3  502    0  0.74071044034E+03 -0.79930520771E+02  0.38551594078E+02  0.74600742637E+03  0.10100000352E+00 0. -1.
       -3    1    3    3    0  502 -0.74071044034E+03  0.79930520771E+02  0.63532275230E+02  0.74771465465E+03  0.10100000352E+00 0.  1.
</event>
<event>
 5   0  0.4785496E-04  0.1500922E+04  0.7818609E-02  0.8883840E-01
       -2   -1    0    0    0  501  0.00000000000E+00  0.00000000000E+00  0.17416617703E+04  0.17416617703E+04  0.25500000920E-02 0.  1.
        2   -1    0    0  501    0  0.00000000000E+00  0.00000000000E+00 -0.32336438794E+03  0.32336438795E+03  0.25500000920E-02 0. -1.
    10030    2    1    2    0    0  0.00000000000E+00  0.00000000000E+00  0.14182973824E+04  0.20650261583E+04  0.15009215734E+04 0.  0.
        4    1    3    3  502    0 -0.72072655275E+03  0.16629466309E+03  0.88366396445E+03  0.11523733309E+04  0.12699999809E+01 0.  1.
       -4    1    3    3    0  502  0.72072655275E+03 -0.16629466309E+03  0.53463341793E+03  0.91265282736E+03  0.12699999809E+01 0. -1.
</event>
<event>
 5   0  0.2544374E-04  0.1495830E+04  0.7818609E-02  0.8887231E-01
       -1   -1    0    0    0  501  0.00000000000E+00  0.00000000000E+00  0.11698019058E+04  0.11698019059E+04  0.50400001928E-02 0.  1.
        1   -1    0    0  501    0  0.00000000000E+00  0.00000000000E+00 -0.47818070159E+03  0.47818070162E+03  0.50400001928E-02 0. -1.
    10030    2    1    2    0    0  0.00000000000E+00  0.00000000000E+00  0.69162120425E+03  0.16479826075E+04  0.14958297979E+04 0.  0.
        4    1    3    3  502    0 -0.70596333623E+03  0.20618933786E+03  0.49556649367E+03  0.88684048041E+03  0.12699999809E+01 0.  1.
       -4    1    3    3    0  502  0.70596333623E+03 -0.20618933786E+03  0.19605471058E+03  0.76114212706E+03  0.12699999809E+01 0. -1.
</event>
<event>
 5   0  0.2542737E-04  0.1499386E+04  0.7818609E-02  0.8884861E-01
       -1   -1    0    0    0  501  0.00000000000E+00  0.00000000000E+00  0.76846840990E+03  0.76846840992E+03  0.50400001928E-02 0.  1.
        1   -1    0    0  501    0  0.00000000000E+00  0.00000000000E+00 -0.73137679376E+03  0.73137679378E+03  0.50400001928E-02 0. -1.
    10030    2    1    2    0    0  0.00000000000E+00  0.00000000000E+00  0.37091616136E+02  0.14998452037E+04  0.14993864902E+04 0.  0.
        1    1    3    3  502    0 -0.14359464365E+03  0.67197072604E+02  0.75150805737E+03  0.76804897537E+03  0.50400001928E-02 0.  1.
       -1    1    3    3    0  502  0.14359464365E+03 -0.67197072604E+02 -0.71441644124E+03  0.73179622832E+03  0.50400001928E-02 0. -1.
</event>
<event>
 5   0  0.4726600E-04  0.1511283E+04  0.7818609E-02  0.8876984E-01
       -2   -1    0    0    0  501  0.00000000000E+00  0.00000000000E+00  0.46092805800E+03  0.46092805801E+03  0.25500000920E-02 0.  1.
        2   -1    0    0  501    0  0.00000000000E+00  0.00000000000E+00 -0.12387921998E+04  0.12387921998E+04  0.25500000920E-02 0. -1.
    10030    2    1    2    0    0  0.00000000000E+00  0.00000000000E+00 -0.77786414175E+03  0.16997202578E+04  0.15112830085E+04 0.  0.
        2    1    3    3  502    0  0.22627112043E+03  0.47167974736E+03  0.22432010296E+03  0.56920990206E+03  0.25500000920E-02 0.  1.
       -2    1    3    3    0  502 -0.22627112043E+03 -0.47167974736E+03 -0.10021842447E+04  0.11305103557E+04  0.25500000920E-02 0. -1.
</event>
<event>
 5   0  0.4768387E-04  0.1500333E+04  0.7818609E-02  0.8884231E-01
        2   -1    0    0  501    0  0.00000000000E+00  0.00000000000E+00  0.33601999567E+03  0.33601999568E+03  0.25500000920E-02 0.  1.
       -2   -1    0    0    0  501  0.00000000000E+00  0.00000000000E+00 -0.16747514510E+04  0.16747514510E+04  0.25500000920E-02 0. -1.
    10030    2    1    2    0    0  0.00000000000E+00  0.00000000000E+00 -0.13387314553E+04  0.20107714466E+04  0.15003332634E+04 0.  0.
        3    1    3    3  502    0 -0.45904911892E+03 -0.32729583574E+03 -0.13326054417E+04  0.14469574739E+04  0.10100000352E+00 0. -1.
       -3    1    3    3    0  502  0.45904911892E+03  0.32729583574E+03 -0.61260135944E+01  0.56381397279E+03  0.10100000352E+00 0.  1.
</event>
<event>
 5   0  0.2544374E-04  0.1496601E+04  0.7818609E-02  0.8886716E-01
       -1   -1    0    0    0  501  0.00000000000E+00  0.00000000000E+00  0.52421325679E+03  0.52421325682E+03  0.50400001928E-02 0.  1.
        1   -1    0    0  501    0  0.00000000000E+00  0.00000000000E+00 -0.10681793719E+04  0.10681793719E+04  0.50400001928E-02 0. -1.
    10030    2    1    2    0    0  0.00000000000E+00  0.00000000000E+00 -0.54396611510E+03  0.15923926287E+04  0.14966011993E+04 0.  0.
        4    1    3    3  502    0 -0.48163171661E+03  0.12059642946E+03  0.32370785903E+03  0.59270650422E+03  0.12699999809E+01 0.  1.
       -4    1    3    3    0  502  0.48163171661E+03 -0.12059642946E+03 -0.86767397413E+03  0.99968612450E+03  0.12699999809E+01 0. -1.
</event>
<event>
 5   0  0.2603873E-04  0.1502946E+04  0.7818609E-02  0.8882496E-01
       -1   -1    0    0    0  501  0.00000000000E+00  0.00000000000E+00  0.45879747768E+03  0.45879747771E+03  0.50400001928E-02 0. -1.
        1   -1    0    0  501    0  0.00000000000E+00  0.00000000000E+00 -0.12308515052E+04  0.12308515052E+04  0.50400001928E-02 0.  1.
    10030    2    1    2    0    0  0.00000000000E+00  0.00000000000E+00 -0.77205402750E+03  0.16896489829E+04  0.15029458620E+04 0.  0.
        2    1    3    3  502    0 -0.52923574402E+03  0.42157058681E+03 -0.18456510314E+02  0.67686991009E+03  0.25500000920E-02 0. -1.
       -2    1    3    3    0  502  0.52923574402E+03 -0.42157058681E+03 -0.75359751719E+03  0.10127790728E+04  0.25500000920E-02 0.  1.
</event>
<event>
 5   0  0.2542737E-04  0.1500075E+04  0.7818609E-02  0.8884403E-01
        1   -1    0    0  501    0  0.00000000000E+00  0.00000000000E+00  0.67284193939E+03  0.67284193941E+03  0.50400001928E-02 0. -1.
       -1   -1    0    0    0  501  0.00000000000E+00  0.00000000000E+00 -0.83608991447E+03  0.83608991448E+03  0.50400001928E-02 0.  1.
    10030    2    1    2    0    0  0.00000000000E+00  0.00000000000E+00 -0.16324797508E+03  0.15089318539E+04  0.15000751442E+04 0.  0.
        1    1    3    3  502    0 -0.30770571689E+03  0.31146323030E+03 -0.69420576305E+03  0.82073978429E+03  0.50400001928E-02 0.  1.
       -1    1    3    3    0  502  0.30770571689E+03 -0.31146323030E+03  0.53095778797E+03  0.68819206961E+03  0.50400001928E-02 0. -1.
</event>
<event>
 5   0  0.4726600E-04  0.1499042E+04  0.7818609E-02  0.8885090E-01
       -2   -1    0    0    0  501  0.00000000000E+00  0.00000000000E+00  0.68054093706E+03  0.68054093707E+03  0.25500000920E-02 0. -1.
        2   -1    0    0  501    0  0.00000000000E+00  0.00000000000E+00 -0.82549254400E+03  0.82549254400E+03  0.25500000920E-02 0.  1.
    10030    2    1    2    0    0  0.00000000000E+00  0.00000000000E+00 -0.14495160694E+03  0.15060334811E+04  0.14990416531E+04 0.  0.
        2    1    3    3  502    0 -0.57553028883E+03 -0.26559179552E+03 -0.47435071845E+03  0.79169610288E+03  0.25500000920E-02 0.  1.
       -2    1    3    3    0  502  0.57553028883E+03  0.26559179552E+03  0.32939911151E+03  0.71433737819E+03  0.25500000920E-02 0. -1.
</event>
<event>
 5   0  0.2565416E-04  0.1500215E+04  0.7818609E-02  0.8884310E-01
       -1   -1    0    0    0  501  0.00000000000E+00  0.00000000000E+00  0.10237220247E+04  0.10237220247E+04  0.50400001928E-02 0. -1.
        1   -1    0    0  501    0  0.00000000000E+00  0.00000000000E+00 -0.54962290305E+03  0.54962290307E+03  0.50400001928E-02 0.  1.
    10030    2    1    2    0    0  0.00000000000E+00  0.00000000000E+00  0.47409912161E+03  0.15733449277E+04  0.15002147461E+04 0.  0.
        5    1    3    3  502    0  0.58573218973E+03  0.46590388780E+03  0.28938558676E+03  0.80244298151E+03  0.46999998093E+01 0. -1.
       -5    1    3    3    0  502 -0.58573218973E+03 -0.46590388780E+03  0.18471353485E+03  0.77090194623E+03  0.46999998093E+01 0.  1.
</event>
<event>
 5   0  0.2605471E-04  0.1502646E+04  0.7818609E-02  0.8882695E-01
        1   -1    0    0  501    0  0.00000000000E+00  0.00000000000E+00  0.57441392803E+03  0.57441392805E+03  0.50400001928E-02 0.  1.
       -1   -1    0    0    0  501  0.00000000000E+00  0.00000000000E+00 -0.98271690797E+03  0.98271690799E+03  0.50400001928E-02 0. -1.
    10030    2    1    2    0    0  0.00000000000E+00  0.00000000000E+00 -0.40830297994E+03  0.15571308360E+04  0.15026460385E+04 0.  0.
        3    1    3    3  502    0  0.38140044550E+03 -0.55432039089E+03  0.14225816768E+03  0.68773162793E+03  0.10100000352E+00 0.  1.
       -3    1    3    3    0  502 -0.38140044550E+03  0.55432039089E+03 -0.55056114762E+03  0.86939920811E+03  0.10100000352E+00 0. -1.
</event>
<event>
 5   0  0.4768387E-04  0.1338268E+04  0.7818609E-02  0.8999757E-01
        2   -1    0    0  501    0  0.00000000000E+00  0.00000000000E+00  0.85268432439E+03  0.85268432439E+03  0.25500000920E-02 0.  1.
       -2   -1    0    0    0  501  0.00000000000E+00  0.00000000000E+00 -0.52509519004E+03  0.52509519005E+03  0.25500000920E-02 0. -1.
    10030    2    1    2    0    0  0.00000000000E+00  0.00000000000E+00  0.32758913434E+03  0.13777795144E+04  0.13382681904E+04 0.  0.
        3    1    3    3  502    0 -0.94550336454E+01 -0.54005040902E+03 -0.24283046791E+03  0.59220814609E+03  0.10100000352E+00 0.  1.
       -3    1    3    3    0  502  0.94550336454E+01  0.54005040902E+03  0.57041960225E+03  0.78557136835E+03  0.10100000352E+00 0. -1.
</event>
<event>
 5   0  0.4768387E-04  0.1526526E+04  0.7818609E-02  0.8867003E-01
        2   -1    0    0  501    0  0.00000000000E+00  0.00000000000E+00  0.11706752235E+04  0.11706752235E+04  0.25500000920E-02 0. -1.
       -2   -1    0    0    0  501  0.00000000000E+00  0.00000000000E+00 -0.49763604958E+03  0.49763604959E+03  0.25500000920E-02 0.  1.
    10030    2    1    2    0    0  0.00000000000E+00  0.00000000000E+00  0.67303917396E+03  0.16683112731E+04  0.15265257202E+04 0.  0.
        3    1    3    3  502    0  0.46013172078E+03  0.48154403844E+03 -0.70883780809E+02  0.66979876232E+03  0.10100000352E+00 0.  1.
       -3    1    3    3    0  502 -0.46013172078E+03 -0.48154403844E+03  0.74392295477E+03  0.99851251082E+03  0.10100000352E+00 0. -1.
</event>
<event>
 5   0  0.2542737E-04  0.1496646E+04  0.7818609E-02  0.8886686E-01
        1   -1    0    0  501    0  0.00000000000E+00  0.00000000000E+00  0.55743791629E+03  0.55743791632E+03  0.50400001928E-02 0.  1.
       -1   -1    0    0    0  501  0.00000000000E+00  0.00000000000E+00 -0.10045738582E+04  0.10045738582E+04  0.50400001928E-02 0. -1.
    10030    2    1    2    0    0  0.00000000000E+00  0.00000000000E+00 -0.44713594187E+03  0.15620117745E+04  0.14966463287E+04 0.  0.
        1    1    3    3  502    0 -0.74389501584E+03  0.61129716263E+02 -0.16764686219E+03  0.76499810930E+03  0.50400001928E-02 0. -1.
       -1    1    3    3    0  502  0.74389501584E+03 -0.61129716263E+02 -0.27948907968E+03  0.79701366519E+03  0.50400001928E-02 0.  1.
</event>
<event>
 5   0  0.4948645E-04  0.1499951E+04  0.7818609E-02  0.8884486E-01
        2   -1    0    0  501    0  0.00000000000E+00  0.00000000000E+00  0.58904512387E+03  0.58904512387E+03  0.25500000920E-02 0. -1.
       -2   -1    0    0    0  501  0.00000000000E+00  0.00000000000E+00 -0.95487290668E+03  0.95487290668E+03  0.25500000920E-02 0.  1.
    10030    2    1    2    0    0  0.00000000000E+00  0.00000000000E+00 -0.36582778281E+03  0.15439180306E+04  0.14999509720E+04 0.  0.
        1    1    3    3  502    0 -0.49423524811E+03  0.12835454893E+03 -0.74830519380E+03  0.90592716804E+03  0.50400001928E-02 0.  1.
       -1    1    3    3    0  502  0.49423524811E+03 -0.12835454893E+03  0.38247741099E+03  0.63799086251E+03  0.50400001928E-02 0. -1.
</event>
<event>
 5   0  0.2603873E-04  0.1483815E+04  0.7818609E-02  0.8895287E-01
       -1   -1    0    0    0  501  0.00000000000E+00  0.00000000000E+00  0.15662996054E+04  0.15662996054E+04  0.50400001928E-02 0. -1.
        1   -1    0    0  501    0  0.00000000000E+00  0.00000000000E+00 -0.35141876548E+03  0.35141876552E+03  0.50400001928E-02 0.  1.
    10030    2    1    2    0    0  0.00000000000E+00  0.00000000000E+00  0.12148808399E+04  0.19177183709E+04  0.14838154518E+04 0.  0.
        2    1    3    3  502    0 -0.59294307136E+03 -0.26744084641E+03  0.14627691816E+03  0.66671060363E+03  0.25500000920E-02 0.  1.
       -2    1    3    3    0  502  0.59294307136E+03  0.26744084641E+03  0.10686039217E+04  0.12510077672E+04  0.25500000920E-02 0. -1.
</event>
<event>
 5   0  0.2542737E-04  0.1469748E+04  0.7818609E-02  0.8904823E-01
        1   -1    0    0  501    0  0.00000000000E+00  0.00000000000E+00  0.15478595800E+04  0.15478595800E+04  0.50400001928E-02 0. -1.
       -1   -1    0    0    0  501  0.00000000000E+00  0.00000000000E+00 -0.34889438637E+03  0.34889438641E+03  0.50400001928E-02 0.  1.
    10030    2    1    2    0    0  0.00000000000E+00  0.00000000000E+00  0.11989651936E+04  0.18967539664E+04  0.14697476224E+04 0.  0.
        1    1    3    3  502    0 -0.71265412377E+03  0.17891924225E+03  0.58359685420E+03  0.93833537908E+03  0.50400001928E-02 0.  1.
       -1    1    3    3    0  502  0.71265412377E+03 -0.17891924225E+03  0.61536833945E+03  0.95841858736E+03  0.50400001928E-02 0. -1.
</event>
<event>
 5   0  0.1792000E-04  0.1500563E+04  0.7818609E-02  0.8884078E-01
        4   -1    0    0  501    0  0.00000000000E+00  0.00000000000E+00  0.73797740931E+03  0.73797850209E+03  0.12699999809E+01 0. -1.
       -4   -1    0    0    0  501  0.00000000000E+00  0.00000000000E+00 -0.76278887752E+03  0.76278993475E+03  0.12699999809E+01 0.  1.
    10030    2    1    2    0    0  0.00000000000E+00  0.00000000000E+00 -0.24811468208E+02  0.15007684368E+04  0.15005633249E+04 0.  0.
        2    1    3    3  502    0  0.96450256893E+02 -0.42284358778E+03  0.59990603074E+03  0.74026116845E+03  0.25500000920E-02 0. -1.
       -2    1    3    3    0  502 -0.96450256893E+02  0.42284358778E+03 -0.62471749895E+03  0.76050726840E+03  0.25500000920E-02 0.  1.
</event>
<event>
 5   0  0.4948645E-04  0.1522642E+04  0.7818609E-02  0.8869534E-01
       -2   -1    0    0    0  501  0.00000000000E+00  0.00000000000E+00  0.65453823004E+03  0.65453823005E+03  0.25500000920E-02 0.  1.
        2   -1    0    0  501    0  0.00000000000E+00  0.00000000000E+00 -0.88552449535E+03  0.88552449536E+03  0.25500000920E-02 0. -1.
    10030    2    1    2    0    0  0.00000000000E+00  0.00000000000E+00 -0.23098626531E+03  0.15400627254E+04  0.15226419617E+04 0.  0.
        1    1    3    3  502    0  0.16232040922E+03 -0.65865872516E+03  0.23404782107E+03  0.71760547242E+03  0.50400001928E-02 0.  1.
       -1    1    3    3    0  502 -0.16232040922E+03  0.65865872516E+03 -0.46503408637E+03  0.82245725299E+03  0.50400001928E-02 0. -1.
</event>
<event>
 5   0  0.2603873E-04  0.1488816E+04  0.7818609E-02  0.8891924E-01
       -1   -1    0    0    0  501  0.00000000000E+00  0.00000000000E+00  0.41834202569E+03  0.41834202572E+03  0.50400001928E-02 0.  1.
        1   -1    0    0  501    0  0.00000000000E+00  0.00000000000E+00 -0.13246178913E+04  0.13246178913E+04  0.50400001928E-02 0. -1.
    10030    2    1    2    0    0  0.00000000000E+00  0.00000000000E+00 -0.90627586557E+03  0.17429599170E+04  0.14888160826E+04 0.  0.
        2    1    3    3  502    0  0.16129706365E+02 -0.28936560405E+03 -0.12558594363E+04  0.12888659915E+04  0.25500000920E-02 0. -1.
       -2    1    3    3    0  502 -0.16129706365E+02  0.28936560405E+03  0.34958357075E+03  0.45409392550E+03  0.25500000920E-02 0.  1.
</event>
<event>
 5   0  0.2603873E-04  0.1496725E+04  0.7818609E-02  0.8886634E-01
       -1   -1    0    0    0  501  0.00000000000E+00  0.00000000000E+00  0.78472929035E+03  0.78472929037E+03  0.50400001928E-02 0.  1.
        1   -1    0    0  501    0  0.00000000000E+00  0.00000000000E+00 -0.71368115122E+03  0.71368115124E+03  0.50400001928E-02 0. -1.
    10030    2    1    2    0    0  0.00000000000E+00  0.00000000000E+00  0.71048139135E+02  0.14984104416E+04  0.14967250961E+04 0.  0.
        2    1    3    3  502    0 -0.73049936285E+03 -0.14124791598E+03 -0.44979227531E+02  0.74538810281E+03  0.25500000920E-02 0.  1.
       -2    1    3    3    0  502  0.73049936285E+03  0.14124791598E+03  0.11602736667E+03  0.75302233879E+03  0.25500000920E-02 0. -1.
</event>
<event>
 5   0  0.4726600E-04  0.1514002E+04  0.7818609E-02  0.8875195E-01
        2   -1    0    0  501    0  0.00000000000E+00  0.00000000000E+00  0.12711801625E+04  0.12711801625E+04  0.25500000920E-02 0. -1.
       -2   -1    0    0    0  501  0.00000000000E+00  0.00000000000E+00 -0.45080201259E+03  0.45080201259E+03  0.25500000920E-02 0.  1.
    10030    2    1    2    0    0  0.00000000000E+00  0.00000000000E+00  0.82037814992E+03  0.17219821751E+04  0.15140020814E+04 0.  0.
        2    1    3    3  502    0  0.58774624471E+03 -0.44112275899E+03  0.20352640656E+03  0.76253389095E+03  0.25500000920E-02 0.  1.
       -2    1    3    3    0  502 -0.58774624471E+03  0.44112275899E+03  0.61685174337E+03  0.95944828416E+03  0.25500000920E-02 0. -1.
</event>
<event>
 5   0  0.1792000E-04  0.1492587E+04  0.7818609E-02  0.8889397E-01
       -3   -1    0    0    0  501  0.00000000000E+00  0.00000000000E+00  0.15541421984E+04  0.15541422017E+04  0.10100000352E+00 0. -1.
        3   -1    0    0  501    0  0.00000000000E+00  0.00000000000E+00 -0.35836747610E+03  0.35836749033E+03  0.10100000352E+00 0.  1.
    10030    2    1    2    0    0  0.00000000000E+00  0.00000000000E+00  0.11957747223E+04  0.19125096921E+04  0.14925870613E+04 0.  0.
        3    1    3    3  502    0 -0.40639062519E+03 -0.57043490650E+02  0.13965908799E+04  0.14556350491E+04  0.10100000352E+00 0. -1.
       -3    1    3    3    0  502  0.40639062519E+03  0.57043490650E+02 -0.20081615755E+03  0.45687464299E+03  0.10100000352E+00 0.  1.
</event>
<event>
 5   0  0.2605471E-04  0.1497925E+04  0.7818609E-02  0.8885834E-01
       -1   -1    0    0    0  501  0.00000000000E+00  0.00000000000E+00  0.31037529649E+03  0.31037529653E+03  0.50400001928E-02 0. -1.
        1   -1    0    0  501    0  0.00000000000E+00  0.00000000000E+00 -0.18073106362E+04  0.18073106362E+04  0.50400001928E-02 0.  1.
    10030    2    1    2    0    0  0.00000000000E+00  0.00000000000E+00 -0.14969353397E+04  0.21176859327E+04  0.14979246638E+04 0.  0.
        3    1    3    3  502    0 -0.60840211076E+03  0.32421402901E+03 -0.11622795397E+04  0.13513554690E+04  0.10100000352E+00 0. -1.
       -3    1    3    3    0  502  0.60840211076E+03 -0.32421402901E+03 -0.33465580003E+03  0.76633046375E+03  0.10100000352E+00 0.  1.
</event>
<event>
 5   0  0.4569211E-04  0.1501316E+04  0.7818609E-02  0.8883578E-01
       -2   -1    0    0    0  501  0.00000000000E+00  0.00000000000E+00  0.23201150486E+03  0.23201150487E+03  0.25500000920E-02 0.  1.
        2   -1    0    0  501    0  0.00000000000E+00  0.00000000000E+00 -0.24287059369E+04  0.24287059369E+04  0.25500000920E-02 0. -1.
    10030    2    1    2    0    0  0.00000000000E+00  0.00000000000E+00 -0.21966944320E+04  0.26607174418E+04  0.15013163814E+04 0.  0.
        5    1    3    3  502    0  0.42865021893E+03 -0.50029742465E+03 -0.17359337755E+04  0.18567516490E+04  0.46999998093E+01 0. -1.
       -5    1    3    3    0  502 -0.42865021893E+03  0.50029742465E+03 -0.46076065659E+03  0.80396579277E+03  0.46999998093E+01 0.  1.
</event>
<event>
 5   0  0.2605471E-04  0.1433456E+04  0.7818609E-02  0.8929951E-01
        1   -1    0    0  501    0  0.00000000000E+00  0.00000000000E+00  0.47992981594E+03  0.47992981597E+03  0.50400001928E-02 0.  1.
       -1   -1    0    0    0  501  0.00000000000E+00  0.00000000000E+00 -0.10703633151E+04  0.10703633152E+04  0.50400001928E-02 0. -1.
    10030    2    1    2    0    0  0.00000000000E+00  0.00000000000E+00 -0.59043349921E+03  0.15502931311E+04  0.14334563389E+04 0.  0.
        3    1    3    3  502    0  0.17849127375E+03  0.61812723243E+03  0.46373186325E+02  0.64505107774E+03  0.10100000352E+00 0.  1.
       -3    1    3    3    0  502 -0.17849127375E+03 -0.61812723243E+03 -0.63680668553E+03  0.90524205339E+03  0.10100000352E+00 0. -1.
</event>
<event>
 5   0  0.4726600E-04  0.1517217E+04  0.7818609E-02  0.8873084E-01
        2   -1    0    0  501    0  0.00000000000E+00  0.00000000000E+00  0.64166444280E+03  0.64166444281E+03  0.25500000920E-02 0. -1.
       -2   -1    0    0    0  501  0.00000000000E+00  0.00000000000E+00 -0.89686525689E+03  0.89686525689E+03  0.25500000920E-02 0.  1.
    10030    2    1    2    0    0  0.00000000000E+00  0.00000000000E+00 -0.25520081409E+03  0.15385296997E+04  0.15172165901E+04 0.  0.
        2    1    3    3  502    0  0.72983145137E+03 -0.19354835678E+03 -0.53279430430E+02  0.75693699310E+03  0.25500000920E-02 0. -1.
       -2    1    3    3    0  502 -0.72983145137E+03  0.19354835678E+03 -0.20192138366E+03  0.78159270659E+03  0.25500000920E-02 0.  1.
</event>
<event>
 5   0  0.4726600E-04  0.1505160E+04  0.7818609E-02  0.8881028E-01
        2   -1    0    0  501    0  0.00000000000E+00  0.00000000000E+00  0.51652568010E+03  0.51652568011E+03  0.25500000920E-02 0. -1.
       -2   -1    0    0    0  501  0.00000000000E+00  0.00000000000E+00 -0.10965128162E+04  0.10965128162E+04  0.25500000920E-02 0.  1.
    10030    2    1    2    0    0  0.00000000000E+00  0.00000000000E+00 -0.57998713612E+03  0.16130384963E+04  0.15051604940E+04 0.  0.
        2    1    3    3  502    0  0.11109314969E+03  0.13496304950E+03 -0.10744548428E+04  0.10885816101E+04  0.25500000920E-02 0.  1.
       -2    1    3    3    0  502 -0.11109314969E+03 -0.13496304950E+03  0.49446770664E+03  0.52445688627E+03  0.25500000920E-02 0. -1.
</event>
<event>
 5   0  0.2542737E-04  0.1491638E+04  0.7818609E-02  0.8890032E-01
       -1   -1    0    0    0  501  0.00000000000E+00  0.00000000000E+00  0.35683213279E+03  0.35683213282E+03  0.50400001928E-02 0.  1.
        1   -1    0    0  501    0  0.00000000000E+00  0.00000000000E+00 -0.15588456083E+04  0.15588456083E+04  0.50400001928E-02 0. -1.
    10030    2    1    2    0    0  0.00000000000E+00  0.00000000000E+00 -0.12020134755E+04  0.19156777411E+04  0.14916382982E+04 0.  0.
        1    1    3    3  502    0 -0.56880903535E+03 -0.22736771459E+03 -0.54612763540E+02  0.61499784577E+03  0.50400001928E-02 0.  1.
       -1    1    3    3    0  502  0.56880903535E+03  0.22736771459E+03 -0.11474007120E+04  0.13006798954E+04  0.50400001928E-02 0. -1.
</event>
<event>
 5   0  0.4768387E-04  0.1505184E+04  0.7818609E-02  0.8881013E-01
        2   -1    0    0  501    0  0.00000000000E+00  0.00000000000E+00  0.75899085768E+03  0.75899085768E+03  0.25500000920E-02 0.  1.
       -2   -1    0    0    0  501  0.00000000000E+00  0.00000000000E+00 -0.74624738202E+03  0.74624738202E+03  0.25500000920E-02 0. -1.
    10030    2    1    2    0    0  0.00000000000E+00  0.00000000000E+00  0.12743475659E+02  0.15052382397E+04  0.15051842951E+04 0.  0.
        3    1    3    3  502    0 -0.11243322844E+03  0.51462224192E+03  0.54390160410E+03  0.75716989367E+03  0.10100000352E+00 0.  1.
       -3    1    3    3    0  502  0.11243322844E+03 -0.51462224192E+03 -0.53115812844E+03  0.74806834604E+03  0.10100000352E+00 0. -1.
</event>
<event>
 5   0  0.4726600E-04  0.1501380E+04  0.7818609E-02  0.8883536E-01
       -2   -1    0    0    0  501  0.00000000000E+00  0.00000000000E+00  0.56237028203E+03  0.56237028204E+03  0.25500000920E-02 0.  1.
        2   -1    0    0  501    0  0.00000000000E+00  0.00000000000E+00 -0.10020722143E+04  0.10020722143E+04  0.25500000920E-02 0. -1.
    10030    2    1    2    0    0  0.00000000000E+00  0.00000000000E+00 -0.43970193226E+03  0.15644424963E+04  0.15013802100E+04 0.  0.
        2    1    3    3  502    0  0.15760953186E+02 -0.12700526377E+03 -0.99062105610E+03  0.99885375380E+03  0.25500000920E-02 0. -1.
       -2    1    3    3    0  502 -0.15760953186E+02  0.12700526377E+03  0.55091912384E+03  0.56558874254E+03  0.25500000920E-02 0.  1.
</event>
<event>
 5   0  0.2605471E-04  0.1498591E+04  0.7818609E-02  0.8885390E-01
       -1   -1    0    0    0  501  0.00000000000E+00  0.00000000000E+00  0.11258553897E+04  0.11258553897E+04  0.50400001928E-02 0.  1.
        1   -1    0    0  501    0  0.00000000000E+00  0.00000000000E+00 -0.49868198705E+03  0.49868198707E+03  0.50400001928E-02 0. -1.
    10030    2    1    2    0    0  0.00000000000E+00  0.00000000000E+00  0.62717340268E+03  0.16245373768E+04  0.14985910755E+04 0.  0.
        3    1    3    3  502    0  0.56130560833E+02  0.74027688856E+03  0.42351573747E+03  0.85470819680E+03  0.10100000352E+00 0.  1.
       -3    1    3    3    0  502 -0.56130560833E+02 -0.74027688856E+03  0.20365766521E+03  0.76982918001E+03  0.10100000352E+00 0. -1.
</event>
<event>
 5   0  0.2605471E-04  0.1499961E+04  0.7818609E-02  0.8884479E-01
        1   -1    0    0  501    0  0.00000000000E+00  0.00000000000E+00  0.18901446843E+04  0.18901446843E+04  0.50400001928E-02 0. -1.
       -1   -1    0    0    0  501  0.00000000000E+00  0.00000000000E+00 -0.29758075755E+03  0.29758075759E+03  0.50400001928E-02 0.  1.
    10030    2    1    2    0    0  0.00000000000E+00  0.00000000000E+00  0.15925639268E+04  0.21877254419E+04  0.14999609156E+04 0.  0.
        3    1    3    3  502    0 -0.13838039360E+03  0.37610083807E+03  0.17208854092E+04  0.17669316839E+04  0.10100000352E+00 0. -1.
       -3    1    3    3    0  502  0.13838039360E+03 -0.37610083807E+03 -0.12832148244E+03  0.42079375802E+03  0.10100000352E+00 0.  1.
</event>
<event>
 5   0  0.2544374E-04  0.1518632E+04  0.7818609E-02  0.8872156E-01
       -1   -1    0    0    0  501  0.00000000000E+00  0.00000000000E+00  0.35689509778E+03  0.35689509782E+03  0.50400001928E-02 0. -1.
        1   -1    0    0  501    0  0.00000000000E+00  0.00000000000E+00 -0.16154917426E+04  0.16154917426E+04  0.50400001928E-02 0.  1.
    10030    2    1    2    0    0  0.00000000000E+00  0.00000000000E+00 -0.12585966448E+04  0.19723868404E+04  0.15186323893E+04 0.  0.
        4    1    3    3  502    0 -0.36112794494E+03 -0.30040084317E+02 -0.14959374952E+04  0.15392031710E+04  0.12699999809E+01 0.  1.
       -4    1    3    3    0  502  0.36112794494E+03  0.30040084317E+02  0.23734085037E+03  0.43318366940E+03  0.12699999809E+01 0. -1.
</event>
<event>
 5   0  0.4768387E-04  0.1507740E+04  0.7818609E-02  0.8879322E-01
       -2   -1    0    0    0  501  0.00000000000E+00  0.00000000000E+00  0.82444123444E+03  0.82444123445E+03  0.25500000920E-02 0. -1.
        2   -1    0    0  501    0  0.00000000000E+00  0.00000000000E+00 -0.68933915094E+03  0.68933915094E+03  0.25500000920E-02 0.  1.
    10030    2    1    2    0    0  0.00000000000E+00  0.00000000000E+00  0.13510208350E+03  0.15137803854E+04  0.15077395273E+04 0.  0.
        3    1    3    3  502    0 -0.69833165726E+03  0.27201994267E+03 -0.14370342415E+02  0.74957886155E+03  0.10100000352E+00 0.  1.
       -3    1    3    3    0  502  0.69833165726E+03 -0.27201994267E+03  0.14947242592E+03  0.76420152384E+03  0.10100000352E+00 0. -1.
</event>
<event>
 5   0  0.4726600E-04  0.1494826E+04  0.7818609E-02  0.8887901E-01
       -2   -1    0    0    0  501  0.00000000000E+00  0.00000000000E+00  0.28479465515E+03  0.28479465516E+03  0.25500000920E-02 0.  1.
        2   -1    0    0  501    0  0.00000000000E+00  0.00000000000E+00 -0.19615059236E+04  0.19615059236E+04  0.25500000920E-02 0. -1.
    10030    2    1    2    0    0  0.00000000000E+00  0.00000000000E+00 -0.16767112684E+04  0.22463005787E+04  0.14948262817E+04 0.  0.
        2    1    3    3  502    0  0.24294085932E+03  0.64653230808E+03 -0.40908828570E+03  0.80273128257E+03  0.25500000920E-02 0.  1.
       -2    1    3    3    0  502 -0.24294085932E+03 -0.64653230808E+03 -0.12676229827E+04  0.14435692962E+04  0.25500000920E-02 0. -1.
</event>
<event>
 5   0  0.4785496E-04  0.1501826E+04  0.7818609E-02  0.8883240E-01
        2   -1    0    0  501    0  0.00000000000E+00  0.00000000000E+00  0.55421854034E+03  0.55421854035E+03  0.25500000920E-02 0.  1.
       -2   -1    0    0    0  501  0.00000000000E+00  0.00000000000E+00 -0.10174149021E+04  0.10174149021E+04  0.25500000920E-02 0. -1.
    10030    2    1    2    0    0  0.00000000000E+00  0.00000000000E+00 -0.46319636174E+03  0.15716334424E+04  0.15018258247E+04 0.  0.
        4    1    3    3  502    0  0.17531237450E+03 -0.66638915940E+03 -0.54389832324E+03  0.87785872402E+03  0.12699999809E+01 0. -1.
       -4    1    3    3    0  502 -0.17531237450E+03  0.66638915940E+03  0.80701961496E+02  0.69377471841E+03  0.12699999809E+01 0.  1.
</event>
<event>
 5   0  0.2603873E-04  0.1504077E+04  0.7818609E-02  0.8881746E-01
        1   -1    0    0  501    0  0.00000000000E+00  0.00000000000E+00  0.11615620104E+04  0.11615620104E+04  0.50400001928E-02 0. -1.
       -1   -1    0    0    0  501  0.00000000000E+00  0.00000000000E+00 -0.48689755154E+03  0.48689755156E+03  0.50400001928E-02 0.  1.
    10030    2    1    2    0    0  0.00000000000E+00  0.00000000000E+00  0.67466445885E+03  0.16484595620E+04  0.15040767252E+04 0.  0.
        2    1    3    3  502    0  0.56996181534E+03 -0.18140707321E+03 -0.16227375527E+03  0.61975621725E+03  0.25500000920E-02 0.  1.
       -2    1    3    3    0  502 -0.56996181534E+03  0.18140707321E+03  0.83693821413E+03  0.10287033447E+04  0.25500000920E-02 0. -1.
</event>
<event>
 5   0  0.1792000E-04  0.1500778E+04  0.7818609E-02  0.8883936E-01
        3   -1    0    0  501    0  0.00000000000E+00  0.00000000000E+00  0.66460932409E+03  0.66460933176E+03  0.10100000352E+00 0.  1.
       -3   -1    0    0    0  501  0.00000000000E+00  0.00000000000E+00 -0.84723970528E+03  0.84723971130E+03  0.10100000352E+00 0. -1.
    10030    2    1    2    0    0  0.00000000000E+00  0.00000000000E+00 -0.18263038120E+03  0.15118490431E+04  0.15007776894E+04 0.  0.
        4    1    3    3  502    0 -0.50594746438E+03  0.26306801311E+03  0.40002691370E+03  0.69657071487E+03  0.12699999809E+01 0.  1.
       -4    1    3    3    0  502  0.50594746438E+03 -0.26306801311E+03 -0.58265729490E+03  0.81527832820E+03  0.12699999809E+01 0. -1.
</event>
<event>
 5   0  0.4948645E-04  0.1488510E+04  0.7818609E-02  0.8892130E-01
        2   -1    0    0  501    0  0.00000000000E+00  0.00000000000E+00  0.10310317989E+04  0.10310317989E+04  0.25500000920E-02 0. -1.
       -2   -1    0    0    0  501  0.00000000000E+00  0.00000000000E+00 -0.53724367205E+03  0.53724367205E+03  0.25500000920E-02 0.  1.
    10030    2    1    2    0    0  0.00000000000E+00  0.00000000000E+00  0.49378812683E+03  0.15682754709E+04  0.14885097375E+04 0.  0.
        1    1    3    3  502    0  0.63224954917E+03 -0.22947582629E+03 -0.88796656188E+02  0.67844196027E+03  0.50400001928E-02 0.  1.
       -1    1    3    3    0  502 -0.63224954917E+03  0.22947582629E+03  0.58258478301E+03  0.88983351067E+03  0.50400001928E-02 0. -1.
</event>
<event>
 5   0  0.4726600E-04  0.1513700E+04  0.7818609E-02  0.8875393E-01
        2   -1    0    0  501    0  0.00000000000E+00  0.00000000000E+00  0.10831808805E+04  0.10831808805E+04  0.25500000920E-02 0. -1.
       -2   -1    0    0    0  501  0.00000000000E+00  0.00000000000E+00 -0.52883340674E+03  0.52883340675E+03  0.25500000920E-02 0.  1.
    10030    2    1    2    0    0  0.00000000000E+00  0.00000000000E+00  0.55434747373E+03  0.16120142872E+04  0.15137004131E+04 0.  0.
        2    1    3    3  502    0  0.71547954181E+03 -0.20759165841E+03  0.41932339033E+03  0.85489027195E+03  0.25500000920E-02 0. -1.
       -2    1    3    3    0  502 -0.71547954181E+03  0.20759165841E+03  0.13502408340E+03  0.75712401527E+03  0.25500000920E-02 0.  1.
</event>
<event>
 5   0  0.2542737E-04  0.1497468E+04  0.7818609E-02  0.8886139E-01
       -1   -1    0    0    0  501  0.00000000000E+00  0.00000000000E+00  0.45294055531E+03  0.45294055534E+03  0.50400001928E-02 0. -1.
        1   -1    0    0  501    0  0.00000000000E+00  0.00000000000E+00 -0.12376950042E+04  0.12376950042E+04  0.50400001928E-02 0.  1.
    10030    2    1    2    0    0  0.00000000000E+00  0.00000000000E+00 -0.78475444891E+03  0.16906355596E+04  0.14974675456E+04 0.  0.
        1    1    3    3  502    0 -0.55333865883E+03  0.13642079795E+03 -0.94061860000E+03  0.10997989162E+04  0.50400001928E-02 0. -1.
       -1    1    3    3    0  502  0.55333865883E+03 -0.13642079795E+03  0.15586415110E+03  0.59083664332E+03  0.50400001928E-02 0.  1.
</event>
<event>
 5   0  0.2605471E-04  0.1486734E+04  0.7818609E-02  0.8893323E-01
        1   -1    0    0  501    0  0.00000000000E+00  0.00000000000E+00  0.87736109270E+03  0.87736109271E+03  0.50400001928E-02 0. -1.
       -1   -1    0    0    0  501  0.00000000000E+00  0.00000000000E+00 -0.62983687611E+03  0.62983687613E+03  0.50400001928E-02 0.  1.
    10030    2    1    2    0    0  0.00000000000E+00  0.00000000000E+00  0.24752421659E+03  0.15071979688E+04  0.14867338294E+04 0.  0.
        3    1    3    3  502    0 -0.38824658346E+03  0.36155128829E+03 -0.40411589461E+03  0.66690659774E+03  0.10100000352E+00 0.  1.
       -3    1    3    3    0  502  0.38824658346E+03 -0.36155128829E+03  0.65164011120E+03  0.84029137110E+03  0.10100000352E+00 0. -1.
</event>
<event>
 5   0  0.2544374E-04  0.1496383E+04  0.7818609E-02  0.8886861E-01
        1   -1    0    0  501    0  0.00000000000E+00  0.00000000000E+00  0.10341888977E+04  0.10341888977E+04  0.50400001928E-02 0.  1.
       -1   -1    0    0    0  501  0.00000000000E+00  0.00000000000E+00 -0.54128488139E+03  0.54128488141E+03  0.50400001928E-02 0. -1.
    10030    2    1    2    0    0  0.00000000000E+00  0.00000000000E+00  0.49290401627E+03  0.15754737791E+04  0.14963833932E+04 0.  0.
        4    1    3    3  502    0 -0.20704128348E+03  0.45084569040E+03  0.83610804563E+03  0.97221716014E+03  0.12699999809E+01 0.  1.
       -4    1    3    3    0  502  0.20704128348E+03 -0.45084569040E+03 -0.34320402936E+03  0.60325661893E+03  0.12699999809E+01 0. -1.
</event>
<event>
 5   0  0.1792000E-04  0.1492455E+04  0.7818609E-02  0.8889486E-01
        3   -1    0    0  501    0  0.00000000000E+00  0.00000000000E+00  0.66132100331E+03  0.66132101102E+03  0.10100000352E+00 0.  1.
       -3   -1    0    0    0  501  0.00000000000E+00  0.00000000000E+00 -0.84203551129E+03  0.84203551735E+03  0.10100000352E+00 0. -1.
    10030    2    1    2    0    0  0.00000000000E+00  0.00000000000E+00 -0.18071450799E+03  0.15033565284E+04  0.14924553990E+04 0.  0.
        3    1    3    3  502    0  0.42269086494E+03 -0.60123625388E+03  0.39827481248E+02  0.73602910184E+03  0.10100000352E+00 0.  1.
       -3    1    3    3    0  502 -0.42269086494E+03  0.60123625388E+03 -0.22054198923E+03  0.76732742653E+03  0.10100000352E+00 0. -1.
</event>
<event>
 5   0  0.2542737E-04  0.1482522E+04  0.7818609E-02  0.8896160E-01
        1   -1    0    0  501    0  0.00000000000E+00  0.00000000000E+00  0.12827836736E+04  0.12827836736E+04  0.50400001928E-02 0. -1.
       -1   -1    0    0    0  501  0.00000000000E+00  0.00000000000E+00 -0.42834000865E+03  0.42834000868E+03  0.50400001928E-02 0.  1.
    10030    2    1    2    0    0  0.00000000000E+00  0.00000000000E+00  0.85444366499E+03  0.17111236823E+04  0.14825215950E+04 0.  0.
        1    1    3    3  502    0 -0.61610693317E+03 -0.20676843944E+03  0.15694542981E+02  0.65006711912E+03  0.50400001928E-02 0.  1.
       -1    1    3    3    0  502  0.61610693317E+03  0.20676843944E+03  0.83874912200E+03  0.10610565632E+04  0.50400001928E-02 0. -1.
</event>
<event>
 5   0  0.4768387E-04  0.1448077E+04  0.7818609E-02  0.8919735E-01
        2   -1    0    0  501    0  0.00000000000E+00  0.00000000000E+00  0.15873642191E+04  0.15873642191E+04  0.25500000920E-02 0. -1.
       -2   -1    0    0    0  501  0.00000000000E+00  0.00000000000E+00 -0.33025276545E+03  0.33025276546E+03  0.25500000920E-02 0.  1.
    10030    2    1    2    0    0  0.00000000000E+00  0.00000000000E+00  0.12571114536E+04  0.19176169845E+04  0.14480765493E+04 0.  0.
        3    1    3    3  502    0  0.20290892515E+03  0.14790482881E+03 -0.27074976952E+03  0.36926050180E+03  0.10100000352E+00 0.  1.
       -3    1    3    3    0  502 -0.20290892515E+03 -0.14790482881E+03  0.15278612231E+04  0.15483564827E+04  0.10100000352E+00 0. -1.
</event>
<event>
 5   0  0.2603873E-04  0.1496482E+04  0.7818609E-02  0.8886796E-01
        1   -1    0    0  501    0  0.00000000000E+00  0.00000000000E+00  0.11113656645E+04  0.11113656646E+04  0.50400001928E-02 0.  1.
       -1   -1    0    0    0  501  0.00000000000E+00  0.00000000000E+00 -0.50376278993E+03  0.50376278996E+03  0.50400001928E-02 0. -1.
    10030    2    1    2    0    0  0.00000000000E+00  0.00000000000E+00  0.60760287461E+03  0.16151284545E+04  0.14964820986E+04 0.  0.
        2    1    3    3  502    0  0.74575389174E+03 -0.56719043633E+02  0.27969808907E+03  0.79849667375E+03  0.25500000920E-02 0.  1.
       -2    1    3    3    0  502 -0.74575389174E+03  0.56719043633E+02  0.32790478554E+03  0.81663178076E+03  0.25500000920E-02 0. -1.
</event>
<event>
 5   0  0.4948645E-04  0.1492928E+04  0.7818609E-02  0.8889169E-01
       -2   -1    0    0    0  501  0.00000000000E+00  0.00000000000E+00  0.34122578110E+03  0.34122578111E+03  0.25500000920E-02 0. -1.
        2   -1    0    0  501    0  0.00000000000E+00  0.00000000000E+00 -0.16329615505E+04  0.16329615505E+04  0.25500000920E-02 0.  1.
    10030    2    1    2    0    0  0.00000000000E+00  0.00000000000E+00 -0.12917357694E+04  0.19741873316E+04  0.14929281036E+04 0.  0.
        1    1    3    3  502    0 -0.36643751555E+03 -0.34631893124E+03 -0.13737606981E+04  0.14633631507E+04  0.50400001928E-02 0.  1.
       -1    1    3    3    0  502  0.36643751555E+03  0.34631893124E+03  0.82024928689E+02  0.51082418099E+03  0.50400001928E-02 0. -1.
</event>
<event>
 5   0  0.2603873E-04  0.1504053E+04  0.7818609E-02  0.8881762E-01
        1   -1    0    0  501    0  0.00000000000E+00  0.00000000000E+00  0.11568850590E+04  0.11568850590E+04  0.50400001928E-02 0. -1.
       -1   -1    0    0    0  501  0.00000000000E+00  0.00000000000E+00 -0.48885061137E+03  0.48885061139E+03  0.50400001928E-02 0.  1.
    10030    2    1    2    0    0  0.00000000000E+00  0.00000000000E+00  0.66803444765E+03  0.16457356704E+04  0.15040531485E+04 0.  0.
        2    1    3    3  502    0  0.21221048585E+02  0.34503423174E+03 -0.39676208777E+03  0.52623104077E+03  0.25500000920E-02 0.  1.
       -2    1    3    3    0  502 -0.21221048585E+02 -0.34503423174E+03  0.10647965354E+04  0.11195046297E+04  0.25500000920E-02 0. -1.
</event>
<event>
 5   0  0.2605471E-04  0.1492653E+04  0.7818609E-02  0.8889353E-01
       -1   -1    0    0    0  501  0.00000000000E+00  0.00000000000E+00  0.75165138026E+03  0.75165138027E+03  0.50400001928E-02 0.  1.
        1   -1    0    0  501    0  0.00000000000E+00  0.00000000000E+00 -0.74103951206E+03  0.74103951208E+03  0.50400001928E-02 0. -1.
    10030    2    1    2    0    0  0.00000000000E+00  0.00000000000E+00  0.10611868193E+02  0.14926908924E+04  0.14926531708E+04 0.  0.
        3    1    3    3  502    0 -0.39850196209E+03  0.46661507172E+03  0.43013418709E+03  0.74936564376E+03  0.10100000352E+00 0.  1.
       -3    1    3    3    0  502  0.39850196209E+03 -0.46661507172E+03 -0.41952231890E+03  0.74332524859E+03  0.10100000352E+00 0. -1.
</event>
<event>
 5   0  0.4785496E-04  0.1496153E+04  0.7818609E-02  0.8887015E-01
       -2   -1    0    0    0  501  0.00000000000E+00  0.00000000000E+00  0.38090533254E+03  0.38090533255E+03  0.25500000920E-02 0.  1.
        2   -1    0    0  501    0  0.00000000000E+00  0.00000000000E+00 -0.14691806368E+04  0.14691806368E+04  0.25500000920E-02 0. -1.
    10030    2    1    2    0    0  0.00000000000E+00  0.00000000000E+00 -0.10882753043E+04  0.18500859694E+04  0.14961533866E+04 0.  0.
        4    1    3    3  502    0  0.20739418319E+02  0.38676182060E+03  0.24726405223E+03  0.45951708758E+03  0.12699999809E+01 0. -1.
       -4    1    3    3    0  502 -0.20739418319E+02 -0.38676182060E+03 -0.13355393565E+04  0.13905688818E+04  0.12699999809E+01 0.  1.
</event>
<event>
 5   0  0.2544374E-04  0.1503297E+04  0.7818609E-02  0.8882263E-01
        1   -1    0    0  501    0  0.00000000000E+00  0.00000000000E+00  0.12932708661E+04  0.12932708661E+04  0.50400001928E-02 0.  1.
       -1   -1    0    0    0  501  0.00000000000E+00  0.00000000000E+00 -0.43685803429E+03  0.43685803432E+03  0.50400001928E-02 0. -1.
    10030    2    1    2    0    0  0.00000000000E+00  0.00000000000E+00  0.85641283178E+03  0.17301289004E+04  0.15032974002E+04 0.  0.
        4    1    3    3  502    0 -0.23323794891E+03  0.68710610491E+03  0.65390814842E+03  0.97678668075E+03  0.12699999809E+01 0.  1.
       -4    1    3    3    0  502  0.23323794891E+03 -0.68710610491E+03  0.20250468335E+03  0.75334221965E+03  0.12699999809E+01 0. -1.
</event>
<event>
 5   0  0.4726600E-04  0.1496077E+04  0.7818609E-02  0.8887066E-01
        2   -1    0    0  501    0  0.00000000000E+00  0.00000000000E+00  0.92070140686E+03  0.92070140686E+03  0.25500000920E-02 0. -1.
       -2   -1    0    0    0  501  0.00000000000E+00  0.00000000000E+00 -0.60775598700E+03  0.60775598701E+03  0.25500000920E-02 0.  1.
    10030    2    1    2    0    0  0.00000000000E+00  0.00000000000E+00  0.31294541985E+03  0.15284573939E+04  0.14960772604E+04 0.  0.
        2    1    3    3  502    0  0.54587467876E+03  0.50630049490E+03  0.82500960054E+02  0.74908328273E+03  0.25500000920E-02 0.  1.
       -2    1    3    3    0  502 -0.54587467876E+03 -0.50630049490E+03  0.23044445980E+03  0.77937411114E+03  0.25500000920E-02 0. -1.
</event>
<event>
 5   0  0.2605471E-04  0.1499359E+04  0.7818609E-02  0.8884880E-01
       -1   -1    0    0    0  501  0.00000000000E+00  0.00000000000E+00  0.46363217218E+03  0.46363217221E+03  0.50400001928E-02 0.  1.
        1   -1    0    0  501    0  0.00000000000E+00  0.00000000000E+00 -0.12122087705E+04  0.12122087705E+04  0.50400001928E-02 0. -1.
    10030    2    1    2    0    0  0.00000000000E+00  0.00000000000E+00 -0.74857659830E+03  0.16758409427E+04  0.14993585101E+04 0.  0.
        3    1    3    3  502    0 -0.32397835112E+02  0.43781237468E+03  0.30493236984E+03  0.53452133309E+03  0.10100000352E+00 0.  1.
       -3    1    3    3    0  502  0.32397835112E+02 -0.43781237468E+03 -0.10535089681E+04  0.11413196096E+04  0.10100000352E+00 0. -1.
</event>
<event>
 5   0  0.4768387E-04  0.1497284E+04  0.7818609E-02  0.8886261E-01
        2   -1    0    0  501    0  0.00000000000E+00  0.00000000000E+00  0.17828049167E+04  0.17828049167E+04  0.25500000920E-02 0. -1.
       -2   -1    0    0    0  501  0.00000000000E+00  0.00000000000E+00 -0.31437271205E+03  0.31437271206E+03  0.25500000920E-02 0.  1.
    10030    2    1    2    0    0  0.00000000000E+00  0.00000000000E+00  0.14684322046E+04  0.20971776287E+04  0.14972844976E+04 0.  0.
        3    1    3    3  502    0  0.71306560796E+01 -0.68186929292E+03  0.30144203604E+03  0.74556280096E+03  0.10100000352E+00 0.  1.
       -3    1    3    3    0  502 -0.71306560796E+01  0.68186929292E+03  0.11669901686E+04  0.13516148278E+04  0.10100000352E+00 0. -1.
</event>
<event>
 5   0  0.2603873E-04  0.1502358E+04  0.7818609E-02  0.8882887E-01
       -1   -1    0    0    0  501  0.00000000000E+00  0.00000000000E+00  0.59623003596E+03  0.59623003598E+03  0.50400001928E-02 0.  1.
        1   -1    0    0  501    0  0.00000000000E+00  0.00000000000E+00 -0.94639565853E+03  0.94639565854E+03  0.50400001928E-02 0. -1.
    10030    2    1    2    0    0  0.00000000000E+00  0.00000000000E+00 -0.35016562257E+03  0.15426256945E+04  0.15023575041E+04 0.  0.
        2    1    3    3  502    0 -0.33169223818E+03 -0.11876725948E+03 -0.85629862306E+03  0.92594423949E+03  0.25500000920E-02 0. -1.
       -2    1    3    3    0  502  0.33169223818E+03  0.11876725948E+03  0.50613300049E+03  0.61668145503E+03  0.25500000920E-02 0.  1.
</event>
<event>
 5   0  0.4726600E-04  0.1485888E+04  0.7818609E-02  0.8893892E-01
       -2   -1    0    0    0  501  0.00000000000E+00  0.00000000000E+00  0.10045634285E+04  0.10045634285E+04  0.25500000920E-02 0.  1.
        2   -1    0    0  501    0  0.00000000000E+00  0.00000000000E+00 -0.54945863257E+03  0.54945863257E+03  0.25500000920E-02 0. -1.
    10030    2    1    2    0    0  0.00000000000E+00  0.00000000000E+00  0.45510479592E+03  0.15540220611E+04  0.14858883508E+04 0.  0.
        2    1    3    3  502    0  0.27279675596E+03  0.40901910545E+03 -0.35499040512E+03  0.60640983371E+03  0.25500000920E-02 0. -1.
       -2    1    3    3    0  502 -0.27279675596E+03 -0.40901910545E+03  0.81009520104E+03  0.94761222736E+03  0.25500000920E-02 0.  1.
</event>
<event>
 5   0  0.4948645E-04  0.1494240E+04  0.7818609E-02  0.8888292E-01
       -2   -1    0    0    0  501  0.00000000000E+00  0.00000000000E+00  0.46909086997E+03  0.46909086998E+03  0.25500000920E-02 0. -1.
        2   -1    0    0  501    0  0.00000000000E+00  0.00000000000E+00 -0.11899363495E+04  0.11899363495E+04  0.25500000920E-02 0.  1.
    10030    2    1    2    0    0  0.00000000000E+00  0.00000000000E+00 -0.72084547950E+03  0.16590272195E+04  0.14942399772E+04 0.  0.
        1    1    3    3  502    0 -0.69605995394E+03 -0.20903247417E+03 -0.55271070779E+03  0.91306251772E+03  0.50400001928E-02 0.  1.
       -1    1    3    3    0  502  0.69605995394E+03  0.20903247417E+03 -0.16813477171E+03  0.74596470173E+03  0.50400001928E-02 0. -1.
</event>
<event>
 5   0  0.2605471E-04  0.1494033E+04  0.7818609E-02  0.8888430E-01
       -1   -1    0    0    0  501  0.00000000000E+00  0.00000000000E+00  0.57843564542E+03  0.57843564544E+03  0.50400001928E-02 0.  1.
        1   -1    0    0  501    0  0.00000000000E+00  0.00000000000E+00 -0.96472926125E+03  0.96472926126E+03  0.50400001928E-02 0. -1.
    10030    2    1    2    0    0  0.00000000000E+00  0.00000000000E+00 -0.38629361583E+03  0.15431649067E+04  0.14940331896E+04 0.  0.
        3    1    3    3  502    0 -0.34796323864E+02  0.27024438970E+03  0.52527742232E+03  0.59174250728E+03  0.10100000352E+00 0.  1.
       -3    1    3    3    0  502  0.34796323864E+02 -0.27024438970E+03 -0.91157103815E+03  0.95142239942E+03  0.10100000352E+00 0. -1.
</event>
<event>
 5   0  0.2603873E-04  0.1492592E+04  0.7818609E-02  0.8889394E-01
        1   -1    0    0  501    0  0.00000000000E+00  0.00000000000E+00  0.12341301301E+04  0.12341301302E+04  0.50400001928E-02 0. -1.
       -1   -1    0    0    0  501  0.00000000000E+00  0.00000000000E+00 -0.45129607349E+03  0.45129607352E+03  0.50400001928E-02 0.  1.
    10030    2    1    2    0    0  0.00000000000E+00  0.00000000000E+00  0.78283405665E+03  0.16854262037E+04  0.14925924855E+04 0.  0.
        2    1    3    3  502    0  0.73831591178E+03 -0.64400898137E+02  0.29232925337E+03  0.79668955915E+03  0.25500000920E-02 0.  1.
       -2    1    3    3    0  502 -0.73831591178E+03  0.64400898137E+02  0.49050480329E+03  0.88873664453E+03  0.25500000920E-02 0. -1.
</event>
<event>
 5   0  0.4726600E-04  0.1501197E+04  0.7818609E-02  0.8883657E-01
        2   -1    0    0  501    0  0.00000000000E+00  0.00000000000E+00  0.89416796765E+03  0.89416796765E+03  0.25500000920E-02 0. -1.
       -2   -1    0    0    0  501  0.00000000000E+00  0.00000000000E+00 -0.63008097076E+03  0.63008097076E+03  0.25500000920E-02 0.  1.
    10030    2    1    2    0    0  0.00000000000E+00  0.00000000000E+00  0.26408699689E+03  0.15242489384E+04  0.15011971504E+04 0.  0.
        2    1    3    3  502    0  0.52153661120E+03  0.32720690020E+03 -0.30388997764E+03  0.68659588615E+03  0.25500000920E-02 0.  1.
       -2    1    3    3    0  502 -0.52153661120E+03 -0.32720690020E+03  0.56797697453E+03  0.83765305226E+03  0.25500000920E-02 0. -1.
</event>
<event>
 5   0  0.4785496E-04  0.1503143E+04  0.7818609E-02  0.8882366E-01
       -2   -1    0    0    0  501  0.00000000000E+00  0.00000000000E+00  0.31781303419E+03  0.31781303420E+03  0.25500000920E-02 0. -1.
        2   -1    0    0  501    0  0.00000000000E+00  0.00000000000E+00 -0.17773329524E+04  0.17773329524E+04  0.25500000920E-02 0.  1.
    10030    2    1    2    0    0  0.00000000000E+00  0.00000000000E+00 -0.14595199182E+04  0.20951459866E+04  0.15031428121E+04 0.  0.
        4    1    3    3  502    0  0.49797089637E+03 -0.31914793037E+03 -0.13761000554E+04  0.14978262217E+04  0.12699999809E+01 0.  1.
       -4    1    3    3    0  502 -0.49797089637E+03  0.31914793037E+03 -0.83419862803E+02  0.59731976487E+03  0.12699999809E+01 0. -1.
</event>
<event>
 5   0  0.4768387E-04  0.1497040E+04  0.7818609E-02  0.8886424E-01
        2   -1    0    0  501    0  0.00000000000E+00  0.00000000000E+00  0.78332809944E+03  0.78332809944E+03  0.25500000920E-02 0.  1.
       -2   -1    0    0    0  501  0.00000000000E+00  0.00000000000E+00 -0.71525825785E+03  0.71525825786E+03  0.25500000920E-02 0. -1.
    10030    2    1    2    0    0  0.00000000000E+00  0.00000000000E+00  0.68069841587E+02  0.14985863573E+04  0.14970396010E+04 0.  0.
        3    1    3    3  502    0  0.57881569200E+03  0.35885429443E+03  0.34496471737E+03  0.76341645015E+03  0.10100000352E+00 0.  1.
       -3    1    3    3    0  502 -0.57881569200E+03 -0.35885429443E+03 -0.27689487578E+03  0.73516990714E+03  0.10100000352E+00 0. -1.
</event>
<event>
 5   0  0.4569211E-04  0.1495517E+04  0.7818609E-02  0.8887439E-01
       -2   -1    0    0    0  501  0.00000000000E+00  0.00000000000E+00  0.39521419104E+03  0.39521419105E+03  0.25500000920E-02 0.  1.
        2   -1    0    0  501    0  0.00000000000E+00  0.00000000000E+00 -0.14147846454E+04  0.14147846454E+04  0.25500000920E-02 0. -1.
    10030    2    1    2    0    0  0.00000000000E+00  0.00000000000E+00 -0.10195704544E+04  0.18099988365E+04  0.14955172606E+04 0.  0.
        5    1    3    3  502    0  0.13525512581E+02  0.73510303399E+03 -0.34489571277E+03  0.81211732696E+03  0.46999998093E+01 0. -1.
       -5    1    3    3    0  502 -0.13525512581E+02 -0.73510303399E+03 -0.67467474164E+03  0.99788150954E+03  0.46999998093E+01 0.  1.
</event>
<event>
 5   0  0.2544374E-04  0.1499996E+04  0.7818609E-02  0.8884456E-01
       -1   -1    0    0    0  501  0.00000000000E+00  0.00000000000E+00  0.46075225104E+03  0.46075225106E+03  0.50400001928E-02 0. -1.
        1   -1    0    0  501    0  0.00000000000E+00  0.00000000000E+00 -0.12208228927E+04  0.12208228927E+04  0.50400001928E-02 0.  1.
    10030    2    1    2    0    0  0.00000000000E+00  0.00000000000E+00 -0.76007064166E+03  0.16815751438E+04  0.14999958613E+04 0.  0.
        4    1    3    3  502    0  0.38073364170E+03  0.38990131006E+03 -0.95769233378E+03  0.11018880871E+04  0.12699999809E+01 0.  1.
       -4    1    3    3    0  502 -0.38073364170E+03 -0.38990131006E+03  0.19762169213E+03  0.57968705662E+03  0.12699999809E+01 0. -1.
</event>
<event>
 5   0  0.2605471E-04  0.1501681E+04  0.7818609E-02  0.8883336E-01
        1   -1    0    0  501    0  0.00000000000E+00  0.00000000000E+00  0.11890821384E+04  0.11890821384E+04  0.50400001928E-02 0. -1.
       -1   -1    0    0    0  501  0.00000000000E+00  0.00000000000E+00 -0.47411488918E+03  0.47411488921E+03  0.50400001928E-02 0.  1.
    10030    2    1    2    0    0  0.00000000000E+00  0.00000000000E+00  0.71496724924E+03  0.16631970276E+04  0.15016811197E+04 0.  0.
        3    1    3    3  502    0  0.25380656216E+03 -0.40328011608E+03 -0.28519415724E+03  0.55532723735E+03  0.10100000352E+00 0.  1.
       -3    1    3    3    0  502 -0.25380656216E+03  0.40328011608E+03  0.10001614065E+04  0.11078697903E+04  0.10100000352E+00 0. -1.
</event>
<event>
 5   0  0.2542737E-04  0.1388345E+04  0.7818609E-02  0.8962299E-01
        1   -1    0    0  501    0  0.00000000000E+00  0.00000000000E+00  0.12645897393E+04  0.12645897393E+04  0.50400001928E-02 0.  1.
       -1   -1    0    0    0  501  0.00000000000E+00  0.00000000000E+00 -0.38105276724E+03  0.38105276727E+03  0.50400001928E-02 0. -1.
    10030    2    1    2    0    0  0.00000000000E+00  0.00000000000E+00  0.88353697210E+03  0.16456425066E+04  0.13883449422E+04 0.  0.
        1    1    3    3  502    0 -0.44113166646E+02  0.68824141108E+03  0.34803612456E+03  0.77249683199E+03  0.50400001928E-02 0. -1.
       -1    1    3    3    0  502  0.44113166646E+02 -0.68824141108E+03  0.53550084754E+03  0.87314567464E+03  0.50400001928E-02 0.  1.
</event>
<event>
 5   0  0.4785496E-04  0.1490979E+04  0.7818609E-02  0.8890474E-01
        2   -1    0    0  501    0  0.00000000000E+00  0.00000000000E+00  0.14575813032E+04  0.14575813032E+04  0.25500000920E-02 0.  1.
       -2   -1    0    0    0  501  0.00000000000E+00  0.00000000000E+00 -0.38128569573E+03  0.38128569574E+03  0.25500000920E-02 0. -1.
    10030    2    1    2    0    0  0.00000000000E+00  0.00000000000E+00  0.10762956074E+04  0.18388669989E+04  0.14909794114E+04 0.  0.
        4    1    3    3  502    0 -0.24160157213E+03 -0.66363997286E+03  0.83250776717E+03  0.10917234671E+04  0.12699999809E+01 0. -1.
       -4    1    3    3    0  502  0.24160157213E+03  0.66363997286E+03  0.24378784028E+03  0.74714353186E+03  0.12699999809E+01 0.  1.
</event>
<event>
 5   0  0.4785496E-04  0.1503972E+04  0.7818609E-02  0.8881816E-01
        2   -1    0    0  501    0  0.00000000000E+00  0.00000000000E+00  0.10485922108E+04  0.10485922108E+04  0.25500000920E-02 0.  1.
       -2   -1    0    0    0  501  0.00000000000E+00  0.00000000000E+00 -0.53927826568E+03  0.53927826568E+03  0.25500000920E-02 0. -1.
    10030    2    1    2    0    0  0.00000000000E+00  0.00000000000E+00  0.50931394515E+03  0.15878704765E+04  0.15039720594E+04 0.  0.
        4    1    3    3  502    0  0.88550269006E+02  0.65185171610E+03 -0.12998718750E+03  0.67055953631E+03  0.12699999809E+01 0. -1.
       -4    1    3    3    0  502 -0.88550269006E+02 -0.65185171610E+03  0.63930113265E+03  0.91731094021E+03  0.12699999809E+01 0.  1.
</event>
<event>
 5   0  0.2565416E-04  0.1501233E+04  0.7818609E-02  0.8883633E-01
       -1   -1    0    0    0  501  0.00000000000E+00  0.00000000000E+00  0.39486530532E+03  0.39486530536E+03  0.50400001928E-02 0. -1.
        1   -1    0    0  501    0  0.00000000000E+00  0.00000000000E+00 -0.14268801095E+04  0.14268801095E+04  0.50400001928E-02 0.  1.
    10030    2    1    2    0    0  0.00000000000E+00  0.00000000000E+00 -0.10320148042E+04  0.18217454149E+04  0.15012334264E+04 0.  0.
        5    1    3    3  502    0  0.13992430001E+03 -0.68875157767E+03 -0.83579564867E+03  0.10920320516E+04  0.46999998093E+01 0.  1.
       -5    1    3    3    0  502 -0.13992430001E+03  0.68875157767E+03 -0.19621915550E+03  0.72971336322E+03  0.46999998093E+01 0. -1.
</event>
<event>
 5   0  0.4726600E-04  0.1493980E+04  0.7818609E-02  0.8888466E-01
        2   -1    0    0  501    0  0.00000000000E+00  0.00000000000E+00  0.10709150026E+04  0.10709150026E+04  0.25500000920E-02 0.  1.
       -2   -1    0    0    0  501  0.00000000000E+00  0.00000000000E+00 -0.52104398099E+03  0.52104398100E+03  0.25500000920E-02 0. -1.
    10030    2    1    2    0    0  0.00000000000E+00  0.00000000000E+00  0.54987102164E+03  0.15919589836E+04  0.14939796736E+04 0.  0.
        2    1    3    3  502    0 -0.52022235059E+03 -0.41618218311E+03 -0.85091005746E+02  0.67162443586E+03  0.25500000920E-02 0. -1.
       -2    1    3    3    0  502  0.52022235059E+03  0.41618218311E+03  0.63496202738E+03  0.92033454777E+03  0.25500000920E-02 0.  1.
</event>
<event>
 5   0  0.2603873E-04  0.1472854E+04  0.7818609E-02  0.8902708E-01
        1   -1    0    0  501    0  0.00000000000E+00  0.00000000000E+00  0.10085610378E+04  0.10085610378E+04  0.50400001928E-02 0. -1.
       -1   -1    0    0    0  501  0.00000000000E+00  0.00000000000E+00 -0.53772143612E+03  0.53772143614E+03  0.50400001928E-02 0.  1.
    10030    2    1    2    0    0  0.00000000000E+00  0.00000000000E+00  0.47083960169E+03  0.15462824740E+04  0.14728542218E+04 0.  0.
        2    1    3    3  502    0 -0.28572972261E+02  0.69272009360E+03  0.49608692754E+03  0.85251380194E+03  0.25500000920E-02 0. -1.
       -2    1    3    3    0  502  0.28572972261E+02 -0.69272009360E+03 -0.25247325854E+02  0.69376867203E+03  0.25500000920E-02 0.  1.
</event>
<event>
 5   0  0.2605471E-04  0.1495308E+04  0.7818609E-02  0.8887579E-01
       -1   -1    0    0    0  501  0.00000000000E+00  0.00000000000E+00  0.45216055808E+03  0.45216055811E+03  0.50400001928E-02 0. -1.
        1   -1    0    0  501    0  0.00000000000E+00  0.00000000000E+00 -0.12362571281E+04  0.12362571281E+04  0.50400001928E-02 0.  1.
    10030    2    1    2    0    0  0.00000000000E+00  0.00000000000E+00 -0.78409657003E+03  0.16884176862E+04  0.14953082799E+04 0.  0.
        3    1    3    3  502    0  0.45960366860E+03 -0.57202054166E+03 -0.23020742576E+03  0.76905038934E+03  0.10100000352E+00 0.  1.
       -3    1    3    3    0  502 -0.45960366860E+03  0.57202054166E+03 -0.55388914427E+03  0.91936729690E+03  0.10100000352E+00 0. -1.
</event>
<event>
 5   0  0.4569211E-04  0.1500877E+04  0.7818609E-02  0.8883870E-01
       -2   -1    0    0    0  501  0.00000000000E+00  0.00000000000E+00  0.82429608647E+03  0.82429608647E+03  0.25500000920E-02 0. -1.
        2   -1    0    0  501    0  0.00000000000E+00  0.00000000000E+00 -0.68319846630E+03  0.68319846630E+03  0.25500000920E-02 0.  1.
    10030    2    1    2    0    0  0.00000000000E+00  0.00000000000E+00  0.14109762017E+03  0.15074945528E+04  0.15008768398E+04 0.  0.
        5    1    3    3  502    0  0.16597338484E+03  0.34830941255E+03 -0.57592655009E+03  0.69323884228E+03  0.46999998093E+01 0.  1.
       -5    1    3    3    0  502 -0.16597338484E+03 -0.34830941255E+03  0.71702417026E+03  0.81425571050E+03  0.46999998093E+01 0. -1.
</event>
<event>
 5   0  0.4948645E-04  0.1503854E+04  0.7818609E-02  0.8881894E-01
        2   -1    0    0  501    0  0.00000000000E+00  0.00000000000E+00  0.53953960796E+03  0.53953960796E+03  0.25500000920E-02 0.  1.
       -2   -1    0    0    0  501  0.00000000000E+00  0.00000000000E+00 -0.10479199136E+04  0.10479199136E+04  0.25500000920E-02 0. -1.
    10030    2    1    2    0    0  0.00000000000E+00  0.00000000000E+00 -0.50838030562E+03  0.15874595215E+04  0.15038541144E+04 0.  0.
        1    1    3    3  502    0 -0.23438382383E+02  0.63402044514E+03  0.17180846423E+03  0.65730467139E+03  0.50400001928E-02 0.  1.
       -1    1    3    3    0  502  0.23438382383E+02 -0.63402044514E+03 -0.68018876985E+03  0.93015485016E+03  0.50400001928E-02 0. -1.
</event>
<event>
 5   0  0.2544374E-04  0.1494907E+04  0.7818609E-02  0.8887847E-01
       -1   -1    0    0    0  501  0.00000000000E+00  0.00000000000E+00  0.84793034469E+03  0.84793034471E+03  0.50400001928E-02 0.  1.
        1   -1    0    0  501    0  0.00000000000E+00  0.00000000000E+00 -0.65888249816E+03  0.65888249818E+03  0.50400001928E-02 0. -1.
    10030    2    1    2    0    0  0.00000000000E+00  0.00000000000E+00  0.18904784654E+03  0.15068128429E+04  0.14949066376E+04 0.  0.
        4    1    3    3  502    0  0.42844779307E+03 -0.41021139499E+03 -0.36389934727E+03  0.69589169259E+03  0.12699999809E+01 0. -1.
       -4    1    3    3    0  502 -0.42844779307E+03  0.41021139499E+03  0.55294719381E+03  0.81092115030E+03  0.12699999809E+01 0.  1.
</event>
<event>
 5   0  0.2544374E-04  0.1511113E+04  0.7818609E-02  0.8877096E-01
        1   -1    0    0  501    0  0.00000000000E+00  0.00000000000E+00  0.77849494312E+03  0.77849494314E+03  0.50400001928E-02 0.  1.
       -1   -1    0    0    0  501  0.00000000000E+00  0.00000000000E+00 -0.73329401457E+03  0.73329401459E+03  0.50400001928E-02 0. -1.
    10030    2    1    2    0    0  0.00000000000E+00  0.00000000000E+00  0.45200928548E+02  0.15117889577E+04  0.15111130761E+04 0.  0.
        4    1    3    3  502    0 -0.55653780233E+03 -0.47410581628E+03 -0.16815054094E+03  0.75019122080E+03  0.12699999809E+01 0. -1.
       -4    1    3    3    0  502  0.55653780233E+03  0.47410581628E+03  0.21335146949E+03  0.76159773692E+03  0.12699999809E+01 0.  1.
</event>
<event>
 5   0  0.2605471E-04  0.1535346E+04  0.7818609E-02  0.8861282E-01
        1   -1    0    0  501    0  0.00000000000E+00  0.00000000000E+00  0.13014357840E+04  0.13014357840E+04  0.50400001928E-02 0.  1.
       -1   -1    0    0    0  501  0.00000000000E+00  0.00000000000E+00 -0.45282463492E+03  0.45282463495E+03  0.50400001928E-02 0. -1.
    10030    2    1    2    0    0  0.00000000000E+00  0.00000000000E+00  0.84861114912E+03  0.17542604190E+04  0.15353464545E+04 0.  0.
        3    1    3    3  502    0  0.28031373882E+02 -0.34435565599E+03  0.12075838614E+04  0.12560355761E+04  0.10100000352E+00 0.  1.
       -3    1    3    3    0  502 -0.28031373882E+02  0.34435565599E+03 -0.35897271231E+03  0.49822484294E+03  0.10100000352E+00 0. -1.
</event>
<event>
 5   0  0.4785496E-04  0.1489311E+04  0.7818609E-02  0.8891593E-01
        2   -1    0    0  501    0  0.00000000000E+00  0.00000000000E+00  0.96872756896E+03  0.96872756896E+03  0.25500000920E-02 0. -1.
       -2   -1    0    0    0  501  0.00000000000E+00  0.00000000000E+00 -0.57241218437E+03  0.57241218437E+03  0.25500000920E-02 0.  1.
    10030    2    1    2    0    0  0.00000000000E+00  0.00000000000E+00  0.39631538459E+03  0.15411397533E+04  0.14893105302E+04 0.  0.
        4    1    3    3  502    0 -0.57129485313E+02  0.65532000440E+03  0.55930431102E+03  0.86344137699E+03  0.12699999809E+01 0. -1.
       -4    1    3    3    0  502  0.57129485313E+02 -0.65532000440E+03 -0.16298892643E+03  0.67769837635E+03  0.12699999809E+01 0.  1.
</event>
<event>
 5   0  0.2565416E-04  0.1497719E+04  0.7818609E-02  0.8885971E-01
        1   -1    0    0  501    0  0.00000000000E+00  0.00000000000E+00  0.13736173700E+04  0.13736173700E+04  0.50400001928E-02 0.  1.
       -1   -1    0    0    0  501  0.00000000000E+00  0.00000000000E+00 -0.40825793474E+03  0.40825793477E+03  0.50400001928E-02 0. -1.
    10030    2    1    2    0    0  0.00000000000E+00  0.00000000000E+00  0.96535943529E+03  0.17818753048E+04  0.14977185191E+04 0.  0.
        5    1    3    3  502    0 -0.80370782961E+02 -0.42269963412E+03 -0.24649123284E+03  0.49589763188E+03  0.46999998093E+01 0. -1.
       -5    1    3    3    0  502  0.80370782961E+02  0.42269963412E+03  0.12118506681E+04  0.12859776729E+04  0.46999998093E+01 0.  1.
</event>
<event>
 5   0  0.4768387E-04  0.1483793E+04  0.7818609E-02  0.8895302E-01
        2   -1    0    0  501    0  0.00000000000E+00  0.00000000000E+00  0.18312494241E+04  0.18312494241E+04  0.25500000920E-02 0. -1.
       -2   -1    0    0    0  501  0.00000000000E+00  0.00000000000E+00 -0.30056561063E+03  0.30056561064E+03  0.25500000920E-02 0.  1.
    10030    2    1    2    0    0  0.00000000000E+00  0.00000000000E+00  0.15306838135E+04  0.21318150347E+04  0.14837932489E+04 0.  0.
        3    1    3    3  502    0  0.16114716941E+03  0.25420553039E+03  0.17395929403E+04  0.17654383224E+04  0.10100000352E+00 0. -1.
       -3    1    3    3    0  502 -0.16114716941E+03 -0.25420553039E+03 -0.20890912684E+03  0.36637671237E+03  0.10100000352E+00 0.  1.
</event>
<event>
 5   0  0.4768387E-04  0.1364754E+04  0.7818609E-02  0.8979734E-01
       -2   -1    0    0    0  501  0.00000000000E+00  0.00000000000E+00  0.54893871648E+03  0.54893871648E+03  0.25500000920E-02 0.  1.
        2   -1    0    0  501    0  0.00000000000E+00  0.00000000000E+00 -0.84825251381E+03  0.84825251382E+03  0.25500000920E-02 0. -1.
    10030    2    1    2    0    0  0.00000000000E+00  0.00000000000E+00 -0.29931379733E+03  0.13971912303E+04  0.13647544046E+04 0.  0.
        3    1    3    3  502    0 -0.23387446655E+03  0.28168529285E+03 -0.73918590680E+03  0.82488768043E+03  0.10100000352E+00 0. -1.
       -3    1    3    3    0  502  0.23387446655E+03 -0.28168529285E+03  0.43987210946E+03  0.57230354987E+03  0.10100000352E+00 0.  1.
</event>
<event>
 5   0  0.1792000E-04  0.1485115E+04  0.7818609E-02  0.8894412E-01
       -3   -1    0    0    0  501  0.00000000000E+00  0.00000000000E+00  0.83654697364E+03  0.83654697974E+03  0.10100000352E+00 0.  1.
        3   -1    0    0  501    0  0.00000000000E+00  0.00000000000E+00 -0.65912815711E+03  0.65912816485E+03  0.10100000352E+00 0. -1.
    10030    2    1    2    0    0  0.00000000000E+00  0.00000000000E+00  0.17741881653E+03  0.14956751446E+04  0.14851150466E+04 0.  0.
        2    1    3    3  502    0  0.56277349181E+03 -0.14073100915E+03  0.55554886138E+03  0.80321463969E+03  0.25500000920E-02 0.  1.
       -2    1    3    3    0  502 -0.56277349181E+03  0.14073100915E+03 -0.37813004485E+03  0.69246050490E+03  0.25500000920E-02 0. -1.
</event>
<event>
 5   0  0.2565416E-04  0.1480005E+04  0.7818609E-02  0.8897859E-01
        1   -1    0    0  501    0  0.00000000000E+00  0.00000000000E+00  0.66768401911E+03  0.66768401913E+03  0.50400001928E-02 0. -1.
       -1   -1    0    0    0  501  0.00000000000E+00  0.00000000000E+00 -0.82015420802E+03  0.82015420803E+03  0.50400001928E-02 0.  1.
    10030    2    1    2    0    0  0.00000000000E+00  0.00000000000E+00 -0.15247018891E+03  0.14878382272E+04  0.14800052134E+04 0.  0.
        5    1    3    3  502    0  0.67003693604E+03  0.26951929168E+03 -0.23830753536E+03  0.76052791905E+03  0.46999998093E+01 0.  1.
       -5    1    3    3    0  502 -0.67003693604E+03 -0.26951929168E+03  0.85837346451E+02  0.72731030811E+03  0.46999998093E+01 0. -1.
</event>
<event>
 5   0  0.4768387E-04  0.1496813E+04  0.7818609E-02  0.8886575E-01
       -2   -1    0    0    0  501  0.00000000000E+00  0.00000000000E+00  0.48574134809E+03  0.48574134810E+03  0.25500000920E-02 0. -1.
        2   -1    0    0  501    0  0.00000000000E+00  0.00000000000E+00 -0.11531082282E+04  0.11531082282E+04  0.25500000920E-02 0.  1.
    10030    2    1    2    0    0  0.00000000000E+00  0.00000000000E+00 -0.66736688015E+03  0.16388495763E+04  0.14968130749E+04 0.  0.
        3    1    3    3  502    0  0.16593676991E+03  0.52111186345E+03 -0.89306508168E+03  0.10472143220E+04  0.10100000352E+00 0.  1.
       -3    1    3    3    0  502 -0.16593676991E+03 -0.52111186345E+03  0.22569820153E+03  0.59163525437E+03  0.10100000352E+00 0. -1.
</event>
<event>
 5   0  0.1792000E-04  0.1497618E+04  0.7818609E-02  0.8886038E-01
       -3   -1    0    0    0  501  0.00000000000E+00  0.00000000000E+00  0.13095517459E+04  0.13095517498E+04  0.10100000352E+00 0.  1.
        3   -1    0    0  501    0  0.00000000000E+00  0.00000000000E+00 -0.42817325856E+03  0.42817327048E+03  0.10100000352E+00 0. -1.
    10030    2    1    2    0    0  0.00000000000E+00  0.00000000000E+00  0.88137848733E+03  0.17377250203E+04  0.14976181783E+04 0.  0.
        4    1    3    3  502    0 -0.26907741006E+03 -0.33798112986E+03 -0.26898971730E+03  0.50891156173E+03  0.12699999809E+01 0. -1.
       -4    1    3    3    0  502  0.26907741006E+03  0.33798112986E+03  0.11503682046E+04  0.12288134585E+04  0.12699999809E+01 0.  1.
</event>
<event>
 5   0  0.4726600E-04  0.1503043E+04  0.7818609E-02  0.8882432E-01
       -2   -1    0    0    0  501  0.00000000000E+00  0.00000000000E+00  0.30018655702E+03  0.30018655703E+03  0.25500000920E-02 0. -1.
        2   -1    0    0  501    0  0.00000000000E+00  0.00000000000E+00 -0.18814443950E+04  0.18814443950E+04  0.25500000920E-02 0.  1.
    10030    2    1    2    0    0  0.00000000000E+00  0.00000000000E+00 -0.15812578380E+04  0.21816309520E+04  0.15030426676E+04 0.  0.
        2    1    3    3  502    0 -0.60264072677E+03 -0.29065831020E+03 -0.12873779564E+04  0.14508618478E+04  0.25500000920E-02 0.  1.
       -2    1    3    3    0  502  0.60264072677E+03  0.29065831020E+03 -0.29387988158E+03  0.73076910420E+03  0.25500000920E-02 0. -1.
</event>
<event>
 5   0  0.4948645E-04  0.1508804E+04  0.7818609E-02  0.8878619E-01
        2   -1    0    0  501    0  0.00000000000E+00  0.00000000000E+00  0.16888837436E+04  0.16888837436E+04  0.25500000920E-02 0.  1.
       -2   -1    0    0    0  501  0.00000000000E+00  0.00000000000E+00 -0.33698146203E+03  0.33698146204E+03  0.25500000920E-02 0. -1.
    10030    2    1    2    0    0  0.00000000000E+00  0.00000000000E+00  0.13519022816E+04  0.20258652057E+04  0.15088041796E+04 0.  0.
        1    1    3    3  502    0  0.90347057568E+01  0.46924139544E+03  0.14689985434E+04  0.15421497442E+04  0.50400001928E-02 0.  1.
       -1    1    3    3    0  502 -0.90347057568E+01 -0.46924139544E+03 -0.11709626178E+03  0.48371546145E+03  0.50400001928E-02 0. -1.
</event>
<event>
 5   0  0.2542737E-04  0.1502837E+04  0.7818609E-02  0.8882569E-01
        1   -1    0    0  501    0  0.00000000000E+00  0.00000000000E+00  0.10884417138E+04  0.10884417138E+04  0.50400001928E-02 0. -1.
       -1   -1    0    0    0  501  0.00000000000E+00  0.00000000000E+00 -0.51875035572E+03  0.51875035575E+03  0.50400001928E-02 0.  1.
    10030    2    1    2    0    0  0.00000000000E+00  0.00000000000E+00  0.56969135806E+03  0.16071920695E+04  0.15028366861E+04 0.  0.
        1    1    3    3  502    0 -0.60618645207E+03 -0.38672592500E+03  0.51495743503E+02  0.72088193719E+03  0.50400001928E-02 0.  1.
       -1    1    3    3    0  502  0.60618645207E+03  0.38672592500E+03  0.51819561455E+03  0.88631013235E+03  0.50400001928E-02 0. -1.
</event>
<event>
 5   0  0.4785496E-04  0.1493292E+04  0.7818609E-02  0.8888926E-01
       -2   -1    0    0    0  501  0.00000000000E+00  0.00000000000E+00  0.34005168408E+03  0.34005168409E+03  0.25500000920E-02 0. -1.
        2   -1    0    0  501    0  0.00000000000E+00  0.00000000000E+00 -0.16393977578E+04  0.16393977578E+04  0.25500000920E-02 0.  1.
    10030    2    1    2    0    0  0.00000000000E+00  0.00000000000E+00 -0.12993460737E+04  0.19794494419E+04  0.14932916238E+04 0.  0.
        4    1    3    3  502    0  0.54429506132E+03 -0.50933599526E+03 -0.59346415098E+03  0.95282820133E+03  0.12699999809E+01 0. -1.
       -4    1    3    3    0  502 -0.54429506132E+03  0.50933599526E+03 -0.70588192277E+03  0.10266212406E+04  0.12699999809E+01 0.  1.
</event>
<event>
 5   0  0.4785496E-04  0.1494549E+04  0.7818609E-02  0.8888086E-01
       -2   -1    0    0    0  501  0.00000000000E+00  0.00000000000E+00  0.12872600517E+04  0.12872600517E+04  0.25500000920E-02 0.  1.
        2   -1    0    0  501    0  0.00000000000E+00  0.00000000000E+00 -0.43380456545E+03  0.43380456546E+03  0.25500000920E-02 0. -1.
    10030    2    1    2    0    0  0.00000000000E+00  0.00000000000E+00  0.85345548625E+03  0.17210646172E+04  0.14945491459E+04 0.  0.
        4    1    3    3  502    0  0.24581080699E+03  0.70136340771E+03  0.51655018559E+03  0.90507419013E+03  0.12699999809E+01 0.  1.
       -4    1    3    3    0  502 -0.24581080699E+03 -0.70136340771E+03  0.33690530066E+03  0.81599042704E+03  0.12699999809E+01 0. -1.
</event>
<event>
 5   0  0.4569211E-04  0.1511947E+04  0.7818609E-02  0.8876547E-01
       -2   -1    0    0    0  501  0.00000000000E+00  0.00000000000E+00  0.40901948322E+03  0.40901948322E+03  0.25500000920E-02 0.  1.
        2   -1    0    0  501    0  0.00000000000E+00  0.00000000000E+00 -0.13972336609E+04  0.13972336609E+04  0.25500000920E-02 0. -1.
    10030    2    1    2    0    0  0.00000000000E+00  0.00000000000E+00 -0.98821417766E+03  0.18062531441E+04  0.15119468111E+04 0.  0.
        5    1    3    3  502    0 -0.21905652422E+03  0.52124326021E+03  0.10535852474E+03  0.57515459300E+03  0.46999998093E+01 0.  1.
       -5    1    3    3    0  502  0.21905652422E+03 -0.52124326021E+03 -0.10935727024E+04  0.12310985511E+04  0.46999998093E+01 0. -1.
</event>
<event>
 5   0  0.2544374E-04  0.1497555E+04  0.7818609E-02  0.8886080E-01
        1   -1    0    0  501    0  0.00000000000E+00  0.00000000000E+00  0.90106124852E+03  0.90106124853E+03  0.50400001928E-02 0. -1.
       -1   -1    0    0    0  501  0.00000000000E+00  0.00000000000E+00 -0.62223049205E+03  0.62223049207E+03  0.50400001928E-02 0.  1.
    10030    2    1    2    0    0  0.00000000000E+00  0.00000000000E+00  0.27883075647E+03  0.15232917406E+04  0.14975550528E+04 0.  0.
        4    1    3    3  502    0  0.37069957064E+02  0.31759474622E+03 -0.54929195252E+03  0.63558151841E+03  0.12699999809E+01 0.  1.
       -4    1    3    3    0  502 -0.37069957064E+02 -0.31759474622E+03  0.82812270899E+03  0.88771022219E+03  0.12699999809E+01 0. -1.
</event>
<event>
 5   0  0.2603873E-04  0.1492483E+04  0.7818609E-02  0.8889467E-01
        1   -1    0    0  501    0  0.00000000000E+00  0.00000000000E+00  0.22331025320E+04  0.22331025320E+04  0.50400001928E-02 0.  1.
       -1   -1    0    0    0  501  0.00000000000E+00  0.00000000000E+00 -0.24937324732E+03  0.24937324737E+03  0.50400001928E-02 0. -1.
    10030    2    1    2    0    0  0.00000000000E+00  0.00000000000E+00  0.19837292847E+04  0.24824757794E+04  0.14924825360E+04 0.  0.
        2    1    3    3  502    0 -0.69376408072E+02 -0.36104849905E+03 -0.88278041856E+02  0.37810331570E+03  0.25500000920E-02 0. -1.
       -2    1    3    3    0  502  0.69376408072E+02  0.36104849905E+03  0.20720073265E+04  0.21043724637E+04  0.25500000920E-02 0.  1.
</event>
<event>
 5   0  0.4768387E-04  0.1524215E+04  0.7818609E-02  0.8868508E-01
        2   -1    0    0  501    0  0.00000000000E+00  0.00000000000E+00  0.15554092667E+04  0.15554092667E+04  0.25500000920E-02 0. -1.
       -2   -1    0    0    0  501  0.00000000000E+00  0.00000000000E+00 -0.37341140327E+03  0.37341140328E+03  0.25500000920E-02 0.  1.
    10030    2    1    2    0    0  0.00000000000E+00  0.00000000000E+00  0.11819978635E+04  0.19288206700E+04  0.15242146266E+04 0.  0.
        3    1    3    3  502    0  0.28564602924E+03 -0.55511898462E+03  0.37869226038E+02  0.62544770332E+03  0.10100000352E+00 0.  1.
       -3    1    3    3    0  502 -0.28564602924E+03  0.55511898462E+03  0.11441286374E+04  0.13033729667E+04  0.10100000352E+00 0. -1.
</event>
<event>
 5   0  0.4785496E-04  0.1507346E+04  0.7818609E-02  0.8879582E-01
       -2   -1    0    0    0  501  0.00000000000E+00  0.00000000000E+00  0.62672708102E+03  0.62672708103E+03  0.25500000920E-02 0. -1.
        2   -1    0    0  501    0  0.00000000000E+00  0.00000000000E+00 -0.90633249493E+03  0.90633249493E+03  0.25500000920E-02 0.  1.
    10030    2    1    2    0    0  0.00000000000E+00  0.00000000000E+00 -0.27960541390E+03  0.15330595760E+04  0.15073461699E+04 0.  0.
        4    1    3    3  502    0 -0.38516923120E+03 -0.52569997746E+03  0.24521239754E+03  0.69630922425E+03  0.12699999809E+01 0. -1.
       -4    1    3    3    0  502  0.38516923120E+03  0.52569997746E+03 -0.52481781145E+03  0.83675035171E+03  0.12699999809E+01 0.  1.
</event>
<event>
 5   0  0.4785496E-04  0.1483526E+04  0.7818609E-02  0.8895482E-01
       -2   -1    0    0    0  501  0.00000000000E+00  0.00000000000E+00  0.57353604384E+03  0.57353604384E+03  0.25500000920E-02 0. -1.
        2   -1    0    0  501    0  0.00000000000E+00  0.00000000000E+00 -0.95933411554E+03  0.95933411554E+03  0.25500000920E-02 0.  1.
    10030    2    1    2    0    0  0.00000000000E+00  0.00000000000E+00 -0.38579807170E+03  0.15328701594E+04  0.14835264654E+04 0.  0.
        4    1    3    3  502    0 -0.56649937373E+03 -0.26355926844E+03  0.22018066840E+03  0.66246974879E+03  0.12699999809E+01 0. -1.
       -4    1    3    3    0  502  0.56649937373E+03  0.26355926844E+03 -0.60597874011E+03  0.87040041060E+03  0.12699999809E+01 0.  1.
</event>
<event>
 5   0  0.2605471E-04  0.1474791E+04  0.7818609E-02  0.8901392E-01
        1   -1    0    0  501    0  0.00000000000E+00  0.00000000000E+00  0.19447688630E+04  0.19447688630E+04  0.50400001928E-02 0.  1.
       -1   -1    0    0    0  501  0.00000000000E+00  0.00000000000E+00 -0.27959746966E+03  0.27959746970E+03  0.50400001928E-02 0. -1.
    10030    2    1    2    0    0  0.00000000000E+00  0.00000000000E+00  0.16651713933E+04  0.22243663327E+04  0.14747914473E+04 0.  0.
        3    1    3    3  502    0  0.39381813453E+03 -0.59841754509E+03  0.10962340737E+04  0.13095516164E+04  0.10100000352E+00 0.  1.
       -3    1    3    3    0  502 -0.39381813453E+03  0.59841754509E+03  0.56893731960E+03  0.91481471632E+03  0.10100000352E+00 0. -1.
</event>
<event>
 5   0  0.2542737E-04  0.1500249E+04  0.7818609E-02  0.8884287E-01
       -1   -1    0    0    0  501  0.00000000000E+00  0.00000000000E+00  0.87675821540E+03  0.87675821542E+03  0.50400001928E-02 0. -1.
        1   -1    0    0  501    0  0.00000000000E+00  0.00000000000E+00 -0.64178091331E+03  0.64178091333E+03  0.50400001928E-02 0.  1.
    10030    2    1    2    0    0  0.00000000000E+00  0.00000000000E+00  0.23497730210E+03  0.15185391287E+04  0.15002488970E+04 0.  0.
        1    1    3    3  502    0  0.63804761736E+03 -0.33854118071E+03 -0.87393991694E+02  0.72756621888E+03  0.50400001928E-02 0.  1.
       -1    1    3    3    0  502 -0.63804761736E+03  0.33854118071E+03  0.32237129379E+03  0.79097290986E+03  0.50400001928E-02 0. -1.
</event>
<event>
 5   0  0.2603873E-04  0.1492088E+04  0.7818609E-02  0.8889731E-01
       -1   -1    0    0    0  501  0.00000000000E+00  0.00000000000E+00  0.79099325548E+03  0.79099325550E+03  0.50400001928E-02 0. -1.
        1   -1    0    0  501    0  0.00000000000E+00  0.00000000000E+00 -0.70364928122E+03  0.70364928124E+03  0.50400001928E-02 0.  1.
    10030    2    1    2    0    0  0.00000000000E+00  0.00000000000E+00  0.87343974262E+02  0.14946425367E+04  0.14920882490E+04 0.  0.
        2    1    3    3  502    0  0.90084219541E+01  0.62612971521E+03 -0.36256172347E+03  0.72358176819E+03  0.25500000920E-02 0.  1.
       -2    1    3    3    0  502 -0.90084219541E+01 -0.62612971521E+03  0.44990569774E+03  0.77106076855E+03  0.25500000920E-02 0. -1.
</event>
<event>
 5   0  0.4948645E-04  0.1518223E+04  0.7818609E-02  0.8872425E-01
        2   -1    0    0  501    0  0.00000000000E+00  0.00000000000E+00  0.17628257389E+04  0.17628257389E+04  0.25500000920E-02 0. -1.
       -2   -1    0    0    0  501  0.00000000000E+00  0.00000000000E+00 -0.32688987876E+03  0.32688987877E+03  0.25500000920E-02 0.  1.
    10030    2    1    2    0    0  0.00000000000E+00  0.00000000000E+00  0.14359358602E+04  0.20897156177E+04  0.15182225029E+04 0.  0.
        1    1    3    3  502    0 -0.10522875800E+03 -0.31030536115E+03  0.16604780843E+04  0.16924981469E+04  0.50400001928E-02 0. -1.
       -1    1    3    3    0  502  0.10522875800E+03  0.31030536115E+03 -0.22454222415E+03  0.39721747081E+03  0.50400001928E-02 0.  1.
</event>
<event>
 5   0  0.4785496E-04  0.1505256E+04  0.7818609E-02  0.8880966E-01
        2   -1    0    0  501    0  0.00000000000E+00  0.00000000000E+00  0.90951004653E+03  0.90951004653E+03  0.25500000920E-02 0. -1.
       -2   -1    0    0    0  501  0.00000000000E+00  0.00000000000E+00 -0.62280626519E+03  0.62280626520E+03  0.25500000920E-02 0.  1.
    10030    2    1    2    0    0  0.00000000000E+00  0.00000000000E+00  0.28670378134E+03  0.15323163117E+04  0.15052555334E+04 0.  0.
        4    1    3    3  502    0 -0.42531105884E+03  0.10707011712E+02 -0.48864968960E+03  0.64790760832E+03  0.12699999809E+01 0.  1.
       -4    1    3    3    0  502  0.42531105884E+03 -0.10707011712E+02  0.77535347094E+03  0.88440870341E+03  0.12699999809E+01 0. -1.
</event>
<event>
 5   0  0.2565416E-04  0.1497039E+04  0.7818609E-02  0.8886424E-01
        1   -1    0    0  501    0  0.00000000000E+00  0.00000000000E+00  0.12039968350E+04  0.12039968350E+04  0.50400001928E-02 0. -1.
       -1   -1    0    0    0  501  0.00000000000E+00  0.00000000000E+00 -0.46535121702E+03  0.46535121705E+03  0.50400001928E-02 0.  1.
    10030    2    1    2    0    0  0.00000000000E+00  0.00000000000E+00  0.73864561799E+03  0.16693480521E+04  0.14970389340E+04 0.  0.
        5    1    3    3  502    0  0.54310606289E+03  0.22086700266E+03 -0.14954372684E+03  0.60508829492E+03  0.46999998093E+01 0.  1.
       -5    1    3    3    0  502 -0.54310606289E+03 -0.22086700266E+03  0.88818934483E+03  0.10642597571E+04  0.46999998093E+01 0. -1.
</event>
<event>
 5   0  0.4948645E-04  0.1500018E+04  0.7818609E-02  0.8884441E-01
        2   -1    0    0  501    0  0.00000000000E+00  0.00000000000E+00  0.58876688472E+03  0.58876688472E+03  0.25500000920E-02 0.  1.
       -2   -1    0    0    0  501  0.00000000000E+00  0.00000000000E+00 -0.95540915406E+03  0.95540915407E+03  0.25500000920E-02 0. -1.
    10030    2    1    2    0    0  0.00000000000E+00  0.00000000000E+00 -0.36664226935E+03  0.15441760388E+04  0.15000176949E+04 0.  0.
        1    1    3    3  502    0  0.39199703310E+03 -0.17486043391E+03  0.44982577491E+03  0.62175644195E+03  0.50400001928E-02 0.  1.
       -1    1    3    3    0  502 -0.39199703310E+03  0.17486043391E+03 -0.81646804426E+03  0.92241959684E+03  0.50400001928E-02 0. -1.
</event>
<event>
 5   0  0.2605471E-04  0.1507797E+04  0.7818609E-02  0.8879284E-01
        1   -1    0    0  501    0  0.00000000000E+00  0.00000000000E+00  0.14288146882E+04  0.14288146882E+04  0.50400001928E-02 0. -1.
       -1   -1    0    0    0  501  0.00000000000E+00  0.00000000000E+00 -0.39778644301E+03  0.39778644304E+03  0.50400001928E-02 0.  1.
    10030    2    1    2    0    0  0.00000000000E+00  0.00000000000E+00  0.10310282452E+04  0.18266011313E+04  0.15077972179E+04 0.  0.
        3    1    3    3  502    0 -0.48824693398E+03  0.57089561090E+03  0.59266881697E+03  0.95685066959E+03  0.10100000352E+00 0. -1.
       -3    1    3    3    0  502  0.48824693398E+03 -0.57089561090E+03  0.43835942825E+03  0.86975046169E+03  0.10100000352E+00 0.  1.
</event>
<event>
 5   0  0.2565416E-04  0.1503163E+04  0.7818609E-02  0.8882352E-01
        1   -1    0    0  501    0  0.00000000000E+00  0.00000000000E+00  0.28691322205E+04  0.28691322205E+04  0.50400001928E-02 0. -1.
       -1   -1    0    0    0  501  0.00000000000E+00  0.00000000000E+00 -0.19688008127E+03  0.19688008134E+03  0.50400001928E-02 0.  1.
    10030    2    1    2    0    0  0.00000000000E+00  0.00000000000E+00  0.26722521393E+04  0.30660123019E+04  0.15031633110E+04 0.  0.
        5    1    3    3  502    0  0.69351449185E+02 -0.74649125690E+03  0.14439429435E+04  0.16269763779E+04  0.46999998093E+01 0.  1.
       -5    1    3    3    0  502 -0.69351449185E+02  0.74649125690E+03  0.12283091958E+04  0.14390359240E+04  0.46999998093E+01 0. -1.
</event>
<event>
 5   0  0.2565416E-04  0.1487677E+04  0.7818609E-02  0.8892689E-01
        1   -1    0    0  501    0  0.00000000000E+00  0.00000000000E+00  0.53303502936E+03  0.53303502939E+03  0.50400001928E-02 0. -1.
       -1   -1    0    0    0  501  0.00000000000E+00  0.00000000000E+00 -0.10380099642E+04  0.10380099642E+04  0.50400001928E-02 0.  1.
    10030    2    1    2    0    0  0.00000000000E+00  0.00000000000E+00 -0.50497493487E+03  0.15710449936E+04  0.14876769431E+04 0.  0.
        5    1    3    3  502    0 -0.68338455124E+03  0.29236506025E+03 -0.22295972976E+03  0.77603150995E+03  0.46999998093E+01 0.  1.
       -5    1    3    3    0  502  0.68338455124E+03 -0.29236506025E+03 -0.28201520511E+03  0.79501348369E+03  0.46999998093E+01 0. -1.
</event>
<event>
 5   0  0.4569211E-04  0.1534310E+04  0.7818609E-02  0.8861952E-01
        2   -1    0    0  501    0  0.00000000000E+00  0.00000000000E+00  0.12800975277E+04  0.12800975277E+04  0.25500000920E-02 0.  1.
       -2   -1    0    0    0  501  0.00000000000E+00  0.00000000000E+00 -0.45975148287E+03  0.45975148288E+03  0.25500000920E-02 0. -1.
    10030    2    1    2    0    0  0.00000000000E+00  0.00000000000E+00  0.82034604485E+03  0.17398490106E+04  0.15343099251E+04 0.  0.
        5    1    3    3  502    0 -0.22284719124E+03  0.73261322636E+03  0.35794134696E+03  0.84529705307E+03  0.46999998093E+01 0. -1.
       -5    1    3    3    0  502  0.22284719124E+03 -0.73261322636E+03  0.46240469789E+03  0.89455195752E+03  0.46999998093E+01 0.  1.
</event>
<event>
 5   0  0.4569211E-04  0.1497121E+04  0.7818609E-02  0.8886370E-01
        2   -1    0    0  501    0  0.00000000000E+00  0.00000000000E+00  0.92261359320E+03  0.92261359320E+03  0.25500000920E-02 0.  1.
       -2   -1    0    0    0  501  0.00000000000E+00  0.00000000000E+00 -0.60734290400E+03  0.60734290401E+03  0.25500000920E-02 0. -1.
    10030    2    1    2    0    0  0.00000000000E+00  0.00000000000E+00  0.31527068919E+03  0.15299564972E+04  0.14971209957E+04 0.  0.
        5    1    3    3  502    0 -0.33268418389E+03 -0.40103010012E+03 -0.39156831618E+03  0.65180652316E+03  0.46999998093E+01 0. -1.
       -5    1    3    3    0  502  0.33268418389E+03  0.40103010012E+03  0.70683900537E+03  0.87814997405E+03  0.46999998093E+01 0.  1.
</event>
<event>
 5   0  0.4726600E-04  0.1505381E+04  0.7818609E-02  0.8880883E-01
       -2   -1    0    0    0  501  0.00000000000E+00  0.00000000000E+00  0.13938129771E+04  0.13938129771E+04  0.25500000920E-02 0. -1.
        2   -1    0    0  501    0  0.00000000000E+00  0.00000000000E+00 -0.40646976227E+03  0.40646976228E+03  0.25500000920E-02 0.  1.
    10030    2    1    2    0    0  0.00000000000E+00  0.00000000000E+00  0.98734321480E+03  0.18002827394E+04  0.15053807883E+04 0.  0.
        2    1    3    3  502    0 -0.19123303500E+03 -0.32902467968E+03 -0.28294046682E+03  0.47421790485E+03  0.25500000920E-02 0.  1.
       -2    1    3    3    0  502  0.19123303500E+03  0.32902467968E+03  0.12702836816E+04  0.13260648345E+04  0.25500000920E-02 0. -1.
</event>
<event>
 5   0  0.2542737E-04  0.1455288E+04  0.7818609E-02  0.8914742E-01
       -1   -1    0    0    0  501  0.00000000000E+00  0.00000000000E+00  0.71740644883E+03  0.71740644885E+03  0.50400001928E-02 0. -1.
        1   -1    0    0  501    0  0.00000000000E+00  0.00000000000E+00 -0.73802807080E+03  0.73802807081E+03  0.50400001928E-02 0.  1.
    10030    2    1    2    0    0  0.00000000000E+00  0.00000000000E+00 -0.20621621965E+02  0.14554345197E+04  0.14552884215E+04 0.  0.
        1    1    3    3  502    0 -0.57048211123E+03  0.14022853086E+03 -0.43971648613E+03  0.73380138205E+03  0.50400001928E-02 0. -1.
       -1    1    3    3    0  502  0.57048211123E+03 -0.14022853086E+03  0.41909486416E+03  0.72163313761E+03  0.50400001928E-02 0.  1.
</event>
<event>
 5   0  0.4569211E-04  0.1494501E+04  0.7818609E-02  0.8888118E-01
       -2   -1    0    0    0  501  0.00000000000E+00  0.00000000000E+00  0.63416032515E+03  0.63416032516E+03  0.25500000920E-02 0. -1.
        2   -1    0    0  501    0  0.00000000000E+00  0.00000000000E+00 -0.88050763549E+03  0.88050763550E+03  0.25500000920E-02 0.  1.
    10030    2    1    2    0    0  0.00000000000E+00  0.00000000000E+00 -0.24634731034E+03  0.15146679607E+04  0.14945005968E+04 0.  0.
        5    1    3    3  502    0 -0.31039529522E+03  0.11533583949E+03  0.55572637605E+03  0.64691691136E+03  0.46999998093E+01 0. -1.
       -5    1    3    3    0  502  0.31039529522E+03 -0.11533583949E+03 -0.80207368639E+03  0.86775104930E+03  0.46999998093E+01 0.  1.
</event>
<event>
 5   0  0.2565416E-04  0.1502286E+04  0.7818609E-02  0.8882935E-01
        1   -1    0    0  501    0  0.00000000000E+00  0.00000000000E+00  0.14653292545E+04  0.14653292545E+04  0.50400001928E-02 0. -1.
       -1   -1    0    0    0  501  0.00000000000E+00  0.00000000000E+00 -0.38504345481E+03  0.38504345484E+03  0.50400001928E-02 0.  1.
    10030    2    1    2    0    0  0.00000000000E+00  0.00000000000E+00  0.10802857996E+04  0.18503727093E+04  0.15022855103E+04 0.  0.
        5    1    3    3  502    0 -0.14196577832E+03  0.73233449832E+03  0.43188415736E+03  0.86198266515E+03  0.46999998093E+01 0.  1.
       -5    1    3    3    0  502  0.14196577832E+03 -0.73233449832E+03  0.64840164229E+03  0.98839004415E+03  0.46999998093E+01 0. -1.
</event>
<event>
 5   0  0.4768387E-04  0.1498482E+04  0.7818609E-02  0.8885463E-01
       -2   -1    0    0    0  501  0.00000000000E+00  0.00000000000E+00  0.65878020494E+03  0.65878020495E+03  0.25500000920E-02 0. -1.
        2   -1    0    0  501    0  0.00000000000E+00  0.00000000000E+00 -0.85212354618E+03  0.85212354618E+03  0.25500000920E-02 0.  1.
    10030    2    1    2    0    0  0.00000000000E+00  0.00000000000E+00 -0.19334334123E+03  0.15109037511E+04  0.14984820645E+04 0.  0.
        3    1    3    3  502    0  0.31004927228E+02 -0.86380159425E+02 -0.84643461131E+03  0.85139555959E+03  0.10100000352E+00 0.  1.
       -3    1    3    3    0  502 -0.31004927228E+02  0.86380159425E+02  0.65309127008E+03  0.65950819154E+03  0.10100000352E+00 0. -1.
</event>
<event>
 5   0  0.4569211E-04  0.1509727E+04  0.7818609E-02  0.8878010E-01
        2   -1    0    0  501    0  0.00000000000E+00  0.00000000000E+00  0.10108870849E+04  0.10108870849E+04  0.25500000920E-02 0.  1.
       -2   -1    0    0    0  501  0.00000000000E+00  0.00000000000E+00 -0.56368196808E+03  0.56368196809E+03  0.25500000920E-02 0. -1.
    10030    2    1    2    0    0  0.00000000000E+00  0.00000000000E+00  0.44720511683E+03  0.15745690530E+04  0.15097268912E+04 0.  0.
        5    1    3    3  502    0 -0.74114615836E+02 -0.25892475368E+03  0.95905710605E+03  0.99616646551E+03  0.46999998093E+01 0.  1.
       -5    1    3    3    0  502  0.74114615836E+02  0.25892475368E+03 -0.51185198922E+03  0.57840258749E+03  0.46999998093E+01 0. -1.
</event>
<event>
 5   0  0.2544374E-04  0.1513935E+04  0.7818609E-02  0.8875239E-01
       -1   -1    0    0    0  501  0.00000000000E+00  0.00000000000E+00  0.96378058470E+03  0.96378058471E+03  0.50400001928E-02 0. -1.
        1   -1    0    0  501    0  0.00000000000E+00  0.00000000000E+00 -0.59453364243E+03  0.59453364246E+03  0.50400001928E-02 0.  1.
    10030    2    1    2    0    0  0.00000000000E+00  0.00000000000E+00  0.36924694227E+03  0.15583142272E+04  0.15139352451E+04 0.  0.
        4    1    3    3  502    0 -0.32852264218E+03 -0.13919323220E+03  0.87179845550E+03  0.94198516030E+03  0.12699999809E+01 0. -1.
       -4    1    3    3    0  502  0.32852264218E+03  0.13919323220E+03 -0.50255151323E+03  0.61632906687E+03  0.12699999809E+01 0.  1.
</event>
<event>
 5   0  0.4768387E-04  0.1474026E+04  0.7818609E-02  0.8901912E-01
        2   -1    0    0  501    0  0.00000000000E+00  0.00000000000E+00  0.14689254140E+04  0.14689254140E+04  0.25500000920E-02 0. -1.
       -2   -1    0    0    0  501  0.00000000000E+00  0.00000000000E+00 -0.36978598420E+03  0.36978598421E+03  0.25500000920E-02 0.  1.
    10030    2    1    2    0    0  0.00000000000E+00  0.00000000000E+00  0.10991394298E+04  0.18387113982E+04  0.14740258206E+04 0.  0.
        3    1    3    3  502    0 -0.37508186125E+03 -0.61263518150E+03  0.34391852914E+03  0.79642214505E+03  0.10100000352E+00 0. -1.
       -3    1    3    3    0  502  0.37508186125E+03  0.61263518150E+03  0.75522090067E+03  0.10422892532E+04  0.10100000352E+00 0.  1.
</event>
<event>
 5   0  0.4726600E-04  0.1494305E+04  0.7818609E-02  0.8888249E-01
        2   -1    0    0  501    0  0.00000000000E+00  0.00000000000E+00  0.27744884802E+04  0.27744884802E+04  0.25500000920E-02 0.  1.
       -2   -1    0    0    0  501  0.00000000000E+00  0.00000000000E+00 -0.20120353973E+03  0.20120353974E+03  0.25500000920E-02 0. -1.
    10030    2    1    2    0    0  0.00000000000E+00  0.00000000000E+00  0.25732849405E+04  0.29756920200E+04  0.14943050601E+04 0.  0.
        2    1    3    3  502    0 -0.19896188001E+03  0.55052965631E+03  0.36206984290E+03  0.68830465880E+03  0.25500000920E-02 0. -1.
       -2    1    3    3    0  502  0.19896188001E+03 -0.55052965631E+03  0.22112150976E+04  0.22873873612E+04  0.25500000920E-02 0.  1.
</event>
<event>
 5   0  0.4785496E-04  0.1446559E+04  0.7818609E-02  0.8920789E-01
       -2   -1    0    0    0  501  0.00000000000E+00  0.00000000000E+00  0.36957740333E+03  0.36957740334E+03  0.25500000920E-02 0.  1.
        2   -1    0    0  501    0  0.00000000000E+00  0.00000000000E+00 -0.14154904864E+04  0.14154904864E+04  0.25500000920E-02 0. -1.
    10030    2    1    2    0    0  0.00000000000E+00  0.00000000000E+00 -0.10459130830E+04  0.17850678897E+04  0.14465590875E+04 0.  0.
        4    1    3    3  502    0  0.54690120264E+03 -0.30111771992E+03 -0.72316760000E+02  0.62849354283E+03  0.12699999809E+01 0. -1.
       -4    1    3    3    0  502 -0.54690120264E+03  0.30111771992E+03 -0.97359632303E+03  0.11565743469E+04  0.12699999809E+01 0.  1.
</event>
<event>
 5   0  0.4569211E-04  0.1504670E+04  0.7818609E-02  0.8881354E-01
       -2   -1    0    0    0  501  0.00000000000E+00  0.00000000000E+00  0.71745679737E+03  0.71745679738E+03  0.25500000920E-02 0. -1.
        2   -1    0    0  501    0  0.00000000000E+00  0.00000000000E+00 -0.78890847969E+03  0.78890847969E+03  0.25500000920E-02 0.  1.
    10030    2    1    2    0    0  0.00000000000E+00  0.00000000000E+00 -0.71451682319E+02  0.15063652771E+04  0.15046697329E+04 0.  0.
        5    1    3    3  502    0 -0.36416629929E+03 -0.38116101667E+03 -0.57306602432E+03  0.77867038752E+03  0.46999998093E+01 0.  1.
       -5    1    3    3    0  502  0.36416629929E+03  0.38116101667E+03  0.50161434201E+03  0.72769488955E+03  0.46999998093E+01 0. -1.
</event>
<event>
 5   0  0.4948645E-04  0.1488005E+04  0.7818609E-02  0.8892469E-01
        2   -1    0    0  501    0  0.00000000000E+00  0.00000000000E+00  0.21052872448E+04  0.21052872448E+04  0.25500000920E-02 0.  1.
       -2   -1    0    0    0  501  0.00000000000E+00  0.00000000000E+00 -0.26292852994E+03  0.26292852996E+03  0.25500000920E-02 0. -1.
    10030    2    1    2    0    0  0.00000000000E+00  0.00000000000E+00  0.18423587149E+04  0.23682157748E+04  0.14880054844E+04 0.  0.
        1    1    3    3  502    0 -0.16235847912E+03  0.63959700914E+03  0.37424732686E+03  0.75862090106E+03  0.50400001928E-02 0. -1.
       -1    1    3    3    0  502  0.16235847912E+03 -0.63959700914E+03  0.14681113880E+04  0.16095948737E+04  0.50400001928E-02 0.  1.
</event>
<event>
 5   0  0.4948645E-04  0.1488928E+04  0.7818609E-02  0.8891850E-01
        2   -1    0    0  501    0  0.00000000000E+00  0.00000000000E+00  0.91099994976E+03  0.91099994977E+03  0.25500000920E-02 0. -1.
       -2   -1    0    0    0  501  0.00000000000E+00  0.00000000000E+00 -0.60837137444E+03  0.60837137445E+03  0.25500000920E-02 0.  1.
    10030    2    1    2    0    0  0.00000000000E+00  0.00000000000E+00  0.30262857532E+03  0.15193713242E+04  0.14889275222E+04 0.  0.
        1    1    3    3  502    0  0.31310041571E+02 -0.36858742956E+03  0.81058079506E+03  0.89099844965E+03  0.50400001928E-02 0. -1.
       -1    1    3    3    0  502 -0.31310041571E+02  0.36858742956E+03 -0.50795221973E+03  0.62837287457E+03  0.50400001928E-02 0.  1.
</event>
<event>
 5   0  0.2542737E-04  0.1492951E+04  0.7818609E-02  0.8889154E-01
        1   -1    0    0  501    0  0.00000000000E+00  0.00000000000E+00  0.80658112598E+03  0.80658112600E+03  0.50400001928E-02 0.  1.
       -1   -1    0    0    0  501  0.00000000000E+00  0.00000000000E+00 -0.69084927774E+03  0.69084927776E+03  0.50400001928E-02 0. -1.
    10030    2    1    2    0    0  0.00000000000E+00  0.00000000000E+00  0.11573184824E+03  0.14974304038E+04  0.14929514237E+04 0.  0.
        1    1    3    3  502    0  0.13991650128E+03  0.26334759457E+02 -0.67710516366E+03  0.69191151859E+03  0.50400001928E-02 0. -1.
       -1    1    3    3    0  502 -0.13991650128E+03 -0.26334759457E+02  0.79283701190E+03  0.80551888516E+03  0.50400001928E-02 0.  1.
</event>
<event>
 5   0  0.2603873E-04  0.1498779E+04  0.7818609E-02  0.8885265E-01
        1   -1    0    0  501    0  0.00000000000E+00  0.00000000000E+00  0.72149147528E+03  0.72149147530E+03  0.50400001928E-02 0. -1.
       -1   -1    0    0    0  501  0.00000000000E+00  0.00000000000E+00 -0.77836624869E+03  0.77836624870E+03  0.50400001928E-02 0.  1.
    10030    2    1    2    0    0  0.00000000000E+00  0.00000000000E+00 -0.56874773401E+02  0.14998577240E+04  0.14987789872E+04 0.  0.
        2    1    3    3  502    0 -0.16333575711E+03 -0.20184271973E+03 -0.73191244751E+03  0.77660471534E+03  0.25500000920E-02 0.  1.
       -2    1    3    3    0  502  0.16333575711E+03  0.20184271973E+03  0.67503767411E+03  0.72325300866E+03  0.25500000920E-02 0. -1.
</event>
<event>
 5   0  0.4948645E-04  0.1494614E+04  0.7818609E-02  0.8888042E-01
        2   -1    0    0  501    0  0.00000000000E+00  0.00000000000E+00  0.52448524707E+03  0.52448524708E+03  0.25500000920E-02 0. -1.
       -2   -1    0    0    0  501  0.00000000000E+00  0.00000000000E+00 -0.10647920965E+04  0.10647920965E+04  0.25500000920E-02 0.  1.
    10030    2    1    2    0    0  0.00000000000E+00  0.00000000000E+00 -0.54030684941E+03  0.15892773436E+04  0.14946139914E+04 0.  0.
        1    1    3    3  502    0 -0.35643215635E+03 -0.37423289941E+03  0.30382523948E+03  0.59950306192E+03  0.50400001928E-02 0. -1.
       -1    1    3    3    0  502  0.35643215635E+03  0.37423289941E+03 -0.84413208889E+03  0.98977428164E+03  0.50400001928E-02 0.  1.
</event>
<event>
 5   0  0.2605471E-04  0.1476047E+04  0.7818609E-02  0.8900539E-01
        1   -1    0    0  501    0  0.00000000000E+00  0.00000000000E+00  0.67348144090E+03  0.67348144092E+03  0.50400001928E-02 0.  1.
       -1   -1    0    0    0  501  0.00000000000E+00  0.00000000000E+00 -0.80875136540E+03  0.80875136542E+03  0.50400001928E-02 0. -1.
    10030    2    1    2    0    0  0.00000000000E+00  0.00000000000E+00 -0.13526992450E+03  0.14822328063E+04  0.14760474720E+04 0.  0.
        3    1    3    3  502    0 -0.31550715779E+02 -0.16139099951E+02 -0.80789643411E+03  0.80867334360E+03  0.10100000352E+00 0. -1.
       -3    1    3    3    0  502  0.31550715779E+02  0.16139099951E+02  0.67262650960E+03  0.67355946273E+03  0.10100000352E+00 0.  1.
</event>
<event>
 5   0  0.4569211E-04  0.1496005E+04  0.7818609E-02  0.8887114E-01
        2   -1    0    0  501    0  0.00000000000E+00  0.00000000000E+00  0.15059420480E+04  0.15059420480E+04  0.25500000920E-02 0. -1.
       -2   -1    0    0    0  501  0.00000000000E+00  0.00000000000E+00 -0.37153321838E+03  0.37153321838E+03  0.25500000920E-02 0.  1.
    10030    2    1    2    0    0  0.00000000000E+00  0.00000000000E+00  0.11344088296E+04  0.18774752664E+04  0.14960046735E+04 0.  0.
        5    1    3    3  502    0 -0.65428722438E+03 -0.23448504597E+03  0.22029386903E+03  0.72912720941E+03  0.46999998093E+01 0.  1.
       -5    1    3    3    0  502  0.65428722438E+03  0.23448504597E+03  0.91411496059E+03  0.11483480570E+04  0.46999998093E+01 0. -1.
</event>
<event>
 5   0  0.2605471E-04  0.1490839E+04  0.7818609E-02  0.8890568E-01
       -1   -1    0    0    0  501  0.00000000000E+00  0.00000000000E+00  0.41226867699E+03  0.41226867702E+03  0.50400001928E-02 0.  1.
        1   -1    0    0  501    0  0.00000000000E+00  0.00000000000E+00 -0.13477857749E+04  0.13477857750E+04  0.50400001928E-02 0. -1.
    10030    2    1    2    0    0  0.00000000000E+00  0.00000000000E+00 -0.93551709796E+03  0.17600544520E+04  0.14908385001E+04 0.  0.
        3    1    3    3  502    0  0.27518075691E+03 -0.42172980795E+03 -0.11166153306E+04  0.12249123587E+04  0.10100000352E+00 0. -1.
       -3    1    3    3    0  502 -0.27518075691E+03  0.42172980795E+03  0.18109823263E+03  0.53514209323E+03  0.10100000352E+00 0.  1.
</event>
<event>
 5   0  0.4726600E-04  0.1498614E+04  0.7818609E-02  0.8885375E-01
        2   -1    0    0  501    0  0.00000000000E+00  0.00000000000E+00  0.75536978544E+03  0.75536978544E+03  0.25500000920E-02 0. -1.
       -2   -1    0    0    0  501  0.00000000000E+00  0.00000000000E+00 -0.74329300750E+03  0.74329300750E+03  0.25500000920E-02 0.  1.
    10030    2    1    2    0    0  0.00000000000E+00  0.00000000000E+00  0.12076777936E+02  0.14986627929E+04  0.14986141326E+04 0.  0.
        2    1    3    3  502    0 -0.25261855169E+03  0.27981517462E+03 -0.64155380378E+03  0.74411285956E+03  0.25500000920E-02 0.  1.
       -2    1    3    3    0  502  0.25261855169E+03 -0.27981517462E+03  0.65363058172E+03  0.75454993339E+03  0.25500000920E-02 0. -1.
</event>
<event>
 5   0  0.2544374E-04  0.1495922E+04  0.7818609E-02  0.8887169E-01
        1   -1    0    0  501    0  0.00000000000E+00  0.00000000000E+00  0.19082399490E+04  0.19082399490E+04  0.50400001928E-02 0.  1.
       -1   -1    0    0    0  501  0.00000000000E+00  0.00000000000E+00 -0.29317359301E+03  0.29317359306E+03  0.50400001928E-02 0. -1.
    10030    2    1    2    0    0  0.00000000000E+00  0.00000000000E+00  0.16150663560E+04  0.22014135421E+04  0.14959218726E+04 0.  0.
        4    1    3    3  502    0 -0.38720418561E+03 -0.10195298888E+03 -0.12217318469E+03  0.41862798909E+03  0.12699999809E+01 0. -1.
       -4    1    3    3    0  502  0.38720418561E+03  0.10195298888E+03  0.17372395407E+04  0.17827855530E+04  0.12699999809E+01 0.  1.
</event>
<event>
 5   0  0.2565416E-04  0.1485509E+04  0.7818609E-02  0.8894147E-01
        1   -1    0    0  501    0  0.00000000000E+00  0.00000000000E+00  0.91356785340E+03  0.91356785341E+03  0.50400001928E-02 0. -1.
       -1   -1    0    0    0  501  0.00000000000E+00  0.00000000000E+00 -0.60387839263E+03  0.60387839265E+03  0.50400001928E-02 0.  1.
    10030    2    1    2    0    0  0.00000000000E+00  0.00000000000E+00  0.30968946077E+03  0.15174462461E+04  0.14855085148E+04 0.  0.
        5    1    3    3  502    0 -0.15217228426E+03 -0.70962949677E+03 -0.64466813286E+01  0.72580581182E+03  0.46999998093E+01 0.  1.
       -5    1    3    3    0  502  0.15217228426E+03  0.70962949677E+03  0.31613614210E+03  0.79164043424E+03  0.46999998093E+01 0. -1.
</event>
<event>
 5   0  0.2542737E-04  0.1490898E+04  0.7818609E-02  0.8890528E-01
       -1   -1    0    0    0  501  0.00000000000E+00  0.00000000000E+00  0.33258022979E+03  0.33258022982E+03  0.50400001928E-02 0. -1.
        1   -1    0    0  501    0  0.00000000000E+00  0.00000000000E+00 -0.16708580684E+04  0.16708580684E+04  0.50400001928E-02 0.  1.
    10030    2    1    2    0    0  0.00000000000E+00  0.00000000000E+00 -0.13382778387E+04  0.20034382983E+04  0.14908981996E+04 0.  0.
        1    1    3    3  502    0 -0.13148313389E+03  0.31048135750E+03  0.22425498224E+03  0.40494047086E+03  0.50400001928E-02 0. -1.
       -1    1    3    3    0  502  0.13148313389E+03 -0.31048135750E+03 -0.15625328209E+04  0.15984978274E+04  0.50400001928E-02 0.  1.
</event>
<event>
 5   0  0.2603873E-04  0.1490011E+04  0.7818609E-02  0.8891123E-01
       -1   -1    0    0    0  501  0.00000000000E+00  0.00000000000E+00  0.10832782379E+04  0.10832782379E+04  0.50400001928E-02 0. -1.
        1   -1    0    0  501    0  0.00000000000E+00  0.00000000000E+00 -0.51236405155E+03  0.51236405158E+03  0.50400001928E-02 0.  1.
    10030    2    1    2    0    0  0.00000000000E+00  0.00000000000E+00  0.57091418630E+03  0.15956422894E+04  0.14900105059E+04 0.  0.
        2    1    3    3  502    0  0.24587693412E+03  0.14242254895E+03 -0.45205584961E+03  0.53394207584E+03  0.25500000920E-02 0.  1.
       -2    1    3    3    0  502 -0.24587693412E+03 -0.14242254895E+03  0.10229700359E+04  0.10617002136E+04  0.25500000920E-02 0. -1.
</event>
<event>
 5   0  0.4768387E-04  0.1493133E+04  0.7818609E-02  0.8889032E-01
       -2   -1    0    0    0  501  0.00000000000E+00  0.00000000000E+00  0.82977420109E+03  0.82977420109E+03  0.25500000920E-02 0.  1.
        2   -1    0    0  501    0  0.00000000000E+00  0.00000000000E+00 -0.67170254952E+03  0.67170254952E+03  0.25500000920E-02 0. -1.
    10030    2    1    2    0    0  0.00000000000E+00  0.00000000000E+00  0.15807165157E+03  0.15014767506E+04  0.14931328761E+04 0.  0.
        3    1    3    3  502    0  0.51889795712E+03 -0.41756210912E+03 -0.26011468864E+03  0.71503347217E+03  0.10100000352E+00 0. -1.
       -3    1    3    3    0  502 -0.51889795712E+03  0.41756210912E+03  0.41818634021E+03  0.78644327845E+03  0.10100000352E+00 0.  1.
</event>
<event>
 5   0  0.4948645E-04  0.1572688E+04  0.7818609E-02  0.8837505E-01
       -2   -1    0    0    0  501  0.00000000000E+00  0.00000000000E+00  0.65791422388E+03  0.65791422388E+03  0.25500000920E-02 0.  1.
        2   -1    0    0  501    0  0.00000000000E+00  0.00000000000E+00 -0.93984386987E+03  0.93984386987E+03  0.25500000920E-02 0. -1.
    10030    2    1    2    0    0  0.00000000000E+00  0.00000000000E+00 -0.28192964600E+03  0.15977580938E+04  0.15726876997E+04 0.  0.
        1    1    3    3  502    0 -0.23685297064E+02  0.67560287137E+03 -0.54903489079E+03  0.87088434618E+03  0.50400001928E-02 0. -1.
       -1    1    3    3    0  502  0.23685297064E+02 -0.67560287137E+03  0.26710524479E+03  0.72687374758E+03  0.50400001928E-02 0.  1.
</event>
<event>
 5   0  0.2603873E-04  0.1502976E+04  0.7818609E-02  0.8882476E-01
       -1   -1    0    0    0  501  0.00000000000E+00  0.00000000000E+00  0.60431648339E+03  0.60431648341E+03  0.50400001928E-02 0.  1.
        1   -1    0    0  501    0  0.00000000000E+00  0.00000000000E+00 -0.93450067020E+03  0.93450067021E+03  0.50400001928E-02 0. -1.
    10030    2    1    2    0    0  0.00000000000E+00  0.00000000000E+00 -0.33018418681E+03  0.15388171536E+04  0.15029759263E+04 0.  0.
        2    1    3    3  502    0 -0.72226901328E+03 -0.20694898736E+03 -0.18074549783E+03  0.77276732973E+03  0.25500000920E-02 0.  1.
       -2    1    3    3    0  502  0.72226901328E+03  0.20694898736E+03 -0.14943868897E+03  0.76604982389E+03  0.25500000920E-02 0. -1.
</event>
<event>
 5   0  0.2544374E-04  0.1506851E+04  0.7818609E-02  0.8879910E-01
        1   -1    0    0  501    0  0.00000000000E+00  0.00000000000E+00  0.93351840408E+03  0.93351840409E+03  0.50400001928E-02 0. -1.
       -1   -1    0    0    0  501  0.00000000000E+00  0.00000000000E+00 -0.60807563409E+03  0.60807563412E+03  0.50400001928E-02 0.  1.
    10030    2    1    2    0    0  0.00000000000E+00  0.00000000000E+00  0.32544276998E+03  0.15415940382E+04  0.15068507498E+04 0.  0.
        4    1    3    3  502    0 -0.95356005687E+02  0.73505188723E+03  0.30094442708E+03  0.79997700331E+03  0.12699999809E+01 0. -1.
       -4    1    3    3    0  502  0.95356005687E+02 -0.73505188723E+03  0.24498342899E+02  0.74161703489E+03  0.12699999809E+01 0.  1.
</event>
<event>
 5   0  0.2605471E-04  0.1494989E+04  0.7818609E-02  0.8887792E-01
        1   -1    0    0  501    0  0.00000000000E+00  0.00000000000E+00  0.10982983469E+04  0.10982983469E+04  0.50400001928E-02 0. -1.
       -1   -1    0    0    0  501  0.00000000000E+00  0.00000000000E+00 -0.50873982721E+03  0.50873982724E+03  0.50400001928E-02 0.  1.
    10030    2    1    2    0    0  0.00000000000E+00  0.00000000000E+00  0.58955851969E+03  0.16070381741E+04  0.14949891120E+04 0.  0.
        3    1    3    3  502    0 -0.19682624616E+03  0.42971183920E+02 -0.47900613412E+03  0.51964793904E+03  0.10100000352E+00 0.  1.
       -3    1    3    3    0  502  0.19682624616E+03 -0.42971183920E+02  0.10685646538E+04  0.10873902351E+04  0.10100000352E+00 0. -1.
</event>
<event>
 5   0  0.2544374E-04  0.1487456E+04  0.7818609E-02  0.8892838E-01
        1   -1    0    0  501    0  0.00000000000E+00  0.00000000000E+00  0.79894233328E+03  0.79894233330E+03  0.50400001928E-02 0.  1.
       -1   -1    0    0    0  501  0.00000000000E+00  0.00000000000E+00 -0.69232937089E+03  0.69232937091E+03  0.50400001928E-02 0. -1.
    10030    2    1    2    0    0  0.00000000000E+00  0.00000000000E+00  0.10661296240E+03  0.14912717042E+04  0.14874558723E+04 0.  0.
        4    1    3    3  502    0 -0.16426934555E+03  0.35723568010E+03  0.68621660421E+03  0.79088342366E+03  0.12699999809E+01 0.  1.
       -4    1    3    3    0  502  0.16426934555E+03 -0.35723568010E+03 -0.57960364181E+03  0.70038828055E+03  0.12699999809E+01 0. -1.
</event>
<event>
 5   0  0.4726600E-04  0.1503022E+04  0.7818609E-02  0.8882446E-01
       -2   -1    0    0    0  501  0.00000000000E+00  0.00000000000E+00  0.81622804830E+03  0.81622804830E+03  0.25500000920E-02 0. -1.
        2   -1    0    0  501    0  0.00000000000E+00  0.00000000000E+00 -0.69192497492E+03  0.69192497492E+03  0.25500000920E-02 0.  1.
    10030    2    1    2    0    0  0.00000000000E+00  0.00000000000E+00  0.12430307338E+03  0.15081530232E+04  0.15030217189E+04 0.  0.
        2    1    3    3  502    0  0.52911292993E+03 -0.25715069774E+03  0.53138207833E+03  0.79275083547E+03  0.25500000920E-02 0. -1.
       -2    1    3    3    0  502 -0.52911292993E+03  0.25715069774E+03 -0.40707900495E+03  0.71540218775E+03  0.25500000920E-02 0.  1.
</event>
<event>
 5   0  0.4948645E-04  0.1519715E+04  0.7818609E-02  0.8871447E-01
       -2   -1    0    0    0  501  0.00000000000E+00  0.00000000000E+00  0.34621592675E+03  0.34621592675E+03  0.25500000920E-02 0.  1.
        2   -1    0    0  501    0  0.00000000000E+00  0.00000000000E+00 -0.16676983812E+04  0.16676983812E+04  0.25500000920E-02 0. -1.
    10030    2    1    2    0    0  0.00000000000E+00  0.00000000000E+00 -0.13214824545E+04  0.20139143080E+04  0.15197154215E+04 0.  0.
        1    1    3    3  502    0  0.58563595778E+03 -0.23850434364E+03 -0.10238093694E+03  0.64057447128E+03  0.50400001928E-02 0. -1.
       -1    1    3    3    0  502 -0.58563595778E+03  0.23850434364E+03 -0.12191015176E+04  0.13733398367E+04  0.50400001928E-02 0.  1.
</event>
<event>
 5   0  0.2542737E-04  0.1514124E+04  0.7818609E-02  0.8875114E-01
        1   -1    0    0  501    0  0.00000000000E+00  0.00000000000E+00  0.74248750691E+03  0.74248750692E+03  0.50400001928E-02 0. -1.
       -1   -1    0    0    0  501  0.00000000000E+00  0.00000000000E+00 -0.77192290986E+03  0.77192290988E+03  0.50400001928E-02 0.  1.
    10030    2    1    2    0    0  0.00000000000E+00  0.00000000000E+00 -0.29435402954E+02  0.15144104168E+04  0.15141243237E+04 0.  0.
        1    1    3    3  502    0 -0.59709928687E+03  0.40834108294E+03 -0.23808280006E+03  0.76154672746E+03  0.50400001928E-02 0.  1.
       -1    1    3    3    0  502  0.59709928687E+03 -0.40834108294E+03  0.20864739710E+03  0.75286368935E+03  0.50400001928E-02 0. -1.
</event>
<event>
 5   0  0.4726600E-04  0.1502915E+04  0.7818609E-02  0.8882517E-01
       -2   -1    0    0    0  501  0.00000000000E+00  0.00000000000E+00  0.70707361548E+03  0.70707361549E+03  0.25500000920E-02 0.  1.
        2   -1    0    0  501    0  0.00000000000E+00  0.00000000000E+00 -0.79862725991E+03  0.79862725992E+03  0.25500000920E-02 0. -1.
    10030    2    1    2    0    0  0.00000000000E+00  0.00000000000E+00 -0.91553644432E+02  0.15057008754E+04  0.15029148533E+04 0.  0.
        2    1    3    3  502    0  0.55500394677E+03  0.31809048649E+02  0.46077599381E+03  0.72204966103E+03  0.25500000920E-02 0.  1.
       -2    1    3    3    0  502 -0.55500394677E+03 -0.31809048649E+02 -0.55232963825E+03  0.78365121438E+03  0.25500000920E-02 0. -1.
</event>
<event>
 5   0  0.2605471E-04  0.1499234E+04  0.7818609E-02  0.8884963E-01
        1   -1    0    0  501    0  0.00000000000E+00  0.00000000000E+00  0.64387364241E+03  0.64387364243E+03  0.50400001928E-02 0.  1.
       -1   -1    0    0    0  501  0.00000000000E+00  0.00000000000E+00 -0.87272609860E+03  0.87272609862E+03  0.50400001928E-02 0. -1.
    10030    2    1    2    0    0  0.00000000000E+00  0.00000000000E+00 -0.22885245619E+03  0.15165997411E+04  0.14992335802E+04 0.  0.
        3    1    3    3  502    0 -0.50255427509E+03  0.55620506634E+03 -0.11375025898E+03  0.75819786788E+03  0.10100000352E+00 0.  1.
       -3    1    3    3    0  502  0.50255427509E+03 -0.55620506634E+03 -0.11510219720E+03  0.75840187317E+03  0.10100000352E+00 0. -1.
</event>
<event>
 5   0  0.4948645E-04  0.1561308E+04  0.7818609E-02  0.8844677E-01
       -2   -1    0    0    0  501  0.00000000000E+00  0.00000000000E+00  0.27624025720E+03  0.27624025721E+03  0.25500000920E-02 0.  1.
        2   -1    0    0  501    0  0.00000000000E+00  0.00000000000E+00 -0.22061249749E+04  0.22061249749E+04  0.25500000920E-02 0. -1.
    10030    2    1    2    0    0  0.00000000000E+00  0.00000000000E+00 -0.19298847177E+04  0.24823652321E+04  0.15613078242E+04 0.  0.
        1    1    3    3  502    0 -0.65933224214E+02 -0.71253041943E+03 -0.46880940629E+03  0.85547007435E+03  0.50400001928E-02 0.  1.
       -1    1    3    3    0  502  0.65933224214E+02  0.71253041943E+03 -0.14610753114E+04  0.16268951577E+04  0.50400001928E-02 0. -1.
</event>
<event>
 5   0  0.2605471E-04  0.1479059E+04  0.7818609E-02  0.8898499E-01
        1   -1    0    0  501    0  0.00000000000E+00  0.00000000000E+00  0.94887106446E+03  0.94887106447E+03  0.50400001928E-02 0. -1.
       -1   -1    0    0    0  501  0.00000000000E+00  0.00000000000E+00 -0.57637337295E+03  0.57637337297E+03  0.50400001928E-02 0.  1.
    10030    2    1    2    0    0  0.00000000000E+00  0.00000000000E+00  0.37249769151E+03  0.15252444374E+04  0.14790591820E+04 0.  0.
        3    1    3    3  502    0 -0.43979571842E+03  0.49615245522E+02 -0.42472286604E+03  0.61340970784E+03  0.10100000352E+00 0.  1.
       -3    1    3    3    0  502  0.43979571842E+03 -0.49615245522E+02  0.79722055755E+03  0.91183472961E+03  0.10100000352E+00 0. -1.
</event>
<event>
 5   0  0.4569211E-04  0.1496621E+04  0.7818609E-02  0.8886703E-01
        2   -1    0    0  501    0  0.00000000000E+00  0.00000000000E+00  0.72549493881E+03  0.72549493882E+03  0.25500000920E-02 0. -1.
       -2   -1    0    0    0  501  0.00000000000E+00  0.00000000000E+00 -0.77184362869E+03  0.77184362869E+03  0.25500000920E-02 0.  1.
    10030    2    1    2    0    0  0.00000000000E+00  0.00000000000E+00 -0.46348689878E+02  0.14973385675E+04  0.14966210558E+04 0.  0.
        5    1    3    3  502    0 -0.67336357631E+03  0.12707687796E+03 -0.32395033771E+03  0.75797951827E+03  0.46999998093E+01 0.  1.
       -5    1    3    3    0  502  0.67336357631E+03 -0.12707687796E+03  0.27760164784E+03  0.73935904924E+03  0.46999998093E+01 0. -1.
</event>
<event>
 5   0  0.4948645E-04  0.1505101E+04  0.7818609E-02  0.8881068E-01
        2   -1    0    0  501    0  0.00000000000E+00  0.00000000000E+00  0.10328439795E+04  0.10328439795E+04  0.25500000920E-02 0. -1.
       -2   -1    0    0    0  501  0.00000000000E+00  0.00000000000E+00 -0.54832349416E+03  0.54832349417E+03  0.25500000920E-02 0.  1.
    10030    2    1    2    0    0  0.00000000000E+00  0.00000000000E+00  0.48452048529E+03  0.15811674736E+04  0.15051014846E+04 0.  0.
        1    1    3    3  502    0 -0.58771487870E+03  0.28443583165E+03 -0.15084358949E+03  0.67012410006E+03  0.50400001928E-02 0.  1.
       -1    1    3    3    0  502  0.58771487870E+03 -0.28443583165E+03  0.63536407478E+03  0.91104337356E+03  0.50400001928E-02 0. -1.
</event>
<event>
 5   0  0.2603873E-04  0.1502668E+04  0.7818609E-02  0.8882680E-01
       -1   -1    0    0    0  501  0.00000000000E+00  0.00000000000E+00  0.63584520464E+03  0.63584520466E+03  0.50400001928E-02 0.  1.
        1   -1    0    0  501    0  0.00000000000E+00  0.00000000000E+00 -0.88779951154E+03  0.88779951155E+03  0.50400001928E-02 0. -1.
    10030    2    1    2    0    0  0.00000000000E+00  0.00000000000E+00 -0.25195430689E+03  0.15236447162E+04  0.15026683761E+04 0.  0.
        2    1    3    3  502    0 -0.97542468249E+02  0.64353243387E+03  0.25456781248E+03  0.69889433945E+03  0.25500000920E-02 0.  1.
       -2    1    3    3    0  502  0.97542468249E+02 -0.64353243387E+03 -0.50652211937E+03  0.82475037677E+03  0.25500000920E-02 0. -1.
</event>
<event>
 5   0  0.4726600E-04  0.1503910E+04  0.7818609E-02  0.8881857E-01
       -2   -1    0    0    0  501  0.00000000000E+00  0.00000000000E+00  0.10813709066E+04  0.10813709066E+04  0.25500000920E-02 0.  1.
        2   -1    0    0  501    0  0.00000000000E+00  0.00000000000E+00 -0.52288814368E+03  0.52288814368E+03  0.25500000920E-02 0. -1.
    10030    2    1    2    0    0  0.00000000000E+00  0.00000000000E+00  0.55848276290E+03  0.16042590503E+04  0.15039096063E+04 0.  0.
        2    1    3    3  502    0 -0.14838028227E+03  0.16646236469E+03 -0.48680554089E+03  0.53544940160E+03  0.25500000920E-02 0. -1.
       -2    1    3    3    0  502  0.14838028227E+03 -0.16646236469E+03  0.10452883038E+04  0.10688096487E+04  0.25500000920E-02 0.  1.
</event>
<event>
 5   0  0.4948645E-04  0.1521859E+04  0.7818609E-02  0.8870046E-01
        2   -1    0    0  501    0  0.00000000000E+00  0.00000000000E+00  0.10505554134E+04  0.10505554134E+04  0.25500000920E-02 0.  1.
       -2   -1    0    0    0  501  0.00000000000E+00  0.00000000000E+00 -0.55114976307E+03  0.55114976307E+03  0.25500000920E-02 0. -1.
    10030    2    1    2    0    0  0.00000000000E+00  0.00000000000E+00  0.49940565034E+03  0.16017051765E+04  0.15218585574E+04 0.  0.
        1    1    3    3  502    0  0.67385053748E+03  0.22636953222E+03  0.53541531814E+03  0.88993666904E+03  0.50400001928E-02 0.  1.
       -1    1    3    3    0  502 -0.67385053748E+03 -0.22636953222E+03 -0.36009667796E+02  0.71176850744E+03  0.50400001928E-02 0. -1.
</event>
<event>
 5   0  0.2603873E-04  0.1501259E+04  0.7818609E-02  0.8883616E-01
        1   -1    0    0  501    0  0.00000000000E+00  0.00000000000E+00  0.11228702974E+04  0.11228702974E+04  0.50400001928E-02 0.  1.
       -1   -1    0    0    0  501  0.00000000000E+00  0.00000000000E+00 -0.50178948104E+03  0.50178948106E+03  0.50400001928E-02 0. -1.
    10030    2    1    2    0    0  0.00000000000E+00  0.00000000000E+00  0.62108081637E+03  0.16246597785E+04  0.15012588103E+04 0.  0.
        2    1    3    3  502    0 -0.13992885087E+03  0.13942670505E+03 -0.47315696936E+03  0.51273522119E+03  0.25500000920E-02 0. -1.
       -2    1    3    3    0  502  0.13992885087E+03 -0.13942670505E+03  0.10942377857E+04  0.11119245573E+04  0.25500000920E-02 0.  1.
</event>
<event>
 5   0  0.2544374E-04  0.1499147E+04  0.7818609E-02  0.8885020E-01
        1   -1    0    0  501    0  0.00000000000E+00  0.00000000000E+00  0.98793317755E+03  0.98793317756E+03  0.50400001928E-02 0. -1.
       -1   -1    0    0    0  501  0.00000000000E+00  0.00000000000E+00 -0.56872300316E+03  0.56872300318E+03  0.50400001928E-02 0.  1.
    10030    2    1    2    0    0  0.00000000000E+00  0.00000000000E+00  0.41921017439E+03  0.15566561807E+04  0.14991468556E+04 0.  0.
        4    1    3    3  502    0  0.56881229454E+03  0.42334145329E+03 -0.42811352972E+02  0.71035191091E+03  0.12699999809E+01 0.  1.
       -4    1    3    3    0  502 -0.56881229454E+03 -0.42334145329E+03  0.46202152736E+03  0.84630426983E+03  0.12699999809E+01 0. -1.
</event>
<event>
 5   0  0.4569211E-04  0.1494033E+04  0.7818609E-02  0.8888431E-01
       -2   -1    0    0    0  501  0.00000000000E+00  0.00000000000E+00  0.17449584988E+04  0.17449584988E+04  0.25500000920E-02 0. -1.
        2   -1    0    0  501    0  0.00000000000E+00  0.00000000000E+00 -0.31979748033E+03  0.31979748034E+03  0.25500000920E-02 0.  1.
    10030    2    1    2    0    0  0.00000000000E+00  0.00000000000E+00  0.14251610185E+04  0.20647559791E+04  0.14940325716E+04 0.  0.
        5    1    3    3  502    0 -0.60339581280E+03 -0.25045689457E+03  0.21200558145E+03  0.68686506645E+03  0.46999998093E+01 0.  1.
       -5    1    3    3    0  502  0.60339581280E+03  0.25045689457E+03  0.12131554370E+04  0.13778909127E+04  0.46999998093E+01 0. -1.
</event>
<event>
 5   0  0.2605471E-04  0.1549477E+04  0.7818609E-02  0.8852202E-01
        1   -1    0    0  501    0  0.00000000000E+00  0.00000000000E+00  0.58759261768E+03  0.58759261770E+03  0.50400001928E-02 0. -1.
       -1   -1    0    0    0  501  0.00000000000E+00  0.00000000000E+00 -0.10214899401E+04  0.10214899401E+04  0.50400001928E-02 0.  1.
    10030    2    1    2    0    0  0.00000000000E+00  0.00000000000E+00 -0.43389732240E+03  0.16090825578E+04  0.15494772639E+04 0.  0.
        3    1    3    3  502    0 -0.14376212216E+03 -0.74063063430E+03 -0.34052500362E+02  0.75522239586E+03  0.10100000352E+00 0. -1.
       -3    1    3    3    0  502  0.14376212216E+03  0.74063063430E+03 -0.39984482204E+03  0.85386016194E+03  0.10100000352E+00 0.  1.
</event>
<event>
 5   0  0.2605471E-04  0.1497480E+04  0.7818609E-02  0.8886131E-01
       -1   -1    0    0    0  501  0.00000000000E+00  0.00000000000E+00  0.47253597458E+03  0.47253597460E+03  0.50400001928E-02 0. -1.
        1   -1    0    0  501    0  0.00000000000E+00  0.00000000000E+00 -0.11863889075E+04  0.11863889075E+04  0.50400001928E-02 0.  1.
    10030    2    1    2    0    0  0.00000000000E+00  0.00000000000E+00 -0.71385293290E+03  0.16589248821E+04  0.14974798011E+04 0.  0.
        3    1    3    3  502    0 -0.27610456789E+03 -0.48581151243E+03  0.19516474265E+03  0.59189175108E+03  0.10100000352E+00 0. -1.
       -3    1    3    3    0  502  0.27610456789E+03  0.48581151243E+03 -0.90901767555E+03  0.10670331310E+04  0.10100000352E+00 0.  1.
</event>
<event>
 5   0  0.4768387E-04  0.1417047E+04  0.7818609E-02  0.8941570E-01
       -2   -1    0    0    0  501  0.00000000000E+00  0.00000000000E+00  0.47168817455E+03  0.47168817455E+03  0.25500000920E-02 0. -1.
        2   -1    0    0  501    0  0.00000000000E+00  0.00000000000E+00 -0.10642748636E+04  0.10642748636E+04  0.25500000920E-02 0.  1.
    10030    2    1    2    0    0  0.00000000000E+00  0.00000000000E+00 -0.59258668905E+03  0.15359630381E+04  0.14170474482E+04 0.  0.
        3    1    3    3  502    0 -0.31531515111E+03  0.37625009033E+03 -0.85006620761E+03  0.98163146980E+03  0.10100000352E+00 0.  1.
       -3    1    3    3    0  502  0.31531515111E+03 -0.37625009033E+03  0.25747951856E+03  0.55433156835E+03  0.10100000352E+00 0. -1.
</event>
<event>
 5   0  0.4569211E-04  0.1511939E+04  0.7818609E-02  0.8876552E-01
        2   -1    0    0  501    0  0.00000000000E+00  0.00000000000E+00  0.13649757737E+04  0.13649757737E+04  0.25500000920E-02 0. -1.
       -2   -1    0    0    0  501  0.00000000000E+00  0.00000000000E+00 -0.41868115820E+03  0.41868115821E+03  0.25500000920E-02 0.  1.
    10030    2    1    2    0    0  0.00000000000E+00  0.00000000000E+00  0.94629461547E+03  0.17836569319E+04  0.15119386731E+04 0.  0.
        5    1    3    3  502    0  0.31097411890E+02 -0.68941199219E+03  0.83716466355E+03  0.10849528598E+04  0.46999998093E+01 0. -1.
       -5    1    3    3    0  502 -0.31097411890E+02  0.68941199219E+03  0.10912995192E+03  0.69870407212E+03  0.46999998093E+01 0.  1.
</event>
<event>
 5   0  0.2565416E-04  0.1498720E+04  0.7818609E-02  0.8885305E-01
       -1   -1    0    0    0  501  0.00000000000E+00  0.00000000000E+00  0.44116858876E+03  0.44116858879E+03  0.50400001928E-02 0.  1.
        1   -1    0    0  501    0  0.00000000000E+00  0.00000000000E+00 -0.12728468818E+04  0.12728468818E+04  0.50400001928E-02 0. -1.
    10030    2    1    2    0    0  0.00000000000E+00  0.00000000000E+00 -0.83167829301E+03  0.17140154706E+04  0.14987195369E+04 0.  0.
        5    1    3    3  502    0  0.38349682420E+02 -0.58521743794E+03  0.11760837748E+03  0.59816717417E+03  0.46999998093E+01 0.  1.
       -5    1    3    3    0  502 -0.38349682420E+02  0.58521743794E+03 -0.94928667049E+03  0.11158482964E+04  0.46999998093E+01 0. -1.
</event>
<event>
 5   0  0.2603873E-04  0.1511882E+04  0.7818609E-02  0.8876590E-01
       -1   -1    0    0    0  501  0.00000000000E+00  0.00000000000E+00  0.41885713380E+03  0.41885713383E+03  0.50400001928E-02 0.  1.
        1   -1    0    0  501    0  0.00000000000E+00  0.00000000000E+00 -0.13643006564E+04  0.13643006564E+04  0.50400001928E-02 0. -1.
    10030    2    1    2    0    0  0.00000000000E+00  0.00000000000E+00 -0.94544352257E+03  0.17831577902E+04  0.15118823534E+04 0.  0.
        2    1    3    3  502    0 -0.32591059540E+03 -0.24381557073E+03 -0.12240312425E+04  0.12899287699E+04  0.25500000920E-02 0. -1.
       -2    1    3    3    0  502  0.32591059540E+03  0.24381557073E+03  0.27858771998E+03  0.49322902029E+03  0.25500000920E-02 0.  1.
</event>
<event>
 5   0  0.4785496E-04  0.1502355E+04  0.7818609E-02  0.8882889E-01
        2   -1    0    0  501    0  0.00000000000E+00  0.00000000000E+00  0.12403534600E+04  0.12403534600E+04  0.25500000920E-02 0. -1.
       -2   -1    0    0    0  501  0.00000000000E+00  0.00000000000E+00 -0.45492464583E+03  0.45492464584E+03  0.25500000920E-02 0.  1.
    10030    2    1    2    0    0  0.00000000000E+00  0.00000000000E+00  0.78542881415E+03  0.16952781058E+04  0.15023546299E+04 0.  0.
        4    1    3    3  502    0 -0.45359308146E+01  0.29421423425E+03  0.11726135749E+04  0.12089693128E+04  0.12699999809E+01 0. -1.
       -4    1    3    3    0  502  0.45359308146E+01 -0.29421423425E+03 -0.38718476077E+03  0.48630879303E+03  0.12699999809E+01 0.  1.
</event>
<event>
 5   0  0.4569211E-04  0.1502183E+04  0.7818609E-02  0.8883002E-01
       -2   -1    0    0    0  501  0.00000000000E+00  0.00000000000E+00  0.37153403269E+03  0.37153403270E+03  0.25500000920E-02 0.  1.
        2   -1    0    0  501    0  0.00000000000E+00  0.00000000000E+00 -0.15184034976E+04  0.15184034976E+04  0.25500000920E-02 0. -1.
    10030    2    1    2    0    0  0.00000000000E+00  0.00000000000E+00 -0.11468694649E+04  0.18899375303E+04  0.15021831775E+04 0.  0.
        5    1    3    3  502    0 -0.39000310536E+03  0.31928968349E+03 -0.12740073226E+04  0.13700967383E+04  0.46999998093E+01 0. -1.
       -5    1    3    3    0  502  0.39000310536E+03 -0.31928968349E+03  0.12713785771E+03  0.51984079201E+03  0.46999998093E+01 0.  1.
</event>
<event>
 5   0  0.2542737E-04  0.1492604E+04  0.7818609E-02  0.8889386E-01
       -1   -1    0    0    0  501  0.00000000000E+00  0.00000000000E+00  0.37160400883E+03  0.37160400886E+03  0.50400001928E-02 0.  1.
        1   -1    0    0  501    0  0.00000000000E+00  0.00000000000E+00 -0.14988170934E+04  0.14988170934E+04  0.50400001928E-02 0. -1.
    10030    2    1    2    0    0  0.00000000000E+00  0.00000000000E+00 -0.11272130845E+04  0.18704211022E+04  0.14926036854E+04 0.  0.
        1    1    3    3  502    0  0.23175227669E+03 -0.41371980531E+03 -0.12857523679E+04  0.13704132029E+04  0.50400001928E-02 0. -1.
       -1    1    3    3    0  502 -0.23175227669E+03  0.41371980531E+03  0.15853928334E+03  0.50000789938E+03  0.50400001928E-02 0.  1.
</event>
<event>
 5   0  0.4726600E-04  0.1552096E+04  0.7818609E-02  0.8850530E-01
        2   -1    0    0  501    0  0.00000000000E+00  0.00000000000E+00  0.13717877627E+04  0.13717877627E+04  0.25500000920E-02 0. -1.
       -2   -1    0    0    0  501  0.00000000000E+00  0.00000000000E+00 -0.43902584872E+03  0.43902584873E+03  0.25500000920E-02 0.  1.
    10030    2    1    2    0    0  0.00000000000E+00  0.00000000000E+00  0.93276191401E+03  0.18108136115E+04  0.15520957275E+04 0.  0.
        2    1    3    3  502    0 -0.37157460774E+02 -0.43107971825E+03 -0.28524222205E+03  0.51824079888E+03  0.25500000920E-02 0.  1.
       -2    1    3    3    0  502  0.37157460774E+02  0.43107971825E+03  0.12180041361E+04  0.12925728126E+04  0.25500000920E-02 0. -1.
</event>
<event>
 5   0  0.2603873E-04  0.1487059E+04  0.7818609E-02  0.8893105E-01
        1   -1    0    0  501    0  0.00000000000E+00  0.00000000000E+00  0.97205568896E+03  0.97205568897E+03  0.50400001928E-02 0. -1.
       -1   -1    0    0    0  501  0.00000000000E+00  0.00000000000E+00 -0.56872869907E+03  0.56872869909E+03  0.50400001928E-02 0.  1.
    10030    2    1    2    0    0  0.00000000000E+00  0.00000000000E+00  0.40332698989E+03  0.15407843881E+04  0.14870587983E+04 0.  0.
        2    1    3    3  502    0  0.57142168035E+03  0.47527302036E+03  0.18020820380E+03  0.76477590011E+03  0.25500000920E-02 0. -1.
       -2    1    3    3    0  502 -0.57142168035E+03 -0.47527302036E+03  0.22311878609E+03  0.77600848795E+03  0.25500000920E-02 0.  1.
</event>
<event>
 5   0  0.4948645E-04  0.1512275E+04  0.7818609E-02  0.8876331E-01
        2   -1    0    0  501    0  0.00000000000E+00  0.00000000000E+00  0.11542263700E+04  0.11542263700E+04  0.25500000920E-02 0.  1.
       -2   -1    0    0    0  501  0.00000000000E+00  0.00000000000E+00 -0.49534826818E+03  0.49534826819E+03  0.25500000920E-02 0. -1.
    10030    2    1    2    0    0  0.00000000000E+00  0.00000000000E+00  0.65887810181E+03  0.16495746382E+04  0.15122751515E+04 0.  0.
        1    1    3    3  502    0 -0.50356505736E+03 -0.53315627927E+03  0.53030633198E+03  0.90501833732E+03  0.50400001928E-02 0.  1.
       -1    1    3    3    0  502  0.50356505736E+03  0.53315627927E+03  0.12857176983E+03  0.74455630086E+03  0.50400001928E-02 0. -1.
</event>
<event>
 5   0  0.2605471E-04  0.1495276E+04  0.7818609E-02  0.8887601E-01
        1   -1    0    0  501    0  0.00000000000E+00  0.00000000000E+00  0.11938932129E+04  0.11938932129E+04  0.50400001928E-02 0. -1.
       -1   -1    0    0    0  501  0.00000000000E+00  0.00000000000E+00 -0.46818443390E+03  0.46818443393E+03  0.50400001928E-02 0.  1.
    10030    2    1    2    0    0  0.00000000000E+00  0.00000000000E+00  0.72570877898E+03  0.16620776468E+04  0.14952755171E+04 0.  0.
        3    1    3    3  502    0 -0.33598371574E+03 -0.33820848447E+03 -0.27731911728E+03  0.55152147666E+03  0.10100000352E+00 0.  1.
       -3    1    3    3    0  502  0.33598371574E+03  0.33820848447E+03  0.10030278963E+04  0.11105561702E+04  0.10100000352E+00 0. -1.
</event>
<event>
 5   0  0.2605471E-04  0.1500400E+04  0.7818609E-02  0.8884187E-01
       -1   -1    0    0    0  501  0.00000000000E+00  0.00000000000E+00  0.57896871222E+03  0.57896871224E+03  0.50400001928E-02 0.  1.
        1   -1    0    0  501    0  0.00000000000E+00  0.00000000000E+00 -0.97207276549E+03  0.97207276550E+03  0.50400001928E-02 0. -1.
    10030    2    1    2    0    0  0.00000000000E+00  0.00000000000E+00 -0.39310405327E+03  0.15510414777E+04  0.15003995698E+04 0.  0.
        3    1    3    3  502    0 -0.62382863738E+02 -0.70513818192E+03  0.60202219565E+02  0.71044760168E+03  0.10100000352E+00 0.  1.
       -3    1    3    3    0  502  0.62382863738E+02  0.70513818192E+03 -0.45330627283E+03  0.84059387607E+03  0.10100000352E+00 0. -1.
</event>
<event>
 5   0  0.4785496E-04  0.1505927E+04  0.7818609E-02  0.8880521E-01
       -2   -1    0    0    0  501  0.00000000000E+00  0.00000000000E+00  0.54513396640E+03  0.54513396640E+03  0.25500000920E-02 0. -1.
        2   -1    0    0  501    0  0.00000000000E+00  0.00000000000E+00 -0.10400262943E+04  0.10400262943E+04  0.25500000920E-02 0.  1.
    10030    2    1    2    0    0  0.00000000000E+00  0.00000000000E+00 -0.49489232794E+03  0.15851602607E+04  0.15059265042E+04 0.  0.
        4    1    3    3  502    0  0.47812170902E+03 -0.30746402593E+03  0.27231267184E+03  0.63030968580E+03  0.12699999809E+01 0. -1.
       -4    1    3    3    0  502 -0.47812170902E+03  0.30746402593E+03 -0.76720499977E+03  0.95485057493E+03  0.12699999809E+01 0.  1.
</event>
<event>
 5   0  0.4948645E-04  0.1495912E+04  0.7818609E-02  0.8887176E-01
        2   -1    0    0  501    0  0.00000000000E+00  0.00000000000E+00  0.10027368014E+04  0.10027368014E+04  0.25500000920E-02 0. -1.
       -2   -1    0    0    0  501  0.00000000000E+00  0.00000000000E+00 -0.55791131705E+03  0.55791131705E+03  0.25500000920E-02 0.  1.
    10030    2    1    2    0    0  0.00000000000E+00  0.00000000000E+00  0.44482548436E+03  0.15606481185E+04  0.14959120422E+04 0.  0.
        1    1    3    3  502    0  0.10503650641E+03  0.69813653194E+03 -0.35280327037E+02  0.70687480250E+03  0.50400001928E-02 0.  1.
       -1    1    3    3    0  502 -0.10503650641E+03 -0.69813653194E+03  0.48010581140E+03  0.85377331597E+03  0.50400001928E-02 0. -1.
</event>
<event>
 5   0  0.1792000E-04  0.1512657E+04  0.7818609E-02  0.8876080E-01
        4   -1    0    0  501    0  0.00000000000E+00  0.00000000000E+00  0.36393570640E+03  0.36393792231E+03  0.12699999809E+01 0.  1.
       -4   -1    0    0    0  501  0.00000000000E+00  0.00000000000E+00 -0.15717885884E+04  0.15717891015E+04  0.12699999809E+01 0. -1.
    10030    2    1    2    0    0  0.00000000000E+00  0.00000000000E+00 -0.12078528820E+04  0.19357270238E+04  0.15126567773E+04 0.  0.
        2    1    3    3  502    0  0.68087580686E+03  0.23100484789E+03 -0.30360182317E+03  0.78046727744E+03  0.25500000920E-02 0.  1.
       -2    1    3    3    0  502 -0.68087580686E+03 -0.23100484789E+03 -0.90425105881E+03  0.11552597463E+04  0.25500000920E-02 0. -1.
</event>
<event>
 5   0  0.2544374E-04  0.1490112E+04  0.7818609E-02  0.8891055E-01
       -1   -1    0    0    0  501  0.00000000000E+00  0.00000000000E+00  0.36610290487E+03  0.36610290490E+03  0.50400001928E-02 0.  1.
        1   -1    0    0  501    0  0.00000000000E+00  0.00000000000E+00 -0.15162636281E+04  0.15162636281E+04  0.50400001928E-02 0. -1.
    10030    2    1    2    0    0  0.00000000000E+00  0.00000000000E+00 -0.11501607233E+04  0.18823665330E+04  0.14901121016E+04 0.  0.
        4    1    3    3  502    0  0.13769718430E+03 -0.19950267803E+03 -0.14650539300E+04  0.14849735566E+04  0.12699999809E+01 0. -1.
       -4    1    3    3    0  502 -0.13769718430E+03  0.19950267803E+03  0.31489320678E+03  0.39739297639E+03  0.12699999809E+01 0.  1.
</event>
<event>
 5   0  0.2565416E-04  0.1496219E+04  0.7818609E-02  0.8886971E-01
       -1   -1    0    0    0  501  0.00000000000E+00  0.00000000000E+00  0.82390532085E+03  0.82390532086E+03  0.50400001928E-02 0. -1.
        1   -1    0    0  501    0  0.00000000000E+00  0.00000000000E+00 -0.67928698796E+03  0.67928698798E+03  0.50400001928E-02 0.  1.
    10030    2    1    2    0    0  0.00000000000E+00  0.00000000000E+00  0.14461833289E+03  0.15031923088E+04  0.14962194542E+04 0.  0.
        5    1    3    3  502    0 -0.31666439533E+03 -0.18755464496E+02  0.75297521769E+03  0.81708131491E+03  0.46999998093E+01 0. -1.
       -5    1    3    3    0  502  0.31666439533E+03  0.18755464496E+02 -0.60835688480E+03  0.68611099394E+03  0.46999998093E+01 0.  1.
</event>
<event>
 5   0  0.4726600E-04  0.1500539E+04  0.7818609E-02  0.8884095E-01
        2   -1    0    0  501    0  0.00000000000E+00  0.00000000000E+00  0.13235293280E+04  0.13235293280E+04  0.25500000920E-02 0.  1.
       -2   -1    0    0    0  501  0.00000000000E+00  0.00000000000E+00 -0.42530525994E+03  0.42530525995E+03  0.25500000920E-02 0. -1.
    10030    2    1    2    0    0  0.00000000000E+00  0.00000000000E+00  0.89822406808E+03  0.17488345880E+04  0.15005385499E+04 0.  0.
        2    1    3    3  502    0  0.92990983230E+02 -0.36832744993E+03 -0.30493217015E+03  0.48713043606E+03  0.25500000920E-02 0. -1.
       -2    1    3    3    0  502 -0.92990983230E+02  0.36832744993E+03  0.12031562382E+04  0.12617041519E+04  0.25500000920E-02 0.  1.
</event>
<event>
 5   0  0.2544374E-04  0.1510770E+04  0.7818609E-02  0.8877323E-01
        1   -1    0    0  501    0  0.00000000000E+00  0.00000000000E+00  0.31956471044E+03  0.31956471048E+03  0.50400001928E-02 0. -1.
       -1   -1    0    0    0  501  0.00000000000E+00  0.00000000000E+00 -0.17855734656E+04  0.17855734656E+04  0.50400001928E-02 0.  1.
    10030    2    1    2    0    0  0.00000000000E+00  0.00000000000E+00 -0.14660087552E+04  0.21051381761E+04  0.15107696946E+04 0.  0.
        4    1    3    3  502    0 -0.47629617775E+03 -0.39744610207E+03 -0.13336047043E+04  0.14708244536E+04  0.12699999809E+01 0.  1.
       -4    1    3    3    0  502  0.47629617775E+03  0.39744610207E+03 -0.13240405086E+03  0.63431372252E+03  0.12699999809E+01 0. -1.
</event>
<event>
 5   0  0.4569211E-04  0.1494641E+04  0.7818609E-02  0.8888025E-01
        2   -1    0    0  501    0  0.00000000000E+00  0.00000000000E+00  0.54192037389E+03  0.54192037390E+03  0.25500000920E-02 0. -1.
       -2   -1    0    0    0  501  0.00000000000E+00  0.00000000000E+00 -0.10305716635E+04  0.10305716635E+04  0.25500000920E-02 0.  1.
    10030    2    1    2    0    0  0.00000000000E+00  0.00000000000E+00 -0.48865128957E+03  0.15724920374E+04  0.14946408012E+04 0.  0.
        5    1    3    3  502    0  0.68037283613E+03  0.24751338183E+03 -0.43916243042E+03  0.84679147411E+03  0.46999998093E+01 0.  1.
       -5    1    3    3    0  502 -0.68037283613E+03 -0.24751338183E+03 -0.49488859150E+02  0.72570056325E+03  0.46999998093E+01 0. -1.
</event>
<event>
 5   0  0.2565416E-04  0.1505295E+04  0.7818609E-02  0.8880939E-01
        1   -1    0    0  501    0  0.00000000000E+00  0.00000000000E+00  0.12726288860E+04  0.12726288860E+04  0.50400001928E-02 0.  1.
       -1   -1    0    0    0  501  0.00000000000E+00  0.00000000000E+00 -0.44512443318E+03  0.44512443321E+03  0.50400001928E-02 0. -1.
    10030    2    1    2    0    0  0.00000000000E+00  0.00000000000E+00  0.82750445280E+03  0.17177533192E+04  0.15052949366E+04 0.  0.
        5    1    3    3  502    0  0.29280168108E+03 -0.58350073144E+03 -0.13604880076E+02  0.65300314762E+03  0.46999998093E+01 0. -1.
       -5    1    3    3    0  502 -0.29280168108E+03  0.58350073144E+03  0.84110933288E+03  0.10647501716E+04  0.46999998093E+01 0.  1.
</event>
<event>
 5   0  0.2542737E-04  0.1500626E+04  0.7818609E-02  0.8884037E-01
       -1   -1    0    0    0  501  0.00000000000E+00  0.00000000000E+00  0.67070577768E+03  0.67070577769E+03  0.50400001928E-02 0. -1.
        1   -1    0    0  501    0  0.00000000000E+00  0.00000000000E+00 -0.83936884296E+03  0.83936884297E+03  0.50400001928E-02 0.  1.
    10030    2    1    2    0    0  0.00000000000E+00  0.00000000000E+00 -0.16866306528E+03  0.15100746207E+04  0.15006259129E+04 0.  0.
        1    1    3    3  502    0 -0.49589058314E+03 -0.81625117474E+02  0.47631146877E+03  0.69241804248E+03  0.50400001928E-02 0. -1.
       -1    1    3    3    0  502  0.49589058314E+03  0.81625117474E+02 -0.64497453405E+03  0.81765657818E+03  0.50400001928E-02 0.  1.
</event>
<event>
 5   0  0.4726600E-04  0.1516289E+04  0.7818609E-02  0.8873693E-01
       -2   -1    0    0    0  501  0.00000000000E+00  0.00000000000E+00  0.47231116060E+03  0.47231116060E+03  0.25500000920E-02 0. -1.
        2   -1    0    0  501    0  0.00000000000E+00  0.00000000000E+00 -0.12169579730E+04  0.12169579730E+04  0.25500000920E-02 0.  1.
    10030    2    1    2    0    0  0.00000000000E+00  0.00000000000E+00 -0.74464681240E+03  0.16892691336E+04  0.15162886699E+04 0.  0.
        2    1    3    3  502    0  0.20733182814E+03  0.72418687643E+03 -0.27681267569E+03  0.80253247684E+03  0.25500000920E-02 0. -1.
       -2    1    3    3    0  502 -0.20733182814E+03 -0.72418687643E+03 -0.46783413671E+03  0.88673665675E+03  0.25500000920E-02 0.  1.
</event>
<event>
 5   0  0.2565416E-04  0.1511619E+04  0.7818609E-02  0.8876763E-01
       -1   -1    0    0    0  501  0.00000000000E+00  0.00000000000E+00  0.63929419568E+03  0.63929419570E+03  0.50400001928E-02 0. -1.
        1   -1    0    0  501    0  0.00000000000E+00  0.00000000000E+00 -0.89356016827E+03  0.89356016828E+03  0.50400001928E-02 0.  1.
    10030    2    1    2    0    0  0.00000000000E+00  0.00000000000E+00 -0.25426597259E+03  0.15328543640E+04  0.15116187735E+04 0.  0.
        5    1    3    3  502    0 -0.15124672622E+03 -0.68135042050E+03 -0.42122755716E+03  0.81521083936E+03  0.46999998093E+01 0.  1.
       -5    1    3    3    0  502  0.15124672622E+03  0.68135042050E+03  0.16696158457E+03  0.71764352462E+03  0.46999998093E+01 0. -1.
</event>
<event>
 5   0  0.4948645E-04  0.1499064E+04  0.7818609E-02  0.8885076E-01
       -2   -1    0    0    0  501  0.00000000000E+00  0.00000000000E+00  0.12955714647E+04  0.12955714647E+04  0.25500000920E-02 0.  1.
        2   -1    0    0  501    0  0.00000000000E+00  0.00000000000E+00 -0.43362970225E+03  0.43362970226E+03  0.25500000920E-02 0. -1.
    10030    2    1    2    0    0  0.00000000000E+00  0.00000000000E+00  0.86194176243E+03  0.17292011669E+04  0.14990640660E+04 0.  0.
        1    1    3    3  502    0 -0.46493386875E+03  0.38542284414E+03 -0.81124675060E+02  0.60934020385E+03  0.50400001928E-02 0. -1.
       -1    1    3    3    0  502  0.46493386875E+03 -0.38542284414E+03  0.94306643749E+03  0.11198609631E+04  0.50400001928E-02 0.  1.
</event>
<event>
 5   0  0.2542737E-04  0.1500269E+04  0.7818609E-02  0.8884274E-01
        1   -1    0    0  501    0  0.00000000000E+00  0.00000000000E+00  0.35774598323E+03  0.35774598327E+03  0.50400001928E-02 0.  1.
       -1   -1    0    0    0  501  0.00000000000E+00  0.00000000000E+00 -0.15729090650E+04  0.15729090651E+04  0.50400001928E-02 0. -1.
    10030    2    1    2    0    0  0.00000000000E+00  0.00000000000E+00 -0.12151630818E+04  0.19306550483E+04  0.15002691759E+04 0.  0.
        1    1    3    3  502    0  0.48098412052E+03  0.17338577410E+03 -0.13139485628E+04  0.14099181453E+04  0.50400001928E-02 0. -1.
       -1    1    3    3    0  502 -0.48098412052E+03 -0.17338577410E+03  0.98785480977E+02  0.52073690298E+03  0.50400001928E-02 0.  1.
</event>
<event>
 5   0  0.2603873E-04  0.1498683E+04  0.7818609E-02  0.8885329E-01
       -1   -1    0    0    0  501  0.00000000000E+00  0.00000000000E+00  0.93722132960E+03  0.93722132961E+03  0.50400001928E-02 0. -1.
        1   -1    0    0  501    0  0.00000000000E+00  0.00000000000E+00 -0.59912510298E+03  0.59912510300E+03  0.50400001928E-02 0.  1.
    10030    2    1    2    0    0  0.00000000000E+00  0.00000000000E+00  0.33809622662E+03  0.15363464326E+04  0.14986831895E+04 0.  0.
        2    1    3    3  502    0 -0.64857205301E+03  0.21739263914E+03  0.48269052061E+03  0.83719496307E+03  0.25500000920E-02 0. -1.
       -2    1    3    3    0  502  0.64857205301E+03 -0.21739263914E+03 -0.14459429399E+03  0.69915146954E+03  0.25500000920E-02 0.  1.
</event>
<event>
 5   0  0.4785496E-04  0.1484144E+04  0.7818609E-02  0.8895066E-01
       -2   -1    0    0    0  501  0.00000000000E+00  0.00000000000E+00  0.10793186097E+04  0.10793186097E+04  0.25500000920E-02 0.  1.
        2   -1    0    0  501    0  0.00000000000E+00  0.00000000000E+00 -0.51020205619E+03  0.51020205620E+03  0.25500000920E-02 0. -1.
    10030    2    1    2    0    0  0.00000000000E+00  0.00000000000E+00  0.56911655354E+03  0.15895206659E+04  0.14841436238E+04 0.  0.
        4    1    3    3  502    0 -0.31158683782E+03  0.66297041617E+03  0.15759674379E+03  0.74930266033E+03  0.12699999809E+01 0. -1.
       -4    1    3    3    0  502  0.31158683782E+03 -0.66297041617E+03  0.41151980976E+03  0.84021800561E+03  0.12699999809E+01 0.  1.
</event>
<event>
 5   0  0.4726600E-04  0.1536012E+04  0.7818609E-02  0.8860853E-01
       -2   -1    0    0    0  501  0.00000000000E+00  0.00000000000E+00  0.51122105858E+03  0.51122105859E+03  0.25500000920E-02 0. -1.
        2   -1    0    0  501    0  0.00000000000E+00  0.00000000000E+00 -0.11537728589E+04  0.11537728589E+04  0.25500000920E-02 0.  1.
    10030    2    1    2    0    0  0.00000000000E+00  0.00000000000E+00 -0.64255180032E+03  0.16649939175E+04  0.15360116957E+04 0.  0.
        2    1    3    3  502    0 -0.29000917606E+01 -0.53365483935E+03  0.27740368520E+03  0.60145548685E+03  0.25500000920E-02 0. -1.
       -2    1    3    3    0  502  0.29000917606E+01  0.53365483935E+03 -0.91995548552E+03  0.10635384306E+04  0.25500000920E-02 0.  1.
</event>
<event>
 5   0  0.4785496E-04  0.1520415E+04  0.7818609E-02  0.8870989E-01
       -2   -1    0    0    0  501  0.00000000000E+00  0.00000000000E+00  0.40123532461E+03  0.40123532462E+03  0.25500000920E-02 0. -1.
        2   -1    0    0  501    0  0.00000000000E+00  0.00000000000E+00 -0.14403413155E+04  0.14403413155E+04  0.25500000920E-02 0.  1.
    10030    2    1    2    0    0  0.00000000000E+00  0.00000000000E+00 -0.10391059909E+04  0.18415766402E+04  0.15204154897E+04 0.  0.
        4    1    3    3  502    0 -0.44144403604E+03 -0.14420867361E+03 -0.12485552074E+04  0.13321263819E+04  0.12699999809E+01 0.  1.
       -4    1    3    3    0  502  0.44144403604E+03  0.14420867361E+03  0.20944921645E+03  0.50945025829E+03  0.12699999809E+01 0. -1.
</event>
<event>
 5   0  0.2603873E-04  0.1505027E+04  0.7818609E-02  0.8881117E-01
       -1   -1    0    0    0  501  0.00000000000E+00  0.00000000000E+00  0.48852587670E+03  0.48852587673E+03  0.50400001928E-02 0. -1.
        1   -1    0    0  501    0  0.00000000000E+00  0.00000000000E+00 -0.11591537731E+04  0.11591537731E+04  0.50400001928E-02 0.  1.
    10030    2    1    2    0    0  0.00000000000E+00  0.00000000000E+00 -0.67062789636E+03  0.16476796498E+04  0.15050270606E+04 0.  0.
        2    1    3    3  502    0  0.10190081579E+02 -0.58665722800E+03 -0.85114905475E+03  0.10337916881E+04  0.25500000920E-02 0.  1.
       -2    1    3    3    0  502 -0.10190081579E+02  0.58665722800E+03  0.18052115838E+03  0.61388796173E+03  0.25500000920E-02 0. -1.
</event>
<event>
 5   0  0.4948645E-04  0.1498231E+04  0.7818609E-02  0.8885630E-01
       -2   -1    0    0    0  501  0.00000000000E+00  0.00000000000E+00  0.25867774412E+03  0.25867774413E+03  0.25500000920E-02 0.  1.
        2   -1    0    0  501    0  0.00000000000E+00  0.00000000000E+00 -0.21693929403E+04  0.21693929403E+04  0.25500000920E-02 0. -1.
    10030    2    1    2    0    0  0.00000000000E+00  0.00000000000E+00 -0.19107151962E+04  0.24280706845E+04  0.14982305189E+04 0.  0.
        1    1    3    3  502    0 -0.62893116638E+03 -0.40612318803E+03 -0.99771815874E+03  0.12473700254E+04  0.50400001928E-02 0.  1.
       -1    1    3    3    0  502  0.62893116638E+03  0.40612318803E+03 -0.91299703747E+03  0.11807006591E+04  0.50400001928E-02 0. -1.
</event>
<event>
 5   0  0.2544374E-04  0.1515650E+04  0.7818609E-02  0.8874112E-01
        1   -1    0    0  501    0  0.00000000000E+00  0.00000000000E+00  0.15051021368E+04  0.15051021368E+04  0.50400001928E-02 0. -1.
       -1   -1    0    0    0  501  0.00000000000E+00  0.00000000000E+00 -0.38156819562E+03  0.38156819565E+03  0.50400001928E-02 0.  1.
    10030    2    1    2    0    0  0.00000000000E+00  0.00000000000E+00  0.11235339412E+04  0.18866703325E+04  0.15156504961E+04 0.  0.
        4    1    3    3  502    0 -0.37230413397E+03 -0.21900930557E+03  0.13368660199E+04  0.14049155890E+04  0.12699999809E+01 0. -1.
       -4    1    3    3    0  502  0.37230413397E+03  0.21900930557E+03 -0.21333207877E+03  0.48175474344E+03  0.12699999809E+01 0.  1.
</event>
<event>
 5   0  0.2603873E-04  0.1504588E+04  0.7818609E-02  0.8881408E-01
        1   -1    0    0  501    0  0.00000000000E+00  0.00000000000E+00  0.13736772629E+04  0.13736772629E+04  0.50400001928E-02 0.  1.
       -1   -1    0    0    0  501  0.00000000000E+00  0.00000000000E+00 -0.41199357230E+03  0.41199357233E+03  0.50400001928E-02 0. -1.
    10030    2    1    2    0    0  0.00000000000E+00  0.00000000000E+00  0.96168369060E+03  0.17856708352E+04  0.15045879207E+04 0.  0.
        2    1    3    3  502    0 -0.41170582679E+03 -0.16981150363E+03 -0.23873411727E+03  0.50530348637E+03  0.25500000920E-02 0. -1.
       -2    1    3    3    0  502  0.41170582679E+03  0.16981150363E+03  0.12004178079E+04  0.12803673489E+04  0.25500000920E-02 0.  1.
</event>
<event>
 5   0  0.2542737E-04  0.1491605E+04  0.7818609E-02  0.8890055E-01
       -1   -1    0    0    0  501  0.00000000000E+00  0.00000000000E+00  0.22676642720E+03  0.22676642725E+03  0.50400001928E-02 0. -1.
        1   -1    0    0  501    0  0.00000000000E+00  0.00000000000E+00 -0.24528383422E+04  0.24528383422E+04  0.50400001928E-02 0.  1.
    10030    2    1    2    0    0  0.00000000000E+00  0.00000000000E+00 -0.22260719150E+04  0.26796047694E+04  0.14916050247E+04 0.  0.
        1    1    3    3  502    0 -0.72895729463E+03 -0.15109229214E+03 -0.11936520528E+04  0.14067739127E+04  0.50400001928E-02 0. -1.
       -1    1    3    3    0  502  0.72895729463E+03  0.15109229214E+03 -0.10324198621E+04  0.12728308568E+04  0.50400001928E-02 0.  1.
</event>
<event>
 5   0  0.4948645E-04  0.1499125E+04  0.7818609E-02  0.8885035E-01
       -2   -1    0    0    0  501  0.00000000000E+00  0.00000000000E+00  0.11115070567E+04  0.11115070567E+04  0.25500000920E-02 0. -1.
        2   -1    0    0  501    0  0.00000000000E+00  0.00000000000E+00 -0.50547971523E+03  0.50547971524E+03  0.25500000920E-02 0.  1.
    10030    2    1    2    0    0  0.00000000000E+00  0.00000000000E+00  0.60602734142E+03  0.16169867719E+04  0.14991254390E+04 0.  0.
        1    1    3    3  502    0 -0.12473537204E+01 -0.38025826515E+03  0.99974409411E+03  0.10696196323E+04  0.50400001928E-02 0. -1.
       -1    1    3    3    0  502  0.12473537204E+01  0.38025826515E+03 -0.39371675270E+03  0.54736713957E+03  0.50400001928E-02 0.  1.
</event>
<event>
 5   0  0.2605471E-04  0.1485955E+04  0.7818609E-02  0.8893847E-01
        1   -1    0    0  501    0  0.00000000000E+00  0.00000000000E+00  0.11425396357E+04  0.11425396357E+04  0.50400001928E-02 0.  1.
       -1   -1    0    0    0  501  0.00000000000E+00  0.00000000000E+00 -0.48314765031E+03  0.48314765034E+03  0.50400001928E-02 0. -1.
    10030    2    1    2    0    0  0.00000000000E+00  0.00000000000E+00  0.65939198535E+03  0.16256872860E+04  0.14859546970E+04 0.  0.
        3    1    3    3  502    0 -0.71351577988E+03 -0.83267497857E+01  0.55614081346E+03  0.90469150405E+03  0.10100000352E+00 0.  1.
       -3    1    3    3    0  502  0.71351577988E+03  0.83267497857E+01  0.10325117188E+03  0.72099578196E+03  0.10100000352E+00 0. -1.
</event>
<event>
 5   0  0.2565416E-04  0.1500115E+04  0.7818609E-02  0.8884376E-01
       -1   -1    0    0    0  501  0.00000000000E+00  0.00000000000E+00  0.19496072984E+04  0.19496072984E+04  0.50400001928E-02 0. -1.
        1   -1    0    0  501    0  0.00000000000E+00  0.00000000000E+00 -0.28856403860E+03  0.28856403865E+03  0.50400001928E-02 0.  1.
    10030    2    1    2    0    0  0.00000000000E+00  0.00000000000E+00  0.16610432598E+04  0.22381713370E+04  0.15001154032E+04 0.  0.
        5    1    3    3  502    0  0.72084588510E+03  0.52541393773E+02  0.11296110599E+04  0.13410528046E+04  0.46999998093E+01 0. -1.
       -5    1    3    3    0  502 -0.72084588510E+03 -0.52541393773E+02  0.53143219984E+03  0.89711853239E+03  0.46999998093E+01 0.  1.
</event>
<event>
 5   0  0.2605471E-04  0.1491185E+04  0.7818609E-02  0.8890336E-01
        1   -1    0    0  501    0  0.00000000000E+00  0.00000000000E+00  0.11884275149E+04  0.11884275149E+04  0.50400001928E-02 0.  1.
       -1   -1    0    0    0  501  0.00000000000E+00  0.00000000000E+00 -0.46776800126E+03  0.46776800128E+03  0.50400001928E-02 0. -1.
    10030    2    1    2    0    0  0.00000000000E+00  0.00000000000E+00  0.72065951360E+03  0.16561955161E+04  0.14911852511E+04 0.  0.
        3    1    3    3  502    0 -0.56324840604E+03 -0.45860546974E+03  0.54730521085E+03  0.90945629241E+03  0.10100000352E+00 0.  1.
       -3    1    3    3    0  502  0.56324840604E+03  0.45860546974E+03  0.17335430275E+03  0.74673922373E+03  0.10100000352E+00 0. -1.
</event>
<event>
 5   0  0.4726600E-04  0.1477557E+04  0.7818609E-02  0.8899516E-01
       -2   -1    0    0    0  501  0.00000000000E+00  0.00000000000E+00  0.49090773205E+03  0.49090773206E+03  0.25500000920E-02 0. -1.
        2   -1    0    0  501    0  0.00000000000E+00  0.00000000000E+00 -0.11118057103E+04  0.11118057104E+04  0.25500000920E-02 0.  1.
    10030    2    1    2    0    0  0.00000000000E+00  0.00000000000E+00 -0.62089797830E+03  0.16027134424E+04  0.14775574706E+04 0.  0.
        2    1    3    3  502    0  0.15895220115E+03  0.66522522553E+03 -0.61339753172E+03  0.91872027019E+03  0.25500000920E-02 0.  1.
       -2    1    3    3    0  502 -0.15895220115E+03 -0.66522522553E+03 -0.75004465770E+01  0.68399317222E+03  0.25500000920E-02 0. -1.
</event>
<event>
 5   0  0.4726600E-04  0.1509924E+04  0.7818609E-02  0.8877880E-01
        2   -1    0    0  501    0  0.00000000000E+00  0.00000000000E+00  0.11160471959E+04  0.11160471959E+04  0.25500000920E-02 0. -1.
       -2   -1    0    0    0  501  0.00000000000E+00  0.00000000000E+00 -0.51070227013E+03  0.51070227013E+03  0.25500000920E-02 0.  1.
    10030    2    1    2    0    0  0.00000000000E+00  0.00000000000E+00  0.60534492579E+03  0.16267494661E+04  0.15099242849E+04 0.  0.
        2    1    3    3  502    0  0.60654347190E+03  0.10969192203E+03 -0.16699300016E+03  0.63860313432E+03  0.25500000920E-02 0.  1.
       -2    1    3    3    0  502 -0.60654347190E+03 -0.10969192203E+03  0.77233792594E+03  0.98814633173E+03  0.25500000920E-02 0. -1.
</event>
<event>
 5   0  0.4785496E-04  0.1500113E+04  0.7818609E-02  0.8884378E-01
       -2   -1    0    0    0  501  0.00000000000E+00  0.00000000000E+00  0.66076401136E+03  0.66076401136E+03  0.25500000920E-02 0. -1.
        2   -1    0    0  501    0  0.00000000000E+00  0.00000000000E+00 -0.85141515337E+03  0.85141515337E+03  0.25500000920E-02 0.  1.
    10030    2    1    2    0    0  0.00000000000E+00  0.00000000000E+00 -0.19065114201E+03  0.15121791647E+04  0.15001126519E+04 0.  0.
        4    1    3    3  502    0 -0.14797017493E+03 -0.49254429963E+03  0.45504029525E+03  0.68670105793E+03  0.12699999809E+01 0. -1.
       -4    1    3    3    0  502  0.14797017493E+03  0.49254429963E+03 -0.64569143726E+03  0.82547810681E+03  0.12699999809E+01 0.  1.
</event>
<event>
 5   0  0.1792000E-04  0.1472058E+04  0.7818609E-02  0.8903249E-01
       -3   -1    0    0    0  501  0.00000000000E+00  0.00000000000E+00  0.93644395621E+03  0.93644396166E+03  0.10100000352E+00 0.  1.
        3   -1    0    0  501    0  0.00000000000E+00  0.00000000000E+00 -0.57850660663E+03  0.57850661545E+03  0.10100000352E+00 0. -1.
    10030    2    1    2    0    0  0.00000000000E+00  0.00000000000E+00  0.35793734958E+03  0.15149505771E+04  0.14720584584E+04 0.  0.
        2    1    3    3  502    0 -0.59339336407E+03 -0.15873809542E+03 -0.23834063259E+03  0.65887762491E+03  0.25500000920E-02 0. -1.
       -2    1    3    3    0  502  0.59339336407E+03  0.15873809542E+03  0.59627798217E+03  0.85607295220E+03  0.25500000920E-02 0.  1.
</event>
<event>
 5   0  0.2605471E-04  0.1495847E+04  0.7818609E-02  0.8887220E-01
       -1   -1    0    0    0  501  0.00000000000E+00  0.00000000000E+00  0.12481485227E+04  0.12481485227E+04  0.50400001928E-02 0. -1.
        1   -1    0    0  501    0  0.00000000000E+00  0.00000000000E+00 -0.44817520613E+03  0.44817520615E+03  0.50400001928E-02 0.  1.
    10030    2    1    2    0    0  0.00000000000E+00  0.00000000000E+00  0.79997331653E+03  0.16963237288E+04  0.14958465449E+04 0.  0.
        3    1    3    3  502    0 -0.40389112016E+03 -0.57339991240E+03  0.10541632574E+03  0.70924474508E+03  0.10100000352E+00 0.  1.
       -3    1    3    3    0  502  0.40389112016E+03  0.57339991240E+03  0.69455699079E+03  0.98707898374E+03  0.10100000352E+00 0. -1.
</event>
<event>
 5   0  0.2544374E-04  0.1494089E+04  0.7818609E-02  0.8888393E-01
        1   -1    0    0  501    0  0.00000000000E+00  0.00000000000E+00  0.83174828563E+03  0.83174828565E+03  0.50400001928E-02 0. -1.
       -1   -1    0    0    0  501  0.00000000000E+00  0.00000000000E+00 -0.67096672006E+03  0.67096672008E+03  0.50400001928E-02 0.  1.
    10030    2    1    2    0    0  0.00000000000E+00  0.00000000000E+00  0.16078156557E+03  0.15027150057E+04  0.14940889119E+04 0.  0.
        4    1    3    3  502    0  0.36686846481E+03  0.12353842886E+03 -0.56221865977E+03  0.68260211556E+03  0.12699999809E+01 0.  1.
       -4    1    3    3    0  502 -0.36686846481E+03 -0.12353842886E+03  0.72300022533E+03  0.82011289016E+03  0.12699999809E+01 0. -1.
</event>
<event>
 5   0  0.4569211E-04  0.1501292E+04  0.7818609E-02  0.8883594E-01
        2   -1    0    0  501    0  0.00000000000E+00  0.00000000000E+00  0.62600621412E+03  0.62600621412E+03  0.25500000920E-02 0.  1.
       -2   -1    0    0    0  501  0.00000000000E+00  0.00000000000E+00 -0.90010170428E+03  0.90010170428E+03  0.25500000920E-02 0. -1.
    10030    2    1    2    0    0  0.00000000000E+00  0.00000000000E+00 -0.27409549016E+03  0.15261079184E+04  0.15012917907E+04 0.  0.
        5    1    3    3  502    0  0.35785144590E+03 -0.41241830506E+03  0.38653978734E+03  0.66901540556E+03  0.46999998093E+01 0.  1.
       -5    1    3    3    0  502 -0.35785144590E+03  0.41241830506E+03 -0.66063527750E+03  0.85709251284E+03  0.46999998093E+01 0. -1.
</event>
<event>
 5   0  0.2605471E-04  0.1515790E+04  0.7818609E-02  0.8874020E-01
       -1   -1    0    0    0  501  0.00000000000E+00  0.00000000000E+00  0.62035137138E+03  0.62035137140E+03  0.50400001928E-02 0.  1.
        1   -1    0    0  501    0  0.00000000000E+00  0.00000000000E+00 -0.92593503566E+03  0.92593503568E+03  0.50400001928E-02 0. -1.
    10030    2    1    2    0    0  0.00000000000E+00  0.00000000000E+00 -0.30558366428E+03  0.15462864071E+04  0.15157903143E+04 0.  0.
        3    1    3    3  502    0 -0.70099966744E+03 -0.22788590320E+03 -0.33261232804E+03  0.80868009101E+03  0.10100000352E+00 0. -1.
       -3    1    3    3    0  502  0.70099966744E+03  0.22788590320E+03  0.27028663762E+02  0.73760631606E+03  0.10100000352E+00 0.  1.
</event>
<event>
 5   0  0.2603873E-04  0.1500646E+04  0.7818609E-02  0.8884024E-01
        1   -1    0    0  501    0  0.00000000000E+00  0.00000000000E+00  0.10441331007E+04  0.10441331008E+04  0.50400001928E-02 0. -1.
       -1   -1    0    0    0  501  0.00000000000E+00  0.00000000000E+00 -0.53918841540E+03  0.53918841542E+03  0.50400001928E-02 0.  1.
    10030    2    1    2    0    0  0.00000000000E+00  0.00000000000E+00  0.50494468535E+03  0.15833215162E+04  0.15006458237E+04 0.  0.
        2    1    3    3  502    0 -0.38147547939E+03 -0.54861701687E+03  0.61256739060E+03  0.90650040298E+03  0.25500000920E-02 0. -1.
       -2    1    3    3    0  502  0.38147547939E+03  0.54861701687E+03 -0.10762270525E+03  0.67682111320E+03  0.25500000920E-02 0.  1.
</event>
<event>
 5   0  0.4768387E-04  0.1537996E+04  0.7818609E-02  0.8859572E-01
       -2   -1    0    0    0  501  0.00000000000E+00  0.00000000000E+00  0.54182225363E+03  0.54182225364E+03  0.25500000920E-02 0.  1.
        2   -1    0    0  501    0  0.00000000000E+00  0.00000000000E+00 -0.10914243940E+04  0.10914243940E+04  0.25500000920E-02 0. -1.
    10030    2    1    2    0    0  0.00000000000E+00  0.00000000000E+00 -0.54960214037E+03  0.16332466476E+04  0.15379961311E+04 0.  0.
        3    1    3    3  502    0  0.38616710044E+03 -0.39064763333E+03  0.29669910000E+03  0.62430839257E+03  0.10100000352E+00 0.  1.
       -3    1    3    3    0  502 -0.38616710044E+03  0.39064763333E+03 -0.84630124037E+03  0.10089382551E+04  0.10100000352E+00 0. -1.
</event>
<event>
 5   0  0.2605471E-04  0.1516703E+04  0.7818609E-02  0.8873421E-01
        1   -1    0    0  501    0  0.00000000000E+00  0.00000000000E+00  0.14794408805E+04  0.14794408806E+04  0.50400001928E-02 0. -1.
       -1   -1    0    0    0  501  0.00000000000E+00  0.00000000000E+00 -0.38872580242E+03  0.38872580245E+03  0.50400001928E-02 0.  1.
    10030    2    1    2    0    0  0.00000000000E+00  0.00000000000E+00  0.10907150781E+04  0.18681666830E+04  0.15167027968E+04 0.  0.
        3    1    3    3  502    0  0.21350571063E+03  0.20497235198E+00 -0.35094180887E+03  0.41078570313E+03  0.10100000352E+00 0.  1.
       -3    1    3    3    0  502 -0.21350571063E+03 -0.20497235198E+00  0.14416568870E+04  0.14573809799E+04  0.10100000352E+00 0. -1.
</event>
<event>
 5   0  0.2605471E-04  0.1523139E+04  0.7818609E-02  0.8869210E-01
       -1   -1    0    0    0  501  0.00000000000E+00  0.00000000000E+00  0.14313840249E+04  0.14313840249E+04  0.50400001928E-02 0.  1.
        1   -1    0    0  501    0  0.00000000000E+00  0.00000000000E+00 -0.40519371128E+03  0.40519371131E+03  0.50400001928E-02 0. -1.
    10030    2    1    2    0    0  0.00000000000E+00  0.00000000000E+00  0.10261903136E+04  0.18365777362E+04  0.15231386087E+04 0.  0.
        3    1    3    3  502    0  0.15874701721E+03 -0.32189026721E+02 -0.38418315059E+03  0.41693339074E+03  0.10100000352E+00 0. -1.
       -3    1    3    3    0  502 -0.15874701721E+03  0.32189026721E+02  0.14103734642E+04  0.14196443455E+04  0.10100000352E+00 0.  1.
</event>
<event>
 5   0  0.2605471E-04  0.1501736E+04  0.7818609E-02  0.8883299E-01
       -1   -1    0    0    0  501  0.00000000000E+00  0.00000000000E+00  0.58468154120E+03  0.58468154122E+03  0.50400001928E-02 0. -1.
        1   -1    0    0  501    0  0.00000000000E+00  0.00000000000E+00 -0.96429000094E+03  0.96429000095E+03  0.50400001928E-02 0.  1.
    10030    2    1    2    0    0  0.00000000000E+00  0.00000000000E+00 -0.37960845974E+03  0.15489715422E+04  0.15017357476E+04 0.  0.
        3    1    3    3  502    0 -0.44041518402E+03  0.60678817486E+03 -0.23164022149E+03  0.78473857168E+03  0.10100000352E+00 0.  1.
       -3    1    3    3    0  502  0.44041518402E+03 -0.60678817486E+03 -0.14796823825E+03  0.76423297050E+03  0.10100000352E+00 0. -1.
</event>
<event>
 5   0  0.1792000E-04  0.1498940E+04  0.7818609E-02  0.8885158E-01
       -4   -1    0    0    0  501  0.00000000000E+00  0.00000000000E+00  0.81048237307E+03  0.81048336809E+03  0.12699999809E+01 0.  1.
        4   -1    0    0  501    0  0.00000000000E+00  0.00000000000E+00 -0.69304880175E+03  0.69304996537E+03  0.12699999809E+01 0. -1.
    10030    2    1    2    0    0  0.00000000000E+00  0.00000000000E+00  0.11743357132E+03  0.15035333335E+04  0.14989402394E+04 0.  0.
        2    1    3    3  502    0 -0.22679818740E+03 -0.38467326984E+03  0.66247023324E+03  0.79892287004E+03  0.25500000920E-02 0.  1.
       -2    1    3    3    0  502  0.22679818740E+03  0.38467326984E+03 -0.54503666191E+03  0.70461046343E+03  0.25500000920E-02 0. -1.
</event>
<event>
 5   0  0.2544374E-04  0.1456956E+04  0.7818609E-02  0.8913592E-01
        1   -1    0    0  501    0  0.00000000000E+00  0.00000000000E+00  0.22949096828E+04  0.22949096828E+04  0.50400001928E-02 0.  1.
       -1   -1    0    0    0  501  0.00000000000E+00  0.00000000000E+00 -0.23124235863E+03  0.23124235868E+03  0.50400001928E-02 0. -1.
    10030    2    1    2    0    0  0.00000000000E+00  0.00000000000E+00  0.20636673241E+04  0.25261520414E+04  0.14569561805E+04 0.  0.
        4    1    3    3  502    0  0.72608532479E+03 -0.21388292051E+02  0.11271382982E+04  0.13409324048E+04  0.12699999809E+01 0.  1.
       -4    1    3    3    0  502 -0.72608532479E+03  0.21388292051E+02  0.93652902592E+03  0.11852196367E+04  0.12699999809E+01 0. -1.
</event>
<event>
 5   0  0.2544374E-04  0.1503503E+04  0.7818609E-02  0.8882127E-01
       -1   -1    0    0    0  501  0.00000000000E+00  0.00000000000E+00  0.68016446480E+03  0.68016446482E+03  0.50400001928E-02 0.  1.
        1   -1    0    0  501    0  0.00000000000E+00  0.00000000000E+00 -0.83087335595E+03  0.83087335597E+03  0.50400001928E-02 0. -1.
    10030    2    1    2    0    0  0.00000000000E+00  0.00000000000E+00 -0.15070889115E+03  0.15110378208E+04  0.15035032843E+04 0.  0.
        4    1    3    3  502    0  0.21228330579E+03 -0.17888976013E+03 -0.77747061046E+03  0.82554703756E+03  0.12699999809E+01 0. -1.
       -4    1    3    3    0  502 -0.21228330579E+03  0.17888976013E+03  0.62676171931E+03  0.68549078323E+03  0.12699999809E+01 0.  1.
</event>
<event>
 5   0  0.4768387E-04  0.1506581E+04  0.7818609E-02  0.8880088E-01
        2   -1    0    0  501    0  0.00000000000E+00  0.00000000000E+00  0.12759551325E+04  0.12759551325E+04  0.25500000920E-02 0.  1.
       -2   -1    0    0    0  501  0.00000000000E+00  0.00000000000E+00 -0.44472305662E+03  0.44472305662E+03  0.25500000920E-02 0. -1.
    10030    2    1    2    0    0  0.00000000000E+00  0.00000000000E+00  0.83123207590E+03  0.17206781891E+04  0.15065811185E+04 0.  0.
        3    1    3    3  502    0  0.47404623230E+03  0.73044033060E+02 -0.24778192657E+03  0.53986216247E+03  0.10100000352E+00 0. -1.
       -3    1    3    3    0  502 -0.47404623230E+03 -0.73044033060E+02  0.10790140025E+04  0.11808160267E+04  0.10100000352E+00 0.  1.
</event>
<event>
 5   0  0.4785496E-04  0.1515340E+04  0.7818609E-02  0.8874315E-01
       -2   -1    0    0    0  501  0.00000000000E+00  0.00000000000E+00  0.84787954622E+03  0.84787954622E+03  0.25500000920E-02 0.  1.
        2   -1    0    0  501    0  0.00000000000E+00  0.00000000000E+00 -0.67705839778E+03  0.67705839779E+03  0.25500000920E-02 0. -1.
    10030    2    1    2    0    0  0.00000000000E+00  0.00000000000E+00  0.17082114843E+03  0.15249379440E+04  0.15153401824E+04 0.  0.
        4    1    3    3  502    0 -0.10659797236E+03  0.49574271835E+03 -0.48112795480E+03  0.69900621764E+03  0.12699999809E+01 0. -1.
       -4    1    3    3    0  502  0.10659797236E+03 -0.49574271835E+03  0.65194910323E+03  0.82593172637E+03  0.12699999809E+01 0.  1.
</event>
<event>
 5   0  0.4785496E-04  0.1493944E+04  0.7818609E-02  0.8888490E-01
        2   -1    0    0  501    0  0.00000000000E+00  0.00000000000E+00  0.15916761959E+04  0.15916761959E+04  0.25500000920E-02 0. -1.
       -2   -1    0    0    0  501  0.00000000000E+00  0.00000000000E+00 -0.35055296542E+03  0.35055296543E+03  0.25500000920E-02 0.  1.
    10030    2    1    2    0    0  0.00000000000E+00  0.00000000000E+00  0.12411232304E+04  0.19422291613E+04  0.14939435203E+04 0.  0.
        4    1    3    3  502    0 -0.26927235019E+03  0.56722270429E+03  0.11465932439E+04  0.13072592989E+04  0.12699999809E+01 0. -1.
       -4    1    3    3    0  502  0.26927235019E+03 -0.56722270429E+03  0.94529986557E+02  0.63496986235E+03  0.12699999809E+01 0.  1.
</event>
<event>
 5   0  0.2565416E-04  0.1500982E+04  0.7818609E-02  0.8883800E-01
        1   -1    0    0  501    0  0.00000000000E+00  0.00000000000E+00  0.12517351753E+04  0.12517351753E+04  0.50400001928E-02 0. -1.
       -1   -1    0    0    0  501  0.00000000000E+00  0.00000000000E+00 -0.44996471473E+03  0.44996471475E+03  0.50400001928E-02 0.  1.
    10030    2    1    2    0    0  0.00000000000E+00  0.00000000000E+00  0.80177046057E+03  0.17016998901E+04  0.15009818934E+04 0.  0.
        5    1    3    3  502    0  0.37481379886E+03  0.64419222256E+03  0.30110737976E+03  0.80383875719E+03  0.46999998093E+01 0.  1.
       -5    1    3    3    0  502 -0.37481379886E+03 -0.64419222256E+03  0.50066308081E+03  0.89786113287E+03  0.46999998093E+01 0. -1.
</event>
<event>
 5   0  0.2605471E-04  0.1499101E+04  0.7818609E-02  0.8885051E-01
       -1   -1    0    0    0  501  0.00000000000E+00  0.00000000000E+00  0.99005301077E+03  0.99005301079E+03  0.50400001928E-02 0. -1.
        1   -1    0    0  501    0  0.00000000000E+00  0.00000000000E+00 -0.56747055064E+03  0.56747055066E+03  0.50400001928E-02 0.  1.
    10030    2    1    2    0    0  0.00000000000E+00  0.00000000000E+00  0.42258246014E+03  0.15575235614E+04  0.14991009669E+04 0.  0.
        3    1    3    3  502    0  0.20942865421E+03 -0.33517416965E+03  0.87299783950E+03  0.95829396490E+03  0.10100000352E+00 0. -1.
       -3    1    3    3    0  502 -0.20942865421E+03  0.33517416965E+03 -0.45041537936E+03  0.59922959654E+03  0.10100000352E+00 0.  1.
</event>
<event>
 5   0  0.4785496E-04  0.1454367E+04  0.7818609E-02  0.8915379E-01
        2   -1    0    0  501    0  0.00000000000E+00  0.00000000000E+00  0.54681347987E+03  0.54681347988E+03  0.25500000920E-02 0.  1.
       -2   -1    0    0    0  501  0.00000000000E+00  0.00000000000E+00 -0.96704964093E+03  0.96704964094E+03  0.25500000920E-02 0. -1.
    10030    2    1    2    0    0  0.00000000000E+00  0.00000000000E+00 -0.42023616106E+03  0.15138631208E+04  0.14543669130E+04 0.  0.
        4    1    3    3  502    0  0.28887272158E+01 -0.49081591309E+03  0.34838113224E+03  0.60189669503E+03  0.12699999809E+01 0.  1.
       -4    1    3    3    0  502 -0.28887272158E+01  0.49081591309E+03 -0.76861729331E+03  0.91196642578E+03  0.12699999809E+01 0. -1.
</event>
<event>
 5   0  0.4569211E-04  0.1513127E+04  0.7818609E-02  0.8875771E-01
       -2   -1    0    0    0  501  0.00000000000E+00  0.00000000000E+00  0.78368135654E+03  0.78368135655E+03  0.25500000920E-02 0.  1.
        2   -1    0    0  501    0  0.00000000000E+00  0.00000000000E+00 -0.73038358106E+03  0.73038358107E+03  0.25500000920E-02 0. -1.
    10030    2    1    2    0    0  0.00000000000E+00  0.00000000000E+00  0.53297775477E+02  0.15140649376E+04  0.15131265586E+04 0.  0.
        5    1    3    3  502    0 -0.28043347282E+03  0.65177985128E+03  0.28931119993E+03  0.76627864880E+03  0.46999998093E+01 0.  1.
       -5    1    3    3    0  502  0.28043347282E+03 -0.65177985128E+03 -0.23601342445E+03  0.74778628881E+03  0.46999998093E+01 0. -1.
</event>
<event>
 5   0  0.2565416E-04  0.1503008E+04  0.7818609E-02  0.8882455E-01
       -1   -1    0    0    0  501  0.00000000000E+00  0.00000000000E+00  0.26095435690E+03  0.26095435695E+03  0.50400001928E-02 0. -1.
        1   -1    0    0  501    0  0.00000000000E+00  0.00000000000E+00 -0.21642028399E+04  0.21642028399E+04  0.50400001928E-02 0.  1.
    10030    2    1    2    0    0  0.00000000000E+00  0.00000000000E+00 -0.19032484830E+04  0.24251571968E+04  0.15030078647E+04 0.  0.
        5    1    3    3  502    0 -0.70439284936E+03 -0.13600777305E+03 -0.59057896458E+03  0.92923248112E+03  0.46999998093E+01 0. -1.
       -5    1    3    3    0  502  0.70439284936E+03  0.13600777305E+03 -0.13126695184E+04  0.14959247157E+04  0.46999998093E+01 0.  1.
</event>
<event>
 5   0  0.2605471E-04  0.1483719E+04  0.7818609E-02  0.8895353E-01
        1   -1    0    0  501    0  0.00000000000E+00  0.00000000000E+00  0.15863470839E+04  0.15863470840E+04  0.50400001928E-02 0. -1.
       -1   -1    0    0    0  501  0.00000000000E+00  0.00000000000E+00 -0.34693245827E+03  0.34693245831E+03  0.50400001928E-02 0.  1.
    10030    2    1    2    0    0  0.00000000000E+00  0.00000000000E+00  0.12394146257E+04  0.19332795423E+04  0.14837186978E+04 0.  0.
        3    1    3    3  502    0  0.48604300628E+03 -0.24522868185E+03 -0.36956620858E+02  0.54565622179E+03  0.10100000352E+00 0. -1.
       -3    1    3    3    0  502 -0.48604300628E+03  0.24522868185E+03  0.12763712465E+04  0.13876233205E+04  0.10100000352E+00 0.  1.
</event>
<event>
 5   0  0.4726600E-04  0.1504889E+04  0.7818609E-02  0.8881209E-01
       -2   -1    0    0    0  501  0.00000000000E+00  0.00000000000E+00  0.46906141885E+03  0.46906141886E+03  0.25500000920E-02 0. -1.
        2   -1    0    0  501    0  0.00000000000E+00  0.00000000000E+00 -0.12070326444E+04  0.12070326444E+04  0.25500000920E-02 0.  1.
    10030    2    1    2    0    0  0.00000000000E+00  0.00000000000E+00 -0.73797122555E+03  0.16760940633E+04  0.15048886268E+04 0.  0.
        2    1    3    3  502    0  0.31595781346E+02  0.18171062966E+03 -0.11814667066E+04  0.11957761601E+04  0.25500000920E-02 0.  1.
       -2    1    3    3    0  502 -0.31595781346E+02 -0.18171062966E+03  0.44349548106E+03  0.48031790312E+03  0.25500000920E-02 0. -1.
</event>
<event>
 5   0  0.4569211E-04  0.1500302E+04  0.7818609E-02  0.8884252E-01
        2   -1    0    0  501    0  0.00000000000E+00  0.00000000000E+00  0.24356167219E+04  0.24356167220E+04  0.25500000920E-02 0. -1.
       -2   -1    0    0    0  501  0.00000000000E+00  0.00000000000E+00 -0.23104059733E+03  0.23104059735E+03  0.25500000920E-02 0.  1.
    10030    2    1    2    0    0  0.00000000000E+00  0.00000000000E+00  0.22045761246E+04  0.26666573193E+04  0.15003017594E+04 0.  0.
        5    1    3    3  502    0  0.70603823326E+03 -0.23261897480E+03  0.92363648768E+03  0.11856340184E+04  0.46999998093E+01 0. -1.
       -5    1    3    3    0  502 -0.70603823326E+03  0.23261897480E+03  0.12809396369E+04  0.14810233009E+04  0.46999998093E+01 0.  1.
</event>
<event>
 5   0  0.4948645E-04  0.1504508E+04  0.7818609E-02  0.8881461E-01
        2   -1    0    0  501    0  0.00000000000E+00  0.00000000000E+00  0.66808246371E+03  0.66808246372E+03  0.25500000920E-02 0.  1.
       -2   -1    0    0    0  501  0.00000000000E+00  0.00000000000E+00 -0.84703046174E+03  0.84703046174E+03  0.25500000920E-02 0. -1.
    10030    2    1    2    0    0  0.00000000000E+00  0.00000000000E+00 -0.17894799803E+03  0.15151129255E+04  0.15045081558E+04 0.  0.
        1    1    3    3  502    0 -0.13832793964E+03 -0.58816111263E+03  0.36181200722E+03  0.70425566515E+03  0.50400001928E-02 0.  1.
       -1    1    3    3    0  502  0.13832793964E+03  0.58816111263E+03 -0.54076000525E+03  0.81085726031E+03  0.50400001928E-02 0. -1.
</event>
<event>
 5   0  0.4785496E-04  0.1503678E+04  0.7818609E-02  0.8882011E-01
        2   -1    0    0  501    0  0.00000000000E+00  0.00000000000E+00  0.63937198467E+03  0.63937198467E+03  0.25500000920E-02 0.  1.
       -2   -1    0    0    0  501  0.00000000000E+00  0.00000000000E+00 -0.88408906328E+03  0.88408906329E+03  0.25500000920E-02 0. -1.
    10030    2    1    2    0    0  0.00000000000E+00  0.00000000000E+00 -0.24471707862E+03  0.15234610480E+04  0.15036778631E+04 0.  0.
        4    1    3    3  502    0  0.20873878841E+03 -0.11633318612E+03 -0.84458699613E+03  0.87774375470E+03  0.12699999809E+01 0. -1.
       -4    1    3    3    0  502 -0.20873878841E+03  0.11633318612E+03  0.59986991751E+03  0.64571729326E+03  0.12699999809E+01 0.  1.
</event>
<event>
 5   0  0.4569211E-04  0.1497276E+04  0.7818609E-02  0.8886266E-01
        2   -1    0    0  501    0  0.00000000000E+00  0.00000000000E+00  0.53270142180E+03  0.53270142180E+03  0.25500000920E-02 0. -1.
       -2   -1    0    0    0  501  0.00000000000E+00  0.00000000000E+00 -0.10521067874E+04  0.10521067874E+04  0.25500000920E-02 0.  1.
    10030    2    1    2    0    0  0.00000000000E+00  0.00000000000E+00 -0.51940536563E+03  0.15848082092E+04  0.14972759018E+04 0.  0.
        5    1    3    3  502    0 -0.88611109283E+02 -0.60803319141E+03  0.19294308073E+03  0.64405388978E+03  0.46999998093E+01 0. -1.
       -5    1    3    3    0  502  0.88611109283E+02  0.60803319141E+03 -0.71234844636E+03  0.94075431945E+03  0.46999998093E+01 0.  1.
</event>
<event>
 5   0  0.4768387E-04  0.1528965E+04  0.7818609E-02  0.8865417E-01
       -2   -1    0    0    0  501  0.00000000000E+00  0.00000000000E+00  0.72887500784E+03  0.72887500784E+03  0.25500000920E-02 0.  1.
        2   -1    0    0  501    0  0.00000000000E+00  0.00000000000E+00 -0.80182948414E+03  0.80182948414E+03  0.25500000920E-02 0. -1.
    10030    2    1    2    0    0  0.00000000000E+00  0.00000000000E+00 -0.72954476298E+02  0.15307044920E+04  0.15289649722E+04 0.  0.
        3    1    3    3  502    0 -0.14462930549E+02  0.53227113980E+03 -0.58565554178E+03  0.79152647867E+03  0.10100000352E+00 0. -1.
       -3    1    3    3    0  502  0.14462930549E+02 -0.53227113980E+03  0.51270106548E+03  0.73917801331E+03  0.10100000352E+00 0.  1.
</event>
<event>
 5   0  0.2603873E-04  0.1499247E+04  0.7818609E-02  0.8884954E-01
       -1   -1    0    0    0  501  0.00000000000E+00  0.00000000000E+00  0.71012498992E+03  0.71012498993E+03  0.50400001928E-02 0. -1.
        1   -1    0    0  501    0  0.00000000000E+00  0.00000000000E+00 -0.79131884693E+03  0.79131884695E+03  0.50400001928E-02 0.  1.
    10030    2    1    2    0    0  0.00000000000E+00  0.00000000000E+00 -0.81193857017E+02  0.15014438369E+04  0.14992468619E+04 0.  0.
        2    1    3    3  502    0  0.14079598294E+03 -0.71913228674E+03 -0.19881747330E+03  0.75927804020E+03  0.25500000920E-02 0. -1.
       -2    1    3    3    0  502 -0.14079598294E+03  0.71913228674E+03  0.11762361628E+03  0.74216579668E+03  0.25500000920E-02 0.  1.
</event>
<event>
 5   0  0.4569211E-04  0.1487793E+04  0.7818609E-02  0.8892611E-01
        2   -1    0    0  501    0  0.00000000000E+00  0.00000000000E+00  0.75639202263E+03  0.75639202263E+03  0.25500000920E-02 0.  1.
       -2   -1    0    0    0  501  0.00000000000E+00  0.00000000000E+00 -0.73160730129E+03  0.73160730129E+03  0.25500000920E-02 0. -1.
    10030    2    1    2    0    0  0.00000000000E+00  0.00000000000E+00  0.24784721340E+02  0.14879993239E+04  0.14877928974E+04 0.  0.
        5    1    3    3  502    0  0.24673818739E+03 -0.25904430059E+03  0.66469152591E+03  0.75486462190E+03  0.46999998093E+01 0.  1.
       -5    1    3    3    0  502 -0.24673818739E+03  0.25904430059E+03 -0.63990680457E+03  0.73313470203E+03  0.46999998093E+01 0. -1.
</event>
<event>
 5   0  0.2565416E-04  0.1500894E+04  0.7818609E-02  0.8883859E-01
        1   -1    0    0  501    0  0.00000000000E+00  0.00000000000E+00  0.84795435448E+03  0.84795435450E+03  0.50400001928E-02 0. -1.
       -1   -1    0    0    0  501  0.00000000000E+00  0.00000000000E+00 -0.66415181913E+03  0.66415181915E+03  0.50400001928E-02 0.  1.
    10030    2    1    2    0    0  0.00000000000E+00  0.00000000000E+00  0.18380253535E+03  0.15121061736E+04  0.15008936366E+04 0.  0.
        5    1    3    3  502    0 -0.25943191641E+03 -0.81157897361E+02 -0.61279311801E+03  0.67039467408E+03  0.46999998093E+01 0.  1.
       -5    1    3    3    0  502  0.25943191641E+03  0.81157897361E+02  0.79659565336E+03  0.84171149957E+03  0.46999998093E+01 0. -1.
</event>
<event>
 5   0  0.2565416E-04  0.1519932E+04  0.7818609E-02  0.8871306E-01
       -1   -1    0    0    0  501  0.00000000000E+00  0.00000000000E+00  0.15411172458E+04  0.15411172458E+04  0.50400001928E-02 0. -1.
        1   -1    0    0  501    0  0.00000000000E+00  0.00000000000E+00 -0.37475947906E+03  0.37475947909E+03  0.50400001928E-02 0.  1.
    10030    2    1    2    0    0  0.00000000000E+00  0.00000000000E+00  0.11663577668E+04  0.19158767249E+04  0.15199319672E+04 0.  0.
        5    1    3    3  502    0 -0.20910088187E+03 -0.26229307782E+03 -0.27637359287E+03  0.43465536958E+03  0.46999998093E+01 0.  1.
       -5    1    3    3    0  502  0.20910088187E+03  0.26229307782E+03  0.14427313596E+04  0.14812213554E+04  0.46999998093E+01 0. -1.
</event>
<event>
 5   0  0.2565416E-04  0.1522234E+04  0.7818609E-02  0.8869801E-01
       -1   -1    0    0    0  501  0.00000000000E+00  0.00000000000E+00  0.38009621254E+03  0.38009621258E+03  0.50400001928E-02 0.  1.
        1   -1    0    0  501    0  0.00000000000E+00  0.00000000000E+00 -0.15240846227E+04  0.15240846227E+04  0.50400001928E-02 0. -1.
    10030    2    1    2    0    0  0.00000000000E+00  0.00000000000E+00 -0.11439884101E+04  0.19041808353E+04  0.15222336125E+04 0.  0.
        5    1    3    3  502    0 -0.69958378094E+03  0.31950304767E+02 -0.94483831039E+03  0.11760866513E+04  0.46999998093E+01 0. -1.
       -5    1    3    3    0  502  0.69958378094E+03 -0.31950304767E+02 -0.19915009975E+03  0.72809418399E+03  0.46999998093E+01 0.  1.
</event>
<event>
 5   0  0.2544374E-04  0.1497037E+04  0.7818609E-02  0.8886425E-01
       -1   -1    0    0    0  501  0.00000000000E+00  0.00000000000E+00  0.50151033627E+03  0.50151033630E+03  0.50400001928E-02 0.  1.
        1   -1    0    0  501    0  0.00000000000E+00  0.00000000000E+00 -0.11171859663E+04  0.11171859663E+04  0.50400001928E-02 0. -1.
    10030    2    1    2    0    0  0.00000000000E+00  0.00000000000E+00 -0.61567562999E+03  0.16186963026E+04  0.14970374874E+04 0.  0.
        4    1    3    3  502    0  0.10832825169E+01  0.74334571594E+03 -0.21286673625E+03  0.77322563797E+03  0.12699999809E+01 0. -1.
       -4    1    3    3    0  502 -0.10832825169E+01 -0.74334571594E+03 -0.40280889374E+03  0.84547066459E+03  0.12699999809E+01 0.  1.
</event>
<event>
 5   0  0.4768387E-04  0.1482032E+04  0.7818609E-02  0.8896490E-01
        2   -1    0    0  501    0  0.00000000000E+00  0.00000000000E+00  0.20697910257E+04  0.20697910258E+04  0.25500000920E-02 0. -1.
       -2   -1    0    0    0  501  0.00000000000E+00  0.00000000000E+00 -0.26529466606E+03  0.26529466607E+03  0.25500000920E-02 0.  1.
    10030    2    1    2    0    0  0.00000000000E+00  0.00000000000E+00  0.18044963597E+04  0.23350856918E+04  0.14820317392E+04 0.  0.
        3    1    3    3  502    0  0.19898071187E+02 -0.42361567065E+03  0.18596857694E+04  0.19074268900E+04  0.10100000352E+00 0. -1.
       -3    1    3    3    0  502 -0.19898071187E+02  0.42361567065E+03 -0.55189409660E+02  0.42765880185E+03  0.10100000352E+00 0.  1.
</event>
<event>
 5   0  0.4569211E-04  0.1494555E+04  0.7818609E-02  0.8888082E-01
        2   -1    0    0  501    0  0.00000000000E+00  0.00000000000E+00  0.10729701609E+04  0.10729701609E+04  0.25500000920E-02 0. -1.
       -2   -1    0    0    0  501  0.00000000000E+00  0.00000000000E+00 -0.52044667916E+03  0.52044667917E+03  0.25500000920E-02 0.  1.
    10030    2    1    2    0    0  0.00000000000E+00  0.00000000000E+00  0.55252348175E+03  0.15934168401E+04  0.14945551273E+04 0.  0.
        5    1    3    3  502    0  0.70987608350E+03  0.16059616555E+03  0.95687361598E+02  0.73409355227E+03  0.46999998093E+01 0. -1.
       -5    1    3    3    0  502 -0.70987608350E+03 -0.16059616555E+03  0.45683612015E+03  0.85932328782E+03  0.46999998093E+01 0.  1.
</event>
<event>
 5   0  0.2544374E-04  0.1499059E+04  0.7818609E-02  0.8885079E-01
       -1   -1    0    0    0  501  0.00000000000E+00  0.00000000000E+00  0.51649490656E+03  0.51649490659E+03  0.50400001928E-02 0.  1.
        1   -1    0    0  501    0  0.00000000000E+00  0.00000000000E+00 -0.10877053655E+04  0.10877053655E+04  0.50400001928E-02 0. -1.
    10030    2    1    2    0    0  0.00000000000E+00  0.00000000000E+00 -0.57121045892E+03  0.16042002721E+04  0.14990587462E+04 0.  0.
        4    1    3    3  502    0 -0.72157289779E+02  0.50798307686E+03 -0.87031534363E+03  0.10102989118E+04  0.12699999809E+01 0. -1.
       -4    1    3    3    0  502  0.72157289779E+02 -0.50798307686E+03  0.29910488471E+03  0.59390136032E+03  0.12699999809E+01 0.  1.
</event>
<event>
 5   0  0.4726600E-04  0.1504096E+04  0.7818609E-02  0.8881734E-01
        2   -1    0    0  501    0  0.00000000000E+00  0.00000000000E+00  0.12430389624E+04  0.12430389625E+04  0.25500000920E-02 0.  1.
       -2   -1    0    0    0  501  0.00000000000E+00  0.00000000000E+00 -0.45499473832E+03  0.45499473833E+03  0.25500000920E-02 0. -1.
    10030    2    1    2    0    0  0.00000000000E+00  0.00000000000E+00  0.78804422413E+03  0.16980337008E+04  0.15040959909E+04 0.  0.
        2    1    3    3  502    0 -0.40211447845E+03  0.62907831001E+03  0.29216313257E+03  0.80174489081E+03  0.25500000920E-02 0. -1.
       -2    1    3    3    0  502  0.40211447845E+03 -0.62907831001E+03  0.49588109156E+03  0.89628880997E+03  0.25500000920E-02 0.  1.
</event>
<event>
 5   0  0.4726600E-04  0.1486506E+04  0.7818609E-02  0.8893476E-01
       -2   -1    0    0    0  501  0.00000000000E+00  0.00000000000E+00  0.65676619994E+03  0.65676619995E+03  0.25500000920E-02 0.  1.
        2   -1    0    0  501    0  0.00000000000E+00  0.00000000000E+00 -0.84112892967E+03  0.84112892967E+03  0.25500000920E-02 0. -1.
    10030    2    1    2    0    0  0.00000000000E+00  0.00000000000E+00 -0.18436272972E+03  0.14978951296E+04  0.14865060387E+04 0.  0.
        2    1    3    3  502    0  0.44750598411E+03 -0.25884460009E+03 -0.63027921374E+03  0.81517729366E+03  0.25500000920E-02 0. -1.
       -2    1    3    3    0  502 -0.44750598411E+03  0.25884460009E+03  0.44591648402E+03  0.68271783596E+03  0.25500000920E-02 0.  1.
</event>
<event>
 5   0  0.2544374E-04  0.1502837E+04  0.7818609E-02  0.8882568E-01
        1   -1    0    0  501    0  0.00000000000E+00  0.00000000000E+00  0.13608534512E+04  0.13608534512E+04  0.50400001928E-02 0.  1.
       -1   -1    0    0    0  501  0.00000000000E+00  0.00000000000E+00 -0.41490881433E+03  0.41490881436E+03  0.50400001928E-02 0. -1.
    10030    2    1    2    0    0  0.00000000000E+00  0.00000000000E+00  0.94594463691E+03  0.17757622656E+04  0.15028374389E+04 0.  0.
        4    1    3    3  502    0  0.34940779204E+03  0.49859925011E+03 -0.47392767367E+02  0.61068380087E+03  0.12699999809E+01 0. -1.
       -4    1    3    3    0  502 -0.34940779204E+03 -0.49859925011E+03  0.99333740427E+03  0.11650784647E+04  0.12699999809E+01 0.  1.
</event>
<event>
 5   0  0.4569211E-04  0.1494379E+04  0.7818609E-02  0.8888199E-01
       -2   -1    0    0    0  501  0.00000000000E+00  0.00000000000E+00  0.68689118546E+03  0.68689118547E+03  0.25500000920E-02 0.  1.
        2   -1    0    0  501    0  0.00000000000E+00  0.00000000000E+00 -0.81278099614E+03  0.81278099614E+03  0.25500000920E-02 0. -1.
    10030    2    1    2    0    0  0.00000000000E+00  0.00000000000E+00 -0.12588981068E+03  0.14996721816E+04  0.14943789372E+04 0.  0.
        5    1    3    3  502    0  0.25770521554E+03 -0.34537268439E+03  0.54960698694E+03  0.69841549190E+03  0.46999998093E+01 0.  1.
       -5    1    3    3    0  502 -0.25770521554E+03  0.34537268439E+03 -0.67549679761E+03  0.80125668972E+03  0.46999998093E+01 0. -1.
</event>
<event>
 5   0  0.2605471E-04  0.1518775E+04  0.7818609E-02  0.8872063E-01
        1   -1    0    0  501    0  0.00000000000E+00  0.00000000000E+00  0.42516108871E+03  0.42516108874E+03  0.50400001928E-02 0.  1.
       -1   -1    0    0    0  501  0.00000000000E+00  0.00000000000E+00 -0.13563556381E+04  0.13563556381E+04  0.50400001928E-02 0. -1.
    10030    2    1    2    0    0  0.00000000000E+00  0.00000000000E+00 -0.93119454937E+03  0.17815167268E+04  0.15187753485E+04 0.  0.
        3    1    3    3  502    0 -0.67424929434E+03 -0.61359670346E+02 -0.86903358899E+03  0.11016335639E+04  0.10100000352E+00 0.  1.
       -3    1    3    3    0  502  0.67424929434E+03  0.61359670346E+02 -0.62160960381E+02  0.67988316295E+03  0.10100000352E+00 0. -1.
</event>
<event>
 5   0  0.4785496E-04  0.1436314E+04  0.7818609E-02  0.8927944E-01
       -2   -1    0    0    0  501  0.00000000000E+00  0.00000000000E+00  0.48168005106E+03  0.48168005107E+03  0.25500000920E-02 0. -1.
        2   -1    0    0  501    0  0.00000000000E+00  0.00000000000E+00 -0.10707301626E+04  0.10707301626E+04  0.25500000920E-02 0.  1.
    10030    2    1    2    0    0  0.00000000000E+00  0.00000000000E+00 -0.58905011158E+03  0.15524102137E+04  0.14363138368E+04 0.  0.
        4    1    3    3  502    0  0.26185051476E+03  0.66773751207E+03 -0.25542547292E+03  0.76136907096E+03  0.12699999809E+01 0.  1.
       -4    1    3    3    0  502 -0.26185051476E+03 -0.66773751207E+03 -0.33362463866E+03  0.79104114275E+03  0.12699999809E+01 0. -1.
</event>
<event>
 5   0  0.1792000E-04  0.1518632E+04  0.7818609E-02  0.8872157E-01
        3   -1    0    0  501    0  0.00000000000E+00  0.00000000000E+00  0.16442163036E+04  0.16442163067E+04  0.10100000352E+00 0. -1.
       -3   -1    0    0    0  501  0.00000000000E+00  0.00000000000E+00 -0.35065991435E+03  0.35065992890E+03  0.10100000352E+00 0.  1.
    10030    2    1    2    0    0  0.00000000000E+00  0.00000000000E+00  0.12935563892E+04  0.19948762356E+04  0.15186319709E+04 0.  0.
        1    1    3    3  502    0  0.59766186511E+03  0.45817826556E+03  0.51919152028E+03  0.91470588868E+03  0.50400001928E-02 0. -1.
       -1    1    3    3    0  502 -0.59766186511E+03 -0.45817826556E+03  0.77436486896E+03  0.10801703469E+04  0.50400001928E-02 0.  1.
</event>
<event>
 5   0  0.4569211E-04  0.1503173E+04  0.7818609E-02  0.8882345E-01
       -2   -1    0    0    0  501  0.00000000000E+00  0.00000000000E+00  0.36422603987E+03  0.36422603988E+03  0.25500000920E-02 0. -1.
        2   -1    0    0  501    0  0.00000000000E+00  0.00000000000E+00 -0.15509120346E+04  0.15509120346E+04  0.25500000920E-02 0.  1.
    10030    2    1    2    0    0  0.00000000000E+00  0.00000000000E+00 -0.11866859948E+04  0.19151380745E+04  0.15031733747E+04 0.  0.
        5    1    3    3  502    0  0.43205972517E+03 -0.28514966861E+03 -0.12875315976E+04  0.13877123781E+04  0.46999998093E+01 0.  1.
       -5    1    3    3    0  502 -0.43205972517E+03  0.28514966861E+03  0.10084560281E+03  0.52742569641E+03  0.46999998093E+01 0. -1.
</event>
<event>
 5   0  0.2542737E-04  0.1503396E+04  0.7818609E-02  0.8882198E-01
        1   -1    0    0  501    0  0.00000000000E+00  0.00000000000E+00  0.19473001960E+04  0.19473001960E+04  0.50400001928E-02 0. -1.
       -1   -1    0    0    0  501  0.00000000000E+00  0.00000000000E+00 -0.29017077541E+03  0.29017077546E+03  0.50400001928E-02 0.  1.
    10030    2    1    2    0    0  0.00000000000E+00  0.00000000000E+00  0.16571294206E+04  0.22374709714E+04  0.15033956337E+04 0.  0.
        1    1    3    3  502    0 -0.31405475785E+03  0.59633018143E+03  0.33314568036E+03  0.75181521705E+03  0.50400001928E-02 0. -1.
       -1    1    3    3    0  502  0.31405475785E+03 -0.59633018143E+03  0.13239837402E+04  0.14856557544E+04  0.50400001928E-02 0.  1.
</event>
<event>
 5   0  0.2542737E-04  0.1373733E+04  0.7818609E-02  0.8973055E-01
        1   -1    0    0  501    0  0.00000000000E+00  0.00000000000E+00  0.41657050311E+03  0.41657050314E+03  0.50400001928E-02 0.  1.
       -1   -1    0    0    0  501  0.00000000000E+00  0.00000000000E+00 -0.11325466155E+04  0.11325466155E+04  0.50400001928E-02 0. -1.
    10030    2    1    2    0    0  0.00000000000E+00  0.00000000000E+00 -0.71597611240E+03  0.15491171187E+04  0.13737328903E+04 0.  0.
        1    1    3    3  502    0  0.43571586116E+03 -0.48428458802E+03 -0.11246235394E+03  0.66108067204E+03  0.50400001928E-02 0.  1.
       -1    1    3    3    0  502 -0.43571586116E+03  0.48428458802E+03 -0.60351375846E+03  0.88803644663E+03  0.50400001928E-02 0. -1.
</event>
<event>
 5   0  0.2605471E-04  0.1558104E+04  0.7818609E-02  0.8846708E-01
        1   -1    0    0  501    0  0.00000000000E+00  0.00000000000E+00  0.17880399966E+04  0.17880399966E+04  0.50400001928E-02 0.  1.
       -1   -1    0    0    0  501  0.00000000000E+00  0.00000000000E+00 -0.33943440087E+03  0.33943440091E+03  0.50400001928E-02 0. -1.
    10030    2    1    2    0    0  0.00000000000E+00  0.00000000000E+00  0.14486055957E+04  0.21274743975E+04  0.15581043418E+04 0.  0.
        3    1    3    3  502    0 -0.85507869973E+02 -0.50182274214E+03  0.15295384354E+04  0.16120252777E+04  0.10100000352E+00 0.  1.
       -3    1    3    3    0  502  0.85507869973E+02  0.50182274214E+03 -0.80932839696E+02  0.51544911980E+03  0.10100000352E+00 0. -1.
</event>
<event>
 5   0  0.4785496E-04  0.1490315E+04  0.7818609E-02  0.8890919E-01
       -2   -1    0    0    0  501  0.00000000000E+00  0.00000000000E+00  0.27456407007E+03  0.27456407009E+03  0.25500000920E-02 0.  1.
        2   -1    0    0  501    0  0.00000000000E+00  0.00000000000E+00 -0.20223321657E+04  0.20223321657E+04  0.25500000920E-02 0. -1.
    10030    2    1    2    0    0  0.00000000000E+00  0.00000000000E+00 -0.17477680956E+04  0.22968962358E+04  0.14903150680E+04 0.  0.
        4    1    3    3  502    0 -0.66219242554E+03 -0.47020166314E+01 -0.34729968635E+03  0.74775637907E+03  0.12699999809E+01 0.  1.
       -4    1    3    3    0  502  0.66219242554E+03  0.47020166314E+01 -0.14004684093E+04  0.15491398567E+04  0.12699999809E+01 0. -1.
</event>
<event>
 5   0  0.4948645E-04  0.1505020E+04  0.7818609E-02  0.8881122E-01
        2   -1    0    0  501    0  0.00000000000E+00  0.00000000000E+00  0.21729682100E+04  0.21729682100E+04  0.25500000920E-02 0. -1.
       -2   -1    0    0    0  501  0.00000000000E+00  0.00000000000E+00 -0.26059800344E+03  0.26059800345E+03  0.25500000920E-02 0.  1.
    10030    2    1    2    0    0  0.00000000000E+00  0.00000000000E+00  0.19123702066E+04  0.24335662135E+04  0.15050198365E+04 0.  0.
        1    1    3    3  502    0  0.21607347060E+03 -0.67625439941E+03  0.55270936235E+03  0.89971962115E+03  0.50400001928E-02 0.  1.
       -1    1    3    3    0  502 -0.21607347060E+03  0.67625439941E+03  0.13596608442E+04  0.15338465923E+04  0.50400001928E-02 0. -1.
</event>
<event>
 5   0  0.4569211E-04  0.1501412E+04  0.7818609E-02  0.8883515E-01
        2   -1    0    0  501    0  0.00000000000E+00  0.00000000000E+00  0.63686854526E+03  0.63686854526E+03  0.25500000920E-02 0. -1.
       -2   -1    0    0    0  501  0.00000000000E+00  0.00000000000E+00 -0.88489093484E+03  0.88489093485E+03  0.25500000920E-02 0.  1.
    10030    2    1    2    0    0  0.00000000000E+00  0.00000000000E+00 -0.24802238959E+03  0.15217594801E+04  0.15014116056E+04 0.  0.
        5    1    3    3  502    0 -0.61514787185E+03 -0.37033257813E+03  0.98009994703E+02  0.72469384690E+03  0.46999998093E+01 0.  1.
       -5    1    3    3    0  502  0.61514787185E+03  0.37033257813E+03 -0.34603238429E+03  0.79706563321E+03  0.46999998093E+01 0. -1.
</event>
<event>
 5   0  0.2603873E-04  0.1350501E+04  0.7818609E-02  0.8990449E-01
        1   -1    0    0  501    0  0.00000000000E+00  0.00000000000E+00  0.65824482613E+03  0.65824482615E+03  0.50400001928E-02 0.  1.
       -1   -1    0    0    0  501  0.00000000000E+00  0.00000000000E+00 -0.69269568525E+03  0.69269568527E+03  0.50400001928E-02 0. -1.
    10030    2    1    2    0    0  0.00000000000E+00  0.00000000000E+00 -0.34450859120E+02  0.13509405114E+04  0.13505011676E+04 0.  0.
        2    1    3    3  502    0 -0.60876452022E+03  0.18649183145E+03 -0.24222060220E+03  0.68120794507E+03  0.25500000920E-02 0. -1.
       -2    1    3    3    0  502  0.60876452022E+03 -0.18649183145E+03  0.20776974308E+03  0.66973256635E+03  0.25500000920E-02 0.  1.
</event>
<event>
 5   0  0.2565416E-04  0.1491880E+04  0.7818609E-02  0.8889871E-01
        1   -1    0    0  501    0  0.00000000000E+00  0.00000000000E+00  0.96763944547E+03  0.96763944548E+03  0.50400001928E-02 0.  1.
       -1   -1    0    0    0  501  0.00000000000E+00  0.00000000000E+00 -0.57503503049E+03  0.57503503051E+03  0.50400001928E-02 0. -1.
    10030    2    1    2    0    0  0.00000000000E+00  0.00000000000E+00  0.39260441498E+03  0.15426744760E+04  0.14918801266E+04 0.  0.
        5    1    3    3  502    0 -0.25790088196E+03  0.58139435628E+03  0.59927854370E+03  0.87389308577E+03  0.46999998093E+01 0.  1.
       -5    1    3    3    0  502  0.25790088196E+03 -0.58139435628E+03 -0.20667412872E+03  0.66878139022E+03  0.46999998093E+01 0. -1.
</event>
<event>
 5   0  0.4785496E-04  0.1505961E+04  0.7818609E-02  0.8880499E-01
       -2   -1    0    0    0  501  0.00000000000E+00  0.00000000000E+00  0.52561364389E+03  0.52561364390E+03  0.25500000920E-02 0.  1.
        2   -1    0    0  501    0  0.00000000000E+00  0.00000000000E+00 -0.10786998831E+04  0.10786998831E+04  0.25500000920E-02 0. -1.
    10030    2    1    2    0    0  0.00000000000E+00  0.00000000000E+00 -0.55308623925E+03  0.16043135270E+04  0.15059606585E+04 0.  0.
        4    1    3    3  502    0  0.52321541365E+03 -0.18172746937E+03  0.26686738655E+03  0.61481627915E+03  0.12699999809E+01 0.  1.
       -4    1    3    3    0  502 -0.52321541365E+03  0.18172746937E+03 -0.81995362580E+03  0.98949724789E+03  0.12699999809E+01 0. -1.
</event>
<event>
 5   0  0.2605471E-04  0.1500846E+04  0.7818609E-02  0.8883890E-01
       -1   -1    0    0    0  501  0.00000000000E+00  0.00000000000E+00  0.31313677413E+03  0.31313677417E+03  0.50400001928E-02 0.  1.
        1   -1    0    0  501    0  0.00000000000E+00  0.00000000000E+00 -0.17983669118E+04  0.17983669118E+04  0.50400001928E-02 0. -1.
    10030    2    1    2    0    0  0.00000000000E+00  0.00000000000E+00 -0.14852301376E+04  0.21115036860E+04  0.15008461793E+04 0.  0.
        3    1    3    3  502    0  0.21836790173E+03 -0.41903728066E+03  0.77555954322E+02  0.47884414932E+03  0.10100000352E+00 0.  1.
       -3    1    3    3    0  502 -0.21836790173E+03  0.41903728066E+03 -0.15627860920E+04  0.16326595366E+04  0.10100000352E+00 0. -1.
</event>
<event>
 5   0  0.4785496E-04  0.1515580E+04  0.7818609E-02  0.8874158E-01
        2   -1    0    0  501    0  0.00000000000E+00  0.00000000000E+00  0.12256085516E+04  0.12256085516E+04  0.25500000920E-02 0. -1.
       -2   -1    0    0    0  501  0.00000000000E+00  0.00000000000E+00 -0.46853943316E+03  0.46853943317E+03  0.25500000920E-02 0.  1.
    10030    2    1    2    0    0  0.00000000000E+00  0.00000000000E+00  0.75706911844E+03  0.16941479848E+04  0.15155803325E+04 0.  0.
        4    1    3    3  502    0 -0.13697548101E+03  0.74530665021E+03  0.37875219862E+03  0.84717124957E+03  0.12699999809E+01 0. -1.
       -4    1    3    3    0  502  0.13697548101E+03 -0.74530665021E+03  0.37831691982E+03  0.84697673520E+03  0.12699999809E+01 0.  1.
</event>
<event>
 5   0  0.2542737E-04  0.1497943E+04  0.7818609E-02  0.8885822E-01
       -1   -1    0    0    0  501  0.00000000000E+00  0.00000000000E+00  0.78462315561E+03  0.78462315563E+03  0.50400001928E-02 0. -1.
        1   -1    0    0  501    0  0.00000000000E+00  0.00000000000E+00 -0.71493985223E+03  0.71493985225E+03  0.50400001928E-02 0.  1.
    10030    2    1    2    0    0  0.00000000000E+00  0.00000000000E+00  0.69683303377E+02  0.14995630079E+04  0.14979430736E+04 0.  0.
        1    1    3    3  502    0  0.30195988367E+03 -0.49300010839E+03 -0.44183448380E+03  0.72763080564E+03  0.50400001928E-02 0.  1.
       -1    1    3    3    0  502 -0.30195988367E+03  0.49300010839E+03  0.51151778718E+03  0.77193220224E+03  0.50400001928E-02 0. -1.
</event>
<event>
 5   0  0.2542737E-04  0.1491543E+04  0.7818609E-02  0.8890096E-01
        1   -1    0    0  501    0  0.00000000000E+00  0.00000000000E+00  0.42730140611E+03  0.42730140614E+03  0.50400001928E-02 0. -1.
       -1   -1    0    0    0  501  0.00000000000E+00  0.00000000000E+00 -0.13015995696E+04  0.13015995696E+04  0.50400001928E-02 0.  1.
    10030    2    1    2    0    0  0.00000000000E+00  0.00000000000E+00 -0.87429816345E+03  0.17289009757E+04  0.14915432629E+04 0.  0.
        1    1    3    3  502    0  0.20626256934E+03  0.71533949152E+03 -0.48794635043E+03  0.89013845921E+03  0.50400001928E-02 0.  1.
       -1    1    3    3    0  502 -0.20626256934E+03 -0.71533949152E+03 -0.38635181302E+03  0.83876251651E+03  0.50400001928E-02 0. -1.
</event>
<event>
 5   0  0.4785496E-04  0.1488363E+04  0.7818609E-02  0.8892228E-01
        2   -1    0    0  501    0  0.00000000000E+00  0.00000000000E+00  0.69279580829E+03  0.69279580830E+03  0.25500000920E-02 0.  1.
       -2   -1    0    0    0  501  0.00000000000E+00  0.00000000000E+00 -0.79937856224E+03  0.79937856225E+03  0.25500000920E-02 0. -1.
    10030    2    1    2    0    0  0.00000000000E+00  0.00000000000E+00 -0.10658275395E+03  0.14921743705E+04  0.14883630164E+04 0.  0.
        4    1    3    3  502    0 -0.27975885223E+03  0.22414378374E+03 -0.70711094489E+03  0.79278808800E+03  0.12699999809E+01 0. -1.
       -4    1    3    3    0  502  0.27975885223E+03 -0.22414378374E+03  0.60052819094E+03  0.69938628254E+03  0.12699999809E+01 0.  1.
</event>
<event>
 5   0  0.4948645E-04  0.1498734E+04  0.7818609E-02  0.8885295E-01
       -2   -1    0    0    0  501  0.00000000000E+00  0.00000000000E+00  0.41770748788E+03  0.41770748788E+03  0.25500000920E-02 0. -1.
        2   -1    0    0  501    0  0.00000000000E+00  0.00000000000E+00 -0.13443646367E+04  0.13443646367E+04  0.25500000920E-02 0.  1.
    10030    2    1    2    0    0  0.00000000000E+00  0.00000000000E+00 -0.92665714879E+03  0.17620721246E+04  0.14987343663E+04 0.  0.
        1    1    3    3  502    0  0.51720238621E+03  0.32720926362E+03 -0.97172756645E+03  0.11483983080E+04  0.50400001928E-02 0.  1.
       -1    1    3    3    0  502 -0.51720238621E+03 -0.32720926362E+03  0.45070417661E+02  0.61367381651E+03  0.50400001928E-02 0. -1.
</event>
<event>
 5   0  0.4726600E-04  0.1497718E+04  0.7818609E-02  0.8885972E-01
        2   -1    0    0  501    0  0.00000000000E+00  0.00000000000E+00  0.94082393863E+03  0.94082393863E+03  0.25500000920E-02 0.  1.
       -2   -1    0    0    0  501  0.00000000000E+00  0.00000000000E+00 -0.59606242791E+03  0.59606242791E+03  0.25500000920E-02 0. -1.
    10030    2    1    2    0    0  0.00000000000E+00  0.00000000000E+00  0.34476151072E+03  0.15368863665E+04  0.14977179990E+04 0.  0.
        2    1    3    3  502    0  0.31531405563E+03  0.44477983888E+03  0.69916541517E+03  0.88661397266E+03  0.25500000920E-02 0.  1.
       -2    1    3    3    0  502 -0.31531405563E+03 -0.44477983888E+03 -0.35440390445E+03  0.65027239388E+03  0.25500000920E-02 0. -1.
</event>
<event>
 5   0  0.4785496E-04  0.1473546E+04  0.7818609E-02  0.8902238E-01
       -2   -1    0    0    0  501  0.00000000000E+00  0.00000000000E+00  0.37478979991E+03  0.37478979992E+03  0.25500000920E-02 0. -1.
        2   -1    0    0  501    0  0.00000000000E+00  0.00000000000E+00 -0.14483700573E+04  0.14483700573E+04  0.25500000920E-02 0.  1.
    10030    2    1    2    0    0  0.00000000000E+00  0.00000000000E+00 -0.10735802574E+04  0.18231598572E+04  0.14735458242E+04 0.  0.
        4    1    3    3  502    0 -0.17820494443E+03  0.28836238786E+03  0.27257378775E+03  0.43498040372E+03  0.12699999809E+01 0. -1.
       -4    1    3    3    0  502  0.17820494443E+03 -0.28836238786E+03 -0.13461540452E+04  0.13881794535E+04  0.12699999809E+01 0.  1.
</event>
<event>
 5   0  0.2542737E-04  0.1525728E+04  0.7818609E-02  0.8867522E-01
        1   -1    0    0  501    0  0.00000000000E+00  0.00000000000E+00  0.69826950625E+03  0.69826950626E+03  0.50400001928E-02 0. -1.
       -1   -1    0    0    0  501  0.00000000000E+00  0.00000000000E+00 -0.83343423825E+03  0.83343423827E+03  0.50400001928E-02 0.  1.
    10030    2    1    2    0    0  0.00000000000E+00  0.00000000000E+00 -0.13516473201E+03  0.15317037445E+04  0.15257283035E+04 0.  0.
        1    1    3    3  502    0  0.43833922572E+03 -0.53718562068E+03 -0.38702985260E+03  0.79404141876E+03  0.50400001928E-02 0.  1.
       -1    1    3    3    0  502 -0.43833922572E+03  0.53718562068E+03  0.25186512059E+03  0.73766232578E+03  0.50400001928E-02 0. -1.
</event>
<event>
 5   0  0.2605471E-04  0.1506211E+04  0.7818609E-02  0.8880333E-01
        1   -1    0    0  501    0  0.00000000000E+00  0.00000000000E+00  0.85371736428E+03  0.85371736430E+03  0.50400001928E-02 0. -1.
       -1   -1    0    0    0  501  0.00000000000E+00  0.00000000000E+00 -0.66435098922E+03  0.66435098923E+03  0.50400001928E-02 0.  1.
    10030    2    1    2    0    0  0.00000000000E+00  0.00000000000E+00  0.18936637507E+03  0.15180683535E+04  0.15062111080E+04 0.  0.
        3    1    3    3  502    0 -0.46086219867E+03 -0.10150264329E+03  0.68622023264E+03  0.83282349310E+03  0.10100000352E+00 0. -1.
       -3    1    3    3    0  502  0.46086219867E+03  0.10150264329E+03 -0.49685385758E+03  0.68524486043E+03  0.10100000352E+00 0.  1.
</event>
<event>
 5   0  0.4726600E-04  0.1514572E+04  0.7818609E-02  0.8874820E-01
       -2   -1    0    0    0  501  0.00000000000E+00  0.00000000000E+00  0.43996544341E+03  0.43996544341E+03  0.25500000920E-02 0. -1.
        2   -1    0    0  501    0  0.00000000000E+00  0.00000000000E+00 -0.13034703387E+04  0.13034703387E+04  0.25500000920E-02 0.  1.
    10030    2    1    2    0    0  0.00000000000E+00  0.00000000000E+00 -0.86350489534E+03  0.17434357822E+04  0.15145717620E+04 0.  0.
        2    1    3    3  502    0  0.81637691103E+02  0.70738278497E+03 -0.13507281833E+03  0.72477567795E+03  0.25500000920E-02 0. -1.
       -2    1    3    3    0  502 -0.81637691103E+02 -0.70738278497E+03 -0.72843207701E+03  0.10186601042E+04  0.25500000920E-02 0.  1.
</event>
<event>
 5   0  0.2603873E-04  0.1492346E+04  0.7818609E-02  0.8889559E-01
        1   -1    0    0  501    0  0.00000000000E+00  0.00000000000E+00  0.10166931646E+04  0.10166931646E+04  0.50400001928E-02 0. -1.
       -1   -1    0    0    0  501  0.00000000000E+00  0.00000000000E+00 -0.54763238960E+03  0.54763238962E+03  0.50400001928E-02 0.  1.
    10030    2    1    2    0    0  0.00000000000E+00  0.00000000000E+00  0.46906077502E+03  0.15643255542E+04  0.14923459482E+04 0.  0.
        2    1    3    3  502    0 -0.13307252424E+03 -0.14676084942E+03 -0.51956131464E+03  0.55604946120E+03  0.25500000920E-02 0.  1.
       -2    1    3    3    0  502  0.13307252424E+03  0.14676084942E+03  0.98862208966E+03  0.10082760930E+04  0.25500000920E-02 0. -1.
</event>
<event>
 5   0  0.2544374E-04  0.1506708E+04  0.7818609E-02  0.8880004E-01
        1   -1    0    0  501    0  0.00000000000E+00  0.00000000000E+00  0.81162735985E+03  0.81162735987E+03  0.50400001928E-02 0. -1.
       -1   -1    0    0    0  501  0.00000000000E+00  0.00000000000E+00 -0.69926481471E+03  0.69926481473E+03  0.50400001928E-02 0.  1.
    10030    2    1    2    0    0  0.00000000000E+00  0.00000000000E+00  0.11236254514E+03  0.15108921746E+04  0.15067082736E+04 0.  0.
        4    1    3    3  502    0  0.37420823918E+03 -0.45249185328E+03  0.52946661906E+03  0.79064353355E+03  0.12699999809E+01 0.  1.
       -4    1    3    3    0  502 -0.37420823918E+03  0.45249185328E+03 -0.41710407391E+03  0.72024864105E+03  0.12699999809E+01 0. -1.
</event>
<event>
 5   0  0.2544374E-04  0.1504033E+04  0.7818609E-02  0.8881776E-01
        1   -1    0    0  501    0  0.00000000000E+00  0.00000000000E+00  0.11116054837E+04  0.11116054838E+04  0.50400001928E-02 0. -1.
       -1   -1    0    0    0  501  0.00000000000E+00  0.00000000000E+00 -0.50874947995E+03  0.50874947997E+03  0.50400001928E-02 0.  1.
    10030    2    1    2    0    0  0.00000000000E+00  0.00000000000E+00  0.60285600380E+03  0.16203549637E+04  0.15040328611E+04 0.  0.
        4    1    3    3  502    0 -0.31288605964E+03 -0.18043810723E+03 -0.40918501300E+03  0.54579262052E+03  0.12699999809E+01 0.  1.
       -4    1    3    3    0  502  0.31288605964E+03  0.18043810723E+03  0.10120410168E+04  0.10745623432E+04  0.12699999809E+01 0. -1.
</event>
<event>
 5   0  0.4726600E-04  0.1467480E+04  0.7818609E-02  0.8906371E-01
        2   -1    0    0  501    0  0.00000000000E+00  0.00000000000E+00  0.74431449157E+03  0.74431449157E+03  0.25500000920E-02 0. -1.
       -2   -1    0    0    0  501  0.00000000000E+00  0.00000000000E+00 -0.72331560752E+03  0.72331560752E+03  0.25500000920E-02 0.  1.
    10030    2    1    2    0    0  0.00000000000E+00  0.00000000000E+00  0.20998884052E+02  0.14676300991E+04  0.14674798652E+04 0.  0.
        2    1    3    3  502    0  0.39330436645E+03  0.37680114308E+03  0.50218669506E+03  0.74085012168E+03  0.25500000920E-02 0. -1.
       -2    1    3    3    0  502 -0.39330436645E+03 -0.37680114308E+03 -0.48118781100E+03  0.72677997741E+03  0.25500000920E-02 0.  1.
</event>
<event>
 5   0  0.2542737E-04  0.1490554E+04  0.7818609E-02  0.8890759E-01
       -1   -1    0    0    0  501  0.00000000000E+00  0.00000000000E+00  0.62550188672E+03  0.62550188674E+03  0.50400001928E-02 0.  1.
        1   -1    0    0  501    0  0.00000000000E+00  0.00000000000E+00 -0.88798731331E+03  0.88798731333E+03  0.50400001928E-02 0. -1.
    10030    2    1    2    0    0  0.00000000000E+00  0.00000000000E+00 -0.26248542659E+03  0.15134892001E+04  0.14905539103E+04 0.  0.
        1    1    3    3  502    0 -0.34505554872E+02  0.72613176937E+03 -0.29802529015E+03  0.78566981194E+03  0.50400001928E-02 0. -1.
       -1    1    3    3    0  502  0.34505554872E+02 -0.72613176937E+03  0.35539863565E+02  0.72781938813E+03  0.50400001928E-02 0.  1.
</event>
<event>
 5   0  0.4726600E-04  0.1506605E+04  0.7818609E-02  0.8880072E-01
       -2   -1    0    0    0  501  0.00000000000E+00  0.00000000000E+00  0.40351959524E+03  0.40351959525E+03  0.25500000920E-02 0. -1.
        2   -1    0    0  501    0  0.00000000000E+00  0.00000000000E+00 -0.14062877996E+04  0.14062877996E+04  0.25500000920E-02 0.  1.
    10030    2    1    2    0    0  0.00000000000E+00  0.00000000000E+00 -0.10027682043E+04  0.18098073948E+04  0.15066050361E+04 0.  0.
        2    1    3    3  502    0  0.52560807901E+03 -0.41118336185E+03 -0.92118414208E+03  0.11375042125E+04  0.25500000920E-02 0.  1.
       -2    1    3    3    0  502 -0.52560807901E+03  0.41118336185E+03 -0.81584062267E+02  0.67230318236E+03  0.25500000920E-02 0. -1.
</event>
<event>
 5   0  0.4726600E-04  0.1502352E+04  0.7818609E-02  0.8882890E-01
        2   -1    0    0  501    0  0.00000000000E+00  0.00000000000E+00  0.15007207735E+04  0.15007207735E+04  0.25500000920E-02 0.  1.
       -2   -1    0    0    0  501  0.00000000000E+00  0.00000000000E+00 -0.37599618021E+03  0.37599618022E+03  0.25500000920E-02 0. -1.
    10030    2    1    2    0    0  0.00000000000E+00  0.00000000000E+00  0.11247245933E+04  0.18767169537E+04  0.15023518608E+04 0.  0.
        2    1    3    3  502    0  0.32139514663E+03  0.37123861120E+03 -0.14775610194E+03  0.51278144701E+03  0.25500000920E-02 0. -1.
       -2    1    3    3    0  502 -0.32139514663E+03 -0.37123861120E+03  0.12724806952E+04  0.13639355067E+04  0.25500000920E-02 0.  1.
</event>
<event>
 5   0  0.4726600E-04  0.1534690E+04  0.7818609E-02  0.8861707E-01
        2   -1    0    0  501    0  0.00000000000E+00  0.00000000000E+00  0.85800953601E+03  0.85800953601E+03  0.25500000920E-02 0. -1.
       -2   -1    0    0    0  501  0.00000000000E+00  0.00000000000E+00 -0.68626097951E+03  0.68626097951E+03  0.25500000920E-02 0.  1.
    10030    2    1    2    0    0  0.00000000000E+00  0.00000000000E+00  0.17174855650E+03  0.15442705155E+04  0.15346901506E+04 0.  0.
        2    1    3    3  502    0 -0.11039065256E+03  0.67388367153E+01 -0.67819912147E+03  0.68715759216E+03  0.25500000920E-02 0.  1.
       -2    1    3    3    0  502  0.11039065256E+03 -0.67388367153E+01  0.84994767797E+03  0.85711292336E+03  0.25500000920E-02 0. -1.
</event>
<event>
 5   0  0.4948645E-04  0.1482602E+04  0.7818609E-02  0.8896106E-01
        2   -1    0    0  501    0  0.00000000000E+00  0.00000000000E+00  0.46621929239E+03  0.46621929240E+03  0.25500000920E-02 0. -1.
       -2   -1    0    0    0  501  0.00000000000E+00  0.00000000000E+00 -0.11786881436E+04  0.11786881436E+04  0.25500000920E-02 0.  1.
    10030    2    1    2    0    0  0.00000000000E+00  0.00000000000E+00 -0.71246885119E+03  0.16449074360E+04  0.14826019726E+04 0.  0.
        1    1    3    3  502    0  0.45803845815E+03 -0.56557985208E+03 -0.19993110718E+03  0.75475310258E+03  0.50400001928E-02 0. -1.
       -1    1    3    3    0  502 -0.45803845815E+03  0.56557985208E+03 -0.51253774402E+03  0.89015433341E+03  0.50400001928E-02 0.  1.
</event>
<event>
 5   0  0.2603873E-04  0.1491689E+04  0.7818609E-02  0.8889999E-01
        1   -1    0    0  501    0  0.00000000000E+00  0.00000000000E+00  0.68560590451E+03  0.68560590453E+03  0.50400001928E-02 0. -1.
       -1   -1    0    0    0  501  0.00000000000E+00  0.00000000000E+00 -0.81137533588E+03  0.81137533589E+03  0.50400001928E-02 0.  1.
    10030    2    1    2    0    0  0.00000000000E+00  0.00000000000E+00 -0.12576943137E+03  0.14969812404E+04  0.14916886017E+04 0.  0.
        2    1    3    3  502    0  0.49116752052E+03  0.51852811648E+02 -0.62375002147E+03  0.79561192586E+03  0.25500000920E-02 0.  1.
       -2    1    3    3    0  502 -0.49116752052E+03 -0.51852811648E+02  0.49798059010E+03  0.70136931456E+03  0.25500000920E-02 0. -1.
</event>
<event>
 5   0  0.4785496E-04  0.1491838E+04  0.7818609E-02  0.8889899E-01
        2   -1    0    0  501    0  0.00000000000E+00  0.00000000000E+00  0.53109320800E+03  0.53109320800E+03  0.25500000920E-02 0. -1.
       -2   -1    0    0    0  501  0.00000000000E+00  0.00000000000E+00 -0.10476416612E+04  0.10476416612E+04  0.25500000920E-02 0.  1.
    10030    2    1    2    0    0  0.00000000000E+00  0.00000000000E+00 -0.51654845318E+03  0.15787348692E+04  0.14918382897E+04 0.  0.
        4    1    3    3  502    0 -0.62649577618E+03 -0.39402249684E+03 -0.35665755742E+03  0.82155761316E+03  0.12699999809E+01 0.  1.
       -4    1    3    3    0  502  0.62649577618E+03  0.39402249684E+03 -0.15989089576E+03  0.75717725602E+03  0.12699999809E+01 0. -1.
</event>
<event>
 5   0  0.4569211E-04  0.1451451E+04  0.7818609E-02  0.8917395E-01
       -2   -1    0    0    0  501  0.00000000000E+00  0.00000000000E+00  0.57470248047E+03  0.57470248048E+03  0.25500000920E-02 0.  1.
        2   -1    0    0  501    0  0.00000000000E+00  0.00000000000E+00 -0.91643528827E+03  0.91643528827E+03  0.25500000920E-02 0. -1.
    10030    2    1    2    0    0  0.00000000000E+00  0.00000000000E+00 -0.34173280780E+03  0.14911377687E+04  0.14514511819E+04 0.  0.
        5    1    3    3  502    0  0.40381325882E+03 -0.35207992050E+03 -0.67377150899E+03  0.86082260353E+03  0.46999998093E+01 0. -1.
       -5    1    3    3    0  502 -0.40381325882E+03  0.35207992050E+03  0.33203870120E+03  0.63031516522E+03  0.46999998093E+01 0.  1.
</event>
<event>
 5   0  0.2605471E-04  0.1501916E+04  0.7818609E-02  0.8883180E-01
        1   -1    0    0  501    0  0.00000000000E+00  0.00000000000E+00  0.73968533042E+03  0.73968533044E+03  0.50400001928E-02 0.  1.
       -1   -1    0    0    0  501  0.00000000000E+00  0.00000000000E+00 -0.76240238967E+03  0.76240238969E+03  0.50400001928E-02 0. -1.
    10030    2    1    2    0    0  0.00000000000E+00  0.00000000000E+00 -0.22717059248E+02  0.15020877201E+04  0.15019159278E+04 0.  0.
        3    1    3    3  502    0 -0.28477283647E+03  0.24749007518E+02 -0.70586561729E+03  0.76154734694E+03  0.10100000352E+00 0. -1.
       -3    1    3    3    0  502  0.28477283647E+03 -0.24749007518E+02  0.68314855804E+03  0.74054037318E+03  0.10100000352E+00 0.  1.
</event>
<event>
 5   0  0.4569211E-04  0.1498583E+04  0.7818609E-02  0.8885395E-01
        2   -1    0    0  501    0  0.00000000000E+00  0.00000000000E+00  0.17762103144E+04  0.17762103144E+04  0.25500000920E-02 0. -1.
       -2   -1    0    0    0  501  0.00000000000E+00  0.00000000000E+00 -0.31608759060E+03  0.31608759061E+03  0.25500000920E-02 0.  1.
    10030    2    1    2    0    0  0.00000000000E+00  0.00000000000E+00  0.14601227238E+04  0.20922979050E+04  0.14985833826E+04 0.  0.
        5    1    3    3  502    0 -0.53819097747E+03  0.47442225658E+03  0.42837597159E+03  0.83561598166E+03  0.46999998093E+01 0.  1.
       -5    1    3    3    0  502  0.53819097747E+03 -0.47442225658E+03  0.10317467522E+04  0.12566819233E+04  0.46999998093E+01 0. -1.
</event>
<event>
 5   0  0.2565416E-04  0.1445628E+04  0.7818609E-02  0.8921437E-01
       -1   -1    0    0    0  501  0.00000000000E+00  0.00000000000E+00  0.41262808503E+03  0.41262808507E+03  0.50400001928E-02 0. -1.
        1   -1    0    0  501    0  0.00000000000E+00  0.00000000000E+00 -0.12661774159E+04  0.12661774159E+04  0.50400001928E-02 0.  1.
    10030    2    1    2    0    0  0.00000000000E+00  0.00000000000E+00 -0.85354933084E+03  0.16788055009E+04  0.14456283927E+04 0.  0.
        5    1    3    3  502    0  0.29824013646E+03  0.59035230740E+03 -0.76529902960E+03  0.10115175335E+04  0.46999998093E+01 0.  1.
       -5    1    3    3    0  502 -0.29824013646E+03 -0.59035230740E+03 -0.88250301240E+02  0.66728796746E+03  0.46999998093E+01 0. -1.
</event>
<event>
 5   0  0.4569211E-04  0.1500911E+04  0.7818609E-02  0.8883847E-01
        2   -1    0    0  501    0  0.00000000000E+00  0.00000000000E+00  0.73508084206E+03  0.73508084206E+03  0.25500000920E-02 0. -1.
       -2   -1    0    0    0  501  0.00000000000E+00  0.00000000000E+00 -0.76615211823E+03  0.76615211824E+03  0.25500000920E-02 0.  1.
    10030    2    1    2    0    0  0.00000000000E+00  0.00000000000E+00 -0.31071276176E+02  0.15012329603E+04  0.15009113821E+04 0.  0.
        5    1    3    3  502    0  0.44007563328E+02 -0.36999868552E+03 -0.66707827595E+03  0.76410156992E+03  0.46999998093E+01 0.  1.
       -5    1    3    3    0  502 -0.44007563328E+02  0.36999868552E+03  0.63600699977E+03  0.73713139037E+03  0.46999998093E+01 0. -1.
</event>
<event>
 5   0  0.4726600E-04  0.1495700E+04  0.7818609E-02  0.8887318E-01
        2   -1    0    0  501    0  0.00000000000E+00  0.00000000000E+00  0.95277631153E+03  0.95277631154E+03  0.25500000920E-02 0. -1.
       -2   -1    0    0    0  501  0.00000000000E+00  0.00000000000E+00 -0.58699956867E+03  0.58699956868E+03  0.25500000920E-02 0.  1.
    10030    2    1    2    0    0  0.00000000000E+00  0.00000000000E+00  0.36577674286E+03  0.15397758802E+04  0.14956995473E+04 0.  0.
        2    1    3    3  502    0 -0.60076979702E+03  0.37687296403E+03 -0.61427140965E+02  0.71185031690E+03  0.25500000920E-02 0. -1.
       -2    1    3    3    0  502  0.60076979702E+03 -0.37687296403E+03  0.42720388383E+03  0.82792556331E+03  0.25500000920E-02 0.  1.
</event>
<event>
 5   0  0.2542737E-04  0.1509466E+04  0.7818609E-02  0.8878182E-01
       -1   -1    0    0    0  501  0.00000000000E+00  0.00000000000E+00  0.57244128650E+03  0.57244128652E+03  0.50400001928E-02 0.  1.
        1   -1    0    0  501    0  0.00000000000E+00  0.00000000000E+00 -0.99507512297E+03  0.99507512298E+03  0.50400001928E-02 0. -1.
    10030    2    1    2    0    0  0.00000000000E+00  0.00000000000E+00 -0.42263383647E+03  0.15675164095E+04  0.15094662415E+04 0.  0.
        1    1    3    3  502    0  0.29275143353E+03  0.46327852133E+03 -0.75020697443E+03  0.92905376307E+03  0.50400001928E-02 0. -1.
       -1    1    3    3    0  502 -0.29275143353E+03 -0.46327852133E+03  0.32757313796E+03  0.63846264644E+03  0.50400001928E-02 0.  1.
</event>
<event>
 5   0  0.2542737E-04  0.1504179E+04  0.7818609E-02  0.8881679E-01
       -1   -1    0    0    0  501  0.00000000000E+00  0.00000000000E+00  0.49198093169E+03  0.49198093172E+03  0.50400001928E-02 0.  1.
        1   -1    0    0  501    0  0.00000000000E+00  0.00000000000E+00 -0.11497169255E+04  0.11497169255E+04  0.50400001928E-02 0. -1.
    10030    2    1    2    0    0  0.00000000000E+00  0.00000000000E+00 -0.65773599380E+03  0.16416978572E+04  0.15041792502E+04 0.  0.
        1    1    3    3  502    0  0.50058245523E+03  0.54905069044E+03 -0.20159018571E+03  0.76985586843E+03  0.50400001928E-02 0. -1.
       -1    1    3    3    0  502 -0.50058245523E+03 -0.54905069044E+03 -0.45614580809E+03  0.87184198879E+03  0.50400001928E-02 0.  1.
</event>
<event>
 5   0  0.4785496E-04  0.1500975E+04  0.7818609E-02  0.8883805E-01
        2   -1    0    0  501    0  0.00000000000E+00  0.00000000000E+00  0.83823886013E+03  0.83823886013E+03  0.25500000920E-02 0.  1.
       -2   -1    0    0    0  501  0.00000000000E+00  0.00000000000E+00 -0.67192255056E+03  0.67192255057E+03  0.25500000920E-02 0. -1.
    10030    2    1    2    0    0  0.00000000000E+00  0.00000000000E+00  0.16631630957E+03  0.15101614107E+04  0.15009751402E+04 0.  0.
        4    1    3    3  502    0  0.32658190917E+03 -0.29501839398E+03 -0.52845898395E+03  0.68772240533E+03  0.12699999809E+01 0. -1.
       -4    1    3    3    0  502 -0.32658190917E+03  0.29501839398E+03  0.69477529351E+03  0.82243900537E+03  0.12699999809E+01 0.  1.
</event>
<event>
 5   0  0.4785496E-04  0.1498692E+04  0.7818609E-02  0.8885323E-01
        2   -1    0    0  501    0  0.00000000000E+00  0.00000000000E+00  0.58190898070E+03  0.58190898070E+03  0.25500000920E-02 0. -1.
       -2   -1    0    0    0  501  0.00000000000E+00  0.00000000000E+00 -0.96496147275E+03  0.96496147275E+03  0.25500000920E-02 0.  1.
    10030    2    1    2    0    0  0.00000000000E+00  0.00000000000E+00 -0.38305249205E+03  0.15468704535E+04  0.14986924261E+04 0.  0.
        4    1    3    3  502    0  0.85817511441E+02 -0.72802429115E+02 -0.95618835375E+03  0.96278897984E+03  0.12699999809E+01 0.  1.
       -4    1    3    3    0  502 -0.85817511441E+02  0.72802429115E+02  0.57313586170E+03  0.58408147361E+03  0.12699999809E+01 0. -1.
</event>
<event>
 5   0  0.4948645E-04  0.1503498E+04  0.7818609E-02  0.8882130E-01
        2   -1    0    0  501    0  0.00000000000E+00  0.00000000000E+00  0.15054896040E+04  0.15054896040E+04  0.25500000920E-02 0. -1.
       -2   -1    0    0    0  501  0.00000000000E+00  0.00000000000E+00 -0.37537702123E+03  0.37537702124E+03  0.25500000920E-02 0.  1.
    10030    2    1    2    0    0  0.00000000000E+00  0.00000000000E+00  0.11301125828E+04  0.18808666252E+04  0.15034975265E+04 0.  0.
        1    1    3    3  502    0  0.48080844899E+03 -0.55585284527E+03  0.76276503595E+03  0.10592259675E+04  0.50400001928E-02 0.  1.
       -1    1    3    3    0  502 -0.48080844899E+03  0.55585284527E+03  0.36734754681E+03  0.82164065770E+03  0.50400001928E-02 0. -1.
</event>
<event>
 5   0  0.4569211E-04  0.1496504E+04  0.7818609E-02  0.8886781E-01
        2   -1    0    0  501    0  0.00000000000E+00  0.00000000000E+00  0.47530261129E+03  0.47530261129E+03  0.25500000920E-02 0. -1.
       -2   -1    0    0    0  501  0.00000000000E+00  0.00000000000E+00 -0.11779466214E+04  0.11779466214E+04  0.25500000920E-02 0.  1.
    10030    2    1    2    0    0  0.00000000000E+00  0.00000000000E+00 -0.70264401013E+03  0.16532492327E+04  0.14965040663E+04 0.  0.
        5    1    3    3  502    0 -0.69050970666E+03 -0.13460448698E+03 -0.63284022841E+03  0.94627208963E+03  0.46999998093E+01 0.  1.
       -5    1    3    3    0  502  0.69050970666E+03  0.13460448698E+03 -0.69803781720E+02  0.70697714309E+03  0.46999998093E+01 0. -1.
</event>
<event>
 5   0  0.2605471E-04  0.1496864E+04  0.7818609E-02  0.8886541E-01
        1   -1    0    0  501    0  0.00000000000E+00  0.00000000000E+00  0.73185315138E+03  0.73185315139E+03  0.50400001928E-02 0.  1.
       -1   -1    0    0    0  501  0.00000000000E+00  0.00000000000E+00 -0.76538617930E+03  0.76538617932E+03  0.50400001928E-02 0. -1.
    10030    2    1    2    0    0  0.00000000000E+00  0.00000000000E+00 -0.33533027925E+02  0.14972393307E+04  0.14968637712E+04 0.  0.
        3    1    3    3  502    0 -0.33168694225E+02 -0.28669944319E+03  0.67395257294E+03  0.73314992585E+03  0.10100000352E+00 0.  1.
       -3    1    3    3    0  502  0.33168694225E+02  0.28669944319E+03 -0.70748560086E+03  0.76408940487E+03  0.10100000352E+00 0. -1.
</event>
<event>
 5   0  0.2542737E-04  0.1493549E+04  0.7818609E-02  0.8888754E-01
        1   -1    0    0  501    0  0.00000000000E+00  0.00000000000E+00  0.88406093904E+03  0.88406093905E+03  0.50400001928E-02 0. -1.
       -1   -1    0    0    0  501  0.00000000000E+00  0.00000000000E+00 -0.63080744027E+03  0.63080744029E+03  0.50400001928E-02 0.  1.
    10030    2    1    2    0    0  0.00000000000E+00  0.00000000000E+00  0.25325349877E+03  0.15148683793E+04  0.14935490859E+04 0.  0.
        1    1    3    3  502    0  0.34374620326E+02  0.10715411507E+03  0.87541164851E+03  0.88261496321E+03  0.50400001928E-02 0. -1.
       -1    1    3    3    0  502 -0.34374620326E+02 -0.10715411507E+03 -0.62215814975E+03  0.63225341614E+03  0.50400001928E-02 0.  1.
</event>
<event>
 5   0  0.4726600E-04  0.1566256E+04  0.7818609E-02  0.8841551E-01
        2   -1    0    0  501    0  0.00000000000E+00  0.00000000000E+00  0.23081598482E+04  0.23081598482E+04  0.25500000920E-02 0. -1.
       -2   -1    0    0    0  501  0.00000000000E+00  0.00000000000E+00 -0.26570499578E+03  0.26570499579E+03  0.25500000920E-02 0.  1.
    10030    2    1    2    0    0  0.00000000000E+00  0.00000000000E+00  0.20424548524E+04  0.25738648440E+04  0.15662561766E+04 0.  0.
        2    1    3    3  502    0  0.70401445590E+03  0.32759485096E+02  0.15823207320E+04  0.17321802553E+04  0.25500000920E-02 0. -1.
       -2    1    3    3    0  502 -0.70401445590E+03 -0.32759485096E+02  0.46013412036E+03  0.84168458861E+03  0.25500000920E-02 0.  1.
</event>
<event>
 5   0  0.2565416E-04  0.1494863E+04  0.7818609E-02  0.8887876E-01
        1   -1    0    0  501    0  0.00000000000E+00  0.00000000000E+00  0.95584744293E+03  0.95584744295E+03  0.50400001928E-02 0. -1.
       -1   -1    0    0    0  501  0.00000000000E+00  0.00000000000E+00 -0.58445938504E+03  0.58445938506E+03  0.50400001928E-02 0.  1.
    10030    2    1    2    0    0  0.00000000000E+00  0.00000000000E+00  0.37138805790E+03  0.15403068280E+04  0.14948632161E+04 0.  0.
        5    1    3    3  502    0 -0.11918660532E+01 -0.16810700810E+02 -0.58424835630E+03  0.58451026684E+03  0.46999998093E+01 0.  1.
       -5    1    3    3    0  502  0.11918660532E+01  0.16810700810E+02  0.95563641419E+03  0.95579656117E+03  0.46999998093E+01 0. -1.
</event>
<event>
 5   0  0.2542737E-04  0.1406908E+04  0.7818609E-02  0.8948833E-01
        1   -1    0    0  501    0  0.00000000000E+00  0.00000000000E+00  0.15092856176E+04  0.15092856176E+04  0.50400001928E-02 0. -1.
       -1   -1    0    0    0  501  0.00000000000E+00  0.00000000000E+00 -0.32786885636E+03  0.32786885639E+03  0.50400001928E-02 0.  1.
    10030    2    1    2    0    0  0.00000000000E+00  0.00000000000E+00  0.11814167612E+04  0.18371544740E+04  0.14069083117E+04 0.  0.
        1    1    3    3  502    0  0.69806009719E+03 -0.86283021296E+02  0.60471712623E+03  0.92758582451E+03  0.50400001928E-02 0.  1.
       -1    1    3    3    0  502 -0.69806009719E+03  0.86283021296E+02  0.57669963497E+03  0.90956864945E+03  0.50400001928E-02 0. -1.
</event>
<event>
 5   0  0.2603873E-04  0.1503415E+04  0.7818609E-02  0.8882185E-01
       -1   -1    0    0    0  501  0.00000000000E+00  0.00000000000E+00  0.62321396975E+03  0.62321396977E+03  0.50400001928E-02 0. -1.
        1   -1    0    0  501    0  0.00000000000E+00  0.00000000000E+00 -0.90669344844E+03  0.90669344845E+03  0.50400001928E-02 0.  1.
    10030    2    1    2    0    0  0.00000000000E+00  0.00000000000E+00 -0.28347947869E+03  0.15299074182E+04  0.15034148109E+04 0.  0.
        2    1    3    3  502    0  0.64642490693E+03  0.15144237838E+03  0.21698316857E+03  0.69848525376E+03  0.25500000920E-02 0. -1.
       -2    1    3    3    0  502 -0.64642490693E+03 -0.15144237838E+03 -0.50046264726E+03  0.83142216447E+03  0.25500000920E-02 0.  1.
</event>
<event>
 5   0  0.4726600E-04  0.1497069E+04  0.7818609E-02  0.8886404E-01
        2   -1    0    0  501    0  0.00000000000E+00  0.00000000000E+00  0.20495576395E+04  0.20495576395E+04  0.25500000920E-02 0.  1.
       -2   -1    0    0    0  501  0.00000000000E+00  0.00000000000E+00 -0.27337804738E+03  0.27337804739E+03  0.25500000920E-02 0. -1.
    10030    2    1    2    0    0  0.00000000000E+00  0.00000000000E+00  0.17761795922E+04  0.23229356869E+04  0.14970692242E+04 0.  0.
        2    1    3    3  502    0  0.57682128589E+02  0.45261960641E+03  0.18088274831E+04  0.18654888366E+04  0.25500000920E-02 0.  1.
       -2    1    3    3    0  502 -0.57682128589E+02 -0.45261960641E+03 -0.32647890911E+02  0.45744685030E+03  0.25500000920E-02 0. -1.
</event>
<event>
 5   0  0.4768387E-04  0.1453523E+04  0.7818609E-02  0.8915962E-01
       -2   -1    0    0    0  501  0.00000000000E+00  0.00000000000E+00  0.62284421475E+03  0.62284421475E+03  0.25500000920E-02 0.  1.
        2   -1    0    0  501    0  0.00000000000E+00  0.00000000000E+00 -0.84801659606E+03  0.84801659607E+03  0.25500000920E-02 0. -1.
    10030    2    1    2    0    0  0.00000000000E+00  0.00000000000E+00 -0.22517238131E+03  0.14708608108E+04  0.14535229353E+04 0.  0.
        3    1    3    3  502    0  0.29402675142E+03 -0.19814763356E+03 -0.75455712963E+03  0.83370899438E+03  0.10100000352E+00 0. -1.
       -3    1    3    3    0  502 -0.29402675142E+03  0.19814763356E+03  0.52938474832E+03  0.63715181644E+03  0.10100000352E+00 0.  1.
</event>
<event>
 5   0  0.2565416E-04  0.1496625E+04  0.7818609E-02  0.8886700E-01
       -1   -1    0    0    0  501  0.00000000000E+00  0.00000000000E+00  0.34331811091E+03  0.34331811094E+03  0.50400001928E-02 0.  1.
        1   -1    0    0  501    0  0.00000000000E+00  0.00000000000E+00 -0.16310572513E+04  0.16310572513E+04  0.50400001928E-02 0. -1.
    10030    2    1    2    0    0  0.00000000000E+00  0.00000000000E+00 -0.12877391404E+04  0.19743753622E+04  0.14966248619E+04 0.  0.
        5    1    3    3  502    0  0.22263773549E+03  0.25279706284E+03 -0.15253558924E+04  0.15621160663E+04  0.46999998093E+01 0. -1.
       -5    1    3    3    0  502 -0.22263773549E+03 -0.25279706284E+03  0.23761675200E+03  0.41225929592E+03  0.46999998093E+01 0.  1.
</event>
<event>
 5   0  0.2542737E-04  0.1502152E+04  0.7818609E-02  0.8883023E-01
        1   -1    0    0  501    0  0.00000000000E+00  0.00000000000E+00  0.85970674991E+03  0.85970674992E+03  0.50400001928E-02 0. -1.
       -1   -1    0    0    0  501  0.00000000000E+00  0.00000000000E+00 -0.65617154089E+03  0.65617154090E+03  0.50400001928E-02 0.  1.
    10030    2    1    2    0    0  0.00000000000E+00  0.00000000000E+00  0.20353520902E+03  0.15158782908E+04  0.15021519268E+04 0.  0.
        1    1    3    3  502    0  0.55658934324E+02 -0.66542141125E+03  0.44875774230E+03  0.80452910626E+03  0.50400001928E-02 0. -1.
       -1    1    3    3    0  502 -0.55658934324E+02  0.66542141125E+03 -0.24522253328E+03  0.71134918456E+03  0.50400001928E-02 0.  1.
</event>
<event>
 5   0  0.2605471E-04  0.1502478E+04  0.7818609E-02  0.8882807E-01
       -1   -1    0    0    0  501  0.00000000000E+00  0.00000000000E+00  0.64833869554E+03  0.64833869556E+03  0.50400001928E-02 0. -1.
        1   -1    0    0  501    0  0.00000000000E+00  0.00000000000E+00 -0.87047088003E+03  0.87047088005E+03  0.50400001928E-02 0.  1.
    10030    2    1    2    0    0  0.00000000000E+00  0.00000000000E+00 -0.22213218449E+03  0.15188095756E+04  0.15024778932E+04 0.  0.
        3    1    3    3  502    0 -0.64944160858E+03  0.17466958690E+03 -0.44948272242E+03  0.80889962016E+03  0.10100000352E+00 0.  1.
       -3    1    3    3    0  502  0.64944160858E+03 -0.17466958690E+03  0.22735053793E+03  0.70990995544E+03  0.10100000352E+00 0. -1.
</event>
<event>
 5   0  0.4569211E-04  0.1488855E+04  0.7818609E-02  0.8891898E-01
        2   -1    0    0  501    0  0.00000000000E+00  0.00000000000E+00  0.11890961531E+04  0.11890961531E+04  0.25500000920E-02 0. -1.
       -2   -1    0    0    0  501  0.00000000000E+00  0.00000000000E+00 -0.46604499995E+03  0.46604499996E+03  0.25500000920E-02 0.  1.
    10030    2    1    2    0    0  0.00000000000E+00  0.00000000000E+00  0.72305115311E+03  0.16551411530E+04  0.14888550186E+04 0.  0.
        5    1    3    3  502    0  0.57867906203E+03 -0.44336979813E+03  0.19401827625E+03  0.75439473503E+03  0.46999998093E+01 0. -1.
       -5    1    3    3    0  502 -0.57867906203E+03  0.44336979813E+03  0.52903287686E+03  0.90074641799E+03  0.46999998093E+01 0.  1.
</event>
<event>
 5   0  0.1792000E-04  0.1492339E+04  0.7818609E-02  0.8889563E-01
        3   -1    0    0  501    0  0.00000000000E+00  0.00000000000E+00  0.22343805356E+03  0.22343807639E+03  0.10100000352E+00 0. -1.
       -3   -1    0    0    0  501  0.00000000000E+00  0.00000000000E+00 -0.24918282652E+04  0.24918282673E+04  0.10100000352E+00 0.  1.
    10030    2    1    2    0    0  0.00000000000E+00  0.00000000000E+00 -0.22683902117E+04  0.27152663437E+04  0.14923394938E+04 0.  0.
        2    1    3    3  502    0 -0.53601779031E+02 -0.27059598700E+03 -0.23956452717E+04  0.24114749857E+04  0.25500000920E-02 0.  1.
       -2    1    3    3    0  502  0.53601779031E+02  0.27059598700E+03  0.12725505998E+03  0.30379135800E+03  0.25500000920E-02 0. -1.
</event>
<event>
 5   0  0.4726600E-04  0.1495891E+04  0.7818609E-02  0.8887190E-01
       -2   -1    0    0    0  501  0.00000000000E+00  0.00000000000E+00  0.51709950550E+03  0.51709950551E+03  0.25500000920E-02 0. -1.
        2   -1    0    0  501    0  0.00000000000E+00  0.00000000000E+00 -0.10818463579E+04  0.10818463579E+04  0.25500000920E-02 0.  1.
    10030    2    1    2    0    0  0.00000000000E+00  0.00000000000E+00 -0.56474685235E+03  0.15989458634E+04  0.14958906600E+04 0.  0.
        2    1    3    3  502    0  0.16788991641E+03 -0.38952402142E+03  0.37610774894E+03  0.56689772104E+03  0.25500000920E-02 0. -1.
       -2    1    3    3    0  502 -0.16788991641E+03  0.38952402142E+03 -0.94085460129E+03  0.10320481423E+04  0.25500000920E-02 0.  1.
</event>
<event>
 5   0  0.4726600E-04  0.1498424E+04  0.7818609E-02  0.8885502E-01
        2   -1    0    0  501    0  0.00000000000E+00  0.00000000000E+00  0.13788441784E+04  0.13788441785E+04  0.25500000920E-02 0.  1.
       -2   -1    0    0    0  501  0.00000000000E+00  0.00000000000E+00 -0.40709363000E+03  0.40709363000E+03  0.25500000920E-02 0. -1.
    10030    2    1    2    0    0  0.00000000000E+00  0.00000000000E+00  0.97175054845E+03  0.17859378085E+04  0.14984240812E+04 0.  0.
        2    1    3    3  502    0 -0.68125008135E+02  0.27346556479E+01 -0.40338843419E+03  0.40910967224E+03  0.25500000920E-02 0. -1.
       -2    1    3    3    0  502  0.68125008135E+02 -0.27346556479E+01  0.13751389826E+04  0.13768281362E+04  0.25500000920E-02 0.  1.
</event>
<event>
 5   0  0.4569211E-04  0.1489655E+04  0.7818609E-02  0.8891361E-01
        2   -1    0    0  501    0  0.00000000000E+00  0.00000000000E+00  0.16142425862E+04  0.16142425862E+04  0.25500000920E-02 0.  1.
       -2   -1    0    0    0  501  0.00000000000E+00  0.00000000000E+00 -0.34367100823E+03  0.34367100824E+03  0.25500000920E-02 0. -1.
    10030    2    1    2    0    0  0.00000000000E+00  0.00000000000E+00  0.12705715780E+04  0.19579135945E+04  0.14896555000E+04 0.  0.
        5    1    3    3  502    0  0.41364516868E+03  0.46043319115E+03  0.90753600291E+02  0.62558720819E+03  0.46999998093E+01 0. -1.
       -5    1    3    3    0  502 -0.41364516868E+03 -0.46043319115E+03  0.11798179777E+04  0.13323263863E+04  0.46999998093E+01 0.  1.
</event>
<event>
 5   0  0.4948645E-04  0.1500508E+04  0.7818609E-02  0.8884115E-01
        2   -1    0    0  501    0  0.00000000000E+00  0.00000000000E+00  0.15500395647E+04  0.15500395647E+04  0.25500000920E-02 0. -1.
       -2   -1    0    0    0  501  0.00000000000E+00  0.00000000000E+00 -0.36313964180E+03  0.36313964180E+03  0.25500000920E-02 0.  1.
    10030    2    1    2    0    0  0.00000000000E+00  0.00000000000E+00  0.11868999229E+04  0.19131792065E+04  0.15005076638E+04 0.  0.
        1    1    3    3  502    0  0.41120306231E+03 -0.61237143133E+03  0.41865536014E+03  0.84815036342E+03  0.50400001928E-02 0. -1.
       -1    1    3    3    0  502 -0.41120306231E+03  0.61237143133E+03  0.76824456274E+03  0.10650288431E+04  0.50400001928E-02 0.  1.
</event>
<event>
 5   0  0.4726600E-04  0.1494463E+04  0.7818609E-02  0.8888143E-01
        2   -1    0    0  501    0  0.00000000000E+00  0.00000000000E+00  0.59963211649E+03  0.59963211649E+03  0.25500000920E-02 0. -1.
       -2   -1    0    0    0  501  0.00000000000E+00  0.00000000000E+00 -0.93116239255E+03  0.93116239256E+03  0.25500000920E-02 0.  1.
    10030    2    1    2    0    0  0.00000000000E+00  0.00000000000E+00 -0.33153027607E+03  0.15307945091E+04  0.14944629487E+04 0.  0.
        2    1    3    3  502    0  0.28156755042E+03 -0.57207568324E+03 -0.56485744474E+03  0.85183026812E+03  0.25500000920E-02 0.  1.
       -2    1    3    3    0  502 -0.28156755042E+03  0.57207568324E+03  0.23332716868E+03  0.67896424093E+03  0.25500000920E-02 0. -1.
</event>
<event>
 5   0  0.4948645E-04  0.1497748E+04  0.7818609E-02  0.8885952E-01
       -2   -1    0    0    0  501  0.00000000000E+00  0.00000000000E+00  0.44544272462E+03  0.44544272463E+03  0.25500000920E-02 0.  1.
        2   -1    0    0  501    0  0.00000000000E+00  0.00000000000E+00 -0.12589994470E+04  0.12589994470E+04  0.25500000920E-02 0. -1.
    10030    2    1    2    0    0  0.00000000000E+00  0.00000000000E+00 -0.81355672237E+03  0.17044421716E+04  0.14977478345E+04 0.  0.
        1    1    3    3  502    0  0.73019289481E+02 -0.27601064328E+03  0.38107716196E+03  0.47616540743E+03  0.50400001928E-02 0.  1.
       -1    1    3    3    0  502 -0.73019289481E+02  0.27601064328E+03 -0.11946338843E+04  0.12282767642E+04  0.50400001928E-02 0. -1.
</event>
<event>
 5   0  0.2544374E-04  0.1541865E+04  0.7818609E-02  0.8857081E-01
       -1   -1    0    0    0  501  0.00000000000E+00  0.00000000000E+00  0.11320301394E+04  0.11320301394E+04  0.50400001928E-02 0.  1.
        1   -1    0    0  501    0  0.00000000000E+00  0.00000000000E+00 -0.52501863648E+03  0.52501863651E+03  0.50400001928E-02 0. -1.
    10030    2    1    2    0    0  0.00000000000E+00  0.00000000000E+00  0.60701150291E+03  0.16570487759E+04  0.15418650009E+04 0.  0.
        4    1    3    3  502    0  0.60637656944E+03  0.46668813964E+03  0.40457905926E+03  0.86554964718E+03  0.12699999809E+01 0.  1.
       -4    1    3    3    0  502 -0.60637656944E+03 -0.46668813964E+03  0.20243244364E+03  0.79149912873E+03  0.12699999809E+01 0. -1.
</event>
<event>
 5   0  0.2544374E-04  0.1495501E+04  0.7818609E-02  0.8887450E-01
       -1   -1    0    0    0  501  0.00000000000E+00  0.00000000000E+00  0.93558971537E+03  0.93558971539E+03  0.50400001928E-02 0. -1.
        1   -1    0    0  501    0  0.00000000000E+00  0.00000000000E+00 -0.59762386136E+03  0.59762386138E+03  0.50400001928E-02 0.  1.
    10030    2    1    2    0    0  0.00000000000E+00  0.00000000000E+00  0.33796585401E+03  0.15332135768E+04  0.14955009039E+04 0.  0.
        4    1    3    3  502    0  0.10596287609E+03 -0.58285460981E+00  0.92785205631E+03  0.93388410529E+03  0.12699999809E+01 0. -1.
       -4    1    3    3    0  502 -0.10596287609E+03  0.58285460981E+00 -0.58988620229E+03  0.59932947148E+03  0.12699999809E+01 0.  1.
</event>
<event>
 5   0  0.2544374E-04  0.1385580E+04  0.7818609E-02  0.8964323E-01
        1   -1    0    0  501    0  0.00000000000E+00  0.00000000000E+00  0.72175752243E+03  0.72175752244E+03  0.50400001928E-02 0.  1.
       -1   -1    0    0    0  501  0.00000000000E+00  0.00000000000E+00 -0.66498467824E+03  0.66498467826E+03  0.50400001928E-02 0. -1.
    10030    2    1    2    0    0  0.00000000000E+00  0.00000000000E+00  0.56772844185E+02  0.13867422007E+04  0.13855795810E+04 0.  0.
        4    1    3    3  502    0  0.50879688560E+03  0.88037187997E+02  0.49065195207E+03  0.71229612397E+03  0.12699999809E+01 0.  1.
       -4    1    3    3    0  502 -0.50879688560E+03 -0.88037187997E+02 -0.43387910788E+03  0.67444607673E+03  0.12699999809E+01 0. -1.
</event>
<event>
 5   0  0.4785496E-04  0.1499854E+04  0.7818609E-02  0.8884550E-01
        2   -1    0    0  501    0  0.00000000000E+00  0.00000000000E+00  0.81204946613E+03  0.81204946614E+03  0.25500000920E-02 0.  1.
       -2   -1    0    0    0  501  0.00000000000E+00  0.00000000000E+00 -0.69255685493E+03  0.69255685493E+03  0.25500000920E-02 0. -1.
    10030    2    1    2    0    0  0.00000000000E+00  0.00000000000E+00  0.11949261121E+03  0.15046063211E+04  0.14998538920E+04 0.  0.
        4    1    3    3  502    0  0.22670986046E+03  0.88879354619E+02  0.77128348009E+03  0.80881191884E+03  0.12699999809E+01 0.  1.
       -4    1    3    3    0  502 -0.22670986046E+03 -0.88879354619E+02 -0.65179086888E+03  0.69579440222E+03  0.12699999809E+01 0. -1.
</event>
<event>
 5   0  0.2565416E-04  0.1430733E+04  0.7818609E-02  0.8931868E-01
        1   -1    0    0  501    0  0.00000000000E+00  0.00000000000E+00  0.10138607904E+04  0.10138607904E+04  0.50400001928E-02 0.  1.
       -1   -1    0    0    0  501  0.00000000000E+00  0.00000000000E+00 -0.50475269526E+03  0.50475269528E+03  0.50400001928E-02 0. -1.
    10030    2    1    2    0    0  0.00000000000E+00  0.00000000000E+00  0.50910809511E+03  0.15186134857E+04  0.14307326327E+04 0.  0.
        5    1    3    3  502    0 -0.25623963380E+03  0.33122190157E+03 -0.36103524411E+03  0.55293330113E+03  0.46999998093E+01 0. -1.
       -5    1    3    3    0  502  0.25623963380E+03 -0.33122190157E+03  0.87014333922E+03  0.96568018453E+03  0.46999998093E+01 0.  1.
</event>
<event>
 5   0  0.2603873E-04  0.1493587E+04  0.7818609E-02  0.8888729E-01
       -1   -1    0    0    0  501  0.00000000000E+00  0.00000000000E+00  0.42754696239E+03  0.42754696242E+03  0.50400001928E-02 0.  1.
        1   -1    0    0  501    0  0.00000000000E+00  0.00000000000E+00 -0.13044197607E+04  0.13044197607E+04  0.50400001928E-02 0. -1.
    10030    2    1    2    0    0  0.00000000000E+00  0.00000000000E+00 -0.87687279834E+03  0.17319667232E+04  0.14935872340E+04 0.  0.
        2    1    3    3  502    0  0.57973864307E+03  0.46410977498E+03 -0.52978719784E+03  0.91223311303E+03  0.25500000920E-02 0.  1.
       -2    1    3    3    0  502 -0.57973864307E+03 -0.46410977498E+03 -0.34708560049E+03  0.81973361013E+03  0.25500000920E-02 0. -1.
</event>
<event>
 5   0  0.2544374E-04  0.1431843E+04  0.7818609E-02  0.8931086E-01
        1   -1    0    0  501    0  0.00000000000E+00  0.00000000000E+00  0.44816214577E+03  0.44816214579E+03  0.50400001928E-02 0.  1.
       -1   -1    0    0    0  501  0.00000000000E+00  0.00000000000E+00 -0.11436564048E+04  0.11436564048E+04  0.50400001928E-02 0. -1.
    10030    2    1    2    0    0  0.00000000000E+00  0.00000000000E+00 -0.69549425903E+03  0.15918185506E+04  0.14318428802E+04 0.  0.
        4    1    3    3  502    0 -0.38858027477E+03 -0.36745791429E+03  0.18137184994E+03  0.56472764193E+03  0.12699999809E+01 0.  1.
       -4    1    3    3    0  502  0.38858027477E+03  0.36745791429E+03 -0.87686610897E+03  0.10270909087E+04  0.12699999809E+01 0. -1.
</event>
<event>
 5   0  0.2544374E-04  0.1497060E+04  0.7818609E-02  0.8886410E-01
       -1   -1    0    0    0  501  0.00000000000E+00  0.00000000000E+00  0.82627680084E+03  0.82627680085E+03  0.50400001928E-02 0. -1.
        1   -1    0    0  501    0  0.00000000000E+00  0.00000000000E+00 -0.67809902225E+03  0.67809902227E+03  0.50400001928E-02 0.  1.
    10030    2    1    2    0    0  0.00000000000E+00  0.00000000000E+00  0.14817777858E+03  0.15043758231E+04  0.14970604407E+04 0.  0.
        4    1    3    3  502    0  0.28987356004E+03 -0.32185275144E+03 -0.53936942407E+03  0.69176358891E+03  0.12699999809E+01 0.  1.
       -4    1    3    3    0  502 -0.28987356004E+03  0.32185275144E+03  0.68754720265E+03  0.81261223421E+03  0.12699999809E+01 0. -1.
</event>
<event>
 5   0  0.4768387E-04  0.1500761E+04  0.7818609E-02  0.8883947E-01
        2   -1    0    0  501    0  0.00000000000E+00  0.00000000000E+00  0.40502477341E+03  0.40502477342E+03  0.25500000920E-02 0.  1.
       -2   -1    0    0    0  501  0.00000000000E+00  0.00000000000E+00 -0.13902134543E+04  0.13902134543E+04  0.25500000920E-02 0. -1.
    10030    2    1    2    0    0  0.00000000000E+00  0.00000000000E+00 -0.98518868092E+03  0.17952382278E+04  0.15007609928E+04 0.  0.
        3    1    3    3  502    0 -0.69416860634E+02 -0.67131260586E+03 -0.10022084419E+03  0.68229285732E+03  0.10100000352E+00 0.  1.
       -3    1    3    3    0  502  0.69416860634E+02  0.67131260586E+03 -0.88496783674E+03  0.11129453704E+04  0.10100000352E+00 0. -1.
</event>
<event>
 5   0  0.2603873E-04  0.1442250E+04  0.7818609E-02  0.8923791E-01
        1   -1    0    0  501    0  0.00000000000E+00  0.00000000000E+00  0.44131926135E+03  0.44131926137E+03  0.50400001928E-02 0.  1.
       -1   -1    0    0    0  501  0.00000000000E+00  0.00000000000E+00 -0.11783342209E+04  0.11783342210E+04  0.50400001928E-02 0. -1.
    10030    2    1    2    0    0  0.00000000000E+00  0.00000000000E+00 -0.73701495960E+03  0.16196534823E+04  0.14422504471E+04 0.  0.
        2    1    3    3  502    0 -0.55743918038E+03 -0.30522141345E+03 -0.75119175719E+03  0.98396524691E+03  0.25500000920E-02 0. -1.
       -2    1    3    3    0  502  0.55743918038E+03  0.30522141345E+03  0.14176797590E+02  0.63568823542E+03  0.25500000920E-02 0.  1.
</event>
<event>
 5   0  0.4768387E-04  0.1506115E+04  0.7818609E-02  0.8880397E-01
       -2   -1    0    0    0  501  0.00000000000E+00  0.00000000000E+00  0.65807320061E+03  0.65807320061E+03  0.25500000920E-02 0.  1.
        2   -1    0    0  501    0  0.00000000000E+00  0.00000000000E+00 -0.86175148713E+03  0.86175148713E+03  0.25500000920E-02 0. -1.
    10030    2    1    2    0    0  0.00000000000E+00  0.00000000000E+00 -0.20367828652E+03  0.15198246877E+04  0.15061149482E+04 0.  0.
        3    1    3    3  502    0 -0.10012343686E+02 -0.68355072293E+03 -0.42055223770E+03  0.80262446553E+03  0.10100000352E+00 0. -1.
       -3    1    3    3    0  502  0.10012343686E+02  0.68355072293E+03  0.21687395117E+03  0.71720022221E+03  0.10100000352E+00 0.  1.
</event>
<event>
 5   0  0.2565416E-04  0.1486683E+04  0.7818609E-02  0.8893357E-01
       -1   -1    0    0    0  501  0.00000000000E+00  0.00000000000E+00  0.11420914735E+04  0.11420914735E+04  0.50400001928E-02 0.  1.
        1   -1    0    0  501    0  0.00000000000E+00  0.00000000000E+00 -0.48381087875E+03  0.48381087878E+03  0.50400001928E-02 0. -1.
    10030    2    1    2    0    0  0.00000000000E+00  0.00000000000E+00  0.65828059474E+03  0.16259023523E+04  0.14866825881E+04 0.  0.
        5    1    3    3  502    0 -0.26922020842E+03 -0.46470669500E+03 -0.23289338378E+03  0.58540007790E+03  0.46999998093E+01 0. -1.
       -5    1    3    3    0  502  0.26922020842E+03  0.46470669500E+03  0.89117397851E+03  0.10405022744E+04  0.46999998093E+01 0.  1.
</event>
<event>
 5   0  0.4768387E-04  0.1513500E+04  0.7818609E-02  0.8875525E-01
       -2   -1    0    0    0  501  0.00000000000E+00  0.00000000000E+00  0.10009869180E+04  0.10009869180E+04  0.25500000920E-02 0.  1.
        2   -1    0    0  501    0  0.00000000000E+00  0.00000000000E+00 -0.57210556338E+03  0.57210556339E+03  0.25500000920E-02 0. -1.
    10030    2    1    2    0    0  0.00000000000E+00  0.00000000000E+00  0.42888135462E+03  0.15730924814E+04  0.15134995007E+04 0.  0.
        3    1    3    3  502    0 -0.53019822229E+03 -0.17287400068E+02 -0.34649526003E+03  0.63361501287E+03  0.10100000352E+00 0. -1.
       -3    1    3    3    0  502  0.53019822229E+03  0.17287400068E+02  0.77537661465E+03  0.93947746852E+03  0.10100000352E+00 0.  1.
</event>
<event>
 5   0  0.2605471E-04  0.1565168E+04  0.7818609E-02  0.8842237E-01
        1   -1    0    0  501    0  0.00000000000E+00  0.00000000000E+00  0.16796486320E+04  0.16796486320E+04  0.50400001928E-02 0.  1.
       -1   -1    0    0    0  501  0.00000000000E+00  0.00000000000E+00 -0.36462267426E+03  0.36462267429E+03  0.50400001928E-02 0. -1.
    10030    2    1    2    0    0  0.00000000000E+00  0.00000000000E+00  0.13150259578E+04  0.20442713063E+04  0.15651683310E+04 0.  0.
        3    1    3    3  502    0 -0.12190815344E+03  0.23017538746E+03 -0.30634837716E+03  0.40210899674E+03  0.10100000352E+00 0. -1.
       -3    1    3    3    0  502  0.12190815344E+03 -0.23017538746E+03  0.16213743349E+04  0.16421623096E+04  0.10100000352E+00 0.  1.
</event>
<event>
 5   0  0.2565416E-04  0.1501392E+04  0.7818609E-02  0.8883528E-01
       -1   -1    0    0    0  501  0.00000000000E+00  0.00000000000E+00  0.55911258659E+03  0.55911258661E+03  0.50400001928E-02 0. -1.
        1   -1    0    0  501    0  0.00000000000E+00  0.00000000000E+00 -0.10079270858E+04  0.10079270858E+04  0.50400001928E-02 0.  1.
    10030    2    1    2    0    0  0.00000000000E+00  0.00000000000E+00 -0.44881449925E+03  0.15670396725E+04  0.15013923139E+04 0.  0.
        5    1    3    3  502    0  0.56966757930E+03  0.37018246143E+01  0.28583174585E+03  0.63738271968E+03  0.46999998093E+01 0.  1.
       -5    1    3    3    0  502 -0.56966757930E+03 -0.37018246143E+01 -0.73464624509E+03  0.92965695278E+03  0.46999998093E+01 0. -1.
</event>
<event>
 5   0  0.4569211E-04  0.1510621E+04  0.7818609E-02  0.8877421E-01
       -2   -1    0    0    0  501  0.00000000000E+00  0.00000000000E+00  0.51910271496E+03  0.51910271496E+03  0.25500000920E-02 0. -1.
        2   -1    0    0  501    0  0.00000000000E+00  0.00000000000E+00 -0.10989999840E+04  0.10989999840E+04  0.25500000920E-02 0.  1.
    10030    2    1    2    0    0  0.00000000000E+00  0.00000000000E+00 -0.57989726904E+03  0.16181026990E+04  0.15106208994E+04 0.  0.
        5    1    3    3  502    0 -0.21291719187E+03 -0.53583813087E+03  0.23263193902E+03  0.62176839912E+03  0.46999998093E+01 0. -1.
       -5    1    3    3    0  502  0.21291719187E+03  0.53583813087E+03 -0.81252920807E+03  0.99633429985E+03  0.46999998093E+01 0.  1.
</event>
<event>
 5   0  0.2542737E-04  0.1484195E+04  0.7818609E-02  0.8895032E-01
        1   -1    0    0  501    0  0.00000000000E+00  0.00000000000E+00  0.62383092732E+03  0.62383092734E+03  0.50400001928E-02 0.  1.
       -1   -1    0    0    0  501  0.00000000000E+00  0.00000000000E+00 -0.88278460838E+03  0.88278460840E+03  0.50400001928E-02 0. -1.
    10030    2    1    2    0    0  0.00000000000E+00  0.00000000000E+00 -0.25895368107E+03  0.15066155357E+04  0.14841945168E+04 0.  0.
        1    1    3    3  502    0  0.49663327023E+03 -0.39622789607E+03 -0.51876349555E+03  0.82021748034E+03  0.50400001928E-02 0. -1.
       -1    1    3    3    0  502 -0.49663327023E+03  0.39622789607E+03  0.25980981448E+03  0.68639805539E+03  0.50400001928E-02 0.  1.
</event>
<event>
 5   0  0.2603873E-04  0.1500718E+04  0.7818609E-02  0.8883976E-01
        1   -1    0    0  501    0  0.00000000000E+00  0.00000000000E+00  0.11595928861E+04  0.11595928861E+04  0.50400001928E-02 0. -1.
       -1   -1    0    0    0  501  0.00000000000E+00  0.00000000000E+00 -0.48554824994E+03  0.48554824996E+03  0.50400001928E-02 0.  1.
    10030    2    1    2    0    0  0.00000000000E+00  0.00000000000E+00  0.67404463614E+03  0.16451411361E+04  0.15007175570E+04 0.  0.
        2    1    3    3  502    0 -0.43570877481E+03 -0.44326755346E+03 -0.12380138154E+03  0.63376260735E+03  0.25500000920E-02 0.  1.
       -2    1    3    3    0  502  0.43570877481E+03  0.44326755346E+03  0.79784601768E+03  0.10113785287E+04  0.25500000920E-02 0. -1.
</event>
<event>
 5   0  0.4726600E-04  0.1484157E+04  0.7818609E-02  0.8895057E-01
        2   -1    0    0  501    0  0.00000000000E+00  0.00000000000E+00  0.11953826916E+04  0.11953826916E+04  0.25500000920E-02 0. -1.
       -2   -1    0    0    0  501  0.00000000000E+00  0.00000000000E+00 -0.46067296682E+03  0.46067296683E+03  0.25500000920E-02 0.  1.
    10030    2    1    2    0    0  0.00000000000E+00  0.00000000000E+00  0.73470972481E+03  0.16560556585E+04  0.14841569877E+04 0.  0.
        2    1    3    3  502    0  0.33935259606E+03 -0.65775076906E+03  0.42728016185E+03  0.85461371120E+03  0.25500000920E-02 0. -1.
       -2    1    3    3    0  502 -0.33935259606E+03  0.65775076906E+03  0.30742956295E+03  0.80144194726E+03  0.25500000920E-02 0.  1.
</event>
<event>
 5   0  0.4726600E-04  0.1497991E+04  0.7818609E-02  0.8885790E-01
       -2   -1    0    0    0  501  0.00000000000E+00  0.00000000000E+00  0.52925200329E+03  0.52925200330E+03  0.25500000920E-02 0.  1.
        2   -1    0    0  501    0  0.00000000000E+00  0.00000000000E+00 -0.10599751146E+04  0.10599751146E+04  0.25500000920E-02 0. -1.
    10030    2    1    2    0    0  0.00000000000E+00  0.00000000000E+00 -0.53072311130E+03  0.15892271179E+04  0.14979905912E+04 0.  0.
        2    1    3    3  502    0 -0.33773057592E+03 -0.60529048425E+03 -0.56647096028E+03  0.89516918015E+03  0.25500000920E-02 0. -1.
       -2    1    3    3    0  502  0.33773057592E+03  0.60529048425E+03  0.35747848977E+02  0.69405793775E+03  0.25500000920E-02 0.  1.
</event>
<event>
 5   0  0.4785496E-04  0.1503937E+04  0.7818609E-02  0.8881839E-01
       -2   -1    0    0    0  501  0.00000000000E+00  0.00000000000E+00  0.24399999384E+03  0.24399999385E+03  0.25500000920E-02 0.  1.
        2   -1    0    0  501    0  0.00000000000E+00  0.00000000000E+00 -0.23174441589E+04  0.23174441589E+04  0.25500000920E-02 0. -1.
    10030    2    1    2    0    0  0.00000000000E+00  0.00000000000E+00 -0.20734441650E+04  0.25614441527E+04  0.15039366483E+04 0.  0.
        4    1    3    3  502    0  0.50623156954E+00 -0.36491595349E+03  0.83085398740E+02  0.37425753936E+03  0.12699999809E+01 0.  1.
       -4    1    3    3    0  502 -0.50623156954E+00  0.36491595349E+03 -0.21565295638E+04  0.21871866134E+04  0.12699999809E+01 0. -1.
</event>
<event>
 5   0  0.4948645E-04  0.1497306E+04  0.7818609E-02  0.8886246E-01
        2   -1    0    0  501    0  0.00000000000E+00  0.00000000000E+00  0.10709441000E+04  0.10709441000E+04  0.25500000920E-02 0. -1.
       -2   -1    0    0    0  501  0.00000000000E+00  0.00000000000E+00 -0.52335244986E+03  0.52335244987E+03  0.25500000920E-02 0.  1.
    10030    2    1    2    0    0  0.00000000000E+00  0.00000000000E+00  0.54759165015E+03  0.15942965499E+04  0.14973058718E+04 0.  0.
        1    1    3    3  502    0 -0.88988539920E+02 -0.70042841547E+02 -0.51417947830E+03  0.52650308244E+03  0.50400001928E-02 0.  1.
       -1    1    3    3    0  502  0.88988539920E+02  0.70042841547E+02  0.10617711284E+04  0.10677934674E+04  0.50400001928E-02 0. -1.
</event>
<event>
 5   0  0.4569211E-04  0.1498463E+04  0.7818609E-02  0.8885475E-01
        2   -1    0    0  501    0  0.00000000000E+00  0.00000000000E+00  0.68095034515E+03  0.68095034516E+03  0.25500000920E-02 0. -1.
       -2   -1    0    0    0  501  0.00000000000E+00  0.00000000000E+00 -0.82435993640E+03  0.82435993640E+03  0.25500000920E-02 0.  1.
    10030    2    1    2    0    0  0.00000000000E+00  0.00000000000E+00 -0.14340959124E+03  0.15053102816E+04  0.14984634573E+04 0.  0.
        5    1    3    3  502    0 -0.36240807119E+03  0.65341308988E+03 -0.16336559820E+02  0.74738025748E+03  0.46999998093E+01 0.  1.
       -5    1    3    3    0  502  0.36240807119E+03 -0.65341308988E+03 -0.12707303142E+03  0.75793002408E+03  0.46999998093E+01 0. -1.
</event>
<event>
 5   0  0.4726600E-04  0.1495956E+04  0.7818609E-02  0.8887146E-01
        2   -1    0    0  501    0  0.00000000000E+00  0.00000000000E+00  0.54245874986E+03  0.54245874986E+03  0.25500000920E-02 0. -1.
       -2   -1    0    0    0  501  0.00000000000E+00  0.00000000000E+00 -0.10313617209E+04  0.10313617209E+04  0.25500000920E-02 0.  1.
    10030    2    1    2    0    0  0.00000000000E+00  0.00000000000E+00 -0.48890297101E+03  0.15738204707E+04  0.14959561354E+04 0.  0.
        2    1    3    3  502    0 -0.20026987140E+03  0.68609002769E+01  0.51369342276E+03  0.55139461907E+03  0.25500000920E-02 0. -1.
       -2    1    3    3    0  502  0.20026987140E+03 -0.68609002769E+01 -0.10025963938E+04  0.10224258517E+04  0.25500000920E-02 0.  1.
</event>
<event>
 5   0  0.4768387E-04  0.1437627E+04  0.7818609E-02  0.8927024E-01
       -2   -1    0    0    0  501  0.00000000000E+00  0.00000000000E+00  0.50280477148E+03  0.50280477149E+03  0.25500000920E-02 0.  1.
        2   -1    0    0  501    0  0.00000000000E+00  0.00000000000E+00 -0.10276208342E+04  0.10276208342E+04  0.25500000920E-02 0. -1.
    10030    2    1    2    0    0  0.00000000000E+00  0.00000000000E+00 -0.52481606272E+03  0.15304256057E+04  0.14376267370E+04 0.  0.
        3    1    3    3  502    0  0.60149042701E+03  0.36661898026E+03 -0.11001577562E+03  0.71295420018E+03  0.10100000352E+00 0. -1.
       -3    1    3    3    0  502 -0.60149042701E+03 -0.36661898026E+03 -0.41480028710E+03  0.81747140552E+03  0.10100000352E+00 0.  1.
</event>
<event>
 5   0  0.1792000E-04  0.1526404E+04  0.7818609E-02  0.8867082E-01
       -3   -1    0    0    0  501  0.00000000000E+00  0.00000000000E+00  0.88309772410E+03  0.88309772988E+03  0.10100000352E+00 0.  1.
        3   -1    0    0  501    0  0.00000000000E+00  0.00000000000E+00 -0.65958438126E+03  0.65958438900E+03  0.10100000352E+00 0. -1.
    10030    2    1    2    0    0  0.00000000000E+00  0.00000000000E+00  0.22351334284E+03  0.15426821189E+04  0.15264042405E+04 0.  0.
        4    1    3    3  502    0 -0.36634133045E+03  0.63135950257E+03  0.33696719899E+03  0.80397095593E+03  0.12699999809E+01 0.  1.
       -4    1    3    3    0  502  0.36634133045E+03 -0.63135950257E+03 -0.11345385615E+03  0.73871116295E+03  0.12699999809E+01 0. -1.
</event>
<event>
 5   0  0.1792000E-04  0.1451107E+04  0.7818609E-02  0.8917634E-01
       -3   -1    0    0    0  501  0.00000000000E+00  0.00000000000E+00  0.49133432696E+03  0.49133433734E+03  0.10100000352E+00 0.  1.
        3   -1    0    0  501    0  0.00000000000E+00  0.00000000000E+00 -0.10714245605E+04  0.10714245652E+04  0.10100000352E+00 0. -1.
    10030    2    1    2    0    0  0.00000000000E+00  0.00000000000E+00 -0.58009023349E+03  0.15627589026E+04  0.14511067185E+04 0.  0.
        4    1    3    3  502    0 -0.44000245964E+03 -0.56291097382E+03 -0.15401255575E+03  0.73088467570E+03  0.12699999809E+01 0.  1.
       -4    1    3    3    0  502  0.44000245964E+03  0.56291097382E+03 -0.42607767774E+03  0.83187422686E+03  0.12699999809E+01 0. -1.
</event>
<event>
 5   0  0.2605471E-04  0.1498513E+04  0.7818609E-02  0.8885442E-01
        1   -1    0    0  501    0  0.00000000000E+00  0.00000000000E+00  0.76121097935E+03  0.76121097936E+03  0.50400001928E-02 0. -1.
       -1   -1    0    0    0  501  0.00000000000E+00  0.00000000000E+00 -0.73748978987E+03  0.73748978989E+03  0.50400001928E-02 0.  1.
    10030    2    1    2    0    0  0.00000000000E+00  0.00000000000E+00  0.23721189473E+02  0.14987007693E+04  0.14985130299E+04 0.  0.
        3    1    3    3  502    0  0.25499402487E+03  0.35393169576E+02 -0.69186858063E+03  0.73821187489E+03  0.10100000352E+00 0.  1.
       -3    1    3    3    0  502 -0.25499402487E+03 -0.35393169576E+02  0.71558977010E+03  0.76048889436E+03  0.10100000352E+00 0. -1.
</event>
<event>
 5   0  0.4569211E-04  0.1505042E+04  0.7818609E-02  0.8881107E-01
       -2   -1    0    0    0  501  0.00000000000E+00  0.00000000000E+00  0.95194676587E+03  0.95194676588E+03  0.25500000920E-02 0. -1.
        2   -1    0    0  501    0  0.00000000000E+00  0.00000000000E+00 -0.59487317929E+03  0.59487317929E+03  0.25500000920E-02 0.  1.
    10030    2    1    2    0    0  0.00000000000E+00  0.00000000000E+00  0.35707358659E+03  0.15468199452E+04  0.15050416594E+04 0.  0.
        5    1    3    3  502    0 -0.46390281074E+03  0.57511134166E+03  0.32499382713E+03  0.80721865117E+03  0.46999998093E+01 0. -1.
       -5    1    3    3    0  502  0.46390281074E+03 -0.57511134166E+03  0.32079759459E+02  0.73960129400E+03  0.46999998093E+01 0.  1.
</event>
<event>
 5   0  0.2544374E-04  0.1499257E+04  0.7818609E-02  0.8884947E-01
       -1   -1    0    0    0  501  0.00000000000E+00  0.00000000000E+00  0.88730639444E+03  0.88730639446E+03  0.50400001928E-02 0. -1.
        1   -1    0    0  501    0  0.00000000000E+00  0.00000000000E+00 -0.63331304554E+03  0.63331304556E+03  0.50400001928E-02 0.  1.
    10030    2    1    2    0    0  0.00000000000E+00  0.00000000000E+00  0.25399334891E+03  0.15206194400E+04  0.14992567692E+04 0.  0.
        4    1    3    3  502    0  0.61648253992E+02  0.56474642001E+02  0.88256182972E+03  0.88651389644E+03  0.12699999809E+01 0. -1.
       -4    1    3    3    0  502 -0.61648253992E+02 -0.56474642001E+02 -0.62856848082E+03  0.63410554357E+03  0.12699999809E+01 0.  1.
</event>
<event>
 5   0  0.4948645E-04  0.1503226E+04  0.7818609E-02  0.8882310E-01
        2   -1    0    0  501    0  0.00000000000E+00  0.00000000000E+00  0.21466864663E+04  0.21466864663E+04  0.25500000920E-02 0. -1.
       -2   -1    0    0    0  501  0.00000000000E+00  0.00000000000E+00 -0.26316013762E+03  0.26316013763E+03  0.25500000920E-02 0.  1.
    10030    2    1    2    0    0  0.00000000000E+00  0.00000000000E+00  0.18835263287E+04  0.24098466039E+04  0.15032262716E+04 0.  0.
        1    1    3    3  502    0  0.38511478237E+03  0.43358743874E+03  0.17082654504E+04  0.18040183790E+04  0.50400001928E-02 0. -1.
       -1    1    3    3    0  502 -0.38511478237E+03 -0.43358743874E+03  0.17526087824E+03  0.60582822491E+03  0.50400001928E-02 0.  1.
</event>
<event>
 5   0  0.1792000E-04  0.1539347E+04  0.7818609E-02  0.8858701E-01
       -3   -1    0    0    0  501  0.00000000000E+00  0.00000000000E+00  0.10228297439E+04  0.10228297489E+04  0.10100000352E+00 0. -1.
        3   -1    0    0  501    0  0.00000000000E+00  0.00000000000E+00 -0.57917510880E+03  0.57917511761E+03  0.10100000352E+00 0.  1.
    10030    2    1    2    0    0  0.00000000000E+00  0.00000000000E+00  0.44365463509E+03  0.16020048665E+04  0.15393473153E+04 0.  0.
        5    1    3    3  502    0 -0.32327281090E+03 -0.64310097537E+03  0.50548602314E+03  0.87955806197E+03  0.46999998093E+01 0. -1.
       -5    1    3    3    0  502  0.32327281090E+03  0.64310097537E+03 -0.61831388053E+02  0.72244680451E+03  0.46999998093E+01 0.  1.
</event>
<event>
 5   0  0.4726600E-04  0.1508557E+04  0.7818609E-02  0.8878782E-01
       -2   -1    0    0    0  501  0.00000000000E+00  0.00000000000E+00  0.31062758321E+03  0.31062758322E+03  0.25500000920E-02 0. -1.
        2   -1    0    0  501    0  0.00000000000E+00  0.00000000000E+00 -0.18315698953E+04  0.18315698953E+04  0.25500000920E-02 0.  1.
    10030    2    1    2    0    0  0.00000000000E+00  0.00000000000E+00 -0.15209423121E+04  0.21421974785E+04  0.15085570988E+04 0.  0.
        2    1    3    3  502    0  0.13208974391E+03 -0.49055246558E+03  0.31247515422E+02  0.50898509719E+03  0.25500000920E-02 0. -1.
       -2    1    3    3    0  502 -0.13208974391E+03  0.49055246558E+03 -0.15521898275E+04  0.16332123813E+04  0.25500000920E-02 0.  1.
</event>
<event>
 5   0  0.2565416E-04  0.1495141E+04  0.7818609E-02  0.8887690E-01
        1   -1    0    0  501    0  0.00000000000E+00  0.00000000000E+00  0.83900840542E+03  0.83900840543E+03  0.50400001928E-02 0. -1.
       -1   -1    0    0    0  501  0.00000000000E+00  0.00000000000E+00 -0.66609818689E+03  0.66609818691E+03  0.50400001928E-02 0.  1.
    10030    2    1    2    0    0  0.00000000000E+00  0.00000000000E+00  0.17291021853E+03  0.15051065923E+04  0.14951414350E+04 0.  0.
        5    1    3    3  502    0  0.35153700493E+03 -0.63369557972E+02 -0.57461493923E+03  0.67660799958E+03  0.46999998093E+01 0.  1.
       -5    1    3    3    0  502 -0.35153700493E+03  0.63369557972E+02  0.74752515776E+03  0.82849859276E+03  0.46999998093E+01 0. -1.
</event>
<event>
 5   0  0.4785496E-04  0.1503793E+04  0.7818609E-02  0.8881935E-01
        2   -1    0    0  501    0  0.00000000000E+00  0.00000000000E+00  0.11573203372E+04  0.11573203372E+04  0.25500000920E-02 0.  1.
       -2   -1    0    0    0  501  0.00000000000E+00  0.00000000000E+00 -0.48849772798E+03  0.48849772799E+03  0.25500000920E-02 0. -1.
    10030    2    1    2    0    0  0.00000000000E+00  0.00000000000E+00  0.66882260917E+03  0.16458180651E+04  0.15037930114E+04 0.  0.
        4    1    3    3  502    0 -0.32136277057E+03 -0.30075127407E+02  0.10776416593E+04  0.11249407550E+04  0.12699999809E+01 0.  1.
       -4    1    3    3    0  502  0.32136277057E+03  0.30075127407E+02 -0.40881905009E+03  0.52087731014E+03  0.12699999809E+01 0. -1.
</event>
<event>
 5   0  0.4569211E-04  0.1507213E+04  0.7818609E-02  0.8879671E-01
       -2   -1    0    0    0  501  0.00000000000E+00  0.00000000000E+00  0.49858226893E+03  0.49858226894E+03  0.25500000920E-02 0. -1.
        2   -1    0    0  501    0  0.00000000000E+00  0.00000000000E+00 -0.11390751170E+04  0.11390751170E+04  0.25500000920E-02 0.  1.
    10030    2    1    2    0    0  0.00000000000E+00  0.00000000000E+00 -0.64049284805E+03  0.16376573859E+04  0.15072128666E+04 0.  0.
        5    1    3    3  502    0  0.15315901772E+02  0.30383236297E+02  0.49773130553E+03  0.49891508335E+03  0.46999998093E+01 0. -1.
       -5    1    3    3    0  502 -0.15315901772E+02 -0.30383236297E+02 -0.11382241536E+04  0.11387423026E+04  0.46999998093E+01 0.  1.
</event>
<event>
 5   0  0.2544374E-04  0.1499402E+04  0.7818609E-02  0.8884851E-01
        1   -1    0    0  501    0  0.00000000000E+00  0.00000000000E+00  0.95052089186E+03  0.95052089187E+03  0.50400001928E-02 0. -1.
       -1   -1    0    0    0  501  0.00000000000E+00  0.00000000000E+00 -0.59130887886E+03  0.59130887888E+03  0.50400001928E-02 0.  1.
    10030    2    1    2    0    0  0.00000000000E+00  0.00000000000E+00  0.35921201300E+03  0.15418297708E+04  0.14994018046E+04 0.  0.
        4    1    3    3  502    0  0.20318303909E+03 -0.23210966957E+03  0.88223557265E+03  0.93461193264E+03  0.12699999809E+01 0. -1.
       -4    1    3    3    0  502 -0.20318303909E+03  0.23210966957E+03 -0.52302355965E+03  0.60721783812E+03  0.12699999809E+01 0.  1.
</event>
<event>
 5   0  0.4768387E-04  0.1500214E+04  0.7818609E-02  0.8884310E-01
       -2   -1    0    0    0  501  0.00000000000E+00  0.00000000000E+00  0.51342853676E+03  0.51342853677E+03  0.25500000920E-02 0. -1.
        2   -1    0    0  501    0  0.00000000000E+00  0.00000000000E+00 -0.10958889734E+04  0.10958889734E+04  0.25500000920E-02 0.  1.
    10030    2    1    2    0    0  0.00000000000E+00  0.00000000000E+00 -0.58246043660E+03  0.16093175101E+04  0.15002142141E+04 0.  0.
        3    1    3    3  502    0  0.44918752294E+03 -0.31167052449E+03 -0.84214817784E+03  0.10040525436E+04  0.10100000352E+00 0.  1.
       -3    1    3    3    0  502 -0.44918752294E+03  0.31167052449E+03  0.25968774124E+03  0.60526496657E+03  0.10100000352E+00 0. -1.
</event>
<event>
 5   0  0.2565416E-04  0.1500200E+04  0.7818609E-02  0.8884320E-01
       -1   -1    0    0    0  501  0.00000000000E+00  0.00000000000E+00  0.84284281596E+03  0.84284281598E+03  0.50400001928E-02 0.  1.
        1   -1    0    0  501    0  0.00000000000E+00  0.00000000000E+00 -0.66756233809E+03  0.66756233811E+03  0.50400001928E-02 0. -1.
    10030    2    1    2    0    0  0.00000000000E+00  0.00000000000E+00  0.17528047787E+03  0.15104051541E+04  0.15002001478E+04 0.  0.
        5    1    3    3  502    0 -0.35819220704E+02  0.72964481320E+03  0.25898446832E+03  0.77508684341E+03  0.46999998093E+01 0. -1.
       -5    1    3    3    0  502  0.35819220704E+02 -0.72964481320E+03 -0.83703990452E+02  0.73531831068E+03  0.46999998093E+01 0.  1.
</event>
<event>
 5   0  0.2605471E-04  0.1540339E+04  0.7818609E-02  0.8858062E-01
        1   -1    0    0  501    0  0.00000000000E+00  0.00000000000E+00  0.18191951210E+04  0.18191951210E+04  0.50400001928E-02 0. -1.
       -1   -1    0    0    0  501  0.00000000000E+00  0.00000000000E+00 -0.32605690533E+03  0.32605690537E+03  0.50400001928E-02 0.  1.
    10030    2    1    2    0    0  0.00000000000E+00  0.00000000000E+00  0.14931382156E+04  0.21452520263E+04  0.15403390943E+04 0.  0.
        3    1    3    3  502    0  0.62360999688E+03 -0.44188946631E+03  0.61440506752E+03  0.98063720398E+03  0.10100000352E+00 0.  1.
       -3    1    3    3    0  502 -0.62360999688E+03  0.44188946631E+03  0.87873314811E+03  0.11646148223E+04  0.10100000352E+00 0. -1.
</event>
<event>
 5   0  0.2605471E-04  0.1499958E+04  0.7818609E-02  0.8884481E-01
       -1   -1    0    0    0  501  0.00000000000E+00  0.00000000000E+00  0.84760726235E+03  0.84760726236E+03  0.50400001928E-02 0. -1.
        1   -1    0    0  501    0  0.00000000000E+00  0.00000000000E+00 -0.66359535929E+03  0.66359535931E+03  0.50400001928E-02 0.  1.
    10030    2    1    2    0    0  0.00000000000E+00  0.00000000000E+00  0.18401190305E+03  0.15112026217E+04  0.14999576605E+04 0.  0.
        3    1    3    3  502    0  0.37317413441E+01 -0.52009307438E+03 -0.45237575019E+03  0.68931455916E+03  0.10100000352E+00 0.  1.
       -3    1    3    3    0  502 -0.37317413441E+01  0.52009307438E+03  0.63638765324E+03  0.82188806252E+03  0.10100000352E+00 0. -1.
</event>
<event>
 5   0  0.2544374E-04  0.1496550E+04  0.7818609E-02  0.8886750E-01
        1   -1    0    0  501    0  0.00000000000E+00  0.00000000000E+00  0.70843369491E+03  0.70843369493E+03  0.50400001928E-02 0.  1.
       -1   -1    0    0    0  501  0.00000000000E+00  0.00000000000E+00 -0.79035716152E+03  0.79035716154E+03  0.50400001928E-02 0. -1.
    10030    2    1    2    0    0  0.00000000000E+00  0.00000000000E+00 -0.81923466613E+02  0.14987908565E+04  0.14965502254E+04 0.  0.
        4    1    3    3  502    0 -0.22949119275E+03 -0.67130466995E+03  0.19729751024E+03  0.73637224818E+03  0.12699999809E+01 0.  1.
       -4    1    3    3    0  502  0.22949119275E+03  0.67130466995E+03 -0.27922097685E+03  0.76241860828E+03  0.12699999809E+01 0. -1.
</event>
<event>
 5   0  0.4768387E-04  0.1504743E+04  0.7818609E-02  0.8881305E-01
       -2   -1    0    0    0  501  0.00000000000E+00  0.00000000000E+00  0.55489983378E+03  0.55489983378E+03  0.25500000920E-02 0.  1.
        2   -1    0    0  501    0  0.00000000000E+00  0.00000000000E+00 -0.10201170967E+04  0.10201170967E+04  0.25500000920E-02 0. -1.
    10030    2    1    2    0    0  0.00000000000E+00  0.00000000000E+00 -0.46521726294E+03  0.15750169305E+04  0.15047429115E+04 0.  0.
        3    1    3    3  502    0 -0.61505589740E+02  0.73760537824E+03 -0.91330402054E+02  0.74577870989E+03  0.10100000352E+00 0.  1.
       -3    1    3    3    0  502  0.61505589740E+02 -0.73760537824E+03 -0.37388686088E+03  0.82923822061E+03  0.10100000352E+00 0. -1.
</event>
<event>
 5   0  0.1792000E-04  0.1494423E+04  0.7818609E-02  0.8888170E-01
       -3   -1    0    0    0  501  0.00000000000E+00  0.00000000000E+00  0.95309834288E+03  0.95309834823E+03  0.10100000352E+00 0.  1.
        3   -1    0    0  501    0  0.00000000000E+00  0.00000000000E+00 -0.58579979192E+03  0.58579980063E+03  0.10100000352E+00 0. -1.
    10030    2    1    2    0    0  0.00000000000E+00  0.00000000000E+00  0.36729855096E+03  0.15388981489E+04  0.14944227270E+04 0.  0.
        2    1    3    3  502    0  0.49366995081E+03 -0.20076302710E+03 -0.35568304713E+03  0.64072321903E+03  0.25500000920E-02 0. -1.
       -2    1    3    3    0  502 -0.49366995081E+03  0.20076302710E+03  0.72298159809E+03  0.89817492982E+03  0.25500000920E-02 0.  1.
</event>
<event>
 5   0  0.4768387E-04  0.1453347E+04  0.7818609E-02  0.8916083E-01
        2   -1    0    0  501    0  0.00000000000E+00  0.00000000000E+00  0.16749370734E+04  0.16749370734E+04  0.25500000920E-02 0. -1.
       -2   -1    0    0    0  501  0.00000000000E+00  0.00000000000E+00 -0.31526838139E+03  0.31526838140E+03  0.25500000920E-02 0.  1.
    10030    2    1    2    0    0  0.00000000000E+00  0.00000000000E+00  0.13596686920E+04  0.19902054548E+04  0.14533474465E+04 0.  0.
        3    1    3    3  502    0 -0.63615598275E+03  0.16687850761E+03  0.25662327628E+03  0.70597336127E+03  0.10100000352E+00 0.  1.
       -3    1    3    3    0  502  0.63615598275E+03 -0.16687850761E+03  0.11030454157E+04  0.12842320935E+04  0.10100000352E+00 0. -1.
</event>
<event>
 5   0  0.4569211E-04  0.1503408E+04  0.7818609E-02  0.8882190E-01
        2   -1    0    0  501    0  0.00000000000E+00  0.00000000000E+00  0.74978058963E+03  0.74978058963E+03  0.25500000920E-02 0. -1.
       -2   -1    0    0    0  501  0.00000000000E+00  0.00000000000E+00 -0.75363211782E+03  0.75363211783E+03  0.25500000920E-02 0.  1.
    10030    2    1    2    0    0  0.00000000000E+00  0.00000000000E+00 -0.38515281948E+01  0.15034127075E+04  0.15034077739E+04 0.  0.
        5    1    3    3  502    0  0.13827126924E+02  0.67522544511E+03 -0.33195116819E+03  0.75255183158E+03  0.46999998093E+01 0.  1.
       -5    1    3    3    0  502 -0.13827126924E+02 -0.67522544511E+03  0.32809964000E+03  0.75086087588E+03  0.46999998093E+01 0. -1.
</event>
<event>
 5   0  0.2603873E-04  0.1501141E+04  0.7818609E-02  0.8883694E-01
        1   -1    0    0  501    0  0.00000000000E+00  0.00000000000E+00  0.62604042171E+03  0.62604042173E+03  0.50400001928E-02 0.  1.
       -1   -1    0    0    0  501  0.00000000000E+00  0.00000000000E+00 -0.89987200000E+03  0.89987200001E+03  0.50400001928E-02 0. -1.
    10030    2    1    2    0    0  0.00000000000E+00  0.00000000000E+00 -0.27383157829E+03  0.15259124217E+04  0.15011412277E+04 0.  0.
        2    1    3    3  502    0  0.88675237934E+02  0.38779652216E+03 -0.78389872380E+03  0.87906009442E+03  0.25500000920E-02 0. -1.
       -2    1    3    3    0  502 -0.88675237934E+02 -0.38779652216E+03  0.51006714551E+03  0.64685232732E+03  0.25500000920E-02 0.  1.
</event>
<event>
 5   0  0.2544374E-04  0.1506424E+04  0.7818609E-02  0.8880192E-01
       -1   -1    0    0    0  501  0.00000000000E+00  0.00000000000E+00  0.91177451912E+03  0.91177451913E+03  0.50400001928E-02 0.  1.
        1   -1    0    0  501    0  0.00000000000E+00  0.00000000000E+00 -0.62222429892E+03  0.62222429894E+03  0.50400001928E-02 0. -1.
    10030    2    1    2    0    0  0.00000000000E+00  0.00000000000E+00  0.28955022020E+03  0.15339988181E+04  0.15064239257E+04 0.  0.
        4    1    3    3  502    0  0.10610280158E+03  0.26372927684E+03 -0.56549944291E+03  0.63293140924E+03  0.12699999809E+01 0. -1.
       -4    1    3    3    0  502 -0.10610280158E+03 -0.26372927684E+03  0.85504966311E+03  0.90106740883E+03  0.12699999809E+01 0.  1.
</event>
<event>
 5   0  0.4726600E-04  0.1509150E+04  0.7818609E-02  0.8878391E-01
       -2   -1    0    0    0  501  0.00000000000E+00  0.00000000000E+00  0.38750023023E+03  0.38750023024E+03  0.25500000920E-02 0.  1.
        2   -1    0    0  501    0  0.00000000000E+00  0.00000000000E+00 -0.14693749201E+04  0.14693749201E+04  0.25500000920E-02 0. -1.
    10030    2    1    2    0    0  0.00000000000E+00  0.00000000000E+00 -0.10818746899E+04  0.18568751504E+04  0.15091495882E+04 0.  0.
        2    1    3    3  502    0  0.27380249030E+03 -0.54631598318E+02 -0.14034819411E+04  0.14309835688E+04  0.25500000920E-02 0. -1.
       -2    1    3    3    0  502 -0.27380249030E+03  0.54631598318E+02  0.32160725119E+03  0.42589158157E+03  0.25500000920E-02 0.  1.
</event>
<event>
 5   0  0.4768387E-04  0.1504521E+04  0.7818609E-02  0.8881452E-01
        2   -1    0    0  501    0  0.00000000000E+00  0.00000000000E+00  0.23175955769E+04  0.23175955769E+04  0.25500000920E-02 0.  1.
       -2   -1    0    0    0  501  0.00000000000E+00  0.00000000000E+00 -0.24417367640E+03  0.24417367641E+03  0.25500000920E-02 0. -1.
    10030    2    1    2    0    0  0.00000000000E+00  0.00000000000E+00  0.20734219005E+04  0.25617692533E+04  0.15045209635E+04 0.  0.
        3    1    3    3  502    0 -0.23145599861E+03  0.51160911590E+03  0.18436673901E+03  0.59102188743E+03  0.10100000352E+00 0. -1.
       -3    1    3    3    0  502  0.23145599861E+03 -0.51160911590E+03  0.18890551615E+04  0.19707473659E+04  0.10100000352E+00 0.  1.
</event>
<event>
 5   0  0.2542737E-04  0.1504098E+04  0.7818609E-02  0.8881733E-01
        1   -1    0    0  501    0  0.00000000000E+00  0.00000000000E+00  0.99168527694E+03  0.99168527695E+03  0.50400001928E-02 0.  1.
       -1   -1    0    0    0  501  0.00000000000E+00  0.00000000000E+00 -0.57031955402E+03  0.57031955404E+03  0.50400001928E-02 0. -1.
    10030    2    1    2    0    0  0.00000000000E+00  0.00000000000E+00  0.42136572292E+03  0.15620048310E+04  0.15040977427E+04 0.  0.
        1    1    3    3  502    0  0.12528626271E+01  0.48244474483E+02  0.99007549886E+03  0.99125102394E+03  0.50400001928E-02 0.  1.
       -1    1    3    3    0  502 -0.12528626271E+01 -0.48244474483E+02 -0.56870977594E+03  0.57075380705E+03  0.50400001928E-02 0. -1.
</event>
<event>
 5   0  0.4569211E-04  0.1499039E+04  0.7818609E-02  0.8885092E-01
       -2   -1    0    0    0  501  0.00000000000E+00  0.00000000000E+00  0.73877687972E+03  0.73877687972E+03  0.25500000920E-02 0.  1.
        2   -1    0    0  501    0  0.00000000000E+00  0.00000000000E+00 -0.76041843006E+03  0.76041843006E+03  0.25500000920E-02 0. -1.
    10030    2    1    2    0    0  0.00000000000E+00  0.00000000000E+00 -0.21641550337E+02  0.14991953098E+04  0.14990390989E+04 0.  0.
        5    1    3    3  502    0 -0.69671810217E+03  0.21914952606E+03  0.15746688901E+03  0.74716834769E+03  0.46999998093E+01 0.  1.
       -5    1    3    3    0  502  0.69671810217E+03 -0.21914952606E+03 -0.17910843934E+03  0.75202696209E+03  0.46999998093E+01 0. -1.
</event>
<event>
 5   0  0.2544374E-04  0.1478898E+04  0.7818609E-02  0.8898608E-01
       -1   -1    0    0    0  501  0.00000000000E+00  0.00000000000E+00  0.36072896966E+03  0.36072896970E+03  0.50400001928E-02 0.  1.
        1   -1    0    0  501    0  0.00000000000E+00  0.00000000000E+00 -0.15157765984E+04  0.15157765984E+04  0.50400001928E-02 0. -1.
    10030    2    1    2    0    0  0.00000000000E+00  0.00000000000E+00 -0.11550476287E+04  0.18765055681E+04  0.14788976038E+04 0.  0.
        4    1    3    3  502    0 -0.26011345958E+02  0.43697908291E+02  0.35850615102E+03  0.36209718381E+03  0.12699999809E+01 0.  1.
       -4    1    3    3    0  502  0.26011345958E+02 -0.43697908291E+02 -0.15135537797E+04  0.15144083843E+04  0.12699999809E+01 0. -1.
</event>
<event>
 5   0  0.2565416E-04  0.1498011E+04  0.7818609E-02  0.8885777E-01
       -1   -1    0    0    0  501  0.00000000000E+00  0.00000000000E+00  0.83500878404E+03  0.83500878406E+03  0.50400001928E-02 0.  1.
        1   -1    0    0  501    0  0.00000000000E+00  0.00000000000E+00 -0.67186032341E+03  0.67186032343E+03  0.50400001928E-02 0. -1.
    10030    2    1    2    0    0  0.00000000000E+00  0.00000000000E+00  0.16314846063E+03  0.15068691075E+04  0.14980110436E+04 0.  0.
        5    1    3    3  502    0 -0.33873733101E+03 -0.30725747846E+01 -0.59038390107E+03  0.68068176175E+03  0.46999998093E+01 0. -1.
       -5    1    3    3    0  502  0.33873733101E+03  0.30725747846E+01  0.75353236170E+03  0.82618734574E+03  0.46999998093E+01 0.  1.
</event>
<event>
 5   0  0.4726600E-04  0.1501815E+04  0.7818609E-02  0.8883247E-01
       -2   -1    0    0    0  501  0.00000000000E+00  0.00000000000E+00  0.10601709943E+04  0.10601709943E+04  0.25500000920E-02 0. -1.
        2   -1    0    0  501    0  0.00000000000E+00  0.00000000000E+00 -0.53185982160E+03  0.53185982161E+03  0.25500000920E-02 0.  1.
    10030    2    1    2    0    0  0.00000000000E+00  0.00000000000E+00  0.52831117265E+03  0.15920308159E+04  0.15018153760E+04 0.  0.
        2    1    3    3  502    0 -0.31362262242E+03  0.25416058782E+03  0.93536182721E+03  0.10187534056E+04  0.25500000920E-02 0. -1.
       -2    1    3    3    0  502  0.31362262242E+03 -0.25416058782E+03 -0.40705065456E+03  0.57327741023E+03  0.25500000920E-02 0.  1.
</event>
<event>
 5   0  0.2542737E-04  0.1498609E+04  0.7818609E-02  0.8885379E-01
        1   -1    0    0  501    0  0.00000000000E+00  0.00000000000E+00  0.12492004796E+04  0.12492004797E+04  0.50400001928E-02 0. -1.
       -1   -1    0    0    0  501  0.00000000000E+00  0.00000000000E+00 -0.44945314458E+03  0.44945314461E+03  0.50400001928E-02 0.  1.
    10030    2    1    2    0    0  0.00000000000E+00  0.00000000000E+00  0.79974733506E+03  0.16986536243E+04  0.14986087999E+04 0.  0.
        1    1    3    3  502    0 -0.38109892106E+03 -0.64350296779E+03  0.45212024649E+03  0.87392515384E+03  0.50400001928E-02 0. -1.
       -1    1    3    3    0  502  0.38109892106E+03  0.64350296779E+03  0.34762708857E+03  0.82472847042E+03  0.50400001928E-02 0.  1.
</event>
<event>
 5   0  0.2603873E-04  0.1479842E+04  0.7818609E-02  0.8897969E-01
       -1   -1    0    0    0  501  0.00000000000E+00  0.00000000000E+00  0.30404976797E+03  0.30404976801E+03  0.50400001928E-02 0.  1.
        1   -1    0    0  501    0  0.00000000000E+00  0.00000000000E+00 -0.18006368695E+04  0.18006368695E+04  0.50400001928E-02 0. -1.
    10030    2    1    2    0    0  0.00000000000E+00  0.00000000000E+00 -0.14965871015E+04  0.21046866375E+04  0.14798421841E+04 0.  0.
        2    1    3    3  502    0  0.37118740875E+03  0.29736309694E+03  0.57850679177E+02  0.47911544009E+03  0.25500000920E-02 0.  1.
       -2    1    3    3    0  502 -0.37118740875E+03 -0.29736309694E+03 -0.15544377807E+04  0.16255711974E+04  0.25500000920E-02 0. -1.
</event>
<event>
 5   0  0.4569211E-04  0.1496144E+04  0.7818609E-02  0.8887021E-01
       -2   -1    0    0    0  501  0.00000000000E+00  0.00000000000E+00  0.11336268419E+04  0.11336268419E+04  0.25500000920E-02 0.  1.
        2   -1    0    0  501    0  0.00000000000E+00  0.00000000000E+00 -0.49364707095E+03  0.49364707096E+03  0.25500000920E-02 0. -1.
    10030    2    1    2    0    0  0.00000000000E+00  0.00000000000E+00  0.63997977091E+03  0.16272739128E+04  0.14961438033E+04 0.  0.
        5    1    3    3  502    0  0.53584056621E+03  0.30107309150E+03 -0.14378517200E+03  0.63124193817E+03  0.46999998093E+01 0. -1.
       -5    1    3    3    0  502 -0.53584056621E+03 -0.30107309150E+03  0.78376494291E+03  0.99603197466E+03  0.46999998093E+01 0.  1.
</event>
<event>
 5   0  0.4785496E-04  0.1496278E+04  0.7818609E-02  0.8886932E-01
        2   -1    0    0  501    0  0.00000000000E+00  0.00000000000E+00  0.22280739222E+04  0.22280739222E+04  0.25500000920E-02 0. -1.
       -2   -1    0    0    0  501  0.00000000000E+00  0.00000000000E+00 -0.25120899295E+03  0.25120899296E+03  0.25500000920E-02 0.  1.
    10030    2    1    2    0    0  0.00000000000E+00  0.00000000000E+00  0.19768649293E+04  0.24792829152E+04  0.14962783247E+04 0.  0.
        4    1    3    3  502    0 -0.13591360591E+03  0.60364926956E+03  0.16852368687E+04  0.17952408934E+04  0.12699999809E+01 0. -1.
       -4    1    3    3    0  502  0.13591360591E+03 -0.60364926956E+03  0.29162806057E+03  0.68404202175E+03  0.12699999809E+01 0.  1.
</event>
<event>
 5   0  0.2603873E-04  0.1477976E+04  0.7818609E-02  0.8899232E-01
       -1   -1    0    0    0  501  0.00000000000E+00  0.00000000000E+00  0.80976650981E+03  0.80976650982E+03  0.50400001928E-02 0.  1.
        1   -1    0    0  501    0  0.00000000000E+00  0.00000000000E+00 -0.67439631732E+03  0.67439631734E+03  0.50400001928E-02 0. -1.
    10030    2    1    2    0    0  0.00000000000E+00  0.00000000000E+00  0.13537019249E+03  0.14841628272E+04  0.14779763897E+04 0.  0.
        2    1    3    3  502    0  0.45823266413E+03  0.51895595481E+03 -0.19187525137E+03  0.71840696656E+03  0.25500000920E-02 0.  1.
       -2    1    3    3    0  502 -0.45823266413E+03 -0.51895595481E+03  0.32724544386E+03  0.76575586060E+03  0.25500000920E-02 0. -1.
</event>
<event>
 5   0  0.2605471E-04  0.1497727E+04  0.7818609E-02  0.8885966E-01
       -1   -1    0    0    0  501  0.00000000000E+00  0.00000000000E+00  0.42724077326E+03  0.42724077329E+03  0.50400001928E-02 0. -1.
        1   -1    0    0  501    0  0.00000000000E+00  0.00000000000E+00 -0.13126013883E+04  0.13126013883E+04  0.50400001928E-02 0.  1.
    10030    2    1    2    0    0  0.00000000000E+00  0.00000000000E+00 -0.88536061505E+03  0.17398421616E+04  0.14977273879E+04 0.  0.
        3    1    3    3  502    0 -0.12965858658E+03  0.72488130380E+03 -0.28453916076E+03  0.78944714699E+03  0.10100000352E+00 0.  1.
       -3    1    3    3    0  502  0.12965858658E+03 -0.72488130380E+03 -0.60082145428E+03  0.95039501461E+03  0.10100000352E+00 0. -1.
</event>
<event>
 5   0  0.2603873E-04  0.1497482E+04  0.7818609E-02  0.8886129E-01
       -1   -1    0    0    0  501  0.00000000000E+00  0.00000000000E+00  0.12458908128E+04  0.12458908128E+04  0.50400001928E-02 0.  1.
        1   -1    0    0  501    0  0.00000000000E+00  0.00000000000E+00 -0.44996963313E+03  0.44996963316E+03  0.50400001928E-02 0. -1.
    10030    2    1    2    0    0  0.00000000000E+00  0.00000000000E+00  0.79592117970E+03  0.16958604460E+04  0.14974819291E+04 0.  0.
        2    1    3    3  502    0  0.59482658129E+03  0.22602130371E+03 -0.48913337287E+02  0.63819809315E+03  0.25500000920E-02 0.  1.
       -2    1    3    3    0  502 -0.59482658129E+03 -0.22602130371E+03  0.84483451699E+03  0.10576623528E+04  0.25500000920E-02 0. -1.
</event>
<event>
 5   0  0.4768387E-04  0.1502290E+04  0.7818609E-02  0.8882932E-01
       -2   -1    0    0    0  501  0.00000000000E+00  0.00000000000E+00  0.70478620296E+03  0.70478620296E+03  0.25500000920E-02 0.  1.
        2   -1    0    0  501    0  0.00000000000E+00  0.00000000000E+00 -0.80055288762E+03  0.80055288762E+03  0.25500000920E-02 0. -1.
    10030    2    1    2    0    0  0.00000000000E+00  0.00000000000E+00 -0.95766684659E+02  0.15053390906E+04  0.15022897589E+04 0.  0.
        3    1    3    3  502    0 -0.14637013084E+03 -0.33046067504E+03  0.61192884797E+03  0.71069360355E+03  0.10100000352E+00 0.  1.
       -3    1    3    3    0  502  0.14637013084E+03  0.33046067504E+03 -0.70769553263E+03  0.79464548703E+03  0.10100000352E+00 0. -1.
</event>
<event>
 5   0  0.2565416E-04  0.1494021E+04  0.7818609E-02  0.8888439E-01
        1   -1    0    0  501    0  0.00000000000E+00  0.00000000000E+00  0.10240196018E+04  0.10240196018E+04  0.50400001928E-02 0. -1.
       -1   -1    0    0    0  501  0.00000000000E+00  0.00000000000E+00 -0.54493565452E+03  0.54493565454E+03  0.50400001928E-02 0.  1.
    10030    2    1    2    0    0  0.00000000000E+00  0.00000000000E+00  0.47908394731E+03  0.15689552564E+04  0.14940211404E+04 0.  0.
        5    1    3    3  502    0  0.43197868591E+03 -0.20068491127E+03  0.84383597354E+03  0.96900013361E+03  0.46999998093E+01 0. -1.
       -5    1    3    3    0  502 -0.43197868591E+03  0.20068491127E+03 -0.36475202624E+03  0.59995512277E+03  0.46999998093E+01 0.  1.
</event>
<event>
 5   0  0.2544374E-04  0.1485375E+04  0.7818609E-02  0.8894237E-01
        1   -1    0    0  501    0  0.00000000000E+00  0.00000000000E+00  0.64267079748E+03  0.64267079750E+03  0.50400001928E-02 0. -1.
       -1   -1    0    0    0  501  0.00000000000E+00  0.00000000000E+00 -0.85826938081E+03  0.85826938083E+03  0.50400001928E-02 0.  1.
    10030    2    1    2    0    0  0.00000000000E+00  0.00000000000E+00 -0.21559858333E+03  0.15009401783E+04  0.14853749257E+04 0.  0.
        4    1    3    3  502    0  0.62393067829E+03 -0.13119724661E+03 -0.49268548663E+03  0.80575604898E+03  0.12699999809E+01 0.  1.
       -4    1    3    3    0  502 -0.62393067829E+03  0.13119724661E+03  0.27708690330E+03  0.69518412935E+03  0.12699999809E+01 0. -1.
</event>
<event>
 5   0  0.2605471E-04  0.1504251E+04  0.7818609E-02  0.8881631E-01
        1   -1    0    0  501    0  0.00000000000E+00  0.00000000000E+00  0.83740900456E+03  0.83740900457E+03  0.50400001928E-02 0.  1.
       -1   -1    0    0    0  501  0.00000000000E+00  0.00000000000E+00 -0.67552783970E+03  0.67552783972E+03  0.50400001928E-02 0. -1.
    10030    2    1    2    0    0  0.00000000000E+00  0.00000000000E+00  0.16188116485E+03  0.15129368443E+04  0.15042514362E+04 0.  0.
        3    1    3    3  502    0  0.25394645071E+03 -0.58399544201E+03  0.48344321949E+03  0.79953538558E+03  0.10100000352E+00 0.  1.
       -3    1    3    3    0  502 -0.25394645071E+03  0.58399544201E+03 -0.32156205463E+03  0.71340145872E+03  0.10100000352E+00 0. -1.
</event>
<event>
 5   0  0.4948645E-04  0.1498297E+04  0.7818609E-02  0.8885586E-01
       -2   -1    0    0    0  501  0.00000000000E+00  0.00000000000E+00  0.55582207823E+03  0.55582207823E+03  0.25500000920E-02 0.  1.
        2   -1    0    0  501    0  0.00000000000E+00  0.00000000000E+00 -0.10097173424E+04  0.10097173424E+04  0.25500000920E-02 0. -1.
    10030    2    1    2    0    0  0.00000000000E+00  0.00000000000E+00 -0.45389526421E+03  0.15655394207E+04  0.14982966218E+04 0.  0.
        1    1    3    3  502    0  0.23072915144E+03 -0.69623999706E+03 -0.38622619491E+03  0.82894918330E+03  0.50400001928E-02 0. -1.
       -1    1    3    3    0  502 -0.23072915144E+03  0.69623999706E+03 -0.67669069303E+02  0.73659023737E+03  0.50400001928E-02 0.  1.
</event>
<event>
 5   0  0.2542737E-04  0.1506933E+04  0.7818609E-02  0.8879856E-01
        1   -1    0    0  501    0  0.00000000000E+00  0.00000000000E+00  0.15179391053E+04  0.15179391053E+04  0.50400001928E-02 0.  1.
       -1   -1    0    0    0  501  0.00000000000E+00  0.00000000000E+00 -0.37400167818E+03  0.37400167821E+03  0.50400001928E-02 0. -1.
    10030    2    1    2    0    0  0.00000000000E+00  0.00000000000E+00  0.11439374271E+04  0.18919407835E+04  0.15069330082E+04 0.  0.
        1    1    3    3  502    0 -0.47453012450E+03  0.31635100632E+02 -0.16174965537E+03  0.50233710762E+03  0.50400001928E-02 0. -1.
       -1    1    3    3    0  502  0.47453012450E+03 -0.31635100632E+02  0.13056870824E+04  0.13896036759E+04  0.50400001928E-02 0.  1.
</event>
<event>
 5   0  0.4768387E-04  0.1503104E+04  0.7818609E-02  0.8882392E-01
        2   -1    0    0  501    0  0.00000000000E+00  0.00000000000E+00  0.10879783593E+04  0.10879783593E+04  0.25500000920E-02 0.  1.
       -2   -1    0    0    0  501  0.00000000000E+00  0.00000000000E+00 -0.51915557832E+03  0.51915557833E+03  0.25500000920E-02 0. -1.
    10030    2    1    2    0    0  0.00000000000E+00  0.00000000000E+00  0.56882278097E+03  0.16071339376E+04  0.15031035019E+04 0.  0.
        3    1    3    3  502    0 -0.19668091207E+03  0.69613704394E+03  0.66492090793E+02  0.72643745323E+03  0.10100000352E+00 0. -1.
       -3    1    3    3    0  502  0.19668091207E+03 -0.69613704394E+03  0.50233069018E+03  0.88069648439E+03  0.10100000352E+00 0.  1.
</event>
<event>
 5   0  0.4768387E-04  0.1461941E+04  0.7818609E-02  0.8910164E-01
        2   -1    0    0  501    0  0.00000000000E+00  0.00000000000E+00  0.22021309104E+04  0.22021309104E+04  0.25500000920E-02 0.  1.
       -2   -1    0    0    0  501  0.00000000000E+00  0.00000000000E+00 -0.24263664946E+03  0.24263664947E+03  0.25500000920E-02 0. -1.
    10030    2    1    2    0    0  0.00000000000E+00  0.00000000000E+00  0.19594942609E+04  0.24447675599E+04  0.14619407181E+04 0.  0.
        3    1    3    3  502    0 -0.59614952614E+03 -0.18535928429E+03  0.16155754884E+04  0.17320036059E+04  0.10100000352E+00 0.  1.
       -3    1    3    3    0  502  0.59614952614E+03  0.18535928429E+03  0.34391877249E+03  0.71276395396E+03  0.10100000352E+00 0. -1.
</event>
<event>
 5   0  0.4785496E-04  0.1502452E+04  0.7818609E-02  0.8882824E-01
        2   -1    0    0  501    0  0.00000000000E+00  0.00000000000E+00  0.13560497236E+04  0.13560497236E+04  0.25500000920E-02 0. -1.
       -2   -1    0    0    0  501  0.00000000000E+00  0.00000000000E+00 -0.41616489260E+03  0.41616489261E+03  0.25500000920E-02 0.  1.
    10030    2    1    2    0    0  0.00000000000E+00  0.00000000000E+00  0.93988483102E+03  0.17722146162E+04  0.15024517132E+04 0.  0.
        4    1    3    3  502    0 -0.49659424818E+03 -0.48099244803E+03  0.81661548744E+03  0.10699635740E+04  0.12699999809E+01 0. -1.
       -4    1    3    3    0  502  0.49659424818E+03  0.48099244803E+03  0.12326934358E+03  0.70225104226E+03  0.12699999809E+01 0.  1.
</event>
<event>
 5   0  0.2605471E-04  0.1495372E+04  0.7818609E-02  0.8887536E-01
        1   -1    0    0  501    0  0.00000000000E+00  0.00000000000E+00  0.10598947430E+04  0.10598947430E+04  0.50400001928E-02 0. -1.
       -1   -1    0    0    0  501  0.00000000000E+00  0.00000000000E+00 -0.52744309337E+03  0.52744309339E+03  0.50400001928E-02 0.  1.
    10030    2    1    2    0    0  0.00000000000E+00  0.00000000000E+00  0.53245164965E+03  0.15873378364E+04  0.14953717423E+04 0.  0.
        3    1    3    3  502    0  0.15495020292E+03 -0.63424905396E+03  0.65298615228E+03  0.92340259535E+03  0.10100000352E+00 0.  1.
       -3    1    3    3    0  502 -0.15495020292E+03  0.63424905396E+03 -0.12053450262E+03  0.66393524108E+03  0.10100000352E+00 0. -1.
</event>
<event>
 5   0  0.4785496E-04  0.1497100E+04  0.7818609E-02  0.8886384E-01
       -2   -1    0    0    0  501  0.00000000000E+00  0.00000000000E+00  0.52646553044E+03  0.52646553045E+03  0.25500000920E-02 0. -1.
        2   -1    0    0  501    0  0.00000000000E+00  0.00000000000E+00 -0.10643182865E+04  0.10643182865E+04  0.25500000920E-02 0.  1.
    10030    2    1    2    0    0  0.00000000000E+00  0.00000000000E+00 -0.53785275606E+03  0.15907838170E+04  0.14970997178E+04 0.  0.
        4    1    3    3  502    0 -0.69194901435E+03 -0.18798367798E+03 -0.40548984884E+02  0.71817625603E+03  0.12699999809E+01 0.  1.
       -4    1    3    3    0  502  0.69194901435E+03  0.18798367798E+03 -0.49730377118E+03  0.87260756092E+03  0.12699999809E+01 0. -1.
</event>
<event>
 5   0  0.2565416E-04  0.1501782E+04  0.7818609E-02  0.8883269E-01
       -1   -1    0    0    0  501  0.00000000000E+00  0.00000000000E+00  0.69566391216E+03  0.69566391217E+03  0.50400001928E-02 0. -1.
        1   -1    0    0  501    0  0.00000000000E+00  0.00000000000E+00 -0.81050213619E+03  0.81050213621E+03  0.50400001928E-02 0.  1.
    10030    2    1    2    0    0  0.00000000000E+00  0.00000000000E+00 -0.11483822403E+03  0.15061660484E+04  0.15017817243E+04 0.  0.
        5    1    3    3  502    0 -0.12634400016E+03  0.43378088452E+03  0.54407032902E+03  0.70722222467E+03  0.46999998093E+01 0. -1.
       -5    1    3    3    0  502  0.12634400016E+03 -0.43378088452E+03 -0.65890855305E+03  0.79894382371E+03  0.46999998093E+01 0.  1.
</event>
<event>
 5   0  0.4948645E-04  0.1501722E+04  0.7818609E-02  0.8883308E-01
       -2   -1    0    0    0  501  0.00000000000E+00  0.00000000000E+00  0.27805607043E+03  0.27805607044E+03  0.25500000920E-02 0. -1.
        2   -1    0    0  501    0  0.00000000000E+00  0.00000000000E+00 -0.20276219042E+04  0.20276219042E+04  0.25500000920E-02 0.  1.
    10030    2    1    2    0    0  0.00000000000E+00  0.00000000000E+00 -0.17495658337E+04  0.23056779746E+04  0.15017224497E+04 0.  0.
        1    1    3    3  502    0  0.49611262686E+03 -0.37776740927E+03 -0.23257719039E+03  0.66552843932E+03  0.50400001928E-02 0. -1.
       -1    1    3    3    0  502 -0.49611262686E+03  0.37776740927E+03 -0.15169886434E+04  0.16401495353E+04  0.50400001928E-02 0.  1.
</event>
<event>
 5   0  0.2603873E-04  0.1651404E+04  0.7818609E-02  0.8789576E-01
        1   -1    0    0  501    0  0.00000000000E+00  0.00000000000E+00  0.48023075143E+03  0.48023075146E+03  0.50400001928E-02 0.  1.
       -1   -1    0    0    0  501  0.00000000000E+00  0.00000000000E+00 -0.14197006010E+04  0.14197006010E+04  0.50400001928E-02 0. -1.
    10030    2    1    2    0    0  0.00000000000E+00  0.00000000000E+00 -0.93946984952E+03  0.18999313524E+04  0.16514041134E+04 0.  0.
        2    1    3    3  502    0  0.35646802319E+03 -0.74471291956E+03 -0.45728498433E+03  0.94380948343E+03  0.25500000920E-02 0.  1.
       -2    1    3    3    0  502 -0.35646802319E+03  0.74471291956E+03 -0.48218486519E+03  0.95612186899E+03  0.25500000920E-02 0. -1.
</event>
<event>
 5   0  0.4569211E-04  0.1511425E+04  0.7818609E-02  0.8876891E-01
       -2   -1    0    0    0  501  0.00000000000E+00  0.00000000000E+00  0.42739437244E+03  0.42739437245E+03  0.25500000920E-02 0.  1.
        2   -1    0    0  501    0  0.00000000000E+00  0.00000000000E+00 -0.13362392150E+04  0.13362392150E+04  0.25500000920E-02 0. -1.
    10030    2    1    2    0    0  0.00000000000E+00  0.00000000000E+00 -0.90884484251E+03  0.17636335874E+04  0.15114246534E+04 0.  0.
        5    1    3    3  502    0 -0.70451094384E+03 -0.26491784546E+03 -0.53323481958E+03  0.92243080914E+03  0.46999998093E+01 0. -1.
       -5    1    3    3    0  502  0.70451094384E+03  0.26491784546E+03 -0.37561002293E+03  0.84120277826E+03  0.46999998093E+01 0.  1.
</event>
<event>
 5   0  0.2605471E-04  0.1508544E+04  0.7818609E-02  0.8878791E-01
        1   -1    0    0  501    0  0.00000000000E+00  0.00000000000E+00  0.37204574148E+03  0.37204574152E+03  0.50400001928E-02 0.  1.
       -1   -1    0    0    0  501  0.00000000000E+00  0.00000000000E+00 -0.15291838707E+04  0.15291838707E+04  0.50400001928E-02 0. -1.
    10030    2    1    2    0    0  0.00000000000E+00  0.00000000000E+00 -0.11571381292E+04  0.19012296122E+04  0.15085441287E+04 0.  0.
        3    1    3    3  502    0  0.73285755469E+02 -0.64326067392E+03 -0.90826380169E+02  0.65376183591E+03  0.10100000352E+00 0.  1.
       -3    1    3    3    0  502 -0.73285755469E+02  0.64326067392E+03 -0.10663117490E+04  0.12474677763E+04  0.10100000352E+00 0. -1.
</event>
<event>
 5   0  0.2605471E-04  0.1484888E+04  0.7818609E-02  0.8894565E-01
       -1   -1    0    0    0  501  0.00000000000E+00  0.00000000000E+00  0.35441593582E+03  0.35441593585E+03  0.50400001928E-02 0.  1.
        1   -1    0    0  501    0  0.00000000000E+00  0.00000000000E+00 -0.15553001183E+04  0.15553001183E+04  0.50400001928E-02 0. -1.
    10030    2    1    2    0    0  0.00000000000E+00  0.00000000000E+00 -0.12008841824E+04  0.19097160541E+04  0.14848880725E+04 0.  0.
        3    1    3    3  502    0 -0.39801745765E+03 -0.25014843254E+03 -0.13395094150E+04  0.14196047400E+04  0.10100000352E+00 0. -1.
       -3    1    3    3    0  502  0.39801745765E+03  0.25014843254E+03  0.13862523254E+03  0.49011131409E+03  0.10100000352E+00 0.  1.
</event>
<event>
 5   0  0.1792000E-04  0.1452194E+04  0.7818609E-02  0.8916881E-01
        3   -1    0    0  501    0  0.00000000000E+00  0.00000000000E+00  0.55342896437E+03  0.55342897359E+03  0.10100000352E+00 0.  1.
       -3   -1    0    0    0  501  0.00000000000E+00  0.00000000000E+00 -0.95263742910E+03  0.95263743446E+03  0.10100000352E+00 0. -1.
    10030    2    1    2    0    0  0.00000000000E+00  0.00000000000E+00 -0.39920846473E+03  0.15060664080E+04  0.14521944178E+04 0.  0.
        2    1    3    3  502    0 -0.34500589640E+03  0.61769817973E+03 -0.36886737396E+03  0.79789927270E+03  0.25500000920E-02 0. -1.
       -2    1    3    3    0  502  0.34500589640E+03 -0.61769817973E+03 -0.30341090772E+02  0.70816713535E+03  0.25500000920E-02 0.  1.
</event>
<event>
 5   0  0.2542737E-04  0.1518286E+04  0.7818609E-02  0.8872383E-01
        1   -1    0    0  501    0  0.00000000000E+00  0.00000000000E+00  0.10872453761E+04  0.10872453761E+04  0.50400001928E-02 0.  1.
       -1   -1    0    0    0  501  0.00000000000E+00  0.00000000000E+00 -0.53005365203E+03  0.53005365205E+03  0.50400001928E-02 0. -1.
    10030    2    1    2    0    0  0.00000000000E+00  0.00000000000E+00  0.55719172410E+03  0.16172990282E+04  0.15182863792E+04 0.  0.
        1    1    3    3  502    0  0.59545298501E+02 -0.14824220334E+03 -0.51194536477E+03  0.53629231764E+03  0.50400001928E-02 0. -1.
       -1    1    3    3    0  502 -0.59545298501E+02  0.14824220334E+03  0.10691370889E+04  0.10810067106E+04  0.50400001928E-02 0.  1.
</event>
<event>
 5   0  0.2603873E-04  0.1489617E+04  0.7818609E-02  0.8891387E-01
       -1   -1    0    0    0  501  0.00000000000E+00  0.00000000000E+00  0.39592097957E+03  0.39592097961E+03  0.50400001928E-02 0.  1.
        1   -1    0    0  501    0  0.00000000000E+00  0.00000000000E+00 -0.14011380069E+04  0.14011380069E+04  0.50400001928E-02 0. -1.
    10030    2    1    2    0    0  0.00000000000E+00  0.00000000000E+00 -0.10052170273E+04  0.17970589865E+04  0.14896173096E+04 0.  0.
        2    1    3    3  502    0  0.73726472032E+03 -0.56575976039E+02 -0.61037513358E+03  0.95881067609E+03  0.25500000920E-02 0. -1.
       -2    1    3    3    0  502 -0.73726472032E+03  0.56575976039E+02 -0.39484189377E+03  0.83824831045E+03  0.25500000920E-02 0.  1.
</event>
<event>
 5   0  0.2565416E-04  0.1500579E+04  0.7818609E-02  0.8884068E-01
        1   -1    0    0  501    0  0.00000000000E+00  0.00000000000E+00  0.16390860689E+04  0.16390860689E+04  0.50400001928E-02 0. -1.
       -1   -1    0    0    0  501  0.00000000000E+00  0.00000000000E+00 -0.34344425147E+03  0.34344425150E+03  0.50400001928E-02 0.  1.
    10030    2    1    2    0    0  0.00000000000E+00  0.00000000000E+00  0.12956418174E+04  0.19825303204E+04  0.15005794721E+04 0.  0.
        5    1    3    3  502    0 -0.72951668100E+02 -0.68327369422E+03  0.10457730208E+04  0.12513385585E+04  0.46999998093E+01 0. -1.
       -5    1    3    3    0  502  0.72951668100E+02  0.68327369422E+03  0.24986879664E+03  0.73119176186E+03  0.46999998093E+01 0.  1.
</event>
<event>
 5   0  0.4569211E-04  0.1534559E+04  0.7818609E-02  0.8861792E-01
        2   -1    0    0  501    0  0.00000000000E+00  0.00000000000E+00  0.10644772404E+04  0.10644772404E+04  0.25500000920E-02 0. -1.
       -2   -1    0    0    0  501  0.00000000000E+00  0.00000000000E+00 -0.55305796163E+03  0.55305796164E+03  0.25500000920E-02 0.  1.
    10030    2    1    2    0    0  0.00000000000E+00  0.00000000000E+00  0.51141927873E+03  0.16175352020E+04  0.15345587154E+04 0.  0.
        5    1    3    3  502    0  0.16316251534E+03  0.62060310794E+03 -0.18765923332E+03  0.66858679455E+03  0.46999998093E+01 0.  1.
       -5    1    3    3    0  502 -0.16316251534E+03 -0.62060310794E+03  0.69907851204E+03  0.94894840745E+03  0.46999998093E+01 0. -1.
</event>
<event>
 5   0  0.2565416E-04  0.1506937E+04  0.7818609E-02  0.8879853E-01
       -1   -1    0    0    0  501  0.00000000000E+00  0.00000000000E+00  0.58213564421E+03  0.58213564423E+03  0.50400001928E-02 0.  1.
        1   -1    0    0  501    0  0.00000000000E+00  0.00000000000E+00 -0.97522738226E+03  0.97522738228E+03  0.50400001928E-02 0. -1.
    10030    2    1    2    0    0  0.00000000000E+00  0.00000000000E+00 -0.39309173805E+03  0.15573630265E+04  0.15069367876E+04 0.  0.
        5    1    3    3  502    0 -0.59284718968E+03  0.12183031253E+03 -0.66031866880E+03  0.89574173160E+03  0.46999998093E+01 0. -1.
       -5    1    3    3    0  502  0.59284718968E+03 -0.12183031253E+03  0.26722693075E+03  0.66162129491E+03  0.46999998093E+01 0.  1.
</event>
<event>
 5   0  0.4948645E-04  0.1494391E+04  0.7818609E-02  0.8888191E-01
       -2   -1    0    0    0  501  0.00000000000E+00  0.00000000000E+00  0.54231267997E+03  0.54231267998E+03  0.25500000920E-02 0. -1.
        2   -1    0    0  501    0  0.00000000000E+00  0.00000000000E+00 -0.10294818493E+04  0.10294818493E+04  0.25500000920E-02 0.  1.
    10030    2    1    2    0    0  0.00000000000E+00  0.00000000000E+00 -0.48716916935E+03  0.15717945293E+04  0.14943909270E+04 0.  0.
        1    1    3    3  502    0  0.23761477567E+03 -0.68048468658E+03 -0.45071330721E+03  0.85009568615E+03  0.50400001928E-02 0.  1.
       -1    1    3    3    0  502 -0.23761477567E+03  0.68048468658E+03 -0.36455862140E+02  0.72169884315E+03  0.50400001928E-02 0. -1.
</event>
<event>
 5   0  0.2542737E-04  0.1499370E+04  0.7818609E-02  0.8884872E-01
        1   -1    0    0  501    0  0.00000000000E+00  0.00000000000E+00  0.36352002505E+03  0.36352002508E+03  0.50400001928E-02 0. -1.
       -1   -1    0    0    0  501  0.00000000000E+00  0.00000000000E+00 -0.15460696262E+04  0.15460696263E+04  0.50400001928E-02 0.  1.
    10030    2    1    2    0    0  0.00000000000E+00  0.00000000000E+00 -0.11825496012E+04  0.19095896513E+04  0.14993695599E+04 0.  0.
        1    1    3    3  502    0  0.16745569549E+03 -0.25279298177E+03  0.28193373860E+03  0.41404388001E+03  0.50400001928E-02 0. -1.
       -1    1    3    3    0  502 -0.16745569549E+03  0.25279298177E+03 -0.14644833398E+04  0.14955457713E+04  0.50400001928E-02 0.  1.
</event>
<event>
 5   0  0.4785496E-04  0.1498922E+04  0.7818609E-02  0.8885170E-01
        2   -1    0    0  501    0  0.00000000000E+00  0.00000000000E+00  0.21115223467E+04  0.21115223467E+04  0.25500000920E-02 0. -1.
       -2   -1    0    0    0  501  0.00000000000E+00  0.00000000000E+00 -0.26601253903E+03  0.26601253905E+03  0.25500000920E-02 0.  1.
    10030    2    1    2    0    0  0.00000000000E+00  0.00000000000E+00  0.18455098077E+04  0.23775348858E+04  0.14989215065E+04 0.  0.
        4    1    3    3  502    0  0.47050476505E+03  0.58082539031E+03  0.10090069191E+04  0.12557186961E+04  0.12699999809E+01 0.  1.
       -4    1    3    3    0  502 -0.47050476505E+03 -0.58082539031E+03  0.83650288860E+03  0.11218161897E+04  0.12699999809E+01 0. -1.
</event>
<event>
 5   0  0.4768387E-04  0.1507187E+04  0.7818609E-02  0.8879688E-01
        2   -1    0    0  501    0  0.00000000000E+00  0.00000000000E+00  0.27854414960E+04  0.27854414960E+04  0.25500000920E-02 0.  1.
       -2   -1    0    0    0  501  0.00000000000E+00  0.00000000000E+00 -0.20388263514E+03  0.20388263516E+03  0.25500000920E-02 0. -1.
    10030    2    1    2    0    0  0.00000000000E+00  0.00000000000E+00  0.25815588609E+04  0.29893241312E+04  0.15071869854E+04 0.  0.
        3    1    3    3  502    0 -0.19695311753E+02 -0.69856054362E+03  0.18501080029E+04  0.19776942057E+04  0.10100000352E+00 0.  1.
       -3    1    3    3    0  502  0.19695311753E+02  0.69856054362E+03  0.73145085797E+03  0.10116299255E+04  0.10100000352E+00 0. -1.
</event>
<event>
 5   0  0.2605471E-04  0.1495661E+04  0.7818609E-02  0.8887344E-01
        1   -1    0    0  501    0  0.00000000000E+00  0.00000000000E+00  0.83773821498E+03  0.83773821500E+03  0.50400001928E-02 0. -1.
       -1   -1    0    0    0  501  0.00000000000E+00  0.00000000000E+00 -0.66757162337E+03  0.66757162339E+03  0.50400001928E-02 0.  1.
    10030    2    1    2    0    0  0.00000000000E+00  0.00000000000E+00  0.17016659161E+03  0.15053098384E+04  0.14956607371E+04 0.  0.
        3    1    3    3  502    0 -0.50159666467E+03  0.69327519525E+02  0.63894688798E+03  0.81526600250E+03  0.10100000352E+00 0. -1.
       -3    1    3    3    0  502  0.50159666467E+03 -0.69327519525E+02 -0.46878029638E+03  0.69004383589E+03  0.10100000352E+00 0.  1.
</event>
<event>
 5   0  0.2565416E-04  0.1482506E+04  0.7818609E-02  0.8896170E-01
       -1   -1    0    0    0  501  0.00000000000E+00  0.00000000000E+00  0.39185801338E+03  0.39185801341E+03  0.50400001928E-02 0. -1.
        1   -1    0    0  501    0  0.00000000000E+00  0.00000000000E+00 -0.14021807687E+04  0.14021807687E+04  0.50400001928E-02 0.  1.
    10030    2    1    2    0    0  0.00000000000E+00  0.00000000000E+00 -0.10103227553E+04  0.17940387821E+04  0.14825056768E+04 0.  0.
        5    1    3    3  502    0  0.30087704696E+03 -0.24066766861E+03  0.26114057998E+03  0.46547225118E+03  0.46999998093E+01 0. -1.
       -5    1    3    3    0  502 -0.30087704696E+03  0.24066766861E+03 -0.12714633353E+04  0.13285665309E+04  0.46999998093E+01 0.  1.
</event>
<event>
 5   0  0.1792000E-04  0.1493701E+04  0.7818609E-02  0.8888652E-01
        3   -1    0    0  501    0  0.00000000000E+00  0.00000000000E+00  0.81087717837E+03  0.81087718466E+03  0.10100000352E+00 0. -1.
       -3   -1    0    0    0  501  0.00000000000E+00  0.00000000000E+00 -0.68787967045E+03  0.68787967786E+03  0.10100000352E+00 0.  1.
    10030    2    1    2    0    0  0.00000000000E+00  0.00000000000E+00  0.12299750793E+03  0.14987568625E+04  0.14937013577E+04 0.  0.
        1    1    3    3  502    0 -0.33692375525E+03  0.30800616878E+03  0.65460047216E+03  0.79805212551E+03  0.50400001928E-02 0. -1.
       -1    1    3    3    0  502  0.33692375525E+03 -0.30800616878E+03 -0.53160296424E+03  0.70070473701E+03  0.50400001928E-02 0.  1.
</event>
<event>
 5   0  0.2603873E-04  0.1512327E+04  0.7818609E-02  0.8876297E-01
        1   -1    0    0  501    0  0.00000000000E+00  0.00000000000E+00  0.84502852338E+03  0.84502852339E+03  0.50400001928E-02 0.  1.
       -1   -1    0    0    0  501  0.00000000000E+00  0.00000000000E+00 -0.67664381385E+03  0.67664381387E+03  0.50400001928E-02 0. -1.
    10030    2    1    2    0    0  0.00000000000E+00  0.00000000000E+00  0.16838470953E+03  0.15216723373E+04  0.15123271113E+04 0.  0.
        2    1    3    3  502    0 -0.30291552044E+02  0.31675061435E+03 -0.60600180318E+03  0.68446089390E+03  0.25500000920E-02 0. -1.
       -2    1    3    3    0  502  0.30291552044E+02 -0.31675061435E+03  0.77438651271E+03  0.83721144336E+03  0.25500000920E-02 0.  1.
</event>
<event>
 5   0  0.4768387E-04  0.1520020E+04  0.7818609E-02  0.8871248E-01
        2   -1    0    0  501    0  0.00000000000E+00  0.00000000000E+00  0.12027233596E+04  0.12027233596E+04  0.25500000920E-02 0. -1.
       -2   -1    0    0    0  501  0.00000000000E+00  0.00000000000E+00 -0.48025614808E+03  0.48025614809E+03  0.25500000920E-02 0.  1.
    10030    2    1    2    0    0  0.00000000000E+00  0.00000000000E+00  0.72246721149E+03  0.16829795077E+04  0.15200201155E+04 0.  0.
        3    1    3    3  502    0  0.12372848305E+02  0.10988747605E+03 -0.47130115595E+03  0.48410033523E+03  0.10100000352E+00 0.  1.
       -3    1    3    3    0  502 -0.12372848305E+02 -0.10988747605E+03  0.11937683674E+04  0.11988791724E+04  0.10100000352E+00 0. -1.
</event>
<event>
 5   0  0.4726600E-04  0.1515951E+04  0.7818609E-02  0.8873915E-01
        2   -1    0    0  501    0  0.00000000000E+00  0.00000000000E+00  0.72257902505E+03  0.72257902505E+03  0.25500000920E-02 0.  1.
       -2   -1    0    0    0  501  0.00000000000E+00  0.00000000000E+00 -0.79510550498E+03  0.79510550499E+03  0.25500000920E-02 0. -1.
    10030    2    1    2    0    0  0.00000000000E+00  0.00000000000E+00 -0.72526479939E+02  0.15176845300E+04  0.15159506069E+04 0.  0.
        2    1    3    3  502    0 -0.42272193462E+02  0.52428073428E+03  0.51013507737E+03  0.73273120846E+03  0.25500000920E-02 0.  1.
       -2    1    3    3    0  502  0.42272193462E+02 -0.52428073428E+03 -0.58266155731E+03  0.78495332158E+03  0.25500000920E-02 0. -1.
</event>
<event>
 5   0  0.4768387E-04  0.1508627E+04  0.7818609E-02  0.8878737E-01
       -2   -1    0    0    0  501  0.00000000000E+00  0.00000000000E+00  0.50878556000E+03  0.50878556001E+03  0.25500000920E-02 0.  1.
        2   -1    0    0  501    0  0.00000000000E+00  0.00000000000E+00 -0.11183268416E+04  0.11183268416E+04  0.25500000920E-02 0. -1.
    10030    2    1    2    0    0  0.00000000000E+00  0.00000000000E+00 -0.60954128160E+03  0.16271124016E+04  0.15086265918E+04 0.  0.
        3    1    3    3  502    0 -0.51153754856E+03  0.39484162149E+03 -0.72445666221E+03  0.97077702654E+03  0.10100000352E+00 0. -1.
       -3    1    3    3    0  502  0.51153754856E+03 -0.39484162149E+03  0.11491538061E+03  0.65633537506E+03  0.10100000352E+00 0.  1.
</event>
<event>
 5   0  0.4726600E-04  0.1500162E+04  0.7818609E-02  0.8884345E-01
        2   -1    0    0  501    0  0.00000000000E+00  0.00000000000E+00  0.20589567637E+04  0.20589567637E+04  0.25500000920E-02 0.  1.
       -2   -1    0    0    0  501  0.00000000000E+00  0.00000000000E+00 -0.27325566235E+03  0.27325566236E+03  0.25500000920E-02 0. -1.
    10030    2    1    2    0    0  0.00000000000E+00  0.00000000000E+00  0.17857011014E+04  0.23322124261E+04  0.15001621169E+04 0.  0.
        2    1    3    3  502    0  0.64013906893E+03  0.39094956159E+03  0.89505296406E+03  0.11677925311E+04  0.25500000920E-02 0.  1.
       -2    1    3    3    0  502 -0.64013906893E+03 -0.39094956159E+03  0.89064813730E+03  0.11644198950E+04  0.25500000920E-02 0. -1.
</event>
<event>
 5   0  0.4768387E-04  0.1499722E+04  0.7818609E-02  0.8884638E-01
       -2   -1    0    0    0  501  0.00000000000E+00  0.00000000000E+00  0.47149186696E+03  0.47149186697E+03  0.25500000920E-02 0.  1.
        2   -1    0    0  501    0  0.00000000000E+00  0.00000000000E+00 -0.11925790245E+04  0.11925790245E+04  0.25500000920E-02 0. -1.
    10030    2    1    2    0    0  0.00000000000E+00  0.00000000000E+00 -0.72108715751E+03  0.16640708914E+04  0.14997217219E+04 0.  0.
        3    1    3    3  502    0 -0.20208910593E+03  0.40477836668E+02  0.43944657704E+03  0.48537796229E+03  0.10100000352E+00 0.  1.
       -3    1    3    3    0  502  0.20208910593E+03 -0.40477836668E+02 -0.11605337346E+04  0.11786929292E+04  0.10100000352E+00 0. -1.
</event>
<event>
 5   0  0.4569211E-04  0.1506211E+04  0.7818609E-02  0.8880333E-01
        2   -1    0    0  501    0  0.00000000000E+00  0.00000000000E+00  0.90885471168E+03  0.90885471168E+03  0.25500000920E-02 0. -1.
       -2   -1    0    0    0  501  0.00000000000E+00  0.00000000000E+00 -0.62404693121E+03  0.62404693121E+03  0.25500000920E-02 0.  1.
    10030    2    1    2    0    0  0.00000000000E+00  0.00000000000E+00  0.28480778047E+03  0.15329016429E+04  0.15062111323E+04 0.  0.
        5    1    3    3  502    0  0.73614558684E+03  0.48961814040E+02  0.29620536812E+03  0.79502659978E+03  0.46999998093E+01 0.  1.
       -5    1    3    3    0  502 -0.73614558684E+03 -0.48961814040E+02 -0.11397587655E+02  0.73787504312E+03  0.46999998093E+01 0. -1.
</event>
<event>
 5   0  0.4785496E-04  0.1431595E+04  0.7818609E-02  0.8931261E-01
       -2   -1    0    0    0  501  0.00000000000E+00  0.00000000000E+00  0.26129946995E+03  0.26129946996E+03  0.25500000920E-02 0.  1.
        2   -1    0    0  501    0  0.00000000000E+00  0.00000000000E+00 -0.19608393834E+04  0.19608393834E+04  0.25500000920E-02 0. -1.
    10030    2    1    2    0    0  0.00000000000E+00  0.00000000000E+00 -0.16995399135E+04  0.22221388534E+04  0.14315953221E+04 0.  0.
        4    1    3    3  502    0  0.17135856780E+03  0.26304861546E+03  0.14873332254E+03  0.34739249702E+03  0.12699999809E+01 0.  1.
       -4    1    3    3    0  502 -0.17135856780E+03 -0.26304861546E+03 -0.18482732360E+04  0.18747463564E+04  0.12699999809E+01 0. -1.
</event>
<event>
 5   0  0.4785496E-04  0.1606787E+04  0.7818609E-02  0.8816389E-01
        2   -1    0    0  501    0  0.00000000000E+00  0.00000000000E+00  0.11668657689E+04  0.11668657689E+04  0.25500000920E-02 0. -1.
       -2   -1    0    0    0  501  0.00000000000E+00  0.00000000000E+00 -0.55314066277E+03  0.55314066277E+03  0.25500000920E-02 0.  1.
    10030    2    1    2    0    0  0.00000000000E+00  0.00000000000E+00  0.61372510613E+03  0.17200064317E+04  0.16067867373E+04 0.  0.
        4    1    3    3  502    0  0.23922919462E+03 -0.11732633070E+03 -0.50446343096E+03  0.57050945786E+03  0.12699999809E+01 0.  1.
       -4    1    3    3    0  502 -0.23922919462E+03  0.11732633070E+03  0.11181885371E+04  0.11494969738E+04  0.12699999809E+01 0. -1.
</event>
<event>
 5   0  0.2542737E-04  0.1517721E+04  0.7818609E-02  0.8872753E-01
        1   -1    0    0  501    0  0.00000000000E+00  0.00000000000E+00  0.10794044078E+04  0.10794044078E+04  0.50400001928E-02 0.  1.
       -1   -1    0    0    0  501  0.00000000000E+00  0.00000000000E+00 -0.53350646390E+03  0.53350646393E+03  0.50400001928E-02 0. -1.
    10030    2    1    2    0    0  0.00000000000E+00  0.00000000000E+00  0.54589794393E+03  0.16129108718E+04  0.15177209609E+04 0.  0.
        1    1    3    3  502    0  0.43117265683E+03 -0.12019399541E+03 -0.37827562215E+03  0.58604513722E+03  0.50400001928E-02 0. -1.
       -1    1    3    3    0  502 -0.43117265683E+03  0.12019399541E+03  0.92417356608E+03  0.10268657346E+04  0.50400001928E-02 0.  1.
</event>
<event>
 5   0  0.4726600E-04  0.1506918E+04  0.7818609E-02  0.8879866E-01
       -2   -1    0    0    0  501  0.00000000000E+00  0.00000000000E+00  0.18238689002E+03  0.18238689003E+03  0.25500000920E-02 0. -1.
        2   -1    0    0  501    0  0.00000000000E+00  0.00000000000E+00 -0.31126167100E+04  0.31126167100E+04  0.25500000920E-02 0.  1.
    10030    2    1    2    0    0  0.00000000000E+00  0.00000000000E+00 -0.29302298200E+04  0.32950036001E+04  0.15069180224E+04 0.  0.
        2    1    3    3  502    0  0.20902227901E+03 -0.49643093339E+03 -0.26171077732E+04  0.26719631511E+04  0.25500000920E-02 0.  1.
       -2    1    3    3    0  502 -0.20902227901E+03  0.49643093339E+03 -0.31312204685E+03  0.62304044891E+03  0.25500000920E-02 0. -1.
</event>
<event>
 5   0  0.2565416E-04  0.1447691E+04  0.7818609E-02  0.8920003E-01
        1   -1    0    0  501    0  0.00000000000E+00  0.00000000000E+00  0.11664904284E+04  0.11664904284E+04  0.50400001928E-02 0. -1.
       -1   -1    0    0    0  501  0.00000000000E+00  0.00000000000E+00 -0.44916995101E+03  0.44916995104E+03  0.50400001928E-02 0.  1.
    10030    2    1    2    0    0  0.00000000000E+00  0.00000000000E+00  0.71732047739E+03  0.16156603795E+04  0.14476911944E+04 0.  0.
        5    1    3    3  502    0 -0.36558169302E+03  0.27822607442E+03 -0.26558687726E+03  0.53067711665E+03  0.46999998093E+01 0.  1.
       -5    1    3    3    0  502  0.36558169302E+03 -0.27822607442E+03  0.98290735465E+03  0.10849832628E+04  0.46999998093E+01 0. -1.
</event>
<event>
 5   0  0.2544374E-04  0.1498961E+04  0.7818609E-02  0.8885144E-01
       -1   -1    0    0    0  501  0.00000000000E+00  0.00000000000E+00  0.64023683167E+03  0.64023683169E+03  0.50400001928E-02 0. -1.
        1   -1    0    0  501    0  0.00000000000E+00  0.00000000000E+00 -0.87736387852E+03  0.87736387853E+03  0.50400001928E-02 0.  1.
    10030    2    1    2    0    0  0.00000000000E+00  0.00000000000E+00 -0.23712704685E+03  0.15176007102E+04  0.14989605329E+04 0.  0.
        4    1    3    3  502    0  0.68304684322E+03 -0.23930563601E+03  0.78533700670E+02  0.72800366242E+03  0.12699999809E+01 0. -1.
       -4    1    3    3    0  502 -0.68304684322E+03  0.23930563601E+03 -0.31566074752E+03  0.78959704779E+03  0.12699999809E+01 0.  1.
</event>
<event>
 5   0  0.2565416E-04  0.1500830E+04  0.7818609E-02  0.8883901E-01
       -1   -1    0    0    0  501  0.00000000000E+00  0.00000000000E+00  0.48828925120E+03  0.48828925123E+03  0.50400001928E-02 0. -1.
        1   -1    0    0  501    0  0.00000000000E+00  0.00000000000E+00 -0.11532555997E+04  0.11532555997E+04  0.50400001928E-02 0.  1.
    10030    2    1    2    0    0  0.00000000000E+00  0.00000000000E+00 -0.66496634847E+03  0.16415448509E+04  0.15008295216E+04 0.  0.
        5    1    3    3  502    0  0.22064558436E+03  0.71617218291E+03 -0.28993676413E+03  0.80353748305E+03  0.46999998093E+01 0. -1.
       -5    1    3    3    0  502 -0.22064558436E+03 -0.71617218291E+03 -0.37502958434E+03  0.83800736787E+03  0.46999998093E+01 0.  1.
</event>
<event>
 5   0  0.4948645E-04  0.1484617E+04  0.7818609E-02  0.8894747E-01
        2   -1    0    0  501    0  0.00000000000E+00  0.00000000000E+00  0.15531081034E+04  0.15531081034E+04  0.25500000920E-02 0. -1.
       -2   -1    0    0    0  501  0.00000000000E+00  0.00000000000E+00 -0.35478662330E+03  0.35478662331E+03  0.25500000920E-02 0.  1.
    10030    2    1    2    0    0  0.00000000000E+00  0.00000000000E+00  0.11983214801E+04  0.19078947267E+04  0.14846170949E+04 0.  0.
        1    1    3    3  502    0  0.92885675796E+02  0.68169278912E+03  0.95735629925E+03  0.11789248879E+04  0.50400001928E-02 0. -1.
       -1    1    3    3    0  502 -0.92885675796E+02 -0.68169278912E+03  0.24096518081E+03  0.72896983881E+03  0.50400001928E-02 0.  1.
</event>
<event>
 5   0  0.4768387E-04  0.1489871E+04  0.7818609E-02  0.8891217E-01
        2   -1    0    0  501    0  0.00000000000E+00  0.00000000000E+00  0.86422404077E+03  0.86422404077E+03  0.25500000920E-02 0. -1.
       -2   -1    0    0    0  501  0.00000000000E+00  0.00000000000E+00 -0.64211201886E+03  0.64211201887E+03  0.25500000920E-02 0.  1.
    10030    2    1    2    0    0  0.00000000000E+00  0.00000000000E+00  0.22211202191E+03  0.15063360596E+04  0.14898706569E+04 0.  0.
        3    1    3    3  502    0 -0.14861267384E+03 -0.45464830222E+03  0.68845217332E+03  0.83830615570E+03  0.10100000352E+00 0. -1.
       -3    1    3    3    0  502  0.14861267384E+03  0.45464830222E+03 -0.46634015142E+03  0.66802990394E+03  0.10100000352E+00 0.  1.
</event>
<event>
 5   0  0.4569211E-04  0.1482845E+04  0.7818609E-02  0.8895941E-01
       -2   -1    0    0    0  501  0.00000000000E+00  0.00000000000E+00  0.83789297984E+03  0.83789297984E+03  0.25500000920E-02 0. -1.
        2   -1    0    0  501    0  0.00000000000E+00  0.00000000000E+00 -0.65605947797E+03  0.65605947798E+03  0.25500000920E-02 0.  1.
    10030    2    1    2    0    0  0.00000000000E+00  0.00000000000E+00  0.18183350186E+03  0.14939524578E+04  0.14828454147E+04 0.  0.
        5    1    3    3  502    0 -0.35009599246E+02 -0.68665177756E+03 -0.18859456815E+03  0.71295605531E+03  0.46999998093E+01 0.  1.
       -5    1    3    3    0  502  0.35009599246E+02  0.68665177756E+03  0.37042807002E+03  0.78099640250E+03  0.46999998093E+01 0. -1.
</event>
<event>
 5   0  0.2565416E-04  0.1500152E+04  0.7818609E-02  0.8884352E-01
       -1   -1    0    0    0  501  0.00000000000E+00  0.00000000000E+00  0.39938079746E+03  0.39938079750E+03  0.50400001928E-02 0. -1.
        1   -1    0    0  501    0  0.00000000000E+00  0.00000000000E+00 -0.14087159611E+04  0.14087159611E+04  0.50400001928E-02 0.  1.
    10030    2    1    2    0    0  0.00000000000E+00  0.00000000000E+00 -0.10093351637E+04  0.18080967586E+04  0.15001521310E+04 0.  0.
        5    1    3    3  502    0 -0.39602362340E+03  0.78379028984E+02 -0.12665829419E+04  0.13293729428E+04  0.46999998093E+01 0.  1.
       -5    1    3    3    0  502  0.39602362340E+03 -0.78379028984E+02  0.25724777818E+03  0.47872381584E+03  0.46999998093E+01 0. -1.
</event>
<event>
 5   0  0.4768387E-04  0.1498173E+04  0.7818609E-02  0.8885669E-01
        2   -1    0    0  501    0  0.00000000000E+00  0.00000000000E+00  0.13085874718E+04  0.13085874718E+04  0.25500000920E-02 0. -1.
       -2   -1    0    0    0  501  0.00000000000E+00  0.00000000000E+00 -0.42880618559E+03  0.42880618559E+03  0.25500000920E-02 0.  1.
    10030    2    1    2    0    0  0.00000000000E+00  0.00000000000E+00  0.87978128617E+03  0.17373936574E+04  0.14981727568E+04 0.  0.
        3    1    3    3  502    0 -0.53917423805E+03  0.48947142625E+03  0.64354245679E+03  0.97182202073E+03  0.10100000352E+00 0. -1.
       -3    1    3    3    0  502  0.53917423805E+03 -0.48947142625E+03  0.23623882938E+03  0.76557163662E+03  0.10100000352E+00 0.  1.
</event>
<event>
 5   0  0.4785496E-04  0.1496873E+04  0.7818609E-02  0.8886535E-01
       -2   -1    0    0    0  501  0.00000000000E+00  0.00000000000E+00  0.60625186398E+03  0.60625186399E+03  0.25500000920E-02 0. -1.
        2   -1    0    0  501    0  0.00000000000E+00  0.00000000000E+00 -0.92396718285E+03  0.92396718285E+03  0.25500000920E-02 0.  1.
    10030    2    1    2    0    0  0.00000000000E+00  0.00000000000E+00 -0.31771531886E+03  0.15302190468E+04  0.14968725088E+04 0.  0.
        4    1    3    3  502    0 -0.58033839523E+03  0.32271823921E+03 -0.51182551115E+03  0.83839530155E+03  0.12699999809E+01 0.  1.
       -4    1    3    3    0  502  0.58033839523E+03 -0.32271823921E+03  0.19411019229E+03  0.69182374529E+03  0.12699999809E+01 0. -1.
</event>
<event>
 5   0  0.4569211E-04  0.1523525E+04  0.7818609E-02  0.8868958E-01
       -2   -1    0    0    0  501  0.00000000000E+00  0.00000000000E+00  0.46640425737E+03  0.46640425737E+03  0.25500000920E-02 0.  1.
        2   -1    0    0  501    0  0.00000000000E+00  0.00000000000E+00 -0.12441615291E+04  0.12441615291E+04  0.25500000920E-02 0. -1.
    10030    2    1    2    0    0  0.00000000000E+00  0.00000000000E+00 -0.77775727169E+03  0.17105657864E+04  0.15235251675E+04 0.  0.
        5    1    3    3  502    0 -0.52871578006E+02 -0.13519466843E+03 -0.12284714961E+04  0.12370276104E+04  0.46999998093E+01 0. -1.
       -5    1    3    3    0  502  0.52871578006E+02  0.13519466843E+03  0.45071422439E+03  0.47353817607E+03  0.46999998093E+01 0.  1.
</event>
<event>
 5   0  0.2565416E-04  0.1516001E+04  0.7818609E-02  0.8873881E-01
        1   -1    0    0  501    0  0.00000000000E+00  0.00000000000E+00  0.68032229032E+03  0.68032229034E+03  0.50400001928E-02 0.  1.
       -1   -1    0    0    0  501  0.00000000000E+00  0.00000000000E+00 -0.84454819795E+03  0.84454819796E+03  0.50400001928E-02 0. -1.
    10030    2    1    2    0    0  0.00000000000E+00  0.00000000000E+00 -0.16422590763E+03  0.15248704883E+04  0.15160012722E+04 0.  0.
        5    1    3    3  502    0  0.56758592239E+03  0.31679895085E+03 -0.47430113227E+03  0.80467323096E+03  0.46999998093E+01 0. -1.
       -5    1    3    3    0  502 -0.56758592239E+03 -0.31679895085E+03  0.31007522465E+03  0.72019725735E+03  0.46999998093E+01 0.  1.
</event>
<event>
 5   0  0.4768387E-04  0.1490132E+04  0.7818609E-02  0.8891042E-01
        2   -1    0    0  501    0  0.00000000000E+00  0.00000000000E+00  0.15902068525E+04  0.15902068525E+04  0.25500000920E-02 0.  1.
       -2   -1    0    0    0  501  0.00000000000E+00  0.00000000000E+00 -0.34908854453E+03  0.34908854454E+03  0.25500000920E-02 0. -1.
    10030    2    1    2    0    0  0.00000000000E+00  0.00000000000E+00  0.12411183080E+04  0.19392953971E+04  0.14901315320E+04 0.  0.
        3    1    3    3  502    0 -0.36339023560E+03  0.48685134436E+03  0.11819041683E+04  0.13288996080E+04  0.10100000352E+00 0.  1.
       -3    1    3    3    0  502  0.36339023560E+03 -0.48685134436E+03  0.59214139727E+02  0.61039578912E+03  0.10100000352E+00 0. -1.
</event>
<event>
 5   0  0.4948645E-04  0.1512686E+04  0.7818609E-02  0.8876060E-01
        2   -1    0    0  501    0  0.00000000000E+00  0.00000000000E+00  0.57456273748E+03  0.57456273748E+03  0.25500000920E-02 0. -1.
       -2   -1    0    0    0  501  0.00000000000E+00  0.00000000000E+00 -0.99563485748E+03  0.99563485748E+03  0.25500000920E-02 0.  1.
    10030    2    1    2    0    0  0.00000000000E+00  0.00000000000E+00 -0.42107212000E+03  0.15701975950E+04  0.15126859413E+04 0.  0.
        1    1    3    3  502    0 -0.29584306858E+03 -0.67516256695E+03 -0.34723992754E+02  0.73795214529E+03  0.50400001928E-02 0.  1.
       -1    1    3    3    0  502  0.29584306858E+03  0.67516256695E+03 -0.38634812725E+03  0.83224544967E+03  0.50400001928E-02 0. -1.
</event>
<event>
 5   0  0.4785496E-04  0.1492808E+04  0.7818609E-02  0.8889250E-01
       -2   -1    0    0    0  501  0.00000000000E+00  0.00000000000E+00  0.32474217304E+03  0.32474217305E+03  0.25500000920E-02 0. -1.
        2   -1    0    0  501    0  0.00000000000E+00  0.00000000000E+00 -0.17155726457E+04  0.17155726457E+04  0.25500000920E-02 0.  1.
    10030    2    1    2    0    0  0.00000000000E+00  0.00000000000E+00 -0.13908304726E+04  0.20403148187E+04  0.14928078094E+04 0.  0.
        4    1    3    3  502    0  0.63597845600E+03 -0.13666376115E+03 -0.11956796967E+04  0.13611749080E+04  0.12699999809E+01 0.  1.
       -4    1    3    3    0  502 -0.63597845600E+03  0.13666376115E+03 -0.19515077590E+03  0.67913991073E+03  0.12699999809E+01 0. -1.
</event>
<event>
 5   0  0.4948645E-04  0.1566064E+04  0.7818609E-02  0.8841672E-01
        2   -1    0    0  501    0  0.00000000000E+00  0.00000000000E+00  0.18980602777E+04  0.18980602777E+04  0.25500000920E-02 0. -1.
       -2   -1    0    0    0  501  0.00000000000E+00  0.00000000000E+00 -0.32303449103E+03  0.32303449104E+03  0.25500000920E-02 0.  1.
    10030    2    1    2    0    0  0.00000000000E+00  0.00000000000E+00  0.15750257866E+04  0.22210947687E+04  0.15660637736E+04 0.  0.
        1    1    3    3  502    0 -0.20127488544E+02 -0.92256990338E+02 -0.31492994570E+03  0.32878159740E+03  0.50400001928E-02 0.  1.
       -1    1    3    3    0  502  0.20127488544E+02  0.92256990338E+02  0.18899557324E+04  0.18923131713E+04  0.50400001928E-02 0. -1.
</event>
<event>
 5   0  0.4768387E-04  0.1504580E+04  0.7818609E-02  0.8881413E-01
       -2   -1    0    0    0  501  0.00000000000E+00  0.00000000000E+00  0.33607169907E+03  0.33607169907E+03  0.25500000920E-02 0.  1.
        2   -1    0    0  501    0  0.00000000000E+00  0.00000000000E+00 -0.16839872073E+04  0.16839872073E+04  0.25500000920E-02 0. -1.
    10030    2    1    2    0    0  0.00000000000E+00  0.00000000000E+00 -0.13479155082E+04  0.20200589063E+04  0.15045802630E+04 0.  0.
        3    1    3    3  502    0  0.19249886119E+03  0.61624351457E+03 -0.15548125920E+03  0.66406800327E+03  0.10100000352E+00 0.  1.
       -3    1    3    3    0  502 -0.19249886119E+03 -0.61624351457E+03 -0.11924342490E+04  0.13559909031E+04  0.10100000352E+00 0. -1.
</event>
<event>
 5   0  0.4726600E-04  0.1511600E+04  0.7818609E-02  0.8876776E-01
       -2   -1    0    0    0  501  0.00000000000E+00  0.00000000000E+00  0.37596547459E+03  0.37596547460E+03  0.25500000920E-02 0.  1.
        2   -1    0    0  501    0  0.00000000000E+00  0.00000000000E+00 -0.15193778274E+04  0.15193778274E+04  0.25500000920E-02 0. -1.
    10030    2    1    2    0    0  0.00000000000E+00  0.00000000000E+00 -0.11434123528E+04  0.18953433020E+04  0.15115999550E+04 0.  0.
        2    1    3    3  502    0 -0.51341186852E+02 -0.19515957423E+03  0.34156127018E+03  0.39672065509E+03  0.25500000920E-02 0.  1.
       -2    1    3    3    0  502  0.51341186852E+02  0.19515957423E+03 -0.14849736230E+04  0.14986226469E+04  0.25500000920E-02 0. -1.
</event>
<event>
 5   0  0.4948645E-04  0.1493945E+04  0.7818609E-02  0.8888490E-01
        2   -1    0    0  501    0  0.00000000000E+00  0.00000000000E+00  0.13500705870E+04  0.13500705870E+04  0.25500000920E-02 0.  1.
       -2   -1    0    0    0  501  0.00000000000E+00  0.00000000000E+00 -0.41328784189E+03  0.41328784190E+03  0.25500000920E-02 0. -1.
    10030    2    1    2    0    0  0.00000000000E+00  0.00000000000E+00  0.93678274515E+03  0.17633584289E+04  0.14939447906E+04 0.  0.
        1    1    3    3  502    0 -0.62072129794E+03  0.41408042715E+03  0.50945335445E+03  0.90349335927E+03  0.50400001928E-02 0. -1.
       -1    1    3    3    0  502  0.62072129794E+03 -0.41408042715E+03  0.42732939070E+03  0.85986506967E+03  0.50400001928E-02 0.  1.
</event>
<event>
 5   0  0.4726600E-04  0.1515365E+04  0.7818609E-02  0.8874299E-01
        2   -1    0    0  501    0  0.00000000000E+00  0.00000000000E+00  0.99988113403E+03  0.99988113403E+03  0.25500000920E-02 0. -1.
       -2   -1    0    0    0  501  0.00000000000E+00  0.00000000000E+00 -0.57415138743E+03  0.57415138743E+03  0.25500000920E-02 0.  1.
    10030    2    1    2    0    0  0.00000000000E+00  0.00000000000E+00  0.42572974660E+03  0.15740325215E+04  0.15153654878E+04 0.  0.
        2    1    3    3  502    0 -0.51868621169E+03  0.37503073207E+03 -0.20829484352E+03  0.67310487893E+03  0.25500000920E-02 0.  1.
       -2    1    3    3    0  502  0.51868621169E+03 -0.37503073207E+03  0.63402459012E+03  0.90092764254E+03  0.25500000920E-02 0. -1.
</event>
<event>
 5   0  0.2542737E-04  0.1479030E+04  0.7818609E-02  0.8898519E-01
        1   -1    0    0  501    0  0.00000000000E+00  0.00000000000E+00  0.20726920613E+04  0.20726920613E+04  0.50400001928E-02 0. -1.
       -1   -1    0    0    0  501  0.00000000000E+00  0.00000000000E+00 -0.26385110218E+03  0.26385110223E+03  0.50400001928E-02 0.  1.
    10030    2    1    2    0    0  0.00000000000E+00  0.00000000000E+00  0.18088409591E+04  0.23365431635E+04  0.14790295263E+04 0.  0.
        1    1    3    3  502    0 -0.90155458667E+02  0.41807382952E+03  0.18574992040E+04  0.19060999518E+04  0.50400001928E-02 0. -1.
       -1    1    3    3    0  502  0.90155458667E+02 -0.41807382952E+03 -0.48658244864E+02  0.43044321168E+03  0.50400001928E-02 0.  1.
</event>
<event>
 5   0  0.2603873E-04  0.1494412E+04  0.7818609E-02  0.8888177E-01
        1   -1    0    0  501    0  0.00000000000E+00  0.00000000000E+00  0.26995893689E+03  0.26995893694E+03  0.50400001928E-02 0.  1.
       -1   -1    0    0    0  501  0.00000000000E+00  0.00000000000E+00 -0.20681553347E+04  0.20681553347E+04  0.50400001928E-02 0. -1.
    10030    2    1    2    0    0  0.00000000000E+00  0.00000000000E+00 -0.17981963978E+04  0.23381142717E+04  0.14944122799E+04 0.  0.
        2    1    3    3  502    0 -0.52882306638E+03 -0.48576272305E+03 -0.12223923409E+04  0.14176961218E+04  0.25500000920E-02 0. -1.
       -2    1    3    3    0  502  0.52882306638E+03  0.48576272305E+03 -0.57580405696E+03  0.92041814990E+03  0.25500000920E-02 0.  1.
</event>
<event>
 5   0  0.2544374E-04  0.1469281E+04  0.7818609E-02  0.8905142E-01
       -1   -1    0    0    0  501  0.00000000000E+00  0.00000000000E+00  0.81639113437E+03  0.81639113438E+03  0.50400001928E-02 0. -1.
        1   -1    0    0  501    0  0.00000000000E+00  0.00000000000E+00 -0.66107620723E+03  0.66107620725E+03  0.50400001928E-02 0.  1.
    10030    2    1    2    0    0  0.00000000000E+00  0.00000000000E+00  0.15531492714E+03  0.14774673416E+04  0.14692811232E+04 0.  0.
        4    1    3    3  502    0 -0.17590366484E+03 -0.41999996051E+03 -0.50205527287E+03  0.67779287105E+03  0.12699999809E+01 0. -1.
       -4    1    3    3    0  502  0.17590366484E+03  0.41999996051E+03  0.65737020001E+03  0.79967447058E+03  0.12699999809E+01 0.  1.
</event>
<event>
 5   0  0.2565416E-04  0.1503503E+04  0.7818609E-02  0.8882127E-01
        1   -1    0    0  501    0  0.00000000000E+00  0.00000000000E+00  0.44289795734E+03  0.44289795737E+03  0.50400001928E-02 0. -1.
       -1   -1    0    0    0  501  0.00000000000E+00  0.00000000000E+00 -0.12759833597E+04  0.12759833597E+04  0.50400001928E-02 0.  1.
    10030    2    1    2    0    0  0.00000000000E+00  0.00000000000E+00 -0.83308540238E+03  0.17188813171E+04  0.15035031409E+04 0.  0.
        5    1    3    3  502    0 -0.62041683500E+03 -0.29394540259E+03 -0.76666015745E+03  0.10291311072E+04  0.46999998093E+01 0.  1.
       -5    1    3    3    0  502  0.62041683500E+03  0.29394540259E+03 -0.66425244928E+02  0.68975020987E+03  0.46999998093E+01 0. -1.
</event>
<event>
 5   0  0.4768387E-04  0.1501157E+04  0.7818609E-02  0.8883684E-01
       -2   -1    0    0    0  501  0.00000000000E+00  0.00000000000E+00  0.10692360068E+04  0.10692360068E+04  0.25500000920E-02 0. -1.
        2   -1    0    0  501    0  0.00000000000E+00  0.00000000000E+00 -0.52688856124E+03  0.52688856125E+03  0.25500000920E-02 0.  1.
    10030    2    1    2    0    0  0.00000000000E+00  0.00000000000E+00  0.54234744554E+03  0.15961245680E+04  0.15011571820E+04 0.  0.
        3    1    3    3  502    0  0.49117128615E+03 -0.48244653349E+03  0.58902407284E+03  0.90606470994E+03  0.10100000352E+00 0. -1.
       -3    1    3    3    0  502 -0.49117128615E+03  0.48244653349E+03 -0.46676627297E+02  0.69005985809E+03  0.10100000352E+00 0.  1.
</event>
<event>
 5   0  0.1792000E-04  0.1507949E+04  0.7818609E-02  0.8879184E-01
        3   -1    0    0  501    0  0.00000000000E+00  0.00000000000E+00  0.34937327423E+03  0.34937328883E+03  0.10100000352E+00 0.  1.
       -3   -1    0    0    0  501  0.00000000000E+00  0.00000000000E+00 -0.16271359577E+04  0.16271359608E+04  0.10100000352E+00 0. -1.
    10030    2    1    2    0    0  0.00000000000E+00  0.00000000000E+00 -0.12777626834E+04  0.19765092496E+04  0.15079493820E+04 0.  0.
        3    1    3    3  502    0  0.47190241552E+03  0.14837705966E+03 -0.13846953096E+04  0.14704042819E+04  0.10100000352E+00 0. -1.
       -3    1    3    3    0  502 -0.47190241552E+03 -0.14837705966E+03  0.10693262618E+03  0.50610496772E+03  0.10100000352E+00 0.  1.
</event>
<event>
 5   0  0.4768387E-04  0.1500380E+04  0.7818609E-02  0.8884201E-01
        2   -1    0    0  501    0  0.00000000000E+00  0.00000000000E+00  0.12554604974E+04  0.12554604974E+04  0.25500000920E-02 0. -1.
       -2   -1    0    0    0  501  0.00000000000E+00  0.00000000000E+00 -0.44826952663E+03  0.44826952664E+03  0.25500000920E-02 0.  1.
    10030    2    1    2    0    0  0.00000000000E+00  0.00000000000E+00  0.80719097074E+03  0.17037300240E+04  0.15003795292E+04 0.  0.
        3    1    3    3  502    0 -0.63984647025E+03 -0.16988613468E+03  0.28958259580E+01  0.66202205421E+03  0.10100000352E+00 0. -1.
       -3    1    3    3    0  502  0.63984647025E+03  0.16988613468E+03  0.80429514478E+03  0.10417079698E+04  0.10100000352E+00 0.  1.
</event>
<event>
 5   0  0.2605471E-04  0.1498927E+04  0.7818609E-02  0.8885167E-01
        1   -1    0    0  501    0  0.00000000000E+00  0.00000000000E+00  0.70767318013E+03  0.70767318015E+03  0.50400001928E-02 0. -1.
       -1   -1    0    0    0  501  0.00000000000E+00  0.00000000000E+00 -0.79372124229E+03  0.79372124230E+03  0.50400001928E-02 0.  1.
    10030    2    1    2    0    0  0.00000000000E+00  0.00000000000E+00 -0.86048062154E+02  0.15013944225E+04  0.14989265969E+04 0.  0.
        3    1    3    3  502    0 -0.18200393531E+03  0.45385088391E+03 -0.61192847046E+03  0.78330231741E+03  0.10100000352E+00 0. -1.
       -3    1    3    3    0  502  0.18200393531E+03 -0.45385088391E+03  0.52588040831E+03  0.71809210505E+03  0.10100000352E+00 0.  1.
</event>
<event>
 5   0  0.2544374E-04  0.1518377E+04  0.7818609E-02  0.8872323E-01
        1   -1    0    0  501    0  0.00000000000E+00  0.00000000000E+00  0.50655000978E+03  0.50655000980E+03  0.50400001928E-02 0. -1.
       -1   -1    0    0    0  501  0.00000000000E+00  0.00000000000E+00 -0.11378293429E+04  0.11378293429E+04  0.50400001928E-02 0.  1.
    10030    2    1    2    0    0  0.00000000000E+00  0.00000000000E+00 -0.63127933309E+03  0.16443793527E+04  0.15183773770E+04 0.  0.
        4    1    3    3  502    0  0.43749567437E+03 -0.46462037274E+03 -0.76097065540E+03  0.99315281158E+03  0.12699999809E+01 0.  1.
       -4    1    3    3    0  502 -0.43749567437E+03  0.46462037274E+03  0.12969132231E+03  0.65122654111E+03  0.12699999809E+01 0. -1.
</event>
<event>
 5   0  0.2565416E-04  0.1510845E+04  0.7818609E-02  0.8877273E-01
        1   -1    0    0  501    0  0.00000000000E+00  0.00000000000E+00  0.53492718844E+03  0.53492718847E+03  0.50400001928E-02 0.  1.
       -1   -1    0    0    0  501  0.00000000000E+00  0.00000000000E+00 -0.10668052982E+04  0.10668052982E+04  0.50400001928E-02 0. -1.
    10030    2    1    2    0    0  0.00000000000E+00  0.00000000000E+00 -0.53187810972E+03  0.16017324866E+04  0.15108450070E+04 0.  0.
        5    1    3    3  502    0 -0.74647258347E+03  0.87114419663E+02 -0.34689247758E+03  0.82774798157E+03  0.46999998093E+01 0.  1.
       -5    1    3    3    0  502  0.74647258347E+03 -0.87114419663E+02 -0.18498563214E+03  0.77398450507E+03  0.46999998093E+01 0. -1.
</event>
<event>
 5   0  0.4785496E-04  0.1499552E+04  0.7818609E-02  0.8884751E-01
       -2   -1    0    0    0  501  0.00000000000E+00  0.00000000000E+00  0.43838214772E+03  0.43838214773E+03  0.25500000920E-02 0. -1.
        2   -1    0    0  501    0  0.00000000000E+00  0.00000000000E+00 -0.12823607164E+04  0.12823607164E+04  0.25500000920E-02 0.  1.
    10030    2    1    2    0    0  0.00000000000E+00  0.00000000000E+00 -0.84397856867E+03  0.17207428641E+04  0.14995519931E+04 0.  0.
        4    1    3    3  502    0  0.24026807898E+03 -0.27917648766E+03 -0.11713846427E+04  0.12279299064E+04  0.12699999809E+01 0.  1.
       -4    1    3    3    0  502 -0.24026807898E+03  0.27917648766E+03  0.32740607404E+03  0.49281295768E+03  0.12699999809E+01 0. -1.
</event>
<event>
 5   0  0.4785496E-04  0.1501804E+04  0.7818609E-02  0.8883254E-01
        2   -1    0    0  501    0  0.00000000000E+00  0.00000000000E+00  0.42674639540E+03  0.42674639541E+03  0.25500000920E-02 0. -1.
       -2   -1    0    0    0  501  0.00000000000E+00  0.00000000000E+00 -0.13212858428E+04  0.13212858428E+04  0.25500000920E-02 0.  1.
    10030    2    1    2    0    0  0.00000000000E+00  0.00000000000E+00 -0.89453944737E+03  0.17480322382E+04  0.15018042092E+04 0.  0.
        4    1    3    3  502    0  0.59328721499E+03 -0.45232222200E+03 -0.54649470962E+03  0.92479359455E+03  0.12699999809E+01 0. -1.
       -4    1    3    3    0  502 -0.59328721499E+03  0.45232222200E+03 -0.34804473775E+03  0.82323864363E+03  0.12699999809E+01 0.  1.
</event>
<event>
 5   0  0.4768387E-04  0.1446531E+04  0.7818609E-02  0.8920809E-01
        2   -1    0    0  501    0  0.00000000000E+00  0.00000000000E+00  0.20840662224E+04  0.20840662224E+04  0.25500000920E-02 0.  1.
       -2   -1    0    0    0  501  0.00000000000E+00  0.00000000000E+00 -0.25100577662E+03  0.25100577663E+03  0.25500000920E-02 0. -1.
    10030    2    1    2    0    0  0.00000000000E+00  0.00000000000E+00  0.18330604458E+04  0.23350719990E+04  0.14465305537E+04 0.  0.
        3    1    3    3  502    0 -0.33804895220E+03  0.39395889390E+03  0.17295004518E+04  0.18057277002E+04  0.10100000352E+00 0.  1.
       -3    1    3    3    0  502  0.33804895220E+03 -0.39395889390E+03  0.10355999395E+03  0.52934429884E+03  0.10100000352E+00 0. -1.
</event>
<event>
 5   0  0.2542737E-04  0.1486327E+04  0.7818609E-02  0.8893597E-01
       -1   -1    0    0    0  501  0.00000000000E+00  0.00000000000E+00  0.80477228108E+03  0.80477228110E+03  0.50400001928E-02 0.  1.
        1   -1    0    0  501    0  0.00000000000E+00  0.00000000000E+00 -0.68627097009E+03  0.68627097011E+03  0.50400001928E-02 0. -1.
    10030    2    1    2    0    0  0.00000000000E+00  0.00000000000E+00  0.11850131099E+03  0.14910432512E+04  0.14863268201E+04 0.  0.
        1    1    3    3  502    0 -0.17368353273E+03 -0.16423393494E+03  0.76515471208E+03  0.80162365757E+03  0.50400001928E-02 0.  1.
       -1    1    3    3    0  502  0.17368353273E+03  0.16423393494E+03 -0.64665340109E+03  0.68941959364E+03  0.50400001928E-02 0. -1.
</event>
<event>
 5   0  0.4785496E-04  0.1502115E+04  0.7818609E-02  0.8883048E-01
        2   -1    0    0  501    0  0.00000000000E+00  0.00000000000E+00  0.67524910379E+03  0.67524910380E+03  0.25500000920E-02 0. -1.
       -2   -1    0    0    0  501  0.00000000000E+00  0.00000000000E+00 -0.83537633510E+03  0.83537633510E+03  0.25500000920E-02 0.  1.
    10030    2    1    2    0    0  0.00000000000E+00  0.00000000000E+00 -0.16012723131E+03  0.15106254389E+04  0.15021146715E+04 0.  0.
        4    1    3    3  502    0 -0.26406192135E+03  0.36429406653E+02  0.62607546971E+03  0.68046153944E+03  0.12699999809E+01 0. -1.
       -4    1    3    3    0  502  0.26406192135E+03 -0.36429406653E+02 -0.78620270102E+03  0.83016389946E+03  0.12699999809E+01 0.  1.
</event>
<event>
 5   0  0.2544374E-04  0.1497153E+04  0.7818609E-02  0.8886349E-01
        1   -1    0    0  501    0  0.00000000000E+00  0.00000000000E+00  0.11986274942E+04  0.11986274942E+04  0.50400001928E-02 0.  1.
       -1   -1    0    0    0  501  0.00000000000E+00  0.00000000000E+00 -0.46750677770E+03  0.46750677773E+03  0.50400001928E-02 0. -1.
    10030    2    1    2    0    0  0.00000000000E+00  0.00000000000E+00  0.73112071652E+03  0.16661342720E+04  0.14971526008E+04 0.  0.
        4    1    3    3  502    0 -0.38320634870E+03 -0.47861365444E+03 -0.11238627564E+03  0.62333812955E+03  0.12699999809E+01 0. -1.
       -4    1    3    3    0  502  0.38320634870E+03  0.47861365444E+03  0.84350699217E+03  0.10427961424E+04  0.12699999809E+01 0.  1.
</event>
<event>
 5   0  0.4948645E-04  0.1484422E+04  0.7818609E-02  0.8894878E-01
       -2   -1    0    0    0  501  0.00000000000E+00  0.00000000000E+00  0.80307204725E+03  0.80307204726E+03  0.25500000920E-02 0. -1.
        2   -1    0    0  501    0  0.00000000000E+00  0.00000000000E+00 -0.68596274469E+03  0.68596274470E+03  0.25500000920E-02 0.  1.
    10030    2    1    2    0    0  0.00000000000E+00  0.00000000000E+00  0.11710930256E+03  0.14890347920E+04  0.14844224543E+04 0.  0.
        1    1    3    3  502    0  0.50319512469E+03 -0.16084675212E+03 -0.46441014074E+03  0.70338736840E+03  0.50400001928E-02 0.  1.
       -1    1    3    3    0  502 -0.50319512469E+03  0.16084675212E+03  0.58151944330E+03  0.78564742355E+03  0.50400001928E-02 0. -1.
</event>
<event>
 5   0  0.4569211E-04  0.1499510E+04  0.7818609E-02  0.8884779E-01
       -2   -1    0    0    0  501  0.00000000000E+00  0.00000000000E+00  0.22350910419E+03  0.22350910421E+03  0.25500000920E-02 0. -1.
        2   -1    0    0  501    0  0.00000000000E+00  0.00000000000E+00 -0.25150327355E+04  0.25150327355E+04  0.25500000920E-02 0.  1.
    10030    2    1    2    0    0  0.00000000000E+00  0.00000000000E+00 -0.22915236313E+04  0.27385418397E+04  0.14995102050E+04 0.  0.
        5    1    3    3  502    0  0.16929026558E+03  0.27546167970E+03 -0.23811396768E+04  0.24029953353E+04  0.46999998093E+01 0.  1.
       -5    1    3    3    0  502 -0.16929026558E+03 -0.27546167970E+03  0.89616045514E+02  0.33554650440E+03  0.46999998093E+01 0. -1.
</event>
<event>
 5   0  0.2544374E-04  0.1504946E+04  0.7818609E-02  0.8881170E-01
        1   -1    0    0  501    0  0.00000000000E+00  0.00000000000E+00  0.99911115416E+03  0.99911115417E+03  0.50400001928E-02 0. -1.
       -1   -1    0    0    0  501  0.00000000000E+00  0.00000000000E+00 -0.56671970555E+03  0.56671970558E+03  0.50400001928E-02 0.  1.
    10030    2    1    2    0    0  0.00000000000E+00  0.00000000000E+00  0.43239144861E+03  0.15658308597E+04  0.15049464829E+04 0.  0.
        4    1    3    3  502    0  0.52983014639E+03 -0.56042648178E+02 -0.33667100970E+03  0.63024578072E+03  0.12699999809E+01 0.  1.
       -4    1    3    3    0  502 -0.52983014639E+03  0.56042648178E+02  0.76906245830E+03  0.93558507903E+03  0.12699999809E+01 0. -1.
</event>
<event>
 5   0  0.2542737E-04  0.1503714E+04  0.7818609E-02  0.8881987E-01
        1   -1    0    0  501    0  0.00000000000E+00  0.00000000000E+00  0.11307350395E+04  0.11307350395E+04  0.50400001928E-02 0.  1.
       -1   -1    0    0    0  501  0.00000000000E+00  0.00000000000E+00 -0.49993078246E+03  0.49993078249E+03  0.50400001928E-02 0. -1.
    10030    2    1    2    0    0  0.00000000000E+00  0.00000000000E+00  0.63080425705E+03  0.16306658220E+04  0.15037144052E+04 0.  0.
        1    1    3    3  502    0 -0.67138336061E+03 -0.15279452998E+03 -0.12064603984E+02  0.68865618416E+03  0.50400001928E-02 0. -1.
       -1    1    3    3    0  502  0.67138336061E+03  0.15279452998E+03  0.64286886104E+03  0.94200963785E+03  0.50400001928E-02 0.  1.
</event>
<event>
 5   0  0.2544374E-04  0.1499378E+04  0.7818609E-02  0.8884867E-01
       -1   -1    0    0    0  501  0.00000000000E+00  0.00000000000E+00  0.42827156658E+03  0.42827156661E+03  0.50400001928E-02 0.  1.
        1   -1    0    0  501    0  0.00000000000E+00  0.00000000000E+00 -0.13123296624E+04  0.13123296624E+04  0.50400001928E-02 0. -1.
    10030    2    1    2    0    0  0.00000000000E+00  0.00000000000E+00 -0.88405809584E+03  0.17406012290E+04  0.14993778449E+04 0.  0.
        4    1    3    3  502    0 -0.46290882789E+03  0.52055068321E+03 -0.12036979672E+03  0.70692863685E+03  0.12699999809E+01 0.  1.
       -4    1    3    3    0  502  0.46290882789E+03 -0.52055068321E+03 -0.76368829912E+03  0.10336725922E+04  0.12699999809E+01 0. -1.
</event>
<event>
 5   0  0.4785496E-04  0.1497813E+04  0.7818609E-02  0.8885909E-01
       -2   -1    0    0    0  501  0.00000000000E+00  0.00000000000E+00  0.49685450974E+03  0.49685450975E+03  0.25500000920E-02 0. -1.
        2   -1    0    0  501    0  0.00000000000E+00  0.00000000000E+00 -0.11288233409E+04  0.11288233409E+04  0.25500000920E-02 0.  1.
    10030    2    1    2    0    0  0.00000000000E+00  0.00000000000E+00 -0.63196883114E+03  0.16256778506E+04  0.14978130292E+04 0.  0.
        4    1    3    3  502    0  0.63535308444E+03  0.19516975722E+03 -0.69054569577E+03  0.95844652792E+03  0.12699999809E+01 0. -1.
       -4    1    3    3    0  502 -0.63535308444E+03 -0.19516975722E+03  0.58576864627E+02  0.66723132272E+03  0.12699999809E+01 0.  1.
</event>
<event>
 5   0  0.2542737E-04  0.1492540E+04  0.7818609E-02  0.8889429E-01
        1   -1    0    0  501    0  0.00000000000E+00  0.00000000000E+00  0.10074207415E+04  0.10074207415E+04  0.50400001928E-02 0. -1.
       -1   -1    0    0    0  501  0.00000000000E+00  0.00000000000E+00 -0.55281680317E+03  0.55281680319E+03  0.50400001928E-02 0.  1.
    10030    2    1    2    0    0  0.00000000000E+00  0.00000000000E+00  0.45460393831E+03  0.15602375447E+04  0.14925402692E+04 0.  0.
        1    1    3    3  502    0  0.68940829221E+03  0.28450080362E+03  0.19975104569E+03  0.77209130348E+03  0.50400001928E-02 0. -1.
       -1    1    3    3    0  502 -0.68940829221E+03 -0.28450080362E+03  0.25485289263E+03  0.78814624121E+03  0.50400001928E-02 0.  1.
</event>
<event>
 5   0  0.4948645E-04  0.1388156E+04  0.7818609E-02  0.8962437E-01
        2   -1    0    0  501    0  0.00000000000E+00  0.00000000000E+00  0.18781735864E+04  0.18781735864E+04  0.25500000920E-02 0. -1.
       -2   -1    0    0    0  501  0.00000000000E+00  0.00000000000E+00 -0.25649620874E+03  0.25649620875E+03  0.25500000920E-02 0.  1.
    10030    2    1    2    0    0  0.00000000000E+00  0.00000000000E+00  0.16216773776E+04  0.21346697951E+04  0.13881561933E+04 0.  0.
        1    1    3    3  502    0  0.42012973986E+03 -0.20016126882E+03  0.18966156852E+02  0.46576093329E+03  0.50400001928E-02 0.  1.
       -1    1    3    3    0  502 -0.42012973986E+03  0.20016126882E+03  0.16027112208E+04  0.16689088618E+04  0.50400001928E-02 0. -1.
</event>
<event>
 5   0  0.1792000E-04  0.1482080E+04  0.7818609E-02  0.8896458E-01
       -3   -1    0    0    0  501  0.00000000000E+00  0.00000000000E+00  0.68593175755E+03  0.68593176499E+03  0.10100000352E+00 0.  1.
        3   -1    0    0  501    0  0.00000000000E+00  0.00000000000E+00 -0.80057527221E+03  0.80057527858E+03  0.10100000352E+00 0. -1.
    10030    2    1    2    0    0  0.00000000000E+00  0.00000000000E+00 -0.11464351466E+03  0.14865070436E+04  0.14820796386E+04 0.  0.
        4    1    3    3  502    0  0.32757590368E+03 -0.39849595980E+03  0.47627634137E+03  0.70210096774E+03  0.12699999809E+01 0.  1.
       -4    1    3    3    0  502 -0.32757590368E+03  0.39849595980E+03 -0.59091985604E+03  0.78440607583E+03  0.12699999809E+01 0. -1.
</event>
<event>
 5   0  0.2565416E-04  0.1514193E+04  0.7818609E-02  0.8875069E-01
        1   -1    0    0  501    0  0.00000000000E+00  0.00000000000E+00  0.13561549376E+04  0.13561549376E+04  0.50400001928E-02 0. -1.
       -1   -1    0    0    0  501  0.00000000000E+00  0.00000000000E+00 -0.42266212113E+03  0.42266212116E+03  0.50400001928E-02 0.  1.
    10030    2    1    2    0    0  0.00000000000E+00  0.00000000000E+00  0.93349281643E+03  0.17788170587E+04  0.15141932803E+04 0.  0.
        5    1    3    3  502    0 -0.21678970947E+03 -0.19751550885E+03  0.12866960001E+04  0.13197040733E+04  0.46999998093E+01 0. -1.
       -5    1    3    3    0  502  0.21678970947E+03  0.19751550885E+03 -0.35320318372E+03  0.45911298539E+03  0.46999998093E+01 0.  1.
</event>
<event>
 5   0  0.4768387E-04  0.1499958E+04  0.7818609E-02  0.8884481E-01
       -2   -1    0    0    0  501  0.00000000000E+00  0.00000000000E+00  0.95146456464E+03  0.95146456464E+03  0.25500000920E-02 0. -1.
        2   -1    0    0  501    0  0.00000000000E+00  0.00000000000E+00 -0.59116059070E+03  0.59116059070E+03  0.25500000920E-02 0.  1.
    10030    2    1    2    0    0  0.00000000000E+00  0.00000000000E+00  0.36030397394E+03  0.15426251553E+04  0.14999578048E+04 0.  0.
        3    1    3    3  502    0  0.39467582558E+03 -0.31485174824E+03  0.75051550452E+03  0.90452980238E+03  0.10100000352E+00 0. -1.
       -3    1    3    3    0  502 -0.39467582558E+03  0.31485174824E+03 -0.39021153059E+03  0.63809535296E+03  0.10100000352E+00 0.  1.
</event>
<event>
 5   0  0.2542737E-04  0.1561444E+04  0.7818609E-02  0.8844591E-01
       -1   -1    0    0    0  501  0.00000000000E+00  0.00000000000E+00  0.10084614654E+04  0.10084614654E+04  0.50400001928E-02 0.  1.
        1   -1    0    0  501    0  0.00000000000E+00  0.00000000000E+00 -0.60441258356E+03  0.60441258358E+03  0.50400001928E-02 0. -1.
    10030    2    1    2    0    0  0.00000000000E+00  0.00000000000E+00  0.40404888186E+03  0.16128740490E+04  0.15614439468E+04 0.  0.
        1    1    3    3  502    0  0.14495338434E+03 -0.69901970428E+03  0.52848298451E+03  0.88821973381E+03  0.50400001928E-02 0.  1.
       -1    1    3    3    0  502 -0.14495338434E+03  0.69901970428E+03 -0.12443410265E+03  0.72465431519E+03  0.50400001928E-02 0. -1.
</event>
<event>
 5   0  0.2565416E-04  0.1501496E+04  0.7818609E-02  0.8883459E-01
        1   -1    0    0  501    0  0.00000000000E+00  0.00000000000E+00  0.59582782757E+03  0.59582782760E+03  0.50400001928E-02 0.  1.
       -1   -1    0    0    0  501  0.00000000000E+00  0.00000000000E+00 -0.94594907219E+03  0.94594907220E+03  0.50400001928E-02 0. -1.
    10030    2    1    2    0    0  0.00000000000E+00  0.00000000000E+00 -0.35012124461E+03  0.15417768998E+04  0.15014962946E+04 0.  0.
        5    1    3    3  502    0  0.60467257148E+03  0.27022362396E+03  0.18790632343E+03  0.68846249138E+03  0.46999998093E+01 0.  1.
       -5    1    3    3    0  502 -0.60467257148E+03 -0.27022362396E+03 -0.53802756804E+03  0.85331440842E+03  0.46999998093E+01 0. -1.
</event>
<event>
 5   0  0.1792000E-04  0.1493289E+04  0.7818609E-02  0.8888928E-01
       -3   -1    0    0    0  501  0.00000000000E+00  0.00000000000E+00  0.43807345368E+03  0.43807346532E+03  0.10100000352E+00 0. -1.
        3   -1    0    0  501    0  0.00000000000E+00  0.00000000000E+00 -0.12725681755E+04  0.12725681795E+04  0.10100000352E+00 0.  1.
    10030    2    1    2    0    0  0.00000000000E+00  0.00000000000E+00 -0.83449472179E+03  0.17106416448E+04  0.14932894549E+04 0.  0.
        5    1    3    3  502    0 -0.54882427701E+03 -0.10749883886E+03 -0.98391065242E+03  0.11317536611E+04  0.46999998093E+01 0.  1.
       -5    1    3    3    0  502  0.54882427701E+03  0.10749883886E+03  0.14941593063E+03  0.57888798374E+03  0.46999998093E+01 0. -1.
</event>
<event>
 5   0  0.4569211E-04  0.1501282E+04  0.7818609E-02  0.8883601E-01
        2   -1    0    0  501    0  0.00000000000E+00  0.00000000000E+00  0.71266081375E+03  0.71266081376E+03  0.25500000920E-02 0. -1.
       -2   -1    0    0    0  501  0.00000000000E+00  0.00000000000E+00 -0.79064556077E+03  0.79064556077E+03  0.25500000920E-02 0.  1.
    10030    2    1    2    0    0  0.00000000000E+00  0.00000000000E+00 -0.77984747018E+02  0.15033063745E+04  0.15012822636E+04 0.  0.
        5    1    3    3  502    0 -0.64869265164E+03  0.21762311412E+03 -0.34807995653E+03  0.76768725549E+03  0.46999998093E+01 0.  1.
       -5    1    3    3    0  502  0.64869265164E+03 -0.21762311412E+03  0.27009520951E+03  0.73561911904E+03  0.46999998093E+01 0. -1.
</event>
<event>
 5   0  0.2542737E-04  0.1511977E+04  0.7818609E-02  0.8876527E-01
        1   -1    0    0  501    0  0.00000000000E+00  0.00000000000E+00  0.62199379230E+03  0.62199379232E+03  0.50400001928E-02 0.  1.
       -1   -1    0    0    0  501  0.00000000000E+00  0.00000000000E+00 -0.91884991788E+03  0.91884991790E+03  0.50400001928E-02 0. -1.
    10030    2    1    2    0    0  0.00000000000E+00  0.00000000000E+00 -0.29685612558E+03  0.15408437102E+04  0.15119774403E+04 0.  0.
        1    1    3    3  502    0 -0.46635101653E+03 -0.14038628856E+03 -0.73767758756E+03  0.88394558874E+03  0.50400001928E-02 0. -1.
       -1    1    3    3    0  502  0.46635101653E+03  0.14038628856E+03  0.44082146198E+03  0.65689812148E+03  0.50400001928E-02 0.  1.
</event>
<event>
 5   0  0.2565416E-04  0.1504035E+04  0.7818609E-02  0.8881774E-01
       -1   -1    0    0    0  501  0.00000000000E+00  0.00000000000E+00  0.10367787346E+04  0.10367787346E+04  0.50400001928E-02 0. -1.
        1   -1    0    0  501    0  0.00000000000E+00  0.00000000000E+00 -0.54546879979E+03  0.54546879981E+03  0.50400001928E-02 0.  1.
    10030    2    1    2    0    0  0.00000000000E+00  0.00000000000E+00  0.49130993480E+03  0.15822475344E+04  0.15040351752E+04 0.  0.
        5    1    3    3  502    0  0.10059714125E+03  0.74514816375E+03  0.23308404167E+03  0.78722031938E+03  0.46999998093E+01 0. -1.
       -5    1    3    3    0  502 -0.10059714125E+03 -0.74514816375E+03  0.25822589313E+03  0.79502721504E+03  0.46999998093E+01 0.  1.
</event>
<event>
 5   0  0.2605471E-04  0.1492459E+04  0.7818609E-02  0.8889483E-01
       -1   -1    0    0    0  501  0.00000000000E+00  0.00000000000E+00  0.11792578655E+04  0.11792578655E+04  0.50400001928E-02 0.  1.
        1   -1    0    0  501    0  0.00000000000E+00  0.00000000000E+00 -0.47221069248E+03  0.47221069251E+03  0.50400001928E-02 0. -1.
    10030    2    1    2    0    0  0.00000000000E+00  0.00000000000E+00  0.70704717301E+03  0.16514685580E+04  0.14924586069E+04 0.  0.
        3    1    3    3  502    0  0.25266812032E+03 -0.30692837057E+03 -0.34527513449E+03  0.52655591573E+03  0.10100000352E+00 0. -1.
       -3    1    3    3    0  502 -0.25266812032E+03  0.30692837057E+03  0.10523223075E+04  0.11249126423E+04  0.10100000352E+00 0.  1.
</event>
<event>
 5   0  0.4785496E-04  0.1503197E+04  0.7818609E-02  0.8882330E-01
        2   -1    0    0  501    0  0.00000000000E+00  0.00000000000E+00  0.87746116890E+03  0.87746116890E+03  0.25500000920E-02 0.  1.
       -2   -1    0    0    0  501  0.00000000000E+00  0.00000000000E+00 -0.64378935557E+03  0.64378935558E+03  0.25500000920E-02 0. -1.
    10030    2    1    2    0    0  0.00000000000E+00  0.00000000000E+00  0.23367181333E+03  0.15212505245E+04  0.15031968074E+04 0.  0.
        4    1    3    3  502    0  0.70492039236E+02 -0.12560997023E+03 -0.62968991414E+03  0.64595510145E+03  0.12699999809E+01 0.  1.
       -4    1    3    3    0  502 -0.70492039236E+02  0.12560997023E+03  0.86336172747E+03  0.87529542303E+03  0.12699999809E+01 0. -1.
</event>
<event>
 5   0  0.2603873E-04  0.1504388E+04  0.7818609E-02  0.8881540E-01
        1   -1    0    0  501    0  0.00000000000E+00  0.00000000000E+00  0.48611509159E+03  0.48611509162E+03  0.50400001928E-02 0.  1.
       -1   -1    0    0    0  501  0.00000000000E+00  0.00000000000E+00 -0.11639131300E+04  0.11639131301E+04  0.50400001928E-02 0. -1.
    10030    2    1    2    0    0  0.00000000000E+00  0.00000000000E+00 -0.67779803845E+03  0.16500282217E+04  0.15043878992E+04 0.  0.
        2    1    3    3  502    0  0.51334030843E+02  0.30127640672E+03  0.41494814469E+03  0.51534902615E+03  0.25500000920E-02 0.  1.
       -2    1    3    3    0  502 -0.51334030843E+02 -0.30127640672E+03 -0.10927461831E+04  0.11346791955E+04  0.25500000920E-02 0. -1.
</event>
<event>
 5   0  0.1792000E-04  0.1513609E+04  0.7818609E-02  0.8875453E-01
       -3   -1    0    0    0  501  0.00000000000E+00  0.00000000000E+00  0.53348369433E+03  0.53348370389E+03  0.10100000352E+00 0.  1.
        3   -1    0    0  501    0  0.00000000000E+00  0.00000000000E+00 -0.10736089804E+04  0.10736089851E+04  0.10100000352E+00 0. -1.
    10030    2    1    2    0    0  0.00000000000E+00  0.00000000000E+00 -0.54012528606E+03  0.16070926890E+04  0.15136087957E+04 0.  0.
        2    1    3    3  502    0  0.36908726082E+03 -0.19925081734E+03 -0.93891101127E+03  0.10283385539E+04  0.25500000920E-02 0. -1.
       -2    1    3    3    0  502 -0.36908726082E+03  0.19925081734E+03  0.39878572522E+03  0.57875413515E+03  0.25500000920E-02 0.  1.
</event>
<event>
 5   0  0.4948645E-04  0.1503245E+04  0.7818609E-02  0.8882298E-01
       -2   -1    0    0    0  501  0.00000000000E+00  0.00000000000E+00  0.49914322601E+03  0.49914322602E+03  0.25500000920E-02 0. -1.
        2   -1    0    0  501    0  0.00000000000E+00  0.00000000000E+00 -0.11318128237E+04  0.11318128237E+04  0.25500000920E-02 0.  1.
    10030    2    1    2    0    0  0.00000000000E+00  0.00000000000E+00 -0.63266959766E+03  0.16309560497E+04  0.15032454278E+04 0.  0.
        1    1    3    3  502    0 -0.41022225185E+03  0.61938193752E+03 -0.19253357921E+03  0.76745388108E+03  0.50400001928E-02 0. -1.
       -1    1    3    3    0  502  0.41022225185E+03 -0.61938193752E+03 -0.44013601845E+03  0.86350216861E+03  0.50400001928E-02 0.  1.
</event>
<event>
 5   0  0.4785496E-04  0.1504649E+04  0.7818609E-02  0.8881367E-01
       -2   -1    0    0    0  501  0.00000000000E+00  0.00000000000E+00  0.74961295422E+03  0.74961295422E+03  0.25500000920E-02 0.  1.
        2   -1    0    0  501    0  0.00000000000E+00  0.00000000000E+00 -0.75504635104E+03  0.75504635105E+03  0.25500000920E-02 0. -1.
    10030    2    1    2    0    0  0.00000000000E+00  0.00000000000E+00 -0.54333968246E+01  0.15046593053E+04  0.15046494951E+04 0.  0.
        4    1    3    3  502    0  0.20779436646E+03  0.17308273568E+03  0.69932404649E+03  0.74979454988E+03  0.12699999809E+01 0.  1.
       -4    1    3    3    0  502 -0.20779436646E+03 -0.17308273568E+03 -0.70475744332E+03  0.75486475539E+03  0.12699999809E+01 0. -1.
</event>
<event>
 5   0  0.4785496E-04  0.1554918E+04  0.7818609E-02  0.8848733E-01
       -2   -1    0    0    0  501  0.00000000000E+00  0.00000000000E+00  0.61231769512E+03  0.61231769513E+03  0.25500000920E-02 0.  1.
        2   -1    0    0  501    0  0.00000000000E+00  0.00000000000E+00 -0.98713824657E+03  0.98713824657E+03  0.25500000920E-02 0. -1.
    10030    2    1    2    0    0  0.00000000000E+00  0.00000000000E+00 -0.37482055145E+03  0.15994559417E+04  0.15549176389E+04 0.  0.
        4    1    3    3  502    0 -0.70455588974E+01 -0.77186788474E+03 -0.91957192345E+02  0.77735925383E+03  0.12699999809E+01 0.  1.
       -4    1    3    3    0  502  0.70455588974E+01  0.77186788474E+03 -0.28286335910E+03  0.82209668787E+03  0.12699999809E+01 0. -1.
</event>
<event>
 5   0  0.4726600E-04  0.1502839E+04  0.7818609E-02  0.8882567E-01
        2   -1    0    0  501    0  0.00000000000E+00  0.00000000000E+00  0.64594057706E+03  0.64594057707E+03  0.25500000920E-02 0.  1.
       -2   -1    0    0    0  501  0.00000000000E+00  0.00000000000E+00 -0.87412288183E+03  0.87412288184E+03  0.25500000920E-02 0. -1.
    10030    2    1    2    0    0  0.00000000000E+00  0.00000000000E+00 -0.22818230477E+03  0.15200634589E+04  0.15028392312E+04 0.  0.
        2    1    3    3  502    0  0.51488904444E+03 -0.50331068667E+03  0.10331197167E+03  0.72739654859E+03  0.25500000920E-02 0.  1.
       -2    1    3    3    0  502 -0.51488904444E+03  0.50331068667E+03 -0.33149427644E+03  0.79266691032E+03  0.25500000920E-02 0. -1.
</event>
<event>
 5   0  0.4768387E-04  0.1502163E+04  0.7818609E-02  0.8883016E-01
        2   -1    0    0  501    0  0.00000000000E+00  0.00000000000E+00  0.40842010964E+03  0.40842010964E+03  0.25500000920E-02 0.  1.
       -2   -1    0    0    0  501  0.00000000000E+00  0.00000000000E+00 -0.13812339399E+04  0.13812339399E+04  0.25500000920E-02 0. -1.
    10030    2    1    2    0    0  0.00000000000E+00  0.00000000000E+00 -0.97281383028E+03  0.17896540496E+04  0.15021633961E+04 0.  0.
        3    1    3    3  502    0 -0.18462602015E+02 -0.45134059525E+03 -0.12013115280E+04  0.12834323504E+04  0.10100000352E+00 0. -1.
       -3    1    3    3    0  502  0.18462602015E+02  0.45134059525E+03  0.22849769774E+03  0.50622169913E+03  0.10100000352E+00 0.  1.
</event>
<event>
 5   0  0.2605471E-04  0.1495598E+04  0.7818609E-02  0.8887386E-01
       -1   -1    0    0    0  501  0.00000000000E+00  0.00000000000E+00  0.54698582027E+03  0.54698582029E+03  0.50400001928E-02 0.  1.
        1   -1    0    0  501    0  0.00000000000E+00  0.00000000000E+00 -0.10223356947E+04  0.10223356947E+04  0.50400001928E-02 0. -1.
    10030    2    1    2    0    0  0.00000000000E+00  0.00000000000E+00 -0.47534987441E+03  0.15693215150E+04  0.14955977114E+04 0.  0.
        3    1    3    3  502    0 -0.11055657341E+03  0.11569835471E+03  0.52880838355E+03  0.55249179353E+03  0.10100000352E+00 0.  1.
       -3    1    3    3    0  502  0.11055657341E+03 -0.11569835471E+03 -0.10041582580E+04  0.10168297215E+04  0.10100000352E+00 0. -1.
</event>
<event>
 5   0  0.2544374E-04  0.1494717E+04  0.7818609E-02  0.8887974E-01
       -1   -1    0    0    0  501  0.00000000000E+00  0.00000000000E+00  0.10912337080E+04  0.10912337080E+04  0.50400001928E-02 0. -1.
        1   -1    0    0  501    0  0.00000000000E+00  0.00000000000E+00 -0.51184715715E+03  0.51184715717E+03  0.50400001928E-02 0.  1.
    10030    2    1    2    0    0  0.00000000000E+00  0.00000000000E+00  0.57938655084E+03  0.16030808652E+04  0.14947171923E+04 0.  0.
        4    1    3    3  502    0  0.63532379127E+03 -0.25557470970E+02  0.71091840432E+03  0.95377989839E+03  0.12699999809E+01 0. -1.
       -4    1    3    3    0  502 -0.63532379127E+03  0.25557470970E+02 -0.13153185348E+03  0.64930096678E+03  0.12699999809E+01 0.  1.
</event>
<event>
 5   0  0.4768387E-04  0.1471620E+04  0.7818609E-02  0.8903548E-01
        2   -1    0    0  501    0  0.00000000000E+00  0.00000000000E+00  0.49270394612E+03  0.49270394612E+03  0.25500000920E-02 0.  1.
       -2   -1    0    0    0  501  0.00000000000E+00  0.00000000000E+00 -0.10988668239E+04  0.10988668239E+04  0.25500000920E-02 0. -1.
    10030    2    1    2    0    0  0.00000000000E+00  0.00000000000E+00 -0.60616287775E+03  0.15915707700E+04  0.14716195437E+04 0.  0.
        3    1    3    3  502    0 -0.58882682973E+03  0.27218175894E+03  0.72524962643E+02  0.65273258361E+03  0.10100000352E+00 0.  1.
       -3    1    3    3    0  502  0.58882682973E+03 -0.27218175894E+03 -0.67868784040E+03  0.93883818638E+03  0.10100000352E+00 0. -1.
</event>
<event>
 5   0  0.4726600E-04  0.1538722E+04  0.7818609E-02  0.8859104E-01
       -2   -1    0    0    0  501  0.00000000000E+00  0.00000000000E+00  0.18400332412E+04  0.18400332412E+04  0.25500000920E-02 0.  1.
        2   -1    0    0  501    0  0.00000000000E+00  0.00000000000E+00 -0.32168778850E+03  0.32168778851E+03  0.25500000920E-02 0. -1.
    10030    2    1    2    0    0  0.00000000000E+00  0.00000000000E+00  0.15183454527E+04  0.21617210297E+04  0.15387218386E+04 0.  0.
        2    1    3    3  502    0  0.37380481270E+03 -0.65593115654E+03  0.55107715871E+03  0.93469875092E+03  0.25500000920E-02 0.  1.
       -2    1    3    3    0  502 -0.37380481270E+03  0.65593115654E+03  0.96726829401E+03  0.12270222788E+04  0.25500000920E-02 0. -1.
</event>
<event>
 5   0  0.2542737E-04  0.1500143E+04  0.7818609E-02  0.8884358E-01
       -1   -1    0    0    0  501  0.00000000000E+00  0.00000000000E+00  0.43127108850E+03  0.43127108853E+03  0.50400001928E-02 0.  1.
        1   -1    0    0  501    0  0.00000000000E+00  0.00000000000E+00 -0.13045334149E+04  0.13045334149E+04  0.50400001928E-02 0. -1.
    10030    2    1    2    0    0  0.00000000000E+00  0.00000000000E+00 -0.87326232643E+03  0.17358045035E+04  0.15001433877E+04 0.  0.
        1    1    3    3  502    0 -0.23683127422E+02  0.37884863180E+02 -0.13029923714E+04  0.13037581345E+04  0.50400001928E-02 0. -1.
       -1    1    3    3    0  502  0.23683127422E+02 -0.37884863180E+02  0.42973004495E+03  0.43204636897E+03  0.50400001928E-02 0.  1.
</event>
<event>
 5   0  0.4948645E-04  0.1519960E+04  0.7818609E-02  0.8871287E-01
        2   -1    0    0  501    0  0.00000000000E+00  0.00000000000E+00  0.14538073964E+04  0.14538073965E+04  0.25500000920E-02 0.  1.
       -2   -1    0    0    0  501  0.00000000000E+00  0.00000000000E+00 -0.39728073353E+03  0.39728073354E+03  0.25500000920E-02 0. -1.
    10030    2    1    2    0    0  0.00000000000E+00  0.00000000000E+00  0.10565266629E+04  0.18510881300E+04  0.15199600901E+04 0.  0.
        1    1    3    3  502    0 -0.46170660454E+03 -0.20558963918E+03  0.12194736530E+04  0.13200591195E+04  0.50400001928E-02 0.  1.
       -1    1    3    3    0  502  0.46170660454E+03  0.20558963918E+03 -0.16294699011E+03  0.53102901053E+03  0.50400001928E-02 0. -1.
</event>
<event>
 5   0  0.2603873E-04  0.1499474E+04  0.7818609E-02  0.8884803E-01
        1   -1    0    0  501    0  0.00000000000E+00  0.00000000000E+00  0.36223709770E+03  0.36223709774E+03  0.50400001928E-02 0. -1.
       -1   -1    0    0    0  501  0.00000000000E+00  0.00000000000E+00 -0.15517610201E+04  0.15517610201E+04  0.50400001928E-02 0.  1.
    10030    2    1    2    0    0  0.00000000000E+00  0.00000000000E+00 -0.11895239224E+04  0.19139981179E+04  0.14994737854E+04 0.  0.
        2    1    3    3  502    0  0.17283941289E+03  0.61214288298E+03 -0.11013569397E+04  0.12718409808E+04  0.25500000920E-02 0. -1.
       -2    1    3    3    0  502 -0.17283941289E+03 -0.61214288298E+03 -0.88166982725E+02  0.64215713706E+03  0.25500000920E-02 0.  1.
</event>
<event>
 5   0  0.4569211E-04  0.1496513E+04  0.7818609E-02  0.8886775E-01
        2   -1    0    0  501    0  0.00000000000E+00  0.00000000000E+00  0.16117273288E+04  0.16117273288E+04  0.25500000920E-02 0. -1.
       -2   -1    0    0    0  501  0.00000000000E+00  0.00000000000E+00 -0.34738356338E+03  0.34738356339E+03  0.25500000920E-02 0.  1.
    10030    2    1    2    0    0  0.00000000000E+00  0.00000000000E+00  0.12643437655E+04  0.19591108922E+04  0.14965127232E+04 0.  0.
        5    1    3    3  502    0  0.11002730545E+03  0.25434635064E+03 -0.27770468157E+03  0.39235195194E+03  0.46999998093E+01 0.  1.
       -5    1    3    3    0  502 -0.11002730545E+03 -0.25434635064E+03  0.15420484470E+04  0.15667589403E+04  0.46999998093E+01 0. -1.
</event>
<event>
 5   0  0.2603873E-04  0.1490703E+04  0.7818609E-02  0.8890659E-01
       -1   -1    0    0    0  501  0.00000000000E+00  0.00000000000E+00  0.28048751292E+03  0.28048751297E+03  0.50400001928E-02 0. -1.
        1   -1    0    0  501    0  0.00000000000E+00  0.00000000000E+00 -0.19806550717E+04  0.19806550717E+04  0.50400001928E-02 0.  1.
    10030    2    1    2    0    0  0.00000000000E+00  0.00000000000E+00 -0.17001675587E+04  0.22611425846E+04  0.14907032100E+04 0.  0.
        2    1    3    3  502    0  0.80043554792E+01  0.71142330945E+03 -0.51308188268E+03  0.87717741266E+03  0.25500000920E-02 0. -1.
       -2    1    3    3    0  502 -0.80043554792E+01 -0.71142330945E+03 -0.11870856761E+04  0.13839651720E+04  0.25500000920E-02 0.  1.
</event>
<event>
 5   0  0.2605471E-04  0.1538370E+04  0.7818609E-02  0.8859331E-01
        1   -1    0    0  501    0  0.00000000000E+00  0.00000000000E+00  0.44123596034E+03  0.44123596037E+03  0.50400001928E-02 0. -1.
       -1   -1    0    0    0  501  0.00000000000E+00  0.00000000000E+00 -0.13408827685E+04  0.13408827685E+04  0.50400001928E-02 0.  1.
    10030    2    1    2    0    0  0.00000000000E+00  0.00000000000E+00 -0.89964680817E+03  0.17821187289E+04  0.15383701715E+04 0.  0.
        3    1    3    3  502    0  0.15401224800E+03  0.72569434785E+03 -0.21441752843E+03  0.77222208317E+03  0.10100000352E+00 0. -1.
       -3    1    3    3    0  502 -0.15401224800E+03 -0.72569434785E+03 -0.68522927973E+03  0.10098966457E+04  0.10100000352E+00 0.  1.
</event>
<event>
 5   0  0.2565416E-04  0.1501136E+04  0.7818609E-02  0.8883698E-01
       -1   -1    0    0    0  501  0.00000000000E+00  0.00000000000E+00  0.56592145063E+03  0.56592145065E+03  0.50400001928E-02 0. -1.
        1   -1    0    0  501    0  0.00000000000E+00  0.00000000000E+00 -0.99545975457E+03  0.99545975459E+03  0.50400001928E-02 0.  1.
    10030    2    1    2    0    0  0.00000000000E+00  0.00000000000E+00 -0.42953830395E+03  0.15613812052E+04  0.15011356080E+04 0.  0.
        5    1    3    3  502    0 -0.23584077097E+03  0.49346719208E+02 -0.95412324833E+03  0.98408801992E+03  0.46999998093E+01 0.  1.
       -5    1    3    3    0  502  0.23584077097E+03 -0.49346719208E+02  0.52458494438E+03  0.57729318532E+03  0.46999998093E+01 0. -1.
</event>
<event>
 5   0  0.4948645E-04  0.1427890E+04  0.7818609E-02  0.8933874E-01
       -2   -1    0    0    0  501  0.00000000000E+00  0.00000000000E+00  0.10795437929E+04  0.10795437929E+04  0.25500000920E-02 0.  1.
        2   -1    0    0  501    0  0.00000000000E+00  0.00000000000E+00 -0.47216022783E+03  0.47216022784E+03  0.25500000920E-02 0. -1.
    10030    2    1    2    0    0  0.00000000000E+00  0.00000000000E+00  0.60738356506E+03  0.15517040207E+04  0.14278902524E+04 0.  0.
        1    1    3    3  502    0 -0.58456942454E+03  0.21535466236E+03  0.68266983298E+03  0.92419540336E+03  0.50400001928E-02 0.  1.
       -1    1    3    3    0  502  0.58456942454E+03 -0.21535466236E+03 -0.75286267921E+02  0.62750861737E+03  0.50400001928E-02 0. -1.
</event>
<event>
 5   0  0.2605471E-04  0.1496741E+04  0.7818609E-02  0.8886623E-01
        1   -1    0    0  501    0  0.00000000000E+00  0.00000000000E+00  0.48737119063E+03  0.48737119065E+03  0.50400001928E-02 0.  1.
       -1   -1    0    0    0  501  0.00000000000E+00  0.00000000000E+00 -0.11491410263E+04  0.11491410263E+04  0.50400001928E-02 0. -1.
    10030    2    1    2    0    0  0.00000000000E+00  0.00000000000E+00 -0.66176983569E+03  0.16365122170E+04  0.14967407661E+04 0.  0.
        3    1    3    3  502    0  0.62782425376E+03 -0.33264909502E+03 -0.73905963693E+02  0.71433942611E+03  0.10100000352E+00 0.  1.
       -3    1    3    3    0  502 -0.62782425376E+03  0.33264909502E+03 -0.58786387199E+03  0.92217279087E+03  0.10100000352E+00 0. -1.
</event>
<event>
 5   0  0.4726600E-04  0.1514564E+04  0.7818609E-02  0.8874825E-01
       -2   -1    0    0    0  501  0.00000000000E+00  0.00000000000E+00  0.56160728389E+03  0.56160728389E+03  0.25500000920E-02 0. -1.
        2   -1    0    0  501    0  0.00000000000E+00  0.00000000000E+00 -0.10211341689E+04  0.10211341689E+04  0.25500000920E-02 0.  1.
    10030    2    1    2    0    0  0.00000000000E+00  0.00000000000E+00 -0.45952688501E+03  0.15827414528E+04  0.15145644748E+04 0.  0.
        2    1    3    3  502    0  0.12409488435E+03  0.56691841605E+03  0.27863395435E+03  0.64376463968E+03  0.25500000920E-02 0. -1.
       -2    1    3    3    0  502 -0.12409488435E+03 -0.56691841605E+03 -0.73816083936E+03  0.93897681311E+03  0.25500000920E-02 0.  1.
</event>
<event>
 5   0  0.2544374E-04  0.1487885E+04  0.7818609E-02  0.8892550E-01
        1   -1    0    0  501    0  0.00000000000E+00  0.00000000000E+00  0.66324733657E+03  0.66324733658E+03  0.50400001928E-02 0.  1.
       -1   -1    0    0    0  501  0.00000000000E+00  0.00000000000E+00 -0.83445540949E+03  0.83445540950E+03  0.50400001928E-02 0. -1.
    10030    2    1    2    0    0  0.00000000000E+00  0.00000000000E+00 -0.17120807292E+03  0.14977027461E+04  0.14878848448E+04 0.  0.
        4    1    3    3  502    0 -0.48328354744E+03 -0.43220760702E+03 -0.45281570652E+03  0.79082872973E+03  0.12699999809E+01 0. -1.
       -4    1    3    3    0  502  0.48328354744E+03  0.43220760702E+03  0.28160763360E+03  0.70687401636E+03  0.12699999809E+01 0.  1.
</event>
<event>
 5   0  0.2565416E-04  0.1511715E+04  0.7818609E-02  0.8876700E-01
        1   -1    0    0  501    0  0.00000000000E+00  0.00000000000E+00  0.11611504825E+04  0.11611504825E+04  0.50400001928E-02 0. -1.
       -1   -1    0    0    0  501  0.00000000000E+00  0.00000000000E+00 -0.49202989288E+03  0.49202989291E+03  0.50400001928E-02 0.  1.
    10030    2    1    2    0    0  0.00000000000E+00  0.00000000000E+00  0.66912058960E+03  0.16531803754E+04  0.15117152477E+04 0.  0.
        5    1    3    3  502    0 -0.46192874108E+02 -0.65711605754E+03  0.73986878840E+03  0.99063777878E+03  0.46999998093E+01 0. -1.
       -5    1    3    3    0  502  0.46192874108E+02  0.65711605754E+03 -0.70748198799E+02  0.66254259662E+03  0.46999998093E+01 0.  1.
</event>
<event>
 5   0  0.4569211E-04  0.1495806E+04  0.7818609E-02  0.8887246E-01
       -2   -1    0    0    0  501  0.00000000000E+00  0.00000000000E+00  0.29482562644E+03  0.29482562645E+03  0.25500000920E-02 0. -1.
        2   -1    0    0  501    0  0.00000000000E+00  0.00000000000E+00 -0.18972545475E+04  0.18972545475E+04  0.25500000920E-02 0.  1.
    10030    2    1    2    0    0  0.00000000000E+00  0.00000000000E+00 -0.16024289210E+04  0.21920801739E+04  0.14958064855E+04 0.  0.
        5    1    3    3  502    0 -0.36839629234E+03 -0.61161234249E+03 -0.11274341988E+04  0.13345094410E+04  0.46999998093E+01 0.  1.
       -5    1    3    3    0  502  0.36839629234E+03  0.61161234249E+03 -0.47499472224E+03  0.85757073286E+03  0.46999998093E+01 0. -1.
</event>
<event>
 5   0  0.2565416E-04  0.1475185E+04  0.7818609E-02  0.8901124E-01
       -1   -1    0    0    0  501  0.00000000000E+00  0.00000000000E+00  0.76222076583E+03  0.76222076585E+03  0.50400001928E-02 0. -1.
        1   -1    0    0  501    0  0.00000000000E+00  0.00000000000E+00 -0.71375997741E+03  0.71375997743E+03  0.50400001928E-02 0.  1.
    10030    2    1    2    0    0  0.00000000000E+00  0.00000000000E+00  0.48460788423E+02  0.14759807433E+04  0.14751849737E+04 0.  0.
        5    1    3    3  502    0 -0.28573638808E+03 -0.64243280408E+03 -0.19872471737E+03  0.73067009965E+03  0.46999998093E+01 0. -1.
       -5    1    3    3    0  502  0.28573638808E+03  0.64243280408E+03  0.24718550579E+03  0.74531064363E+03  0.46999998093E+01 0.  1.
</event>
<event>
 5   0  0.2603873E-04  0.1500962E+04  0.7818609E-02  0.8883813E-01
        1   -1    0    0  501    0  0.00000000000E+00  0.00000000000E+00  0.47387708706E+03  0.47387708709E+03  0.50400001928E-02 0.  1.
       -1   -1    0    0    0  501  0.00000000000E+00  0.00000000000E+00 -0.11885399340E+04  0.11885399340E+04  0.50400001928E-02 0. -1.
    10030    2    1    2    0    0  0.00000000000E+00  0.00000000000E+00 -0.71466284698E+03  0.16624170211E+04  0.15009621472E+04 0.  0.
        2    1    3    3  502    0 -0.34204282204E+03  0.92445280013E+02  0.37540838807E+03  0.51620817481E+03  0.25500000920E-02 0.  1.
       -2    1    3    3    0  502  0.34204282204E+03 -0.92445280013E+02 -0.10900712350E+04  0.11462088463E+04  0.25500000920E-02 0. -1.
</event>
<event>
 5   0  0.4948645E-04  0.1497241E+04  0.7818609E-02  0.8886290E-01
       -2   -1    0    0    0  501  0.00000000000E+00  0.00000000000E+00  0.40747000706E+03  0.40747000707E+03  0.25500000920E-02 0. -1.
        2   -1    0    0  501    0  0.00000000000E+00  0.00000000000E+00 -0.13753961889E+04  0.13753961889E+04  0.25500000920E-02 0.  1.
    10030    2    1    2    0    0  0.00000000000E+00  0.00000000000E+00 -0.96792618185E+03  0.17828661960E+04  0.14972410558E+04 0.  0.
        1    1    3    3  502    0 -0.99729402151E+02 -0.69470970822E+03 -0.79416928808E+03  0.10598454560E+04  0.50400001928E-02 0. -1.
       -1    1    3    3    0  502  0.99729402151E+02  0.69470970822E+03 -0.17375689377E+03  0.72302074002E+03  0.50400001928E-02 0.  1.
</event>
<event>
 5   0  0.2544374E-04  0.1502034E+04  0.7818609E-02  0.8883101E-01
       -1   -1    0    0    0  501  0.00000000000E+00  0.00000000000E+00  0.64312044740E+03  0.64312044742E+03  0.50400001928E-02 0.  1.
        1   -1    0    0  501    0  0.00000000000E+00  0.00000000000E+00 -0.87701569180E+03  0.87701569182E+03  0.50400001928E-02 0. -1.
    10030    2    1    2    0    0  0.00000000000E+00  0.00000000000E+00 -0.23389524441E+03  0.15201361392E+04  0.15020342528E+04 0.  0.
        4    1    3    3  502    0 -0.28491885308E+02 -0.13609470565E+03  0.62997905035E+03  0.64514244413E+03  0.12699999809E+01 0.  1.
       -4    1    3    3    0  502  0.28491885308E+02  0.13609470565E+03 -0.86387429476E+03  0.87499369511E+03  0.12699999809E+01 0. -1.
</event>
<event>
 5   0  0.4948645E-04  0.1500692E+04  0.7818609E-02  0.8883993E-01
       -2   -1    0    0    0  501  0.00000000000E+00  0.00000000000E+00  0.70875013515E+03  0.70875013515E+03  0.25500000920E-02 0.  1.
        2   -1    0    0  501    0  0.00000000000E+00  0.00000000000E+00 -0.79438298237E+03  0.79438298238E+03  0.25500000920E-02 0. -1.
    10030    2    1    2    0    0  0.00000000000E+00  0.00000000000E+00 -0.85632847222E+02  0.15031331175E+04  0.15006919019E+04 0.  0.
        1    1    3    3  502    0 -0.49202444564E+02  0.51200451342E+03 -0.59001047077E+03  0.78273996829E+03  0.50400001928E-02 0. -1.
       -1    1    3    3    0  502  0.49202444564E+02 -0.51200451342E+03  0.50437762355E+03  0.72039314924E+03  0.50400001928E-02 0.  1.
</event>
<event>
 5   0  0.4948645E-04  0.1507898E+04  0.7818609E-02  0.8879218E-01
        2   -1    0    0  501    0  0.00000000000E+00  0.00000000000E+00  0.51579173991E+03  0.51579173991E+03  0.25500000920E-02 0.  1.
       -2   -1    0    0    0  501  0.00000000000E+00  0.00000000000E+00 -0.11020710821E+04  0.11020710821E+04  0.25500000920E-02 0. -1.
    10030    2    1    2    0    0  0.00000000000E+00  0.00000000000E+00 -0.58627934217E+03  0.16178628220E+04  0.15078980880E+04 0.  0.
        1    1    3    3  502    0 -0.43100925779E+03  0.13163672258E+03 -0.94165385354E+03  0.10439392640E+04  0.50400001928E-02 0. -1.
       -1    1    3    3    0  502  0.43100925779E+03 -0.13163672258E+03  0.35537451138E+03  0.57392355798E+03  0.50400001928E-02 0.  1.
</event>
<event>
 5   0  0.2544374E-04  0.1501653E+04  0.7818609E-02  0.8883355E-01
       -1   -1    0    0    0  501  0.00000000000E+00  0.00000000000E+00  0.10214166357E+04  0.10214166357E+04  0.50400001928E-02 0.  1.
        1   -1    0    0  501    0  0.00000000000E+00  0.00000000000E+00 -0.55192008845E+03  0.55192008847E+03  0.50400001928E-02 0. -1.
    10030    2    1    2    0    0  0.00000000000E+00  0.00000000000E+00  0.46949654727E+03  0.15733367242E+04  0.15016529026E+04 0.  0.
        4    1    3    3  502    0 -0.14259432413E+03  0.46867256154E+03 -0.36140523698E+03  0.60877127842E+03  0.12699999809E+01 0. -1.
       -4    1    3    3    0  502  0.14259432413E+03 -0.46867256154E+03  0.83090178425E+03  0.96456544578E+03  0.12699999809E+01 0.  1.
</event>
<event>
 5   0  0.2605471E-04  0.1497830E+04  0.7818609E-02  0.8885897E-01
        1   -1    0    0  501    0  0.00000000000E+00  0.00000000000E+00  0.17815442691E+03  0.17815442699E+03  0.50400001928E-02 0.  1.
       -1   -1    0    0    0  501  0.00000000000E+00  0.00000000000E+00 -0.31482449615E+04  0.31482449615E+04  0.50400001928E-02 0. -1.
    10030    2    1    2    0    0  0.00000000000E+00  0.00000000000E+00 -0.29700905346E+04  0.33263993885E+04  0.14978301333E+04 0.  0.
        3    1    3    3  502    0  0.57358570030E+03 -0.94271579602E+02 -0.43634662525E+03  0.72683290644E+03  0.10100000352E+00 0.  1.
       -3    1    3    3    0  502 -0.57358570030E+03  0.94271579602E+02 -0.25337439094E+04  0.25995664821E+04  0.10100000352E+00 0. -1.
</event>
<event>
 5   0  0.4785496E-04  0.1502168E+04  0.7818609E-02  0.8883013E-01
       -2   -1    0    0    0  501  0.00000000000E+00  0.00000000000E+00  0.30124778427E+03  0.30124778429E+03  0.25500000920E-02 0. -1.
        2   -1    0    0  501    0  0.00000000000E+00  0.00000000000E+00 -0.18726347458E+04  0.18726347458E+04  0.25500000920E-02 0.  1.
    10030    2    1    2    0    0  0.00000000000E+00  0.00000000000E+00 -0.15713869616E+04  0.21738825301E+04  0.15021678574E+04 0.  0.
        4    1    3    3  502    0 -0.64796304651E+03 -0.37318912993E+03 -0.88801539968E+03  0.11609044747E+04  0.12699999809E+01 0. -1.
       -4    1    3    3    0  502  0.64796304651E+03  0.37318912993E+03 -0.68337156188E+03  0.10129780554E+04  0.12699999809E+01 0.  1.
</event>
<event>
 5   0  0.2544374E-04  0.1494024E+04  0.7818609E-02  0.8888436E-01
        1   -1    0    0  501    0  0.00000000000E+00  0.00000000000E+00  0.73542245406E+03  0.73542245408E+03  0.50400001928E-02 0. -1.
       -1   -1    0    0    0  501  0.00000000000E+00  0.00000000000E+00 -0.75878457707E+03  0.75878457709E+03  0.50400001928E-02 0.  1.
    10030    2    1    2    0    0  0.00000000000E+00  0.00000000000E+00 -0.23362123009E+02  0.14942070312E+04  0.14940243851E+04 0.  0.
        4    1    3    3  502    0 -0.13849676726E+03  0.50653115047E+03 -0.54303730915E+03  0.75541134024E+03  0.12699999809E+01 0.  1.
       -4    1    3    3    0  502  0.13849676726E+03 -0.50653115047E+03  0.51967518614E+03  0.73879569092E+03  0.12699999809E+01 0. -1.
</event>
<event>
 5   0  0.2542737E-04  0.1499436E+04  0.7818609E-02  0.8884828E-01
        1   -1    0    0  501    0  0.00000000000E+00  0.00000000000E+00  0.64360779334E+03  0.64360779336E+03  0.50400001928E-02 0.  1.
       -1   -1    0    0    0  501  0.00000000000E+00  0.00000000000E+00 -0.87332217528E+03  0.87332217530E+03  0.50400001928E-02 0. -1.
    10030    2    1    2    0    0  0.00000000000E+00  0.00000000000E+00 -0.22971438195E+03  0.15169299687E+04  0.14994358381E+04 0.  0.
        1    1    3    3  502    0 -0.19471936806E+03 -0.34367539422E+03 -0.75951110856E+03  0.85608733955E+03  0.50400001928E-02 0. -1.
       -1    1    3    3    0  502  0.19471936806E+03  0.34367539422E+03  0.52979672661E+03  0.66084262910E+03  0.50400001928E-02 0.  1.
</event>
<event>
 5   0  0.2565416E-04  0.1511456E+04  0.7818609E-02  0.8876871E-01
       -1   -1    0    0    0  501  0.00000000000E+00  0.00000000000E+00  0.62580285139E+03  0.62580285141E+03  0.50400001928E-02 0. -1.
        1   -1    0    0  501    0  0.00000000000E+00  0.00000000000E+00 -0.91262704998E+03  0.91262704999E+03  0.50400001928E-02 0.  1.
    10030    2    1    2    0    0  0.00000000000E+00  0.00000000000E+00 -0.28682419859E+03  0.15384299014E+04  0.15114557356E+04 0.  0.
        5    1    3    3  502    0  0.60567990486E+03  0.26333417771E+03  0.23044318172E+03  0.69951353547E+03  0.46999998093E+01 0. -1.
       -5    1    3    3    0  502 -0.60567990486E+03 -0.26333417771E+03 -0.51726738031E+03  0.83891636593E+03  0.46999998093E+01 0.  1.
</event>
<event>
 5   0  0.4785496E-04  0.1508363E+04  0.7818609E-02  0.8878911E-01
       -2   -1    0    0    0  501  0.00000000000E+00  0.00000000000E+00  0.57527123195E+03  0.57527123196E+03  0.25500000920E-02 0. -1.
        2   -1    0    0  501    0  0.00000000000E+00  0.00000000000E+00 -0.98873255279E+03  0.98873255280E+03  0.25500000920E-02 0.  1.
    10030    2    1    2    0    0  0.00000000000E+00  0.00000000000E+00 -0.41346132084E+03  0.15640037848E+04  0.15083625476E+04 0.  0.
        4    1    3    3  502    0  0.44020998898E+03 -0.59031938411E+03 -0.37854748998E+02  0.73735771819E+03  0.12699999809E+01 0. -1.
       -4    1    3    3    0  502 -0.44020998898E+03  0.59031938411E+03 -0.37560657185E+03  0.82664606656E+03  0.12699999809E+01 0.  1.
</event>
<event>
 5   0  0.4726600E-04  0.1494032E+04  0.7818609E-02  0.8888431E-01
       -2   -1    0    0    0  501  0.00000000000E+00  0.00000000000E+00  0.41714051941E+03  0.41714051942E+03  0.25500000920E-02 0. -1.
        2   -1    0    0  501    0  0.00000000000E+00  0.00000000000E+00 -0.13377583110E+04  0.13377583110E+04  0.25500000920E-02 0.  1.
    10030    2    1    2    0    0  0.00000000000E+00  0.00000000000E+00 -0.92061779159E+03  0.17548988304E+04  0.14940323915E+04 0.  0.
        2    1    3    3  502    0  0.41877315523E+03 -0.58591550249E+03 -0.22725913500E+03  0.75519179421E+03  0.25500000920E-02 0. -1.
       -2    1    3    3    0  502 -0.41877315523E+03  0.58591550249E+03 -0.69335865659E+03  0.99970703622E+03  0.25500000920E-02 0.  1.
</event>
<event>
 5   0  0.2565416E-04  0.1500940E+04  0.7818609E-02  0.8883828E-01
        1   -1    0    0  501    0  0.00000000000E+00  0.00000000000E+00  0.31063049092E+04  0.31063049092E+04  0.50400001928E-02 0.  1.
       -1   -1    0    0    0  501  0.00000000000E+00  0.00000000000E+00 -0.18131041570E+03  0.18131041577E+03  0.50400001928E-02 0. -1.
    10030    2    1    2    0    0  0.00000000000E+00  0.00000000000E+00  0.29249944935E+04  0.32876153250E+04  0.15009402846E+04 0.  0.
        5    1    3    3  502    0  0.24356431164E+03 -0.18806060443E+03  0.29617302221E+04  0.29776766721E+04  0.46999998093E+01 0.  1.
       -5    1    3    3    0  502 -0.24356431164E+03  0.18806060443E+03 -0.36735728558E+02  0.30993865295E+03  0.46999998093E+01 0. -1.
</event>
<event>
 5   0  0.2542737E-04  0.1498280E+04  0.7818609E-02  0.8885598E-01
        1   -1    0    0  501    0  0.00000000000E+00  0.00000000000E+00  0.58101705460E+03  0.58101705462E+03  0.50400001928E-02 0.  1.
       -1   -1    0    0    0  501  0.00000000000E+00  0.00000000000E+00 -0.96591032044E+03  0.96591032045E+03  0.50400001928E-02 0. -1.
    10030    2    1    2    0    0  0.00000000000E+00  0.00000000000E+00 -0.38489326584E+03  0.15469273751E+04  0.14982795058E+04 0.  0.
        1    1    3    3  502    0 -0.13378018388E+03 -0.81021322217E+02  0.56397269567E+03  0.58525788653E+03  0.50400001928E-02 0.  1.
       -1    1    3    3    0  502  0.13378018388E+03  0.81021322217E+02 -0.94886596151E+03  0.96166948854E+03  0.50400001928E-02 0. -1.
</event>
<event>
 5   0  0.4768387E-04  0.1495232E+04  0.7818609E-02  0.8887630E-01
        2   -1    0    0  501    0  0.00000000000E+00  0.00000000000E+00  0.20631536358E+04  0.20631536358E+04  0.25500000920E-02 0. -1.
       -2   -1    0    0    0  501  0.00000000000E+00  0.00000000000E+00 -0.27091022004E+03  0.27091022005E+03  0.25500000920E-02 0.  1.
    10030    2    1    2    0    0  0.00000000000E+00  0.00000000000E+00  0.17922434158E+04  0.23340638559E+04  0.14952316282E+04 0.  0.
        3    1    3    3  502    0  0.32360238188E+03  0.60852111630E+03  0.13483094022E+04  0.15142505423E+04  0.10100000352E+00 0.  1.
       -3    1    3    3    0  502 -0.32360238188E+03 -0.60852111630E+03  0.44393401359E+03  0.81981331361E+03  0.10100000352E+00 0. -1.
</event>
<event>
 5   0  0.4785496E-04  0.1527632E+04  0.7818609E-02  0.8866283E-01
       -2   -1    0    0    0  501  0.00000000000E+00  0.00000000000E+00  0.44217748762E+03  0.44217748763E+03  0.25500000920E-02 0.  1.
        2   -1    0    0  501    0  0.00000000000E+00  0.00000000000E+00 -0.13194141964E+04  0.13194141964E+04  0.25500000920E-02 0. -1.
    10030    2    1    2    0    0  0.00000000000E+00  0.00000000000E+00 -0.87723670875E+03  0.17615916840E+04  0.15276324879E+04 0.  0.
        4    1    3    3  502    0  0.32485671607E+03  0.56796076945E+03 -0.89305708422E+03  0.11070970555E+04  0.12699999809E+01 0. -1.
       -4    1    3    3    0  502 -0.32485671607E+03 -0.56796076945E+03  0.15820375474E+02  0.65449462854E+03  0.12699999809E+01 0.  1.
</event>
<event>
 5   0  0.4785496E-04  0.1483696E+04  0.7818609E-02  0.8895368E-01
        2   -1    0    0  501    0  0.00000000000E+00  0.00000000000E+00  0.76463811409E+03  0.76463811409E+03  0.25500000920E-02 0. -1.
       -2   -1    0    0    0  501  0.00000000000E+00  0.00000000000E+00 -0.71973749642E+03  0.71973749642E+03  0.25500000920E-02 0.  1.
    10030    2    1    2    0    0  0.00000000000E+00  0.00000000000E+00  0.44900617670E+02  0.14843756105E+04  0.14836963596E+04 0.  0.
        4    1    3    3  502    0  0.68071357856E+03 -0.29262402869E+03 -0.14135693234E+02  0.74108112169E+03  0.12699999809E+01 0.  1.
       -4    1    3    3    0  502 -0.68071357856E+03  0.29262402869E+03  0.59036310903E+02  0.74329448882E+03  0.12699999809E+01 0. -1.
</event>
<event>
 5   0  0.2605471E-04  0.1505671E+04  0.7818609E-02  0.8880691E-01
        1   -1    0    0  501    0  0.00000000000E+00  0.00000000000E+00  0.10274078940E+04  0.10274078940E+04  0.50400001928E-02 0. -1.
       -1   -1    0    0    0  501  0.00000000000E+00  0.00000000000E+00 -0.55164165124E+03  0.55164165126E+03  0.50400001928E-02 0.  1.
    10030    2    1    2    0    0  0.00000000000E+00  0.00000000000E+00  0.47576624274E+03  0.15790495453E+04  0.15056705977E+04 0.  0.
        3    1    3    3  502    0  0.24886291104E+03  0.64380124221E+03 -0.77345405940E+02  0.69454669389E+03  0.10100000352E+00 0.  1.
       -3    1    3    3    0  502 -0.24886291104E+03 -0.64380124221E+03  0.55311164868E+03  0.88450285136E+03  0.10100000352E+00 0. -1.
</event>
<event>
 5   0  0.2605471E-04  0.1503809E+04  0.7818609E-02  0.8881924E-01
        1   -1    0    0  501    0  0.00000000000E+00  0.00000000000E+00  0.89276627810E+03  0.89276627812E+03  0.50400001928E-02 0. -1.
       -1   -1    0    0    0  501  0.00000000000E+00  0.00000000000E+00 -0.63326834260E+03  0.63326834262E+03  0.50400001928E-02 0.  1.
    10030    2    1    2    0    0  0.00000000000E+00  0.00000000000E+00  0.25949793550E+03  0.15260346207E+04  0.15038093247E+04 0.  0.
        3    1    3    3  502    0 -0.51855155286E+03 -0.31097340806E+03  0.58330020225E+03  0.84014243413E+03  0.10100000352E+00 0. -1.
       -3    1    3    3    0  502  0.51855155286E+03  0.31097340806E+03 -0.32380226675E+03  0.68589218660E+03  0.10100000352E+00 0.  1.
</event>
<event>
 5   0  0.2542737E-04  0.1502914E+04  0.7818609E-02  0.8882517E-01
       -1   -1    0    0    0  501  0.00000000000E+00  0.00000000000E+00  0.28399796169E+03  0.28399796174E+03  0.50400001928E-02 0. -1.
        1   -1    0    0  501    0  0.00000000000E+00  0.00000000000E+00 -0.19883522312E+04  0.19883522312E+04  0.50400001928E-02 0.  1.
    10030    2    1    2    0    0  0.00000000000E+00  0.00000000000E+00 -0.17043542695E+04  0.22723501929E+04  0.15029144764E+04 0.  0.
        1    1    3    3  502    0  0.32662116237E+03 -0.35886120908E+03 -0.17197132203E+04  0.17868621411E+04  0.50400001928E-02 0.  1.
       -1    1    3    3    0  502 -0.32662116237E+03  0.35886120908E+03  0.15358950821E+02  0.48548805185E+03  0.50400001928E-02 0. -1.
</event>
<event>
 5   0  0.2603873E-04  0.1496664E+04  0.7818609E-02  0.8886674E-01
        1   -1    0    0  501    0  0.00000000000E+00  0.00000000000E+00  0.89140220594E+03  0.89140220596E+03  0.50400001928E-02 0.  1.
       -1   -1    0    0    0  501  0.00000000000E+00  0.00000000000E+00 -0.62822479939E+03  0.62822479941E+03  0.50400001928E-02 0. -1.
    10030    2    1    2    0    0  0.00000000000E+00  0.00000000000E+00  0.26317740655E+03  0.15196270054E+04  0.14966642536E+04 0.  0.
        2    1    3    3  502    0  0.70209723032E+03  0.22845545095E+03  0.25539622896E+03  0.78125517449E+03  0.25500000920E-02 0.  1.
       -2    1    3    3    0  502 -0.70209723032E+03 -0.22845545095E+03  0.77811775961E+01  0.73837183087E+03  0.25500000920E-02 0. -1.
</event>
<event>
 5   0  0.4768387E-04  0.1501113E+04  0.7818609E-02  0.8883713E-01
       -2   -1    0    0    0  501  0.00000000000E+00  0.00000000000E+00  0.36160737802E+03  0.36160737803E+03  0.25500000920E-02 0. -1.
        2   -1    0    0  501    0  0.00000000000E+00  0.00000000000E+00 -0.15578645568E+04  0.15578645568E+04  0.25500000920E-02 0.  1.
    10030    2    1    2    0    0  0.00000000000E+00  0.00000000000E+00 -0.11962571787E+04  0.19194719348E+04  0.15011133437E+04 0.  0.
        3    1    3    3  502    0  0.24277623117E+03 -0.69792826336E+03 -0.76627213395E+03  0.10645267271E+04  0.10100000352E+00 0.  1.
       -3    1    3    3    0  502 -0.24277623117E+03  0.69792826336E+03 -0.42998504478E+03  0.85494520769E+03  0.10100000352E+00 0. -1.
</event>
<event>
 5   0  0.4768387E-04  0.1506367E+04  0.7818609E-02  0.8880230E-01
        2   -1    0    0  501    0  0.00000000000E+00  0.00000000000E+00  0.11932109075E+04  0.11932109076E+04  0.25500000920E-02 0.  1.
       -2   -1    0    0    0  501  0.00000000000E+00  0.00000000000E+00 -0.47542770647E+03  0.47542770648E+03  0.25500000920E-02 0. -1.
    10030    2    1    2    0    0  0.00000000000E+00  0.00000000000E+00  0.71778320108E+03  0.16686386140E+04  0.15063671865E+04 0.  0.
        3    1    3    3  502    0  0.58193093049E+03  0.28326314361E+03 -0.67839305224E+02  0.65075632761E+03  0.10100000352E+00 0. -1.
       -3    1    3    3    0  502 -0.58193093049E+03 -0.28326314361E+03  0.78562250630E+03  0.10178822864E+04  0.10100000352E+00 0.  1.
</event>
<event>
 5   0  0.2605471E-04  0.1497311E+04  0.7818609E-02  0.8886243E-01
        1   -1    0    0  501    0  0.00000000000E+00  0.00000000000E+00  0.14465970602E+04  0.14465970602E+04  0.50400001928E-02 0.  1.
       -1   -1    0    0    0  501  0.00000000000E+00  0.00000000000E+00 -0.38745070825E+03  0.38745070828E+03  0.50400001928E-02 0. -1.
    10030    2    1    2    0    0  0.00000000000E+00  0.00000000000E+00  0.10591463520E+04  0.18340477685E+04  0.14973109972E+04 0.  0.
        3    1    3    3  502    0 -0.45201341431E+03  0.43173271215E+03  0.10342768901E+04  0.12084858117E+04  0.10100000352E+00 0.  1.
       -3    1    3    3    0  502  0.45201341431E+03 -0.43173271215E+03  0.24869461839E+02  0.62556195680E+03  0.10100000352E+00 0. -1.
</event>
<event>
 5   0  0.4726600E-04  0.1549129E+04  0.7818609E-02  0.8852424E-01
        2   -1    0    0  501    0  0.00000000000E+00  0.00000000000E+00  0.92367757547E+03  0.92367757548E+03  0.25500000920E-02 0. -1.
       -2   -1    0    0    0  501  0.00000000000E+00  0.00000000000E+00 -0.64952375435E+03  0.64952375436E+03  0.25500000920E-02 0.  1.
    10030    2    1    2    0    0  0.00000000000E+00  0.00000000000E+00  0.27415382112E+03  0.15732013298E+04  0.15491294673E+04 0.  0.
        2    1    3    3  502    0 -0.67693890689E+03 -0.37589728085E+03  0.15752627532E+03  0.79016427205E+03  0.25500000920E-02 0. -1.
       -2    1    3    3    0  502  0.67693890689E+03  0.37589728085E+03  0.11662754580E+03  0.78303705778E+03  0.25500000920E-02 0.  1.
</event>
<event>
 5   0  0.4948645E-04  0.1469469E+04  0.7818609E-02  0.8905014E-01
        2   -1    0    0  501    0  0.00000000000E+00  0.00000000000E+00  0.18536477874E+04  0.18536477875E+04  0.25500000920E-02 0.  1.
       -2   -1    0    0    0  501  0.00000000000E+00  0.00000000000E+00 -0.29122815984E+03  0.29122815985E+03  0.25500000920E-02 0. -1.
    10030    2    1    2    0    0  0.00000000000E+00  0.00000000000E+00  0.15624196276E+04  0.21448759473E+04  0.14694685218E+04 0.  0.
        1    1    3    3  502    0  0.52003644611E+03  0.46188903038E+03  0.11267903494E+04  0.13241736568E+04  0.50400001928E-02 0.  1.
       -1    1    3    3    0  502 -0.52003644611E+03 -0.46188903038E+03  0.43562927816E+03  0.82070229053E+03  0.50400001928E-02 0. -1.
</event>
<event>
 5   0  0.4785496E-04  0.1501638E+04  0.7818609E-02  0.8883365E-01
        2   -1    0    0  501    0  0.00000000000E+00  0.00000000000E+00  0.84131087697E+03  0.84131087698E+03  0.25500000920E-02 0. -1.
       -2   -1    0    0    0  501  0.00000000000E+00  0.00000000000E+00 -0.67006007694E+03  0.67006007694E+03  0.25500000920E-02 0.  1.
    10030    2    1    2    0    0  0.00000000000E+00  0.00000000000E+00  0.17125080004E+03  0.15113709539E+04  0.15016375474E+04 0.  0.
        4    1    3    3  502    0 -0.24425873953E+03  0.38380365610E+03 -0.51553977027E+03  0.68756850270E+03  0.12699999809E+01 0.  1.
       -4    1    3    3    0  502  0.24425873953E+03 -0.38380365610E+03  0.68679057031E+03  0.82380245122E+03  0.12699999809E+01 0. -1.
</event>
<event>
 5   0  0.2565416E-04  0.1498249E+04  0.7818609E-02  0.8885618E-01
        1   -1    0    0  501    0  0.00000000000E+00  0.00000000000E+00  0.11273432475E+04  0.11273432475E+04  0.50400001928E-02 0. -1.
       -1   -1    0    0    0  501  0.00000000000E+00  0.00000000000E+00 -0.49779661121E+03  0.49779661123E+03  0.50400001928E-02 0.  1.
    10030    2    1    2    0    0  0.00000000000E+00  0.00000000000E+00  0.62954663625E+03  0.16251398587E+04  0.14982491759E+04 0.  0.
        5    1    3    3  502    0  0.55315276283E+03 -0.28337488833E+03 -0.13883867635E+03  0.63684972671E+03  0.46999998093E+01 0.  1.
       -5    1    3    3    0  502 -0.55315276283E+03  0.28337488833E+03  0.76838531260E+03  0.98829013199E+03  0.46999998093E+01 0. -1.
</event>
<event>
 5   0  0.4948645E-04  0.1502824E+04  0.7818609E-02  0.8882577E-01
        2   -1    0    0  501    0  0.00000000000E+00  0.00000000000E+00  0.12348138535E+04  0.12348138535E+04  0.25500000920E-02 0.  1.
       -2   -1    0    0    0  501  0.00000000000E+00  0.00000000000E+00 -0.45725081685E+03  0.45725081685E+03  0.25500000920E-02 0. -1.
    10030    2    1    2    0    0  0.00000000000E+00  0.00000000000E+00  0.77756303669E+03  0.16920646704E+04  0.15028235335E+04 0.  0.
        1    1    3    3  502    0 -0.49405537026E+02 -0.10324577334E+03 -0.44737817342E+03  0.46178764262E+03  0.50400001928E-02 0. -1.
       -1    1    3    3    0  502  0.49405537026E+02  0.10324577334E+03  0.12249412101E+04  0.12302770278E+04  0.50400001928E-02 0.  1.
</event>
<event>
 5   0  0.4768387E-04  0.1501191E+04  0.7818609E-02  0.8883661E-01
       -2   -1    0    0    0  501  0.00000000000E+00  0.00000000000E+00  0.82929841282E+03  0.82929841283E+03  0.25500000920E-02 0.  1.
        2   -1    0    0  501    0  0.00000000000E+00  0.00000000000E+00 -0.67936174291E+03  0.67936174291E+03  0.25500000920E-02 0. -1.
    10030    2    1    2    0    0  0.00000000000E+00  0.00000000000E+00  0.14993666992E+03  0.15086601557E+04  0.15011910140E+04 0.  0.
        3    1    3    3  502    0  0.25026989370E+03 -0.68829679108E+03 -0.90184678262E+02  0.73791651201E+03  0.10100000352E+00 0.  1.
       -3    1    3    3    0  502 -0.25026989370E+03  0.68829679108E+03  0.24012134818E+03  0.77074364373E+03  0.10100000352E+00 0. -1.
</event>
<event>
 5   0  0.2544374E-04  0.1502586E+04  0.7818609E-02  0.8882735E-01
       -1   -1    0    0    0  501  0.00000000000E+00  0.00000000000E+00  0.69026909350E+03  0.69026909352E+03  0.50400001928E-02 0.  1.
        1   -1    0    0  501    0  0.00000000000E+00  0.00000000000E+00 -0.81771223850E+03  0.81771223852E+03  0.50400001928E-02 0. -1.
    10030    2    1    2    0    0  0.00000000000E+00  0.00000000000E+00 -0.12744314500E+03  0.15079813320E+04  0.15025864177E+04 0.  0.
        4    1    3    3  502    0 -0.26301068100E+02  0.51629754027E+03 -0.61082562523E+03  0.80022775108E+03  0.12699999809E+01 0. -1.
       -4    1    3    3    0  502  0.26301068100E+02 -0.51629754027E+03  0.48338248023E+03  0.70775358096E+03  0.12699999809E+01 0.  1.
</event>
<event>
 5   0  0.4569211E-04  0.1498624E+04  0.7818609E-02  0.8885368E-01
       -2   -1    0    0    0  501  0.00000000000E+00  0.00000000000E+00  0.58245192916E+03  0.58245192916E+03  0.25500000920E-02 0. -1.
        2   -1    0    0  501    0  0.00000000000E+00  0.00000000000E+00 -0.96397425189E+03  0.96397425189E+03  0.25500000920E-02 0.  1.
    10030    2    1    2    0    0  0.00000000000E+00  0.00000000000E+00 -0.38152232273E+03  0.15464261811E+04  0.14986242527E+04 0.  0.
        5    1    3    3  502    0  0.70933426183E+03  0.30571881289E+02  0.56370868733E+02  0.71224258492E+03  0.46999998093E+01 0. -1.
       -5    1    3    3    0  502 -0.70933426183E+03 -0.30571881289E+02 -0.43789319146E+03  0.83418359613E+03  0.46999998093E+01 0.  1.
</event>
<event>
 5   0  0.4726600E-04  0.1490531E+04  0.7818609E-02  0.8890774E-01
        2   -1    0    0  501    0  0.00000000000E+00  0.00000000000E+00  0.19497410401E+04  0.19497410401E+04  0.25500000920E-02 0. -1.
       -2   -1    0    0    0  501  0.00000000000E+00  0.00000000000E+00 -0.28486909970E+03  0.28486909971E+03  0.25500000920E-02 0.  1.
    10030    2    1    2    0    0  0.00000000000E+00  0.00000000000E+00  0.16648719404E+04  0.22346101398E+04  0.14905314150E+04 0.  0.
        2    1    3    3  502    0  0.18298163234E+03 -0.25461543454E+03 -0.18117391934E+03  0.36212606416E+03  0.25500000920E-02 0.  1.
       -2    1    3    3    0  502 -0.18298163234E+03  0.25461543454E+03  0.18460458597E+04  0.18724840756E+04  0.25500000920E-02 0. -1.
</event>
<event>
 5   0  0.4726600E-04  0.1497323E+04  0.7818609E-02  0.8886235E-01
       -2   -1    0    0    0  501  0.00000000000E+00  0.00000000000E+00  0.52113393191E+03  0.52113393192E+03  0.25500000920E-02 0. -1.
        2   -1    0    0  501    0  0.00000000000E+00  0.00000000000E+00 -0.10755278730E+04  0.10755278730E+04  0.25500000920E-02 0.  1.
    10030    2    1    2    0    0  0.00000000000E+00  0.00000000000E+00 -0.55439394105E+03  0.15966618049E+04  0.14973230371E+04 0.  0.
        2    1    3    3  502    0  0.32206667043E+03 -0.33210701466E+03  0.35047327112E+03  0.58039083656E+03  0.25500000920E-02 0. -1.
       -2    1    3    3    0  502 -0.32206667043E+03  0.33210701466E+03 -0.90486721217E+03  0.10162709683E+04  0.25500000920E-02 0.  1.
</event>
<event>
 5   0  0.2605471E-04  0.1500333E+04  0.7818609E-02  0.8884232E-01
        1   -1    0    0  501    0  0.00000000000E+00  0.00000000000E+00  0.71414074290E+03  0.71414074292E+03  0.50400001928E-02 0. -1.
       -1   -1    0    0    0  501  0.00000000000E+00  0.00000000000E+00 -0.78800937601E+03  0.78800937602E+03  0.50400001928E-02 0.  1.
    10030    2    1    2    0    0  0.00000000000E+00  0.00000000000E+00 -0.73868633105E+02  0.15021501189E+04  0.15003327647E+04 0.  0.
        3    1    3    3  502    0  0.10774624307E+02  0.50690647563E+02  0.71234639873E+03  0.71422898027E+03  0.10100000352E+00 0. -1.
       -3    1    3    3    0  502 -0.10774624307E+02 -0.50690647563E+02 -0.78621503183E+03  0.78792113867E+03  0.10100000352E+00 0.  1.
</event>
<event>
 5   0  0.2603873E-04  0.1498417E+04  0.7818609E-02  0.8885506E-01
       -1   -1    0    0    0  501  0.00000000000E+00  0.00000000000E+00  0.38613962562E+03  0.38613962565E+03  0.50400001928E-02 0.  1.
        1   -1    0    0  501    0  0.00000000000E+00  0.00000000000E+00 -0.14536540215E+04  0.14536540216E+04  0.50400001928E-02 0. -1.
    10030    2    1    2    0    0  0.00000000000E+00  0.00000000000E+00 -0.10675143959E+04  0.18397936472E+04  0.14984170577E+04 0.  0.
        2    1    3    3  502    0  0.23881739163E+02 -0.36225632209E+03 -0.13384401218E+04  0.13868027761E+04  0.25500000920E-02 0. -1.
       -2    1    3    3    0  502 -0.23881739163E+02  0.36225632209E+03  0.27092572582E+03  0.45299087107E+03  0.25500000920E-02 0.  1.
</event>
<event>
 5   0  0.4948645E-04  0.1561032E+04  0.7818609E-02  0.8844852E-01
       -2   -1    0    0    0  501  0.00000000000E+00  0.00000000000E+00  0.10343164032E+04  0.10343164032E+04  0.25500000920E-02 0.  1.
        2   -1    0    0  501    0  0.00000000000E+00  0.00000000000E+00 -0.58899275658E+03  0.58899275659E+03  0.25500000920E-02 0. -1.
    10030    2    1    2    0    0  0.00000000000E+00  0.00000000000E+00  0.44532364658E+03  0.16233091597E+04  0.15610315429E+04 0.  0.
        1    1    3    3  502    0 -0.70765248124E+03 -0.27425941552E+03  0.33142224743E+02  0.75966352308E+03  0.50400001928E-02 0. -1.
       -1    1    3    3    0  502  0.70765248124E+03  0.27425941552E+03  0.41218142184E+03  0.86364563667E+03  0.50400001928E-02 0.  1.
</event>
<event>
 5   0  0.1792000E-04  0.1496844E+04  0.7818609E-02  0.8886554E-01
        4   -1    0    0  501    0  0.00000000000E+00  0.00000000000E+00  0.10233988964E+04  0.10233996844E+04  0.12699999809E+01 0.  1.
       -4   -1    0    0    0  501  0.00000000000E+00  0.00000000000E+00 -0.54732690068E+03  0.54732837412E+03  0.12699999809E+01 0. -1.
    10030    2    1    2    0    0  0.00000000000E+00  0.00000000000E+00  0.47607199575E+03  0.15707280586E+04  0.14968440429E+04 0.  0.
        1    1    3    3  502    0  0.62323407862E+03 -0.36759177030E+03  0.43876593865E+03  0.84620327067E+03  0.50400001928E-02 0.  1.
       -1    1    3    3    0  502 -0.62323407862E+03  0.36759177030E+03  0.37306057102E+02  0.72452478789E+03  0.50400001928E-02 0. -1.
</event>
<event>
 5   0  0.2565416E-04  0.1494419E+04  0.7818609E-02  0.8888173E-01
        1   -1    0    0  501    0  0.00000000000E+00  0.00000000000E+00  0.42060457788E+03  0.42060457791E+03  0.50400001928E-02 0. -1.
       -1   -1    0    0    0  501  0.00000000000E+00  0.00000000000E+00 -0.13274277455E+04  0.13274277455E+04  0.50400001928E-02 0.  1.
    10030    2    1    2    0    0  0.00000000000E+00  0.00000000000E+00 -0.90682316762E+03  0.17480323234E+04  0.14944192003E+04 0.  0.
        5    1    3    3  502    0 -0.53172884231E+03  0.52364770534E+03 -0.49651040783E+03  0.89637445085E+03  0.46999998093E+01 0.  1.
       -5    1    3    3    0  502  0.53172884231E+03 -0.52364770534E+03 -0.41031275979E+03  0.85165787256E+03  0.46999998093E+01 0. -1.
</event>
<event>
 5   0  0.4569211E-04  0.1498083E+04  0.7818609E-02  0.8885729E-01
        2   -1    0    0  501    0  0.00000000000E+00  0.00000000000E+00  0.12263691601E+04  0.12263691601E+04  0.25500000920E-02 0. -1.
       -2   -1    0    0    0  501  0.00000000000E+00  0.00000000000E+00 -0.45749940832E+03  0.45749940833E+03  0.25500000920E-02 0.  1.
    10030    2    1    2    0    0  0.00000000000E+00  0.00000000000E+00  0.76886975177E+03  0.16838685684E+04  0.14980829952E+04 0.  0.
        5    1    3    3  502    0  0.69401478183E+03 -0.27602383885E+03  0.32089669105E+03  0.81292216930E+03  0.46999998093E+01 0.  1.
       -5    1    3    3    0  502 -0.69401478183E+03  0.27602383885E+03  0.44797306071E+03  0.87094639912E+03  0.46999998093E+01 0. -1.
</event>
<event>
 5   0  0.1792000E-04  0.1503037E+04  0.7818609E-02  0.8882436E-01
       -4   -1    0    0    0  501  0.00000000000E+00  0.00000000000E+00  0.65183469142E+03  0.65183592862E+03  0.12699999809E+01 0.  1.
        4   -1    0    0  501    0  0.00000000000E+00  0.00000000000E+00 -0.86644424529E+03  0.86644517605E+03  0.12699999809E+01 0. -1.
    10030    2    1    2    0    0  0.00000000000E+00  0.00000000000E+00 -0.21460955387E+03  0.15182811047E+04  0.15030370096E+04 0.  0.
        5    1    3    3  502    0  0.20954994032E+02 -0.67674799456E+03 -0.43669635334E+03  0.80570016442E+03  0.46999998093E+01 0. -1.
       -5    1    3    3    0  502 -0.20954994032E+02  0.67674799456E+03  0.22208679947E+03  0.71258094026E+03  0.46999998093E+01 0.  1.
</event>
<event>
 5   0  0.2605471E-04  0.1496942E+04  0.7818609E-02  0.8886489E-01
        1   -1    0    0  501    0  0.00000000000E+00  0.00000000000E+00  0.10478986285E+04  0.10478986286E+04  0.50400001928E-02 0.  1.
       -1   -1    0    0    0  501  0.00000000000E+00  0.00000000000E+00 -0.53460204613E+03  0.53460204615E+03  0.50400001928E-02 0. -1.
    10030    2    1    2    0    0  0.00000000000E+00  0.00000000000E+00  0.51329658241E+03  0.15825006747E+04  0.14969418839E+04 0.  0.
        3    1    3    3  502    0 -0.65190742521E+03 -0.33721265710E+03  0.10159171304E+03  0.74095651257E+03  0.10100000352E+00 0. -1.
       -3    1    3    3    0  502  0.65190742521E+03  0.33721265710E+03  0.41170486937E+03  0.84154416214E+03  0.10100000352E+00 0.  1.
</event>
<event>
 5   0  0.2605471E-04  0.1500871E+04  0.7818609E-02  0.8883874E-01
       -1   -1    0    0    0  501  0.00000000000E+00  0.00000000000E+00  0.89618093413E+03  0.89618093415E+03  0.50400001928E-02 0.  1.
        1   -1    0    0  501    0  0.00000000000E+00  0.00000000000E+00 -0.62839266639E+03  0.62839266641E+03  0.50400001928E-02 0. -1.
    10030    2    1    2    0    0  0.00000000000E+00  0.00000000000E+00  0.26778826774E+03  0.15245736006E+04  0.15008711161E+04 0.  0.
        3    1    3    3  502    0 -0.19041317201E+03 -0.71110632870E+03  0.28187989892E+03  0.78828020044E+03  0.10100000352E+00 0.  1.
       -3    1    3    3    0  502  0.19041317201E+03  0.71110632870E+03 -0.14091631179E+02  0.73629340012E+03  0.10100000352E+00 0. -1.
</event>
<event>
 5   0  0.4726600E-04  0.1496768E+04  0.7818609E-02  0.8886605E-01
       -2   -1    0    0    0  501  0.00000000000E+00  0.00000000000E+00  0.53990564135E+03  0.53990564136E+03  0.25500000920E-02 0.  1.
        2   -1    0    0  501    0  0.00000000000E+00  0.00000000000E+00 -0.10373639231E+04  0.10373639231E+04  0.25500000920E-02 0. -1.
    10030    2    1    2    0    0  0.00000000000E+00  0.00000000000E+00 -0.49745828173E+03  0.15772695644E+04  0.14967680304E+04 0.  0.
        2    1    3    3  502    0 -0.70785183528E+03  0.23705604663E+03 -0.30477660187E+03  0.80631170586E+03  0.25500000920E-02 0. -1.
       -2    1    3    3    0  502  0.70785183528E+03 -0.23705604663E+03 -0.19268167986E+03  0.77095785858E+03  0.25500000920E-02 0.  1.
</event>
<event>
 5   0  0.4948645E-04  0.1498278E+04  0.7818609E-02  0.8885599E-01
        2   -1    0    0  501    0  0.00000000000E+00  0.00000000000E+00  0.97508204316E+03  0.97508204316E+03  0.25500000920E-02 0. -1.
       -2   -1    0    0    0  501  0.00000000000E+00  0.00000000000E+00 -0.57555060411E+03  0.57555060412E+03  0.25500000920E-02 0.  1.
    10030    2    1    2    0    0  0.00000000000E+00  0.00000000000E+00  0.39953143905E+03  0.15506326473E+04  0.14982777566E+04 0.  0.
        1    1    3    3  502    0  0.36473336164E+03 -0.64680708457E+03  0.30232035397E+03  0.80174024858E+03  0.50400001928E-02 0.  1.
       -1    1    3    3    0  502 -0.36473336164E+03  0.64680708457E+03  0.97211085083E+02  0.74889239870E+03  0.50400001928E-02 0. -1.
</event>
<event>
 5   0  0.2542737E-04  0.1504443E+04  0.7818609E-02  0.8881504E-01
        1   -1    0    0  501    0  0.00000000000E+00  0.00000000000E+00  0.81858838543E+03  0.81858838544E+03  0.50400001928E-02 0. -1.
       -1   -1    0    0    0  501  0.00000000000E+00  0.00000000000E+00 -0.69123520693E+03  0.69123520695E+03  0.50400001928E-02 0.  1.
    10030    2    1    2    0    0  0.00000000000E+00  0.00000000000E+00  0.12735317849E+03  0.15098235924E+04  0.15044429029E+04 0.  0.
        1    1    3    3  502    0  0.54587083123E+02 -0.26980507708E+03  0.76622502265E+03  0.81417155110E+03  0.50400001928E-02 0. -1.
       -1    1    3    3    0  502 -0.54587083123E+02  0.26980507708E+03 -0.63887184416E+03  0.69565204129E+03  0.50400001928E-02 0.  1.
</event>
<event>
 5   0  0.4948645E-04  0.1506971E+04  0.7818609E-02  0.8879830E-01
       -2   -1    0    0    0  501  0.00000000000E+00  0.00000000000E+00  0.42623539922E+03  0.42623539923E+03  0.25500000920E-02 0. -1.
        2   -1    0    0  501    0  0.00000000000E+00  0.00000000000E+00 -0.13319880972E+04  0.13319880972E+04  0.25500000920E-02 0.  1.
    10030    2    1    2    0    0  0.00000000000E+00  0.00000000000E+00 -0.90575269796E+03  0.17582234964E+04  0.15069711057E+04 0.  0.
        1    1    3    3  502    0 -0.61013781700E+03 -0.28195596445E+03 -0.85020318003E+03  0.10837955384E+04  0.50400001928E-02 0.  1.
       -1    1    3    3    0  502  0.61013781700E+03  0.28195596445E+03 -0.55549517923E+02  0.67442795804E+03  0.50400001928E-02 0. -1.
</event>
<event>
 5   0  0.4948645E-04  0.1537429E+04  0.7818609E-02  0.8859938E-01
       -2   -1    0    0    0  501  0.00000000000E+00  0.00000000000E+00  0.11957400484E+04  0.11957400484E+04  0.25500000920E-02 0.  1.
        2   -1    0    0  501    0  0.00000000000E+00  0.00000000000E+00 -0.49418941198E+03  0.49418941199E+03  0.25500000920E-02 0. -1.
    10030    2    1    2    0    0  0.00000000000E+00  0.00000000000E+00  0.70155063640E+03  0.16899294604E+04  0.15374291156E+04 0.  0.
        1    1    3    3  502    0 -0.62324457256E+03  0.44718471724E+03  0.40588970672E+03  0.86784469959E+03  0.50400001928E-02 0. -1.
       -1    1    3    3    0  502  0.62324457256E+03 -0.44718471724E+03  0.29566092969E+03  0.82208476079E+03  0.50400001928E-02 0.  1.
</event>
<event>
 5   0  0.4569211E-04  0.1501261E+04  0.7818609E-02  0.8883615E-01
        2   -1    0    0  501    0  0.00000000000E+00  0.00000000000E+00  0.46862733959E+03  0.46862733960E+03  0.25500000920E-02 0. -1.
       -2   -1    0    0    0  501  0.00000000000E+00  0.00000000000E+00 -0.12023334147E+04  0.12023334147E+04  0.25500000920E-02 0.  1.
    10030    2    1    2    0    0  0.00000000000E+00  0.00000000000E+00 -0.73370607508E+03  0.16709607543E+04  0.15012612157E+04 0.  0.
        5    1    3    3  502    0  0.67530363927E+03  0.32388406282E+03 -0.42237487179E+03  0.85985958951E+03  0.46999998093E+01 0.  1.
       -5    1    3    3    0  502 -0.67530363927E+03 -0.32388406282E+03 -0.31133120329E+03  0.81110116477E+03  0.46999998093E+01 0. -1.
</event>
<event>
 5   0  0.4768387E-04  0.1495664E+04  0.7818609E-02  0.8887341E-01
       -2   -1    0    0    0  501  0.00000000000E+00  0.00000000000E+00  0.57763770400E+03  0.57763770401E+03  0.25500000920E-02 0. -1.
        2   -1    0    0  501    0  0.00000000000E+00  0.00000000000E+00 -0.96817232525E+03  0.96817232526E+03  0.25500000920E-02 0.  1.
    10030    2    1    2    0    0  0.00000000000E+00  0.00000000000E+00 -0.39053462125E+03  0.15458100293E+04  0.14956641856E+04 0.  0.
        3    1    3    3  502    0 -0.35089579929E+03 -0.70809759610E+02  0.48333690089E+03  0.60146193061E+03  0.10100000352E+00 0. -1.
       -3    1    3    3    0  502  0.35089579929E+03  0.70809759610E+02 -0.87387152214E+03  0.94434809865E+03  0.10100000352E+00 0.  1.
</event>
<event>
 5   0  0.2544374E-04  0.1483236E+04  0.7818609E-02  0.8895678E-01
        1   -1    0    0  501    0  0.00000000000E+00  0.00000000000E+00  0.10438683440E+04  0.10438683440E+04  0.50400001928E-02 0. -1.
       -1   -1    0    0    0  501  0.00000000000E+00  0.00000000000E+00 -0.52688388494E+03  0.52688388497E+03  0.50400001928E-02 0.  1.
    10030    2    1    2    0    0  0.00000000000E+00  0.00000000000E+00  0.51698445905E+03  0.15707522290E+04  0.14832362030E+04 0.  0.
        4    1    3    3  502    0  0.48560741786E+03  0.51937251580E+03  0.35262391640E+02  0.71190408315E+03  0.12699999809E+01 0.  1.
       -4    1    3    3    0  502 -0.48560741786E+03 -0.51937251580E+03  0.48172206741E+03  0.85884814582E+03  0.12699999809E+01 0. -1.
</event>
<event>
 5   0  0.2542737E-04  0.1497831E+04  0.7818609E-02  0.8885897E-01
        1   -1    0    0  501    0  0.00000000000E+00  0.00000000000E+00  0.73901086668E+03  0.73901086670E+03  0.50400001928E-02 0.  1.
       -1   -1    0    0    0  501  0.00000000000E+00  0.00000000000E+00 -0.75895270216E+03  0.75895270218E+03  0.50400001928E-02 0. -1.
    10030    2    1    2    0    0  0.00000000000E+00  0.00000000000E+00 -0.19941835481E+02  0.14979635689E+04  0.14978308238E+04 0.  0.
        1    1    3    3  502    0 -0.23986807236E+03 -0.70334658114E+03 -0.10293715124E+03  0.75021940955E+03  0.50400001928E-02 0. -1.
       -1    1    3    3    0  502  0.23986807236E+03  0.70334658114E+03  0.82995315755E+02  0.74774415932E+03  0.50400001928E-02 0.  1.
</event>
<event>
 5   0  0.2542737E-04  0.1477787E+04  0.7818609E-02  0.8899360E-01
        1   -1    0    0  501    0  0.00000000000E+00  0.00000000000E+00  0.82358606183E+03  0.82358606185E+03  0.50400001928E-02 0. -1.
       -1   -1    0    0    0  501  0.00000000000E+00  0.00000000000E+00 -0.66290996701E+03  0.66290996703E+03  0.50400001928E-02 0.  1.
    10030    2    1    2    0    0  0.00000000000E+00  0.00000000000E+00  0.16067609482E+03  0.14864960289E+04  0.14777867358E+04 0.  0.
        1    1    3    3  502    0 -0.37176716918E+02 -0.34641912466E+03 -0.57509637304E+03  0.67240178206E+03  0.50400001928E-02 0.  1.
       -1    1    3    3    0  502  0.37176716918E+02  0.34641912466E+03  0.73577246786E+03  0.81409424681E+03  0.50400001928E-02 0. -1.
</event>
<event>
 5   0  0.4569211E-04  0.1498216E+04  0.7818609E-02  0.8885640E-01
       -2   -1    0    0    0  501  0.00000000000E+00  0.00000000000E+00  0.75413170436E+03  0.75413170436E+03  0.25500000920E-02 0.  1.
        2   -1    0    0  501    0  0.00000000000E+00  0.00000000000E+00 -0.74411788671E+03  0.74411788672E+03  0.25500000920E-02 0. -1.
    10030    2    1    2    0    0  0.00000000000E+00  0.00000000000E+00  0.10013817646E+02  0.14982495911E+04  0.14982161261E+04 0.  0.
        5    1    3    3  502    0 -0.56416829662E+03  0.74328452941E+02 -0.48216946243E+03  0.74586866561E+03  0.46999998093E+01 0. -1.
       -5    1    3    3    0  502  0.56416829662E+03 -0.74328452941E+02  0.49218328008E+03  0.75238092547E+03  0.46999998093E+01 0.  1.
</event>
<event>
 5   0  0.4948645E-04  0.1499847E+04  0.7818609E-02  0.8884555E-01
       -2   -1    0    0    0  501  0.00000000000E+00  0.00000000000E+00  0.72211991913E+03  0.72211991914E+03  0.25500000920E-02 0. -1.
        2   -1    0    0  501    0  0.00000000000E+00  0.00000000000E+00 -0.77879710007E+03  0.77879710008E+03  0.25500000920E-02 0.  1.
    10030    2    1    2    0    0  0.00000000000E+00  0.00000000000E+00 -0.56677180939E+02  0.15009170192E+04  0.14998465241E+04 0.  0.
        1    1    3    3  502    0  0.61641070736E+03 -0.29854213521E+03  0.27732226139E+03  0.73891623566E+03  0.50400001928E-02 0.  1.
       -1    1    3    3    0  502 -0.61641070736E+03  0.29854213521E+03 -0.33399944232E+03  0.76200078355E+03  0.50400001928E-02 0. -1.
</event>
<event>
 5   0  0.2565416E-04  0.1489342E+04  0.7818609E-02  0.8891571E-01
        1   -1    0    0  501    0  0.00000000000E+00  0.00000000000E+00  0.11471400028E+04  0.11471400028E+04  0.50400001928E-02 0. -1.
       -1   -1    0    0    0  501  0.00000000000E+00  0.00000000000E+00 -0.48340664991E+03  0.48340664994E+03  0.50400001928E-02 0.  1.
    10030    2    1    2    0    0  0.00000000000E+00  0.00000000000E+00  0.66373335286E+03  0.16305466527E+04  0.14893422787E+04 0.  0.
        5    1    3    3  502    0  0.21482223693E+03  0.16072324390E+01  0.11124606285E+04  0.11330233522E+04  0.46999998093E+01 0. -1.
       -5    1    3    3    0  502 -0.21482223693E+03 -0.16072324390E+01 -0.44872727563E+03  0.49752330053E+03  0.46999998093E+01 0.  1.
</event>
<event>
 5   0  0.2605471E-04  0.1506877E+04  0.7818609E-02  0.8879893E-01
       -1   -1    0    0    0  501  0.00000000000E+00  0.00000000000E+00  0.45022095666E+03  0.45022095669E+03  0.50400001928E-02 0. -1.
        1   -1    0    0  501    0  0.00000000000E+00  0.00000000000E+00 -0.12608683840E+04  0.12608683840E+04  0.50400001928E-02 0.  1.
    10030    2    1    2    0    0  0.00000000000E+00  0.00000000000E+00 -0.81064742733E+03  0.17110893407E+04  0.15068767303E+04 0.  0.
        3    1    3    3  502    0  0.17989629626E+03 -0.43298069950E+03 -0.10750251377E+04  0.11728230985E+04  0.10100000352E+00 0.  1.
       -3    1    3    3    0  502 -0.17989629626E+03  0.43298069950E+03  0.26437771034E+03  0.53826624218E+03  0.10100000352E+00 0. -1.
</event>
<event>
 5   0  0.4948645E-04  0.1494437E+04  0.7818609E-02  0.8888160E-01
       -2   -1    0    0    0  501  0.00000000000E+00  0.00000000000E+00  0.33005834913E+03  0.33005834914E+03  0.25500000920E-02 0.  1.
        2   -1    0    0  501    0  0.00000000000E+00  0.00000000000E+00 -0.16916273976E+04  0.16916273976E+04  0.25500000920E-02 0. -1.
    10030    2    1    2    0    0  0.00000000000E+00  0.00000000000E+00 -0.13615690485E+04  0.20216857468E+04  0.14944373473E+04 0.  0.
        1    1    3    3  502    0 -0.17467819845E+02  0.51384912005E+03 -0.14142876971E+04  0.15048440893E+04  0.50400001928E-02 0. -1.
       -1    1    3    3    0  502  0.17467819845E+02 -0.51384912005E+03  0.52718648656E+02  0.51684165742E+03  0.50400001928E-02 0.  1.
</event>
<event>
 5   0  0.2542737E-04  0.1500408E+04  0.7818609E-02  0.8884182E-01
        1   -1    0    0  501    0  0.00000000000E+00  0.00000000000E+00  0.12131887920E+04  0.12131887920E+04  0.50400001928E-02 0.  1.
       -1   -1    0    0    0  501  0.00000000000E+00  0.00000000000E+00 -0.46390649210E+03  0.46390649213E+03  0.50400001928E-02 0. -1.
    10030    2    1    2    0    0  0.00000000000E+00  0.00000000000E+00  0.74928229987E+03  0.16770952841E+04  0.15004081535E+04 0.  0.
        1    1    3    3  502    0 -0.84004564439E+02 -0.73313489085E+03  0.22358796594E+03  0.77106103102E+03  0.50400001928E-02 0. -1.
       -1    1    3    3    0  502  0.84004564439E+02  0.73313489085E+03  0.52569433393E+03  0.90603425309E+03  0.50400001928E-02 0.  1.
</event>
<event>
 5   0  0.2603873E-04  0.1545205E+04  0.7818609E-02  0.8854936E-01
       -1   -1    0    0    0  501  0.00000000000E+00  0.00000000000E+00  0.98623797237E+03  0.98623797238E+03  0.50400001928E-02 0. -1.
        1   -1    0    0  501    0  0.00000000000E+00  0.00000000000E+00 -0.60524395884E+03  0.60524395886E+03  0.50400001928E-02 0.  1.
    10030    2    1    2    0    0  0.00000000000E+00  0.00000000000E+00  0.38099401353E+03  0.15914819312E+04  0.15452049376E+04 0.  0.
        2    1    3    3  502    0 -0.78426760352E+02  0.76055686395E+03  0.76190905177E+02  0.76837657049E+03  0.25500000920E-02 0.  1.
       -2    1    3    3    0  502  0.78426760352E+02 -0.76055686395E+03  0.30480310835E+03  0.82310536076E+03  0.25500000920E-02 0. -1.
</event>
<event>
 5   0  0.2544374E-04  0.1506149E+04  0.7818609E-02  0.8880374E-01
       -1   -1    0    0    0  501  0.00000000000E+00  0.00000000000E+00  0.26754848451E+03  0.26754848456E+03  0.50400001928E-02 0.  1.
        1   -1    0    0  501    0  0.00000000000E+00  0.00000000000E+00 -0.21196941113E+04  0.21196941113E+04  0.50400001928E-02 0. -1.
    10030    2    1    2    0    0  0.00000000000E+00  0.00000000000E+00 -0.18521456268E+04  0.23872425959E+04  0.15061486609E+04 0.  0.
        4    1    3    3  502    0  0.51215627711E+03 -0.30630275049E+03 -0.19801867939E+03  0.62875944321E+03  0.12699999809E+01 0.  1.
       -4    1    3    3    0  502 -0.51215627711E+03  0.30630275049E+03 -0.16541269474E+04  0.17584831526E+04  0.12699999809E+01 0. -1.
</event>
<event>
 5   0  0.2603873E-04  0.1512540E+04  0.7818609E-02  0.8876156E-01
       -1   -1    0    0    0  501  0.00000000000E+00  0.00000000000E+00  0.60094429896E+03  0.60094429898E+03  0.50400001928E-02 0.  1.
        1   -1    0    0  501    0  0.00000000000E+00  0.00000000000E+00 -0.95174272600E+03  0.95174272601E+03  0.50400001928E-02 0. -1.
    10030    2    1    2    0    0  0.00000000000E+00  0.00000000000E+00 -0.35079842704E+03  0.15526870250E+04  0.15125400693E+04 0.  0.
        2    1    3    3  502    0  0.62684856217E+02  0.38822411186E+03 -0.83853073665E+03  0.92616475238E+03  0.25500000920E-02 0. -1.
       -2    1    3    3    0  502 -0.62684856217E+02 -0.38822411186E+03  0.48773230962E+03  0.62652227261E+03  0.25500000920E-02 0.  1.
</event>
<event>
 5   0  0.2542737E-04  0.1486390E+04  0.7818609E-02  0.8893554E-01
       -1   -1    0    0    0  501  0.00000000000E+00  0.00000000000E+00  0.49769700533E+03  0.49769700536E+03  0.50400001928E-02 0. -1.
        1   -1    0    0  501    0  0.00000000000E+00  0.00000000000E+00 -0.11097893555E+04  0.11097893555E+04  0.50400001928E-02 0.  1.
    10030    2    1    2    0    0  0.00000000000E+00  0.00000000000E+00 -0.61209235016E+03  0.16074863609E+04  0.14863900414E+04 0.  0.
        1    1    3    3  502    0  0.95576984993E+02  0.27217454029E+03  0.43468180761E+03  0.52169168513E+03  0.50400001928E-02 0. -1.
       -1    1    3    3    0  502 -0.95576984993E+02 -0.27217454029E+03 -0.10467741578E+04  0.10857946757E+04  0.50400001928E-02 0.  1.
</event>
<event>
 5   0  0.2605471E-04  0.1507202E+04  0.7818609E-02  0.8879678E-01
        1   -1    0    0  501    0  0.00000000000E+00  0.00000000000E+00  0.10384291195E+04  0.10384291195E+04  0.50400001928E-02 0.  1.
       -1   -1    0    0    0  501  0.00000000000E+00  0.00000000000E+00 -0.54689769790E+03  0.54689769792E+03  0.50400001928E-02 0. -1.
    10030    2    1    2    0    0  0.00000000000E+00  0.00000000000E+00  0.49153142159E+03  0.15853268174E+04  0.15072020368E+04 0.  0.
        3    1    3    3  502    0 -0.34769155356E+03 -0.17598061030E+03 -0.43269260946E+03  0.58230704624E+03  0.10100000352E+00 0. -1.
       -3    1    3    3    0  502  0.34769155356E+03  0.17598061030E+03  0.92422403105E+03  0.10030197712E+04  0.10100000352E+00 0.  1.
</event>
<event>
 5   0  0.2544374E-04  0.1499304E+04  0.7818609E-02  0.8884916E-01
        1   -1    0    0  501    0  0.00000000000E+00  0.00000000000E+00  0.76069062906E+03  0.76069062908E+03  0.50400001928E-02 0.  1.
       -1   -1    0    0    0  501  0.00000000000E+00  0.00000000000E+00 -0.73877386819E+03  0.73877386821E+03  0.50400001928E-02 0. -1.
    10030    2    1    2    0    0  0.00000000000E+00  0.00000000000E+00  0.21916760869E+02  0.14994644973E+04  0.14993043168E+04 0.  0.
        4    1    3    3  502    0 -0.61608621422E+03  0.47390275230E+02 -0.41354978601E+03  0.74352747088E+03  0.12699999809E+01 0. -1.
       -4    1    3    3    0  502  0.61608621422E+03 -0.47390275230E+02  0.43546654688E+03  0.75593702641E+03  0.12699999809E+01 0.  1.
</event>
<event>
 5   0  0.4768387E-04  0.1498295E+04  0.7818609E-02  0.8885588E-01
       -2   -1    0    0    0  501  0.00000000000E+00  0.00000000000E+00  0.31990266231E+03  0.31990266232E+03  0.25500000920E-02 0.  1.
        2   -1    0    0  501    0  0.00000000000E+00  0.00000000000E+00 -0.17543514935E+04  0.17543514935E+04  0.25500000920E-02 0. -1.
    10030    2    1    2    0    0  0.00000000000E+00  0.00000000000E+00 -0.14344488312E+04  0.20742541559E+04  0.14982946485E+04 0.  0.
        3    1    3    3  502    0 -0.56874488827E+03 -0.27908444272E+03 -0.16369782602E+03  0.65433619994E+03  0.10100000352E+00 0.  1.
       -3    1    3    3    0  502  0.56874488827E+03  0.27908444272E+03 -0.12707510052E+04  0.14199179559E+04  0.10100000352E+00 0. -1.
</event>
<event>
 5   0  0.2603873E-04  0.1500162E+04  0.7818609E-02  0.8884345E-01
        1   -1    0    0  501    0  0.00000000000E+00  0.00000000000E+00  0.60301015373E+03  0.60301015375E+03  0.50400001928E-02 0.  1.
       -1   -1    0    0    0  501  0.00000000000E+00  0.00000000000E+00 -0.93302156560E+03  0.93302156561E+03  0.50400001928E-02 0. -1.
    10030    2    1    2    0    0  0.00000000000E+00  0.00000000000E+00 -0.33001141187E+03  0.15360317194E+04  0.15001619616E+04 0.  0.
        2    1    3    3  502    0  0.12983249489E+03 -0.64391863266E+03  0.20577689844E+03  0.68835442481E+03  0.25500000920E-02 0.  1.
       -2    1    3    3    0  502 -0.12983249489E+03  0.64391863266E+03 -0.53578831031E+03  0.84767729455E+03  0.25500000920E-02 0. -1.
</event>
<event>
 5   0  0.2605471E-04  0.1495850E+04  0.7818609E-02  0.8887217E-01
        1   -1    0    0  501    0  0.00000000000E+00  0.00000000000E+00  0.71686388114E+03  0.71686388116E+03  0.50400001928E-02 0. -1.
       -1   -1    0    0    0  501  0.00000000000E+00  0.00000000000E+00 -0.78033210177E+03  0.78033210179E+03  0.50400001928E-02 0.  1.
    10030    2    1    2    0    0  0.00000000000E+00  0.00000000000E+00 -0.63468220630E+02  0.14971959829E+04  0.14958501250E+04 0.  0.
        3    1    3    3  502    0 -0.67597954500E+03  0.15156104144E+03  0.25042872644E+03  0.73663671627E+03  0.10100000352E+00 0. -1.
       -3    1    3    3    0  502  0.67597954500E+03 -0.15156104144E+03 -0.31389694707E+03  0.76055926667E+03  0.10100000352E+00 0.  1.
</event>
<event>
 5   0  0.2603873E-04  0.1501228E+04  0.7818609E-02  0.8883637E-01
       -1   -1    0    0    0  501  0.00000000000E+00  0.00000000000E+00  0.35717575391E+03  0.35717575395E+03  0.50400001928E-02 0.  1.
        1   -1    0    0  501    0  0.00000000000E+00  0.00000000000E+00 -0.15774339986E+04  0.15774339986E+04  0.50400001928E-02 0. -1.
    10030    2    1    2    0    0  0.00000000000E+00  0.00000000000E+00 -0.12202582447E+04  0.19346097525E+04  0.15012277345E+04 0.  0.
        2    1    3    3  502    0 -0.67250352738E+03  0.23533280369E+03 -0.30577386218E+03  0.77533230143E+03  0.25500000920E-02 0.  1.
       -2    1    3    3    0  502  0.67250352738E+03 -0.23533280369E+03 -0.91448438249E+03  0.11592774511E+04  0.25500000920E-02 0. -1.
</event>
<event>
 5   0  0.4948645E-04  0.1497232E+04  0.7818609E-02  0.8886296E-01
       -2   -1    0    0    0  501  0.00000000000E+00  0.00000000000E+00  0.82422660806E+03  0.82422660806E+03  0.25500000920E-02 0. -1.
        2   -1    0    0  501    0  0.00000000000E+00  0.00000000000E+00 -0.67994124566E+03  0.67994124566E+03  0.25500000920E-02 0.  1.
    10030    2    1    2    0    0  0.00000000000E+00  0.00000000000E+00  0.14428536240E+03  0.15041678537E+04  0.14972316676E+04 0.  0.
        1    1    3    3  502    0 -0.18973674625E+03  0.67391858968E+03 -0.19415011545E+03  0.72654013361E+03  0.50400001928E-02 0. -1.
       -1    1    3    3    0  502  0.18973674625E+03 -0.67391858968E+03  0.33843547785E+03  0.77762772011E+03  0.50400001928E-02 0.  1.
</event>
<event>
 5   0  0.2542737E-04  0.1503331E+04  0.7818609E-02  0.8882241E-01
       -1   -1    0    0    0  501  0.00000000000E+00  0.00000000000E+00  0.49779314046E+03  0.49779314048E+03  0.50400001928E-02 0. -1.
        1   -1    0    0  501    0  0.00000000000E+00  0.00000000000E+00 -0.11350121390E+04  0.11350121390E+04  0.50400001928E-02 0.  1.
    10030    2    1    2    0    0  0.00000000000E+00  0.00000000000E+00 -0.63721899855E+03  0.16328052795E+04  0.15033313103E+04 0.  0.
        1    1    3    3  502    0 -0.35765947352E+03  0.51684329985E+02  0.39725272313E+03  0.53703006901E+03  0.50400001928E-02 0. -1.
       -1    1    3    3    0  502  0.35765947352E+03 -0.51684329985E+02 -0.10344717217E+04  0.10957752105E+04  0.50400001928E-02 0.  1.
</event>
<event>
 5   0  0.4726600E-04  0.1497504E+04  0.7818609E-02  0.8886115E-01
       -2   -1    0    0    0  501  0.00000000000E+00  0.00000000000E+00  0.33819446870E+03  0.33819446871E+03  0.25500000920E-02 0.  1.
        2   -1    0    0  501    0  0.00000000000E+00  0.00000000000E+00 -0.16577126689E+04  0.16577126689E+04  0.25500000920E-02 0. -1.
    10030    2    1    2    0    0  0.00000000000E+00  0.00000000000E+00 -0.13195182002E+04  0.19959071376E+04  0.14975035964E+04 0.  0.
        2    1    3    3  502    0  0.34329701549E+03 -0.45457491034E+03 -0.12086599817E+02  0.56976949362E+03  0.25500000920E-02 0.  1.
       -2    1    3    3    0  502 -0.34329701549E+03  0.45457491034E+03 -0.13074316004E+04  0.14261376440E+04  0.25500000920E-02 0. -1.
</event>
<event>
 5   0  0.2565416E-04  0.1507552E+04  0.7818609E-02  0.8879446E-01
       -1   -1    0    0    0  501  0.00000000000E+00  0.00000000000E+00  0.50363989579E+03  0.50363989581E+03  0.50400001928E-02 0. -1.
        1   -1    0    0  501    0  0.00000000000E+00  0.00000000000E+00 -0.11281444791E+04  0.11281444791E+04  0.50400001928E-02 0.  1.
    10030    2    1    2    0    0  0.00000000000E+00  0.00000000000E+00 -0.62450458328E+03  0.16317843749E+04  0.15075524109E+04 0.  0.
        5    1    3    3  502    0 -0.26626865678E+03  0.23576008711E+03 -0.10316045199E+04  0.10911974119E+04  0.46999998093E+01 0.  1.
       -5    1    3    3    0  502  0.26626865678E+03 -0.23576008711E+03  0.40709993657E+03  0.54058696304E+03  0.46999998093E+01 0. -1.
</event>
<event>
 5   0  0.2544374E-04  0.1509317E+04  0.7818609E-02  0.8878281E-01
       -1   -1    0    0    0  501  0.00000000000E+00  0.00000000000E+00  0.41258015787E+03  0.41258015790E+03  0.50400001928E-02 0.  1.
        1   -1    0    0  501    0  0.00000000000E+00  0.00000000000E+00 -0.13803612270E+04  0.13803612270E+04  0.50400001928E-02 0. -1.
    10030    2    1    2    0    0  0.00000000000E+00  0.00000000000E+00 -0.96778106911E+03  0.17929413849E+04  0.15093172668E+04 0.  0.
        4    1    3    3  502    0  0.80248113113E+02 -0.70693688256E+03 -0.18499691302E+03  0.73513603252E+03  0.12699999809E+01 0.  1.
       -4    1    3    3    0  502 -0.80248113113E+02  0.70693688256E+03 -0.78278415608E+03  0.10578053524E+04  0.12699999809E+01 0. -1.
</event>
<event>
 5   0  0.2605471E-04  0.1499846E+04  0.7818609E-02  0.8884556E-01
       -1   -1    0    0    0  501  0.00000000000E+00  0.00000000000E+00  0.46164188701E+03  0.46164188703E+03  0.50400001928E-02 0.  1.
        1   -1    0    0  501    0  0.00000000000E+00  0.00000000000E+00 -0.12182262229E+04  0.12182262229E+04  0.50400001928E-02 0. -1.
    10030    2    1    2    0    0  0.00000000000E+00  0.00000000000E+00 -0.75658433586E+03  0.16798681099E+04  0.14998456619E+04 0.  0.
        3    1    3    3  502    0 -0.38418366506E+03  0.38261074585E+03  0.20196000052E+03  0.57859824001E+03  0.10100000352E+00 0.  1.
       -3    1    3    3    0  502  0.38418366506E+03 -0.38261074585E+03 -0.95854433638E+03  0.11012698699E+04  0.10100000352E+00 0. -1.
</event>
<event>
 5   0  0.1792000E-04  0.1495374E+04  0.7818609E-02  0.8887535E-01
       -3   -1    0    0    0  501  0.00000000000E+00  0.00000000000E+00  0.16262766596E+04  0.16262766628E+04  0.10100000352E+00 0.  1.
        3   -1    0    0  501    0  0.00000000000E+00  0.00000000000E+00 -0.34375183680E+03  0.34375185163E+03  0.10100000352E+00 0. -1.
    10030    2    1    2    0    0  0.00000000000E+00  0.00000000000E+00  0.12825248228E+04  0.19700285144E+04  0.14953736745E+04 0.  0.
        3    1    3    3  502    0 -0.50039559513E+03 -0.17095764460E+03  0.13376424935E+04  0.14383705081E+04  0.10100000352E+00 0.  1.
       -3    1    3    3    0  502  0.50039559513E+03  0.17095764460E+03 -0.55117670668E+02  0.53165800633E+03  0.10100000352E+00 0. -1.
</event>
<event>
 5   0  0.4768387E-04  0.1499099E+04  0.7818609E-02  0.8885053E-01
        2   -1    0    0  501    0  0.00000000000E+00  0.00000000000E+00  0.70025576610E+03  0.70025576610E+03  0.25500000920E-02 0.  1.
       -2   -1    0    0    0  501  0.00000000000E+00  0.00000000000E+00 -0.80231273834E+03  0.80231273835E+03  0.25500000920E-02 0. -1.
    10030    2    1    2    0    0  0.00000000000E+00  0.00000000000E+00 -0.10205697225E+03  0.15025685044E+04  0.14990985575E+04 0.  0.
        3    1    3    3  502    0  0.35841683812E+03 -0.51682112706E+03  0.35766206058E+03  0.72352530502E+03  0.10100000352E+00 0. -1.
       -3    1    3    3    0  502 -0.35841683812E+03  0.51682112706E+03 -0.45971903283E+03  0.77904319943E+03  0.10100000352E+00 0.  1.
</event>
<event>
 5   0  0.4785496E-04  0.1493660E+04  0.7818609E-02  0.8888680E-01
        2   -1    0    0  501    0  0.00000000000E+00  0.00000000000E+00  0.10457081973E+04  0.10457081973E+04  0.25500000920E-02 0.  1.
       -2   -1    0    0    0  501  0.00000000000E+00  0.00000000000E+00 -0.53337508398E+03  0.53337508398E+03  0.25500000920E-02 0. -1.
    10030    2    1    2    0    0  0.00000000000E+00  0.00000000000E+00  0.51233311336E+03  0.15790832813E+04  0.14936595296E+04 0.  0.
        4    1    3    3  502    0 -0.42949284338E+03  0.14870396604E+03 -0.37032598473E+03  0.58627631702E+03  0.12699999809E+01 0. -1.
       -4    1    3    3    0  502  0.42949284338E+03 -0.14870396604E+03  0.88265909809E+03  0.99280696430E+03  0.12699999809E+01 0.  1.
</event>
<event>
 5   0  0.2544374E-04  0.1520351E+04  0.7818609E-02  0.8871032E-01
        1   -1    0    0  501    0  0.00000000000E+00  0.00000000000E+00  0.44651634502E+03  0.44651634504E+03  0.50400001928E-02 0.  1.
       -1   -1    0    0    0  501  0.00000000000E+00  0.00000000000E+00 -0.12941669117E+04  0.12941669117E+04  0.50400001928E-02 0. -1.
    10030    2    1    2    0    0  0.00000000000E+00  0.00000000000E+00 -0.84765056668E+03  0.17406832568E+04  0.15203508533E+04 0.  0.
        4    1    3    3  502    0 -0.26862699152E+03  0.10075930674E+03  0.38214795183E+03  0.47786145321E+03  0.12699999809E+01 0.  1.
       -4    1    3    3    0  502  0.26862699152E+03 -0.10075930674E+03 -0.12297985185E+04  0.12628218035E+04  0.12699999809E+01 0. -1.
</event>
<event>
 5   0  0.2565416E-04  0.1495003E+04  0.7818609E-02  0.8887782E-01
        1   -1    0    0  501    0  0.00000000000E+00  0.00000000000E+00  0.15325474108E+04  0.15325474108E+04  0.50400001928E-02 0. -1.
       -1   -1    0    0    0  501  0.00000000000E+00  0.00000000000E+00 -0.36459479811E+03  0.36459479815E+03  0.50400001928E-02 0.  1.
    10030    2    1    2    0    0  0.00000000000E+00  0.00000000000E+00  0.11679526127E+04  0.18971422089E+04  0.14950034299E+04 0.  0.
        5    1    3    3  502    0 -0.64522386577E+03 -0.18394261725E+03  0.16581040539E+03  0.69113233460E+03  0.46999998093E+01 0.  1.
       -5    1    3    3    0  502  0.64522386577E+03  0.18394261725E+03  0.10021422073E+04  0.12060098743E+04  0.46999998093E+01 0. -1.
</event>
<event>
 5   0  0.4768387E-04  0.1497434E+04  0.7818609E-02  0.8886161E-01
        2   -1    0    0  501    0  0.00000000000E+00  0.00000000000E+00  0.12374596680E+04  0.12374596680E+04  0.25500000920E-02 0. -1.
       -2   -1    0    0    0  501  0.00000000000E+00  0.00000000000E+00 -0.45300660150E+03  0.45300660151E+03  0.25500000920E-02 0.  1.
    10030    2    1    2    0    0  0.00000000000E+00  0.00000000000E+00  0.78445306651E+03  0.16904662695E+04  0.14974343374E+04 0.  0.
        3    1    3    3  502    0 -0.27798291038E+03 -0.50120147614E+02 -0.39054824493E+03  0.48199011347E+03  0.10100000352E+00 0.  1.
       -3    1    3    3    0  502  0.27798291038E+03  0.50120147614E+02  0.11750013114E+04  0.12084761561E+04  0.10100000352E+00 0. -1.
</event>
<event>
 5   0  0.2544374E-04  0.1516051E+04  0.7818609E-02  0.8873849E-01
       -1   -1    0    0    0  501  0.00000000000E+00  0.00000000000E+00  0.10530940614E+04  0.10530940614E+04  0.50400001928E-02 0.  1.
        1   -1    0    0  501    0  0.00000000000E+00  0.00000000000E+00 -0.54563300432E+03  0.54563300435E+03  0.50400001928E-02 0. -1.
    10030    2    1    2    0    0  0.00000000000E+00  0.00000000000E+00  0.50746105709E+03  0.15987270658E+04  0.15160512875E+04 0.  0.
        4    1    3    3  502    0  0.53174907486E+03  0.55722971653E+02 -0.31291734037E+03  0.61950060774E+03  0.12699999809E+01 0. -1.
       -4    1    3    3    0  502 -0.53174907486E+03 -0.55722971653E+02  0.82037839746E+03  0.97922645803E+03  0.12699999809E+01 0.  1.
</event>
<event>
 5   0  0.4768387E-04  0.1489226E+04  0.7818609E-02  0.8891649E-01
        2   -1    0    0  501    0  0.00000000000E+00  0.00000000000E+00  0.18171464135E+04  0.18171464135E+04  0.25500000920E-02 0. -1.
       -2   -1    0    0    0  501  0.00000000000E+00  0.00000000000E+00 -0.30512042343E+03  0.30512042344E+03  0.25500000920E-02 0.  1.
    10030    2    1    2    0    0  0.00000000000E+00  0.00000000000E+00  0.15120259901E+04  0.21222668369E+04  0.14892259508E+04 0.  0.
        3    1    3    3  502    0 -0.41536574883E+03  0.61434386961E+03  0.66040105960E+03  0.99301392999E+03  0.10100000352E+00 0. -1.
       -3    1    3    3    0  502  0.41536574883E+03 -0.61434386961E+03  0.85162493045E+03  0.11292529069E+04  0.10100000352E+00 0.  1.
</event>
<event>
 5   0  0.2565416E-04  0.1507110E+04  0.7818609E-02  0.8879739E-01
        1   -1    0    0  501    0  0.00000000000E+00  0.00000000000E+00  0.37148426933E+03  0.37148426937E+03  0.50400001928E-02 0.  1.
       -1   -1    0    0    0  501  0.00000000000E+00  0.00000000000E+00 -0.15285840366E+04  0.15285840366E+04  0.50400001928E-02 0. -1.
    10030    2    1    2    0    0  0.00000000000E+00  0.00000000000E+00 -0.11570997673E+04  0.19000683060E+04  0.15071097160E+04 0.  0.
        5    1    3    3  502    0  0.73635852795E+03 -0.88075036782E+02 -0.74695021808E+03  0.10525862492E+04  0.46999998093E+01 0. -1.
       -5    1    3    3    0  502 -0.73635852795E+03  0.88075036782E+02 -0.41014954919E+03  0.84748205674E+03  0.46999998093E+01 0.  1.
</event>
<event>
 5   0  0.2603873E-04  0.1499781E+04  0.7818609E-02  0.8884599E-01
        1   -1    0    0  501    0  0.00000000000E+00  0.00000000000E+00  0.70972775877E+03  0.70972775879E+03  0.50400001928E-02 0.  1.
       -1   -1    0    0    0  501  0.00000000000E+00  0.00000000000E+00 -0.79232549442E+03  0.79232549444E+03  0.50400001928E-02 0. -1.
    10030    2    1    2    0    0  0.00000000000E+00  0.00000000000E+00 -0.82597735652E+02  0.15020532532E+04  0.14997805138E+04 0.  0.
        2    1    3    3  502    0  0.17404410142E+03 -0.46356865309E+03 -0.60531135094E+03  0.78204160820E+03  0.25500000920E-02 0. -1.
       -2    1    3    3    0  502 -0.17404410142E+03  0.46356865309E+03  0.52271361529E+03  0.72001164503E+03  0.25500000920E-02 0.  1.
</event>
<event>
 5   0  0.4569211E-04  0.1467074E+04  0.7818609E-02  0.8906648E-01
       -2   -1    0    0    0  501  0.00000000000E+00  0.00000000000E+00  0.44342377941E+03  0.44342377942E+03  0.25500000920E-02 0. -1.
        2   -1    0    0  501    0  0.00000000000E+00  0.00000000000E+00 -0.12134592954E+04  0.12134592954E+04  0.25500000920E-02 0.  1.
    10030    2    1    2    0    0  0.00000000000E+00  0.00000000000E+00 -0.77003551600E+03  0.16568830748E+04  0.14670742407E+04 0.  0.
        5    1    3    3  502    0 -0.23326793989E+03  0.54518619199E+03  0.10259776167E+03  0.60182248746E+03  0.46999998093E+01 0. -1.
       -5    1    3    3    0  502  0.23326793989E+03 -0.54518619199E+03 -0.87263327768E+03  0.10550605874E+04  0.46999998093E+01 0.  1.
</event>
<event>
 5   0  0.2542737E-04  0.1469992E+04  0.7818609E-02  0.8904657E-01
        1   -1    0    0  501    0  0.00000000000E+00  0.00000000000E+00  0.10536124143E+04  0.10536124143E+04  0.50400001928E-02 0.  1.
       -1   -1    0    0    0  501  0.00000000000E+00  0.00000000000E+00 -0.51273051571E+03  0.51273051574E+03  0.50400001928E-02 0. -1.
    10030    2    1    2    0    0  0.00000000000E+00  0.00000000000E+00  0.54088189858E+03  0.15663429300E+04  0.14699921586E+04 0.  0.
        1    1    3    3  502    0  0.19354250136E+03  0.66314924804E+03  0.53787708420E+03  0.87552120634E+03  0.50400001928E-02 0.  1.
       -1    1    3    3    0  502 -0.19354250136E+03 -0.66314924804E+03  0.30048143776E+01  0.69082172371E+03  0.50400001928E-02 0. -1.
</event>
<event>
 5   0  0.2542737E-04  0.1507753E+04  0.7818609E-02  0.8879314E-01
        1   -1    0    0  501    0  0.00000000000E+00  0.00000000000E+00  0.94678431433E+03  0.94678431434E+03  0.50400001928E-02 0.  1.
       -1   -1    0    0    0  501  0.00000000000E+00  0.00000000000E+00 -0.60027353536E+03  0.60027353538E+03  0.50400001928E-02 0. -1.
    10030    2    1    2    0    0  0.00000000000E+00  0.00000000000E+00  0.34651077897E+03  0.15470578497E+04  0.15077527219E+04 0.  0.
        1    1    3    3  502    0  0.70762151891E+03 -0.52672977912E+01  0.43998116731E+03  0.83327029592E+03  0.50400001928E-02 0.  1.
       -1    1    3    3    0  502 -0.70762151891E+03  0.52672977912E+01 -0.93470388345E+02  0.71378755380E+03  0.50400001928E-02 0. -1.
</event>
<event>
 5   0  0.4768387E-04  0.1516453E+04  0.7818609E-02  0.8873585E-01
       -2   -1    0    0    0  501  0.00000000000E+00  0.00000000000E+00  0.50730951824E+03  0.50730951825E+03  0.25500000920E-02 0.  1.
        2   -1    0    0  501    0  0.00000000000E+00  0.00000000000E+00 -0.11332478932E+04  0.11332478933E+04  0.25500000920E-02 0. -1.
    10030    2    1    2    0    0  0.00000000000E+00  0.00000000000E+00 -0.62593837501E+03  0.16405574115E+04  0.15164530231E+04 0.  0.
        3    1    3    3  502    0 -0.69009106278E+03 -0.31362801977E+03 -0.29364018373E+03  0.81290391647E+03  0.10100000352E+00 0. -1.
       -3    1    3    3    0  502  0.69009106278E+03  0.31362801977E+03 -0.33229819127E+03  0.82765349503E+03  0.10100000352E+00 0.  1.
</event>
<event>
 5   0  0.2544374E-04  0.1511113E+04  0.7818609E-02  0.8877096E-01
       -1   -1    0    0    0  501  0.00000000000E+00  0.00000000000E+00  0.85216115601E+03  0.85216115603E+03  0.50400001928E-02 0. -1.
        1   -1    0    0  501    0  0.00000000000E+00  0.00000000000E+00 -0.66990348658E+03  0.66990348660E+03  0.50400001928E-02 0.  1.
    10030    2    1    2    0    0  0.00000000000E+00  0.00000000000E+00  0.18225766943E+03  0.15220646426E+04  0.15111131388E+04 0.  0.
        4    1    3    3  502    0 -0.40956222961E+02  0.41881758275E+03  0.72319440799E+03  0.83671819896E+03  0.12699999809E+01 0. -1.
       -4    1    3    3    0  502  0.40956222961E+02 -0.41881758275E+03 -0.54093673856E+03  0.68534644367E+03  0.12699999809E+01 0.  1.
</event>
<event>
 5   0  0.2542737E-04  0.1496392E+04  0.7818609E-02  0.8886856E-01
        1   -1    0    0  501    0  0.00000000000E+00  0.00000000000E+00  0.94139362119E+03  0.94139362121E+03  0.50400001928E-02 0. -1.
       -1   -1    0    0    0  501  0.00000000000E+00  0.00000000000E+00 -0.59464705872E+03  0.59464705874E+03  0.50400001928E-02 0.  1.
    10030    2    1    2    0    0  0.00000000000E+00  0.00000000000E+00  0.34674656247E+03  0.15360406799E+04  0.14963915904E+04 0.  0.
        1    1    3    3  502    0 -0.11238138782E+03 -0.41843842404E+03  0.79951648478E+03  0.90936620814E+03  0.50400001928E-02 0. -1.
       -1    1    3    3    0  502  0.11238138782E+03  0.41843842404E+03 -0.45276992231E+03  0.62667447181E+03  0.50400001928E-02 0.  1.
</event>
<event>
 5   0  0.4569211E-04  0.1503126E+04  0.7818609E-02  0.8882377E-01
       -2   -1    0    0    0  501  0.00000000000E+00  0.00000000000E+00  0.58123328872E+03  0.58123328873E+03  0.25500000920E-02 0. -1.
        2   -1    0    0  501    0  0.00000000000E+00  0.00000000000E+00 -0.97180728997E+03  0.97180728997E+03  0.25500000920E-02 0.  1.
    10030    2    1    2    0    0  0.00000000000E+00  0.00000000000E+00 -0.39057400125E+03  0.15530405787E+04  0.15031257395E+04 0.  0.
        5    1    3    3  502    0  0.35236159985E+03 -0.22955075802E+03  0.44827132446E+03  0.61467187823E+03  0.46999998093E+01 0. -1.
       -5    1    3    3    0  502 -0.35236159985E+03  0.22955075802E+03 -0.83884532571E+03  0.93836870047E+03  0.46999998093E+01 0.  1.
</event>
<event>
 5   0  0.2565416E-04  0.1501625E+04  0.7818609E-02  0.8883373E-01
       -1   -1    0    0    0  501  0.00000000000E+00  0.00000000000E+00  0.47628531837E+03  0.47628531840E+03  0.50400001928E-02 0.  1.
        1   -1    0    0  501    0  0.00000000000E+00  0.00000000000E+00 -0.11835744144E+04  0.11835744144E+04  0.50400001928E-02 0. -1.
    10030    2    1    2    0    0  0.00000000000E+00  0.00000000000E+00 -0.70728909602E+03  0.16598597328E+04  0.15016246093E+04 0.  0.
        5    1    3    3  502    0 -0.37734399707E+03  0.44973391102E+03 -0.87098876981E+03  0.10503773655E+04  0.46999998093E+01 0. -1.
       -5    1    3    3    0  502  0.37734399707E+03 -0.44973391102E+03  0.16369967378E+03  0.60948236730E+03  0.46999998093E+01 0.  1.
</event>
<event>
 5   0  0.4768387E-04  0.1497573E+04  0.7818609E-02  0.8886069E-01
       -2   -1    0    0    0  501  0.00000000000E+00  0.00000000000E+00  0.24745818524E+03  0.24745818526E+03  0.25500000920E-02 0.  1.
        2   -1    0    0  501    0  0.00000000000E+00  0.00000000000E+00 -0.22657607231E+04  0.22657607231E+04  0.25500000920E-02 0. -1.
    10030    2    1    2    0    0  0.00000000000E+00  0.00000000000E+00 -0.20183025379E+04  0.25132189084E+04  0.14975727518E+04 0.  0.
        3    1    3    3  502    0  0.44099324542E+01  0.15604650061E+03  0.21984557922E+03  0.26963317074E+03  0.10100000352E+00 0.  1.
       -3    1    3    3    0  502 -0.44099324542E+01 -0.15604650061E+03 -0.22381481171E+04  0.22435857376E+04  0.10100000352E+00 0. -1.
</event>
<event>
 5   0  0.2603873E-04  0.1501644E+04  0.7818609E-02  0.8883361E-01
       -1   -1    0    0    0  501  0.00000000000E+00  0.00000000000E+00  0.44284014184E+03  0.44284014187E+03  0.50400001928E-02 0. -1.
        1   -1    0    0  501    0  0.00000000000E+00  0.00000000000E+00 -0.12729952681E+04  0.12729952681E+04  0.50400001928E-02 0.  1.
    10030    2    1    2    0    0  0.00000000000E+00  0.00000000000E+00 -0.83015512624E+03  0.17158354100E+04  0.15016436396E+04 0.  0.
        2    1    3    3  502    0  0.60300689601E+03 -0.21390253680E+03  0.33852462178E+02  0.64071647480E+03  0.25500000920E-02 0. -1.
       -2    1    3    3    0  502 -0.60300689601E+03  0.21390253680E+03 -0.86400758842E+03  0.10751189352E+04  0.25500000920E-02 0.  1.
</event>
<event>
 5   0  0.2544374E-04  0.1503081E+04  0.7818609E-02  0.8882407E-01
        1   -1    0    0  501    0  0.00000000000E+00  0.00000000000E+00  0.23516755512E+04  0.23516755512E+04  0.50400001928E-02 0. -1.
       -1   -1    0    0    0  501  0.00000000000E+00  0.00000000000E+00 -0.24017481151E+03  0.24017481157E+03  0.50400001928E-02 0.  1.
    10030    2    1    2    0    0  0.00000000000E+00  0.00000000000E+00  0.21115007397E+04  0.25918503628E+04  0.15030811453E+04 0.  0.
        4    1    3    3  502    0 -0.42023306362E+03 -0.53046083289E+03  0.49215397075E+03  0.83678053683E+03  0.12699999809E+01 0.  1.
       -4    1    3    3    0  502  0.42023306362E+03  0.53046083289E+03  0.16193467689E+04  0.17550698259E+04  0.12699999809E+01 0. -1.
</event>
<event>
 5   0  0.2542737E-04  0.1406615E+04  0.7818609E-02  0.8949044E-01
        1   -1    0    0  501    0  0.00000000000E+00  0.00000000000E+00  0.18217354365E+04  0.18217354365E+04  0.50400001928E-02 0. -1.
       -1   -1    0    0    0  501  0.00000000000E+00  0.00000000000E+00 -0.27152200383E+03  0.27152200388E+03  0.50400001928E-02 0.  1.
    10030    2    1    2    0    0  0.00000000000E+00  0.00000000000E+00  0.15502134327E+04  0.20932574404E+04  0.14066147393E+04 0.  0.
        1    1    3    3  502    0 -0.63182569871E+03 -0.28523277907E+03  0.95168845572E+03  0.11774006831E+04  0.50400001928E-02 0. -1.
       -1    1    3    3    0  502  0.63182569871E+03  0.28523277907E+03  0.59852497695E+03  0.91585675728E+03  0.50400001928E-02 0.  1.
</event>
<event>
 5   0  0.2544374E-04  0.1505261E+04  0.7818609E-02  0.8880962E-01
       -1   -1    0    0    0  501  0.00000000000E+00  0.00000000000E+00  0.83705543131E+03  0.83705543133E+03  0.50400001928E-02 0.  1.
        1   -1    0    0  501    0  0.00000000000E+00  0.00000000000E+00 -0.67672019301E+03  0.67672019303E+03  0.50400001928E-02 0. -1.
    10030    2    1    2    0    0  0.00000000000E+00  0.00000000000E+00  0.16033523830E+03  0.15137756244E+04  0.15052605264E+04 0.  0.
        4    1    3    3  502    0  0.90297203366E+02  0.75801663013E+01 -0.67121332579E+03  0.67730346631E+03  0.12699999809E+01 0. -1.
       -4    1    3    3    0  502 -0.90297203366E+02 -0.75801663013E+01  0.83154856409E+03  0.83647215805E+03  0.12699999809E+01 0.  1.
</event>
<event>
 5   0  0.4726600E-04  0.1505042E+04  0.7818609E-02  0.8881107E-01
        2   -1    0    0  501    0  0.00000000000E+00  0.00000000000E+00  0.14224180387E+04  0.14224180387E+04  0.25500000920E-02 0.  1.
       -2   -1    0    0    0  501  0.00000000000E+00  0.00000000000E+00 -0.39811627042E+03  0.39811627043E+03  0.25500000920E-02 0. -1.
    10030    2    1    2    0    0  0.00000000000E+00  0.00000000000E+00  0.10243017683E+04  0.18205343091E+04  0.15050418792E+04 0.  0.
        2    1    3    3  502    0 -0.54052490873E+03  0.42414967339E+03  0.14085819414E+03  0.70136378097E+03  0.25500000920E-02 0. -1.
       -2    1    3    3    0  502  0.54052490873E+03 -0.42414967339E+03  0.88344357412E+03  0.11191705281E+04  0.25500000920E-02 0.  1.
</event>
<event>
 5   0  0.4948645E-04  0.1510285E+04  0.7818609E-02  0.8877642E-01
       -2   -1    0    0    0  501  0.00000000000E+00  0.00000000000E+00  0.47815364715E+03  0.47815364716E+03  0.25500000920E-02 0. -1.
        2   -1    0    0  501    0  0.00000000000E+00  0.00000000000E+00 -0.11925880060E+04  0.11925880060E+04  0.25500000920E-02 0.  1.
    10030    2    1    2    0    0  0.00000000000E+00  0.00000000000E+00 -0.71443435887E+03  0.16707416532E+04  0.15102851448E+04 0.  0.
        1    1    3    3  502    0 -0.48656931652E+03  0.18875637801E+03 -0.96096786052E+03  0.10935437344E+04  0.50400001928E-02 0.  1.
       -1    1    3    3    0  502  0.48656931652E+03 -0.18875637801E+03  0.24653350165E+03  0.57719791881E+03  0.50400001928E-02 0. -1.
</event>
<event>
 5   0  0.4768387E-04  0.1493485E+04  0.7818609E-02  0.8888797E-01
        2   -1    0    0  501    0  0.00000000000E+00  0.00000000000E+00  0.13651957034E+04  0.13651957034E+04  0.25500000920E-02 0. -1.
       -2   -1    0    0    0  501  0.00000000000E+00  0.00000000000E+00 -0.40845719463E+03  0.40845719464E+03  0.25500000920E-02 0.  1.
    10030    2    1    2    0    0  0.00000000000E+00  0.00000000000E+00  0.95673850879E+03  0.17736528981E+04  0.14934845257E+04 0.  0.
        3    1    3    3  502    0 -0.47984183552E+03  0.52909242375E+03  0.21971085178E+03  0.74730171188E+03  0.10100000352E+00 0.  1.
       -3    1    3    3    0  502  0.47984183552E+03 -0.52909242375E+03  0.73702765701E+03  0.10263511862E+04  0.10100000352E+00 0. -1.
</event>
<event>
 5   0  0.4948645E-04  0.1492869E+04  0.7818609E-02  0.8889209E-01
       -2   -1    0    0    0  501  0.00000000000E+00  0.00000000000E+00  0.26485180172E+03  0.26485180173E+03  0.25500000920E-02 0.  1.
        2   -1    0    0  501    0  0.00000000000E+00  0.00000000000E+00 -0.21036834288E+04  0.21036834288E+04  0.25500000920E-02 0. -1.
    10030    2    1    2    0    0  0.00000000000E+00  0.00000000000E+00 -0.18388316271E+04  0.23685352305E+04  0.14928688440E+04 0.  0.
        1    1    3    3  502    0  0.12640610559E+02  0.51420803952E+03 -0.17776214993E+04  0.18505425928E+04  0.50400001928E-02 0. -1.
       -1    1    3    3    0  502 -0.12640610559E+02 -0.51420803952E+03 -0.61210127726E+02  0.51799263769E+03  0.50400001928E-02 0.  1.
</event>
<event>
 5   0  0.4785496E-04  0.1505547E+04  0.7818609E-02  0.8880773E-01
        2   -1    0    0  501    0  0.00000000000E+00  0.00000000000E+00  0.14811325557E+04  0.14811325557E+04  0.25500000920E-02 0. -1.
       -2   -1    0    0    0  501  0.00000000000E+00  0.00000000000E+00 -0.38259099962E+03  0.38259099963E+03  0.25500000920E-02 0.  1.
    10030    2    1    2    0    0  0.00000000000E+00  0.00000000000E+00  0.10985415561E+04  0.18637235554E+04  0.15055470568E+04 0.  0.
        4    1    3    3  502    0  0.67880235982E+03 -0.32131887189E+03  0.48557086251E+03  0.89431489787E+03  0.12699999809E+01 0.  1.
       -4    1    3    3    0  502 -0.67880235982E+03  0.32131887189E+03  0.61297069361E+03  0.96940865751E+03  0.12699999809E+01 0. -1.
</event>
<event>
 5   0  0.2605471E-04  0.1500900E+04  0.7818609E-02  0.8883855E-01
       -1   -1    0    0    0  501  0.00000000000E+00  0.00000000000E+00  0.13914869846E+04  0.13914869846E+04  0.50400001928E-02 0. -1.
        1   -1    0    0  501    0  0.00000000000E+00  0.00000000000E+00 -0.40472904114E+03  0.40472904117E+03  0.50400001928E-02 0.  1.
    10030    2    1    2    0    0  0.00000000000E+00  0.00000000000E+00  0.98675794341E+03  0.17962160257E+04  0.15008999874E+04 0.  0.
        3    1    3    3  502    0  0.67779112920E+03 -0.24014119565E+03  0.23640553065E+03  0.75693869883E+03  0.10100000352E+00 0.  1.
       -3    1    3    3    0  502 -0.67779112920E+03  0.24014119565E+03  0.75035241276E+03  0.10392773269E+04  0.10100000352E+00 0. -1.
</event>
<event>
 5   0  0.2542737E-04  0.1500445E+04  0.7818609E-02  0.8884157E-01
       -1   -1    0    0    0  501  0.00000000000E+00  0.00000000000E+00  0.63701323385E+03  0.63701323387E+03  0.50400001928E-02 0.  1.
        1   -1    0    0  501    0  0.00000000000E+00  0.00000000000E+00 -0.88355157180E+03  0.88355157182E+03  0.50400001928E-02 0. -1.
    10030    2    1    2    0    0  0.00000000000E+00  0.00000000000E+00 -0.24653833795E+03  0.15205648057E+04  0.15004453260E+04 0.  0.
        1    1    3    3  502    0  0.44969728860E+03  0.24196300005E+03 -0.68023888682E+03  0.85058726063E+03  0.50400001928E-02 0. -1.
       -1    1    3    3    0  502 -0.44969728860E+03 -0.24196300005E+03  0.43370054887E+03  0.66997754506E+03  0.50400001928E-02 0.  1.
</event>
<event>
 5   0  0.2565416E-04  0.1501856E+04  0.7818609E-02  0.8883220E-01
       -1   -1    0    0    0  501  0.00000000000E+00  0.00000000000E+00  0.74645078733E+03  0.74645078735E+03  0.50400001928E-02 0.  1.
        1   -1    0    0  501    0  0.00000000000E+00  0.00000000000E+00 -0.75543157546E+03  0.75543157547E+03  0.50400001928E-02 0. -1.
    10030    2    1    2    0    0  0.00000000000E+00  0.00000000000E+00 -0.89807881260E+01  0.15018823628E+04  0.15018555114E+04 0.  0.
        5    1    3    3  502    0 -0.67348324144E+03  0.23513672287E+03 -0.23901846509E+03  0.75234358613E+03  0.46999998093E+01 0.  1.
       -5    1    3    3    0  502  0.67348324144E+03 -0.23513672287E+03  0.23003767697E+03  0.74953877669E+03  0.46999998093E+01 0. -1.
</event>
<event>
 5   0  0.2542737E-04  0.1476948E+04  0.7818609E-02  0.8899928E-01
        1   -1    0    0  501    0  0.00000000000E+00  0.00000000000E+00  0.40835574510E+03  0.40835574513E+03  0.50400001928E-02 0. -1.
       -1   -1    0    0    0  501  0.00000000000E+00  0.00000000000E+00 -0.13354628806E+04  0.13354628806E+04  0.50400001928E-02 0.  1.
    10030    2    1    2    0    0  0.00000000000E+00  0.00000000000E+00 -0.92710713549E+03  0.17438186257E+04  0.14769481232E+04 0.  0.
        1    1    3    3  502    0 -0.50158657253E+03 -0.54096848619E+03 -0.42425329753E+03  0.85101518981E+03  0.50400001928E-02 0.  1.
       -1    1    3    3    0  502  0.50158657253E+03  0.54096848619E+03 -0.50285383796E+03  0.89280343591E+03  0.50400001928E-02 0. -1.
</event>
<event>
 5   0  0.2544374E-04  0.1498106E+04  0.7818609E-02  0.8885713E-01
        1   -1    0    0  501    0  0.00000000000E+00  0.00000000000E+00  0.73103026295E+03  0.73103026297E+03  0.50400001928E-02 0.  1.
       -1   -1    0    0    0  501  0.00000000000E+00  0.00000000000E+00 -0.76752052116E+03  0.76752052118E+03  0.50400001928E-02 0. -1.
    10030    2    1    2    0    0  0.00000000000E+00  0.00000000000E+00 -0.36490258209E+02  0.14985507842E+04  0.14981064427E+04 0.  0.
        4    1    3    3  502    0  0.35237538112E+03 -0.49977839793E+03  0.41447104041E+03  0.73873859551E+03  0.12699999809E+01 0.  1.
       -4    1    3    3    0  502 -0.35237538112E+03  0.49977839793E+03 -0.45096129862E+03  0.75981218864E+03  0.12699999809E+01 0. -1.
</event>
<event>
 5   0  0.2605471E-04  0.1505043E+04  0.7818609E-02  0.8881106E-01
        1   -1    0    0  501    0  0.00000000000E+00  0.00000000000E+00  0.48741063042E+03  0.48741063044E+03  0.50400001928E-02 0. -1.
       -1   -1    0    0    0  501  0.00000000000E+00  0.00000000000E+00 -0.11618309812E+04  0.11618309812E+04  0.50400001928E-02 0.  1.
    10030    2    1    2    0    0  0.00000000000E+00  0.00000000000E+00 -0.67442035081E+03  0.16492416117E+04  0.15050432167E+04 0.  0.
        3    1    3    3  502    0 -0.32429322951E+03 -0.25332049911E+03 -0.10276152502E+04  0.11069464696E+04  0.10100000352E+00 0.  1.
       -3    1    3    3    0  502  0.32429322951E+03  0.25332049911E+03  0.35319489937E+03  0.54229514207E+03  0.10100000352E+00 0. -1.
</event>
<event>
 5   0  0.4785496E-04  0.1431743E+04  0.7818609E-02  0.8931156E-01
       -2   -1    0    0    0  501  0.00000000000E+00  0.00000000000E+00  0.94759612669E+03  0.94759612669E+03  0.25500000920E-02 0.  1.
        2   -1    0    0  501    0  0.00000000000E+00  0.00000000000E+00 -0.54081276686E+03  0.54081276687E+03  0.25500000920E-02 0. -1.
    10030    2    1    2    0    0  0.00000000000E+00  0.00000000000E+00  0.40678335982E+03  0.14884088936E+04  0.14317431098E+04 0.  0.
        4    1    3    3  502    0 -0.44405845154E+03  0.14612555829E+03  0.76700211522E+03  0.89823963664E+03  0.12699999809E+01 0.  1.
       -4    1    3    3    0  502  0.44405845154E+03 -0.14612555829E+03 -0.36021875540E+03  0.59016925692E+03  0.12699999809E+01 0. -1.
</event>
<event>
 5   0  0.2603873E-04  0.1499483E+04  0.7818609E-02  0.8884797E-01
        1   -1    0    0  501    0  0.00000000000E+00  0.00000000000E+00  0.78117485016E+03  0.78117485017E+03  0.50400001928E-02 0. -1.
       -1   -1    0    0    0  501  0.00000000000E+00  0.00000000000E+00 -0.71957281612E+03  0.71957281614E+03  0.50400001928E-02 0.  1.
    10030    2    1    2    0    0  0.00000000000E+00  0.00000000000E+00  0.61602034039E+02  0.15007476663E+04  0.14994828266E+04 0.  0.
        2    1    3    3  502    0  0.14868968876E+03  0.12539177159E+03  0.75548392645E+03  0.78012030037E+03  0.25500000920E-02 0. -1.
       -2    1    3    3    0  502 -0.14868968876E+03 -0.12539177159E+03 -0.69388189241E+03  0.72062736594E+03  0.25500000920E-02 0.  1.
</event>
<event>
 5   0  0.2605471E-04  0.1501191E+04  0.7818609E-02  0.8883661E-01
       -1   -1    0    0    0  501  0.00000000000E+00  0.00000000000E+00  0.57712470836E+03  0.57712470838E+03  0.50400001928E-02 0.  1.
        1   -1    0    0  501    0  0.00000000000E+00  0.00000000000E+00 -0.97620820046E+03  0.97620820047E+03  0.50400001928E-02 0. -1.
    10030    2    1    2    0    0  0.00000000000E+00  0.00000000000E+00 -0.39908349210E+03  0.15533329089E+04  0.15011913576E+04 0.  0.
        3    1    3    3  502    0  0.44621910504E+03  0.27214449646E+03 -0.75697383655E+03  0.91988233817E+03  0.10100000352E+00 0. -1.
       -3    1    3    3    0  502 -0.44621910504E+03 -0.27214449646E+03  0.35789034445E+03  0.63345057069E+03  0.10100000352E+00 0.  1.
</event>
<event>
 5   0  0.4569211E-04  0.1490311E+04  0.7818609E-02  0.8890922E-01
        2   -1    0    0  501    0  0.00000000000E+00  0.00000000000E+00  0.55167825645E+03  0.55167825646E+03  0.25500000920E-02 0. -1.
       -2   -1    0    0    0  501  0.00000000000E+00  0.00000000000E+00 -0.10064859408E+04  0.10064859408E+04  0.25500000920E-02 0.  1.
    10030    2    1    2    0    0  0.00000000000E+00  0.00000000000E+00 -0.45480768434E+03  0.15581641973E+04  0.14903105837E+04 0.  0.
        5    1    3    3  502    0  0.32121784712E+03 -0.75637757805E+01  0.47551280476E+03  0.57390995243E+03  0.46999998093E+01 0. -1.
       -5    1    3    3    0  502 -0.32121784712E+03  0.75637757805E+01 -0.93032048910E+03  0.98425424482E+03  0.46999998093E+01 0.  1.
</event>
<event>
 5   0  0.2603873E-04  0.1498828E+04  0.7818609E-02  0.8885233E-01
        1   -1    0    0  501    0  0.00000000000E+00  0.00000000000E+00  0.14758927563E+04  0.14758927563E+04  0.50400001928E-02 0.  1.
       -1   -1    0    0    0  501  0.00000000000E+00  0.00000000000E+00 -0.38052967307E+03  0.38052967310E+03  0.50400001928E-02 0. -1.
    10030    2    1    2    0    0  0.00000000000E+00  0.00000000000E+00  0.10953630832E+04  0.18564224294E+04  0.14988275259E+04 0.  0.
        2    1    3    3  502    0  0.65163625233E+03 -0.21662838963E+03  0.17597591831E+03  0.70889011022E+03  0.25500000920E-02 0. -1.
       -2    1    3    3    0  502 -0.65163625233E+03  0.21662838963E+03  0.91938716489E+03  0.11475323192E+04  0.25500000920E-02 0.  1.
</event>
<event>
 5   0  0.2605471E-04  0.1472591E+04  0.7818609E-02  0.8902887E-01
       -1   -1    0    0    0  501  0.00000000000E+00  0.00000000000E+00  0.20286560048E+03  0.20286560054E+03  0.50400001928E-02 0.  1.
        1   -1    0    0  501    0  0.00000000000E+00  0.00000000000E+00 -0.26723653237E+04  0.26723653237E+04  0.50400001928E-02 0. -1.
    10030    2    1    2    0    0  0.00000000000E+00  0.00000000000E+00 -0.24694997232E+04  0.28752309242E+04  0.14725909088E+04 0.  0.
        3    1    3    3  502    0 -0.16323217838E+03  0.67291560978E+03 -0.74595872923E+03  0.10177988985E+04  0.10100000352E+00 0.  1.
       -3    1    3    3    0  502  0.16323217838E+03 -0.67291560978E+03 -0.17235409939E+04  0.18574320257E+04  0.10100000352E+00 0. -1.
</event>
<event>
 5   0  0.2565416E-04  0.1485873E+04  0.7818609E-02  0.8893902E-01
       -1   -1    0    0    0  501  0.00000000000E+00  0.00000000000E+00  0.37875883340E+03  0.37875883343E+03  0.50400001928E-02 0. -1.
        1   -1    0    0  501    0  0.00000000000E+00  0.00000000000E+00 -0.14572718543E+04  0.14572718543E+04  0.50400001928E-02 0.  1.
    10030    2    1    2    0    0  0.00000000000E+00  0.00000000000E+00 -0.10785130209E+04  0.18360306878E+04  0.14858729253E+04 0.  0.
        5    1    3    3  502    0 -0.42248732076E+03 -0.60407595162E+03 -0.42513892652E+03  0.85098089777E+03  0.46999998093E+01 0. -1.
       -5    1    3    3    0  502  0.42248732076E+03  0.60407595162E+03 -0.65337409440E+03  0.98504978999E+03  0.46999998093E+01 0.  1.
</event>
<event>
 5   0  0.4726600E-04  0.1462766E+04  0.7818609E-02  0.8909598E-01
        2   -1    0    0  501    0  0.00000000000E+00  0.00000000000E+00  0.11839896476E+04  0.11839896476E+04  0.25500000920E-02 0. -1.
       -2   -1    0    0    0  501  0.00000000000E+00  0.00000000000E+00 -0.45179512568E+03  0.45179512569E+03  0.25500000920E-02 0.  1.
    10030    2    1    2    0    0  0.00000000000E+00  0.00000000000E+00  0.73219452196E+03  0.16357847733E+04  0.14627655337E+04 0.  0.
        2    1    3    3  502    0 -0.61900465544E+03  0.37753911833E+03  0.47346518615E+03  0.86595140270E+03  0.25500000920E-02 0. -1.
       -2    1    3    3    0  502  0.61900465544E+03 -0.37753911833E+03  0.25872933581E+03  0.76983337063E+03  0.25500000920E-02 0.  1.
</event>
<event>
 5   0  0.4726600E-04  0.1495291E+04  0.7818609E-02  0.8887590E-01
       -2   -1    0    0    0  501  0.00000000000E+00  0.00000000000E+00  0.11926731648E+04  0.11926731648E+04  0.25500000920E-02 0. -1.
        2   -1    0    0  501    0  0.00000000000E+00  0.00000000000E+00 -0.46867297905E+03  0.46867297906E+03  0.25500000920E-02 0.  1.
    10030    2    1    2    0    0  0.00000000000E+00  0.00000000000E+00  0.72400018575E+03  0.16613461439E+04  0.14952908549E+04 0.  0.
        2    1    3    3  502    0  0.49808709655E+03  0.28093373925E+03  0.89710658199E+03  0.10638678212E+04  0.25500000920E-02 0.  1.
       -2    1    3    3    0  502 -0.49808709655E+03 -0.28093373925E+03 -0.17310639623E+03  0.59747832264E+03  0.25500000920E-02 0. -1.
</event>
<event>
 5   0  0.4569211E-04  0.1553741E+04  0.7818609E-02  0.8849482E-01
        2   -1    0    0  501    0  0.00000000000E+00  0.00000000000E+00  0.12505969815E+04  0.12505969815E+04  0.25500000920E-02 0. -1.
       -2   -1    0    0    0  501  0.00000000000E+00  0.00000000000E+00 -0.48259143255E+03  0.48259143256E+03  0.25500000920E-02 0.  1.
    10030    2    1    2    0    0  0.00000000000E+00  0.00000000000E+00  0.76800554897E+03  0.17331884141E+04  0.15537405045E+04 0.  0.
        5    1    3    3  502    0  0.17118537124E+03  0.59805495871E+03 -0.13506906076E+03  0.63658456323E+03  0.46999998093E+01 0.  1.
       -5    1    3    3    0  502 -0.17118537124E+03 -0.59805495871E+03  0.90307460973E+03  0.10966038509E+04  0.46999998093E+01 0. -1.
</event>
<event>
 5   0  0.4785496E-04  0.1498124E+04  0.7818609E-02  0.8885701E-01
       -2   -1    0    0    0  501  0.00000000000E+00  0.00000000000E+00  0.11112696532E+04  0.11112696532E+04  0.25500000920E-02 0. -1.
        2   -1    0    0  501    0  0.00000000000E+00  0.00000000000E+00 -0.50491256613E+03  0.50491256613E+03  0.25500000920E-02 0.  1.
    10030    2    1    2    0    0  0.00000000000E+00  0.00000000000E+00  0.60635708708E+03  0.16161822193E+04  0.14981241768E+04 0.  0.
        4    1    3    3  502    0 -0.63722088779E+03  0.22935357032E+03  0.64846132465E+03  0.93763384245E+03  0.12699999809E+01 0. -1.
       -4    1    3    3    0  502  0.63722088779E+03 -0.22935357032E+03 -0.42104237566E+02  0.67854837689E+03  0.12699999809E+01 0.  1.
</event>
<event>
 5   0  0.2542737E-04  0.1405490E+04  0.7818609E-02  0.8949854E-01
       -1   -1    0    0    0  501  0.00000000000E+00  0.00000000000E+00  0.35302647300E+03  0.35302647304E+03  0.50400001928E-02 0.  1.
        1   -1    0    0  501    0  0.00000000000E+00  0.00000000000E+00 -0.13989053103E+04  0.13989053103E+04  0.50400001928E-02 0. -1.
    10030    2    1    2    0    0  0.00000000000E+00  0.00000000000E+00 -0.10458788373E+04  0.17519317833E+04  0.14054901035E+04 0.  0.
        1    1    3    3  502    0 -0.31574813372E+03 -0.23586028932E+03  0.20230418238E+03  0.44300557814E+03  0.50400001928E-02 0.  1.
       -1    1    3    3    0  502  0.31574813372E+03  0.23586028932E+03 -0.12481830196E+04  0.13089262052E+04  0.50400001928E-02 0. -1.
</event>
<event>
 5   0  0.4785496E-04  0.1491534E+04  0.7818609E-02  0.8890102E-01
       -2   -1    0    0    0  501  0.00000000000E+00  0.00000000000E+00  0.59887236263E+03  0.59887236263E+03  0.25500000920E-02 0.  1.
        2   -1    0    0  501    0  0.00000000000E+00  0.00000000000E+00 -0.92869281865E+03  0.92869281866E+03  0.25500000920E-02 0. -1.
    10030    2    1    2    0    0  0.00000000000E+00  0.00000000000E+00 -0.32982045603E+03  0.15275651813E+04  0.14915340592E+04 0.  0.
        4    1    3    3  502    0  0.79764376043E+02 -0.55767185321E+02 -0.92215962125E+03  0.92728221951E+03  0.12699999809E+01 0. -1.
       -4    1    3    3    0  502 -0.79764376043E+02  0.55767185321E+02  0.59233916523E+03  0.60028296178E+03  0.12699999809E+01 0.  1.
</event>
<event>
 5   0  0.2544374E-04  0.1499165E+04  0.7818609E-02  0.8885008E-01
        1   -1    0    0  501    0  0.00000000000E+00  0.00000000000E+00  0.51778508444E+03  0.51778508446E+03  0.50400001928E-02 0.  1.
       -1   -1    0    0    0  501  0.00000000000E+00  0.00000000000E+00 -0.10851493065E+04  0.10851493065E+04  0.50400001928E-02 0. -1.
    10030    2    1    2    0    0  0.00000000000E+00  0.00000000000E+00 -0.56736422203E+03  0.16029343909E+04  0.14991652682E+04 0.  0.
        4    1    3    3  502    0 -0.72731117169E+03 -0.66054444852E+02 -0.10308939063E+03  0.73754577181E+03  0.12699999809E+01 0.  1.
       -4    1    3    3    0  502  0.72731117169E+03  0.66054444852E+02 -0.46427483140E+03  0.86538861913E+03  0.12699999809E+01 0. -1.
</event>
<event>
 5   0  0.4948645E-04  0.1544089E+04  0.7818609E-02  0.8855653E-01
        2   -1    0    0  501    0  0.00000000000E+00  0.00000000000E+00  0.75450005363E+03  0.75450005363E+03  0.25500000920E-02 0. -1.
       -2   -1    0    0    0  501  0.00000000000E+00  0.00000000000E+00 -0.78999642625E+03  0.78999642626E+03  0.25500000920E-02 0.  1.
    10030    2    1    2    0    0  0.00000000000E+00  0.00000000000E+00 -0.35496372628E+02  0.15444964799E+04  0.15440885285E+04 0.  0.
        1    1    3    3  502    0 -0.32217295743E+03  0.68900719439E+03 -0.15016902899E+03  0.77529160044E+03  0.50400001928E-02 0.  1.
       -1    1    3    3    0  502  0.32217295743E+03 -0.68900719439E+03  0.11467265637E+03  0.76920487945E+03  0.50400001928E-02 0. -1.
</event>
<event>
 5   0  0.2605471E-04  0.1349917E+04  0.7818609E-02  0.8990891E-01
       -1   -1    0    0    0  501  0.00000000000E+00  0.00000000000E+00  0.47825977866E+03  0.47825977869E+03  0.50400001928E-02 0.  1.
        1   -1    0    0  501    0  0.00000000000E+00  0.00000000000E+00 -0.95255545691E+03  0.95255545693E+03  0.50400001928E-02 0. -1.
    10030    2    1    2    0    0  0.00000000000E+00  0.00000000000E+00 -0.47429567825E+03  0.14308152356E+04  0.13499169782E+04 0.  0.
        3    1    3    3  502    0 -0.37708767355E+03  0.23626551051E+03 -0.77505749026E+03  0.89371730901E+03  0.10100000352E+00 0. -1.
       -3    1    3    3    0  502  0.37708767355E+03 -0.23626551051E+03  0.30076181201E+03  0.53709792661E+03  0.10100000352E+00 0.  1.
</event>
<event>
 5   0  0.4768387E-04  0.1505094E+04  0.7818609E-02  0.8881073E-01
       -2   -1    0    0    0  501  0.00000000000E+00  0.00000000000E+00  0.12955204520E+04  0.12955204520E+04  0.25500000920E-02 0. -1.
        2   -1    0    0  501    0  0.00000000000E+00  0.00000000000E+00 -0.43714226950E+03  0.43714226951E+03  0.25500000920E-02 0.  1.
    10030    2    1    2    0    0  0.00000000000E+00  0.00000000000E+00  0.85837818248E+03  0.17326627215E+04  0.15050936855E+04 0.  0.
        3    1    3    3  502    0 -0.46624089567E+03 -0.55553574640E+03  0.19801233867E+03  0.75180411996E+03  0.10100000352E+00 0.  1.
       -3    1    3    3    0  502  0.46624089567E+03  0.55553574640E+03  0.66036584381E+03  0.98085860153E+03  0.10100000352E+00 0. -1.
</event>
<event>
 5   0  0.2565416E-04  0.1486882E+04  0.7818609E-02  0.8893223E-01
        1   -1    0    0  501    0  0.00000000000E+00  0.00000000000E+00  0.46835163478E+03  0.46835163481E+03  0.50400001928E-02 0. -1.
       -1   -1    0    0    0  501  0.00000000000E+00  0.00000000000E+00 -0.11801063552E+04  0.11801063553E+04  0.50400001928E-02 0.  1.
    10030    2    1    2    0    0  0.00000000000E+00  0.00000000000E+00 -0.71175472046E+03  0.16484579901E+04  0.14868822963E+04 0.  0.
        5    1    3    3  502    0  0.10019948515E+03 -0.38070677895E+03  0.34329113877E+03  0.52234900624E+03  0.46999998093E+01 0. -1.
       -5    1    3    3    0  502 -0.10019948515E+03  0.38070677895E+03 -0.10550458592E+04  0.11261089838E+04  0.46999998093E+01 0.  1.
</event>
<event>
 5   0  0.4948645E-04  0.1482274E+04  0.7818609E-02  0.8896327E-01
        2   -1    0    0  501    0  0.00000000000E+00  0.00000000000E+00  0.17159348086E+04  0.17159348086E+04  0.25500000920E-02 0. -1.
       -2   -1    0    0    0  501  0.00000000000E+00  0.00000000000E+00 -0.32010763950E+03  0.32010763951E+03  0.25500000920E-02 0.  1.
    10030    2    1    2    0    0  0.00000000000E+00  0.00000000000E+00  0.13958271691E+04  0.20360424481E+04  0.14822737144E+04 0.  0.
        1    1    3    3  502    0  0.30313654749E+02 -0.30103610659E+03 -0.23141413335E+03  0.38091226848E+03  0.50400001928E-02 0.  1.
       -1    1    3    3    0  502 -0.30313654749E+02  0.30103610659E+03  0.16272413024E+04  0.16551301796E+04  0.50400001928E-02 0. -1.
</event>
<event>
 5   0  0.4768387E-04  0.1476642E+04  0.7818609E-02  0.8900136E-01
       -2   -1    0    0    0  501  0.00000000000E+00  0.00000000000E+00  0.34302715732E+03  0.34302715733E+03  0.25500000920E-02 0. -1.
        2   -1    0    0  501    0  0.00000000000E+00  0.00000000000E+00 -0.15891397281E+04  0.15891397281E+04  0.25500000920E-02 0.  1.
    10030    2    1    2    0    0  0.00000000000E+00  0.00000000000E+00 -0.12461125708E+04  0.19321668855E+04  0.14766422499E+04 0.  0.
        3    1    3    3  502    0  0.29065690409E+03 -0.47000042500E+03  0.17616368541E+02  0.55289436788E+03  0.10100000352E+00 0. -1.
       -3    1    3    3    0  502 -0.29065690409E+03  0.47000042500E+03 -0.12637289394E+04  0.13792725176E+04  0.10100000352E+00 0.  1.
</event>
<event>
 5   0  0.2565416E-04  0.1501541E+04  0.7818609E-02  0.8883429E-01
        1   -1    0    0  501    0  0.00000000000E+00  0.00000000000E+00  0.68888654623E+03  0.68888654624E+03  0.50400001928E-02 0.  1.
       -1   -1    0    0    0  501  0.00000000000E+00  0.00000000000E+00 -0.81821382590E+03  0.81821382591E+03  0.50400001928E-02 0. -1.
    10030    2    1    2    0    0  0.00000000000E+00  0.00000000000E+00 -0.12932727967E+03  0.15071003722E+04  0.15015412037E+04 0.  0.
        5    1    3    3  502    0 -0.61831226008E+03  0.20092257383E+03  0.31216539421E+03  0.72121373738E+03  0.46999998093E+01 0.  1.
       -5    1    3    3    0  502  0.61831226008E+03 -0.20092257383E+03 -0.44149267388E+03  0.78588663478E+03  0.46999998093E+01 0. -1.
</event>
<event>
 5   0  0.2544374E-04  0.1500867E+04  0.7818609E-02  0.8883877E-01
       -1   -1    0    0    0  501  0.00000000000E+00  0.00000000000E+00  0.38439218329E+03  0.38439218332E+03  0.50400001928E-02 0. -1.
        1   -1    0    0  501    0  0.00000000000E+00  0.00000000000E+00 -0.14650403866E+04  0.14650403866E+04  0.50400001928E-02 0.  1.
    10030    2    1    2    0    0  0.00000000000E+00  0.00000000000E+00 -0.10806482033E+04  0.18494325700E+04  0.15008665135E+04 0.  0.
        4    1    3    3  502    0 -0.66185356977E+03 -0.32279312413E+03 -0.71847984231E+03  0.10288150687E+04  0.12699999809E+01 0.  1.
       -4    1    3    3    0  502  0.66185356977E+03  0.32279312413E+03 -0.36216836103E+03  0.82061750130E+03  0.12699999809E+01 0. -1.
</event>
<event>
 5   0  0.2603873E-04  0.1490704E+04  0.7818609E-02  0.8890658E-01
        1   -1    0    0  501    0  0.00000000000E+00  0.00000000000E+00  0.74447427162E+03  0.74447427163E+03  0.50400001928E-02 0. -1.
       -1   -1    0    0    0  501  0.00000000000E+00  0.00000000000E+00 -0.74623123867E+03  0.74623123869E+03  0.50400001928E-02 0.  1.
    10030    2    1    2    0    0  0.00000000000E+00  0.00000000000E+00 -0.17569670535E+01  0.14907055103E+04  0.14907044749E+04 0.  0.
        2    1    3    3  502    0  0.48231944041E+03 -0.14673319622E+02 -0.56894807192E+03  0.74602229019E+03  0.25500000920E-02 0.  1.
       -2    1    3    3    0  502 -0.48231944041E+03  0.14673319622E+02  0.56719110487E+03  0.74468322014E+03  0.25500000920E-02 0. -1.
</event>
<event>
 5   0  0.4785496E-04  0.1521622E+04  0.7818609E-02  0.8870200E-01
        2   -1    0    0  501    0  0.00000000000E+00  0.00000000000E+00  0.17561469198E+04  0.17561469198E+04  0.25500000920E-02 0. -1.
       -2   -1    0    0    0  501  0.00000000000E+00  0.00000000000E+00 -0.32960420358E+03  0.32960420359E+03  0.25500000920E-02 0.  1.
    10030    2    1    2    0    0  0.00000000000E+00  0.00000000000E+00  0.14265427162E+04  0.20857511234E+04  0.15216220383E+04 0.  0.
        4    1    3    3  502    0 -0.44147958856E+03  0.17937724319E+03  0.15262396294E+04  0.15989025742E+04  0.12699999809E+01 0. -1.
       -4    1    3    3    0  502  0.44147958856E+03 -0.17937724319E+03 -0.99696913157E+02  0.48684854923E+03  0.12699999809E+01 0.  1.
</event>
<event>
 5   0  0.4948645E-04  0.1496612E+04  0.7818609E-02  0.8886709E-01
        2   -1    0    0  501    0  0.00000000000E+00  0.00000000000E+00  0.21944640902E+04  0.21944640902E+04  0.25500000920E-02 0.  1.
       -2   -1    0    0    0  501  0.00000000000E+00  0.00000000000E+00 -0.25517034620E+03  0.25517034622E+03  0.25500000920E-02 0. -1.
    10030    2    1    2    0    0  0.00000000000E+00  0.00000000000E+00  0.19392937440E+04  0.24496344364E+04  0.14966123902E+04 0.  0.
        1    1    3    3  502    0  0.17347180836E+03 -0.12553253333E+02  0.21609215015E+04  0.21679095433E+04  0.50400001928E-02 0.  1.
       -1    1    3    3    0  502 -0.17347180836E+03  0.12553253333E+02 -0.22162775749E+03  0.28172489308E+03  0.50400001928E-02 0. -1.
</event>
<event>
 5   0  0.2542737E-04  0.1500039E+04  0.7818609E-02  0.8884427E-01
        1   -1    0    0  501    0  0.00000000000E+00  0.00000000000E+00  0.61109482639E+03  0.61109482641E+03  0.50400001928E-02 0. -1.
       -1   -1    0    0    0  501  0.00000000000E+00  0.00000000000E+00 -0.92052673475E+03  0.92052673476E+03  0.50400001928E-02 0.  1.
    10030    2    1    2    0    0  0.00000000000E+00  0.00000000000E+00 -0.30943190835E+03  0.15316215612E+04  0.15000388331E+04 0.  0.
        1    1    3    3  502    0  0.19756532658E+03  0.16645139950E+03 -0.87366529185E+03  0.91105936627E+03  0.50400001928E-02 0.  1.
       -1    1    3    3    0  502 -0.19756532658E+03 -0.16645139950E+03  0.56423338350E+03  0.62056219490E+03  0.50400001928E-02 0. -1.
</event>
<event>
 5   0  0.4569211E-04  0.1537222E+04  0.7818609E-02  0.8860071E-01
        2   -1    0    0  501    0  0.00000000000E+00  0.00000000000E+00  0.20561669660E+04  0.20561669660E+04  0.25500000920E-02 0. -1.
       -2   -1    0    0    0  501  0.00000000000E+00  0.00000000000E+00 -0.28731280820E+03  0.28731280821E+03  0.25500000920E-02 0.  1.
    10030    2    1    2    0    0  0.00000000000E+00  0.00000000000E+00  0.17688541578E+04  0.23434797742E+04  0.15372223068E+04 0.  0.
        5    1    3    3  502    0 -0.75683625140E+03  0.11499482201E+03  0.98911963089E+03  0.12507616299E+04  0.46999998093E+01 0. -1.
       -5    1    3    3    0  502  0.75683625140E+03 -0.11499482201E+03  0.77973452687E+03  0.10927181443E+04  0.46999998093E+01 0.  1.
</event>
<event>
 5   0  0.2544374E-04  0.1530039E+04  0.7818609E-02  0.8864720E-01
       -1   -1    0    0    0  501  0.00000000000E+00  0.00000000000E+00  0.13716803684E+04  0.13716803685E+04  0.50400001928E-02 0.  1.
        1   -1    0    0  501    0  0.00000000000E+00  0.00000000000E+00 -0.42666974463E+03  0.42666974466E+03  0.50400001928E-02 0. -1.
    10030    2    1    2    0    0  0.00000000000E+00  0.00000000000E+00  0.94501062381E+03  0.17983501131E+04  0.15300385780E+04 0.  0.
        4    1    3    3  502    0 -0.29484847884E+03  0.42948476371E+03 -0.18597065406E+03  0.55315412391E+03  0.12699999809E+01 0. -1.
       -4    1    3    3    0  502  0.29484847884E+03 -0.42948476371E+03  0.11309812779E+04  0.12451959892E+04  0.12699999809E+01 0.  1.
</event>
<event>
 5   0  0.2605471E-04  0.1505275E+04  0.7818609E-02  0.8880952E-01
        1   -1    0    0  501    0  0.00000000000E+00  0.00000000000E+00  0.16502191079E+04  0.16502191079E+04  0.50400001928E-02 0. -1.
       -1   -1    0    0    0  501  0.00000000000E+00  0.00000000000E+00 -0.34326565024E+03  0.34326565027E+03  0.50400001928E-02 0.  1.
    10030    2    1    2    0    0  0.00000000000E+00  0.00000000000E+00  0.13069534577E+04  0.19934847582E+04  0.15052754368E+04 0.  0.
        3    1    3    3  502    0 -0.17449918198E+03 -0.65609482978E+03  0.22321520350E+03  0.71465755957E+03  0.10100000352E+00 0.  1.
       -3    1    3    3    0  502  0.17449918198E+03  0.65609482978E+03  0.10837382542E+04  0.12788271986E+04  0.10100000352E+00 0. -1.
</event>
<event>
 5   0  0.1792000E-04  0.1488728E+04  0.7818609E-02  0.8891983E-01
       -3   -1    0    0    0  501  0.00000000000E+00  0.00000000000E+00  0.58704707198E+03  0.58704708067E+03  0.10100000352E+00 0. -1.
        3   -1    0    0  501    0  0.00000000000E+00  0.00000000000E+00 -0.94383897868E+03  0.94383898408E+03  0.10100000352E+00 0.  1.
    10030    2    1    2    0    0  0.00000000000E+00  0.00000000000E+00 -0.35679190669E+03  0.15308860648E+04  0.14887282084E+04 0.  0.
        3    1    3    3  502    0  0.40415546042E+03  0.62366375024E+03 -0.13501360674E+03  0.75533224065E+03  0.10100000352E+00 0. -1.
       -3    1    3    3    0  502 -0.40415546042E+03 -0.62366375024E+03 -0.22177829996E+03  0.77555382411E+03  0.10100000352E+00 0.  1.
</event>
<event>
 5   0  0.2603873E-04  0.1523234E+04  0.7818609E-02  0.8869148E-01
       -1   -1    0    0    0  501  0.00000000000E+00  0.00000000000E+00  0.85874709626E+03  0.85874709628E+03  0.50400001928E-02 0. -1.
        1   -1    0    0  501    0  0.00000000000E+00  0.00000000000E+00 -0.67547338124E+03  0.67547338126E+03  0.50400001928E-02 0.  1.
    10030    2    1    2    0    0  0.00000000000E+00  0.00000000000E+00  0.18327371502E+03  0.15342204775E+04  0.15232344597E+04 0.  0.
        2    1    3    3  502    0  0.32413081370E+03 -0.67131161970E+03 -0.65503528330E+02  0.74833868493E+03  0.25500000920E-02 0.  1.
       -2    1    3    3    0  502 -0.32413081370E+03  0.67131161970E+03  0.24877724335E+03  0.78588179261E+03  0.25500000920E-02 0. -1.
</event>
<event>
 5   0  0.4785496E-04  0.1408284E+04  0.7818609E-02  0.8947844E-01
       -2   -1    0    0    0  501  0.00000000000E+00  0.00000000000E+00  0.71281906219E+03  0.71281906219E+03  0.25500000920E-02 0. -1.
        2   -1    0    0  501    0  0.00000000000E+00  0.00000000000E+00 -0.69557008798E+03  0.69557008798E+03  0.25500000920E-02 0.  1.
    10030    2    1    2    0    0  0.00000000000E+00  0.00000000000E+00  0.17248974209E+02  0.14083891502E+04  0.14082835195E+04 0.  0.
        4    1    3    3  502    0 -0.41209425996E+03  0.26542137270E+03 -0.49692685269E+03  0.69800293266E+03  0.12699999809E+01 0.  1.
       -4    1    3    3    0  502  0.41209425996E+03 -0.26542137270E+03  0.51417582690E+03  0.71038621752E+03  0.12699999809E+01 0. -1.
</event>
<event>
 5   0  0.2542737E-04  0.1532995E+04  0.7818609E-02  0.8862803E-01
        1   -1    0    0  501    0  0.00000000000E+00  0.00000000000E+00  0.78587160770E+03  0.78587160771E+03  0.50400001928E-02 0. -1.
       -1   -1    0    0    0  501  0.00000000000E+00  0.00000000000E+00 -0.74760080897E+03  0.74760080898E+03  0.50400001928E-02 0.  1.
    10030    2    1    2    0    0  0.00000000000E+00  0.00000000000E+00  0.38270798732E+02  0.15334724167E+04  0.15329947811E+04 0.  0.
        1    1    3    3  502    0 -0.10364431934E+03 -0.91895634269E+01  0.77877417709E+03  0.78569447747E+03  0.50400001928E-02 0. -1.
       -1    1    3    3    0  502  0.10364431934E+03  0.91895634269E+01 -0.74050337836E+03  0.74777793922E+03  0.50400001928E-02 0.  1.
</event>
<event>
 5   0  0.2605471E-04  0.1487789E+04  0.7818609E-02  0.8892614E-01
       -1   -1    0    0    0  501  0.00000000000E+00  0.00000000000E+00  0.11817010012E+04  0.11817010012E+04  0.50400001928E-02 0. -1.
        1   -1    0    0  501    0  0.00000000000E+00  0.00000000000E+00 -0.46829053442E+03  0.46829053445E+03  0.50400001928E-02 0.  1.
    10030    2    1    2    0    0  0.00000000000E+00  0.00000000000E+00  0.71341046681E+03  0.16499915357E+04  0.14877894924E+04 0.  0.
        3    1    3    3  502    0 -0.69266525179E+03 -0.24996074126E+03  0.47362089461E+03  0.87554684925E+03  0.10100000352E+00 0. -1.
       -3    1    3    3    0  502  0.69266525179E+03  0.24996074126E+03  0.23978957220E+03  0.77444468644E+03  0.10100000352E+00 0.  1.
</event>
<event>
 5   0  0.4726600E-04  0.1471710E+04  0.7818609E-02  0.8903487E-01
       -2   -1    0    0    0  501  0.00000000000E+00  0.00000000000E+00  0.45642409377E+03  0.45642409378E+03  0.25500000920E-02 0.  1.
        2   -1    0    0  501    0  0.00000000000E+00  0.00000000000E+00 -0.11863581333E+04  0.11863581333E+04  0.25500000920E-02 0. -1.
    10030    2    1    2    0    0  0.00000000000E+00  0.00000000000E+00 -0.72993403949E+03  0.16427822270E+04  0.14717098027E+04 0.  0.
        2    1    3    3  502    0  0.57311161141E+03  0.34864816805E+03 -0.70256285884E+03  0.97139437658E+03  0.25500000920E-02 0.  1.
       -2    1    3    3    0  502 -0.57311161141E+03 -0.34864816805E+03 -0.27371180655E+02  0.67138785047E+03  0.25500000920E-02 0. -1.
</event>
<event>
 5   0  0.4785496E-04  0.1505919E+04  0.7818609E-02  0.8880526E-01
       -2   -1    0    0    0  501  0.00000000000E+00  0.00000000000E+00  0.70248174779E+03  0.70248174780E+03  0.25500000920E-02 0.  1.
        2   -1    0    0  501    0  0.00000000000E+00  0.00000000000E+00 -0.80706421549E+03  0.80706421550E+03  0.25500000920E-02 0. -1.
    10030    2    1    2    0    0  0.00000000000E+00  0.00000000000E+00 -0.10458246770E+03  0.15095459633E+04  0.15059188301E+04 0.  0.
        4    1    3    3  502    0  0.57096192566E+03 -0.46457387658E+03 -0.21116543816E+03  0.76577990475E+03  0.12699999809E+01 0. -1.
       -4    1    3    3    0  502 -0.57096192566E+03  0.46457387658E+03  0.10658297046E+03  0.74376605854E+03  0.12699999809E+01 0.  1.
</event>
<event>
 5   0  0.2565416E-04  0.1625800E+04  0.7818609E-02  0.8804853E-01
        1   -1    0    0  501    0  0.00000000000E+00  0.00000000000E+00  0.49283599065E+03  0.49283599068E+03  0.50400001928E-02 0. -1.
       -1   -1    0    0    0  501  0.00000000000E+00  0.00000000000E+00 -0.13408235977E+04  0.13408235977E+04  0.50400001928E-02 0.  1.
    10030    2    1    2    0    0  0.00000000000E+00  0.00000000000E+00 -0.84798760706E+03  0.18336595884E+04  0.16257996508E+04 0.  0.
        5    1    3    3  502    0 -0.38464823097E+02  0.44602111688E+03 -0.11892467906E+04  0.12707259336E+04  0.46999998093E+01 0.  1.
       -5    1    3    3    0  502  0.38464823097E+02 -0.44602111688E+03  0.34125918358E+03  0.56293365479E+03  0.46999998093E+01 0. -1.
</event>
<event>
 5   0  0.4785496E-04  0.1497163E+04  0.7818609E-02  0.8886342E-01
       -2   -1    0    0    0  501  0.00000000000E+00  0.00000000000E+00  0.19955646217E+03  0.19955646219E+03  0.25500000920E-02 0. -1.
        2   -1    0    0  501    0  0.00000000000E+00  0.00000000000E+00 -0.28080984897E+04  0.28080984897E+04  0.25500000920E-02 0.  1.
    10030    2    1    2    0    0  0.00000000000E+00  0.00000000000E+00 -0.26085420275E+04  0.30076549519E+04  0.14971629171E+04 0.  0.
        4    1    3    3  502    0  0.52205733148E+03 -0.28438587569E+03 -0.22181637721E+04  0.22964475427E+04  0.12699999809E+01 0.  1.
       -4    1    3    3    0  502 -0.52205733148E+03  0.28438587569E+03 -0.39037825538E+03  0.71120740914E+03  0.12699999809E+01 0. -1.
</event>
<event>
 5   0  0.2603873E-04  0.1492549E+04  0.7818609E-02  0.8889423E-01
       -1   -1    0    0    0  501  0.00000000000E+00  0.00000000000E+00  0.36622865520E+03  0.36622865524E+03  0.50400001928E-02 0.  1.
        1   -1    0    0  501    0  0.00000000000E+00  0.00000000000E+00 -0.15207050068E+04  0.15207050069E+04  0.50400001928E-02 0. -1.
    10030    2    1    2    0    0  0.00000000000E+00  0.00000000000E+00 -0.11544763516E+04  0.18869336621E+04  0.14925491612E+04 0.  0.
        2    1    3    3  502    0 -0.36725580526E+02  0.28460798697E+03  0.29368639172E+03  0.41061194722E+03  0.25500000920E-02 0.  1.
       -2    1    3    3    0  502  0.36725580526E+02 -0.28460798697E+03 -0.14481627434E+04  0.14763217149E+04  0.25500000920E-02 0. -1.
</event>
<event>
 5   0  0.4569211E-04  0.1507883E+04  0.7818609E-02  0.8879228E-01
        2   -1    0    0  501    0  0.00000000000E+00  0.00000000000E+00  0.10044557107E+04  0.10044557107E+04  0.25500000920E-02 0.  1.
       -2   -1    0    0    0  501  0.00000000000E+00  0.00000000000E+00 -0.56590635680E+03  0.56590635680E+03  0.25500000920E-02 0. -1.
    10030    2    1    2    0    0  0.00000000000E+00  0.00000000000E+00  0.43854935388E+03  0.15703620675E+04  0.15078831146E+04 0.  0.
        5    1    3    3  502    0 -0.23224819410E+02 -0.47876137627E+03 -0.38677773067E+03  0.61593096251E+03  0.46999998093E+01 0. -1.
       -5    1    3    3    0  502  0.23224819410E+02  0.47876137627E+03  0.82532708455E+03  0.95443110497E+03  0.46999998093E+01 0.  1.
</event>
<event>
 5   0  0.2603873E-04  0.1537201E+04  0.7818609E-02  0.8860084E-01
       -1   -1    0    0    0  501  0.00000000000E+00  0.00000000000E+00  0.28213461262E+03  0.28213461266E+03  0.50400001928E-02 0.  1.
        1   -1    0    0  501    0  0.00000000000E+00  0.00000000000E+00 -0.20938479543E+04  0.20938479543E+04  0.50400001928E-02 0. -1.
    10030    2    1    2    0    0  0.00000000000E+00  0.00000000000E+00 -0.18117133417E+04  0.23759825669E+04  0.15372013291E+04 0.  0.
        2    1    3    3  502    0  0.40755952085E+03 -0.32620826216E+03 -0.17777900887E+04  0.18528502888E+04  0.25500000920E-02 0. -1.
       -2    1    3    3    0  502 -0.40755952085E+03  0.32620826216E+03 -0.33923252998E+02  0.52313227815E+03  0.25500000920E-02 0.  1.
</event>
<event>
 5   0  0.4768387E-04  0.1506488E+04  0.7818609E-02  0.8880150E-01
        2   -1    0    0  501    0  0.00000000000E+00  0.00000000000E+00  0.14640677131E+04  0.14640677131E+04  0.25500000920E-02 0. -1.
       -2   -1    0    0    0  501  0.00000000000E+00  0.00000000000E+00 -0.38753446682E+03  0.38753446683E+03  0.25500000920E-02 0.  1.
    10030    2    1    2    0    0  0.00000000000E+00  0.00000000000E+00  0.10765332463E+04  0.18516021799E+04  0.15064882350E+04 0.  0.
        3    1    3    3  502    0  0.47401557125E+03 -0.22277477887E+03  0.12036289859E+04  0.13126469859E+04  0.10100000352E+00 0. -1.
       -3    1    3    3    0  502 -0.47401557125E+03  0.22277477887E+03 -0.12709573959E+03  0.53895519398E+03  0.10100000352E+00 0.  1.
</event>
<event>
 5   0  0.1792000E-04  0.1509278E+04  0.7818609E-02  0.8878306E-01
       -4   -1    0    0    0  501  0.00000000000E+00  0.00000000000E+00  0.32211145291E+03  0.32211395653E+03  0.12699999809E+01 0. -1.
        4   -1    0    0  501    0  0.00000000000E+00  0.00000000000E+00 -0.17679502427E+04  0.17679506988E+04  0.12699999809E+01 0.  1.
    10030    2    1    2    0    0  0.00000000000E+00  0.00000000000E+00 -0.14458387898E+04  0.20900646554E+04  0.15092781247E+04 0.  0.
        2    1    3    3  502    0 -0.54572171786E+03 -0.19401995524E+03 -0.13928361005E+04  0.15084589286E+04  0.25500000920E-02 0.  1.
       -2    1    3    3    0  502  0.54572171786E+03  0.19401995524E+03 -0.53002689301E+02  0.58160572680E+03  0.25500000920E-02 0. -1.
</event>
<event>
 5   0  0.4726600E-04  0.1493406E+04  0.7818609E-02  0.8888850E-01
        2   -1    0    0  501    0  0.00000000000E+00  0.00000000000E+00  0.69406321581E+03  0.69406321581E+03  0.25500000920E-02 0.  1.
       -2   -1    0    0    0  501  0.00000000000E+00  0.00000000000E+00 -0.80333479861E+03  0.80333479862E+03  0.25500000920E-02 0. -1.
    10030    2    1    2    0    0  0.00000000000E+00  0.00000000000E+00 -0.10927158281E+03  0.14973980144E+04  0.14934056833E+04 0.  0.
        2    1    3    3  502    0  0.16570190131E+03  0.67233859074E+02  0.67227650838E+03  0.69565308569E+03  0.25500000920E-02 0.  1.
       -2    1    3    3    0  502 -0.16570190131E+03 -0.67233859074E+02 -0.78154809119E+03  0.80174492873E+03  0.25500000920E-02 0. -1.
</event>
<event>
 5   0  0.1792000E-04  0.1496331E+04  0.7818609E-02  0.8886896E-01
        3   -1    0    0  501    0  0.00000000000E+00  0.00000000000E+00  0.10171327637E+04  0.10171327687E+04  0.10100000352E+00 0.  1.
       -3   -1    0    0    0  501  0.00000000000E+00  0.00000000000E+00 -0.55032305643E+03  0.55032306570E+03  0.10100000352E+00 0. -1.
    10030    2    1    2    0    0  0.00000000000E+00  0.00000000000E+00  0.46680970727E+03  0.15674558344E+04  0.14963310095E+04 0.  0.
        2    1    3    3  502    0 -0.64118179054E+03  0.28870178525E+03 -0.34257334227E+02  0.70401447022E+03  0.25500000920E-02 0. -1.
       -2    1    3    3    0  502  0.64118179054E+03 -0.28870178525E+03  0.50106704149E+03  0.86344136419E+03  0.25500000920E-02 0.  1.
</event>
<event>
 5   0  0.4785496E-04  0.1487344E+04  0.7818609E-02  0.8892913E-01
        2   -1    0    0  501    0  0.00000000000E+00  0.00000000000E+00  0.22383807795E+03  0.22383807797E+03  0.25500000920E-02 0.  1.
       -2   -1    0    0    0  501  0.00000000000E+00  0.00000000000E+00 -0.24707495868E+04  0.24707495868E+04  0.25500000920E-02 0. -1.
    10030    2    1    2    0    0  0.00000000000E+00  0.00000000000E+00 -0.22469115088E+04  0.26945876647E+04  0.14873437244E+04 0.  0.
        4    1    3    3  502    0 -0.40304235805E+03  0.60333200416E+03 -0.82801572161E+03  0.11009379173E+04  0.12699999809E+01 0. -1.
       -4    1    3    3    0  502  0.40304235805E+03 -0.60333200416E+03 -0.14188957872E+04  0.15936497474E+04  0.12699999809E+01 0.  1.
</event>
<event>
 5   0  0.4569211E-04  0.1501456E+04  0.7818609E-02  0.8883485E-01
        2   -1    0    0  501    0  0.00000000000E+00  0.00000000000E+00  0.99223868801E+03  0.99223868802E+03  0.25500000920E-02 0. -1.
       -2   -1    0    0    0  501  0.00000000000E+00  0.00000000000E+00 -0.56800095846E+03  0.56800095846E+03  0.25500000920E-02 0.  1.
    10030    2    1    2    0    0  0.00000000000E+00  0.00000000000E+00  0.42423772955E+03  0.15602396465E+04  0.15014559945E+04 0.  0.
        5    1    3    3  502    0  0.10394958014E+03  0.52051547231E+03  0.76377849609E+03  0.93011910701E+03  0.46999998093E+01 0. -1.
       -5    1    3    3    0  502 -0.10394958014E+03 -0.52051547231E+03 -0.33954076654E+03  0.63012053948E+03  0.46999998093E+01 0.  1.
</event>
<event>
 5   0  0.2544374E-04  0.1483564E+04  0.7818609E-02  0.8895457E-01
       -1   -1    0    0    0  501  0.00000000000E+00  0.00000000000E+00  0.26633146870E+03  0.26633146875E+03  0.50400001928E-02 0. -1.
        1   -1    0    0  501    0  0.00000000000E+00  0.00000000000E+00 -0.20660001568E+04  0.20660001569E+04  0.50400001928E-02 0.  1.
    10030    2    1    2    0    0  0.00000000000E+00  0.00000000000E+00 -0.17996686881E+04  0.23323316256E+04  0.14835644323E+04 0.  0.
        4    1    3    3  502    0  0.62057503639E+03 -0.31219362722E+03 -0.49090044286E+03  0.85062511976E+03  0.12699999809E+01 0.  1.
       -4    1    3    3    0  502 -0.62057503639E+03  0.31219362722E+03 -0.13087682453E+04  0.14817065058E+04  0.12699999809E+01 0. -1.
</event>
<event>
 5   0  0.1792000E-04  0.1486849E+04  0.7818609E-02  0.8893246E-01
       -4   -1    0    0    0  501  0.00000000000E+00  0.00000000000E+00  0.75374743554E+03  0.75374850546E+03  0.12699999809E+01 0.  1.
        4   -1    0    0  501    0  0.00000000000E+00  0.00000000000E+00 -0.73324043431E+03  0.73324153415E+03  0.12699999809E+01 0. -1.
    10030    2    1    2    0    0  0.00000000000E+00  0.00000000000E+00  0.20507001224E+02  0.14869900396E+04  0.14868486274E+04 0.  0.
        1    1    3    3  502    0 -0.32091381571E+03 -0.54989504695E+03  0.39409916302E+03  0.74878861509E+03  0.50400001928E-02 0. -1.
       -1    1    3    3    0  502  0.32091381571E+03  0.54989504695E+03 -0.37359216180E+03  0.73820142452E+03  0.50400001928E-02 0.  1.
</event>
<event>
 5   0  0.4569211E-04  0.1491236E+04  0.7818609E-02  0.8890302E-01
        2   -1    0    0  501    0  0.00000000000E+00  0.00000000000E+00  0.75286775479E+03  0.75286775480E+03  0.25500000920E-02 0. -1.
       -2   -1    0    0    0  501  0.00000000000E+00  0.00000000000E+00 -0.73843786248E+03  0.73843786248E+03  0.25500000920E-02 0.  1.
    10030    2    1    2    0    0  0.00000000000E+00  0.00000000000E+00  0.14429892310E+02  0.14913056173E+04  0.14912358037E+04 0.  0.
        5    1    3    3  502    0  0.29880182332E+03 -0.10843116316E+03  0.68169749703E+03  0.75217911047E+03  0.46999998093E+01 0.  1.
       -5    1    3    3    0  502 -0.29880182332E+03  0.10843116316E+03 -0.66726760472E+03  0.73912650681E+03  0.46999998093E+01 0. -1.
</event>
<event>
 5   0  0.2605471E-04  0.1505760E+04  0.7818609E-02  0.8880632E-01
       -1   -1    0    0    0  501  0.00000000000E+00  0.00000000000E+00  0.62885848799E+03  0.62885848801E+03  0.50400001928E-02 0. -1.
        1   -1    0    0  501    0  0.00000000000E+00  0.00000000000E+00 -0.90136066296E+03  0.90136066298E+03  0.50400001928E-02 0.  1.
    10030    2    1    2    0    0  0.00000000000E+00  0.00000000000E+00 -0.27250217497E+03  0.15302191510E+04  0.15057600123E+04 0.  0.
        3    1    3    3  502    0  0.26500864054E+03  0.37966410907E+03  0.46707071537E+03  0.65766973371E+03  0.10100000352E+00 0. -1.
       -3    1    3    3    0  502 -0.26500864054E+03 -0.37966410907E+03 -0.73957289034E+03  0.87254941728E+03  0.10100000352E+00 0.  1.
</event>
<event>
 5   0  0.4948645E-04  0.1495264E+04  0.7818609E-02  0.8887608E-01
        2   -1    0    0  501    0  0.00000000000E+00  0.00000000000E+00  0.95345135611E+03  0.95345135611E+03  0.25500000920E-02 0.  1.
       -2   -1    0    0    0  501  0.00000000000E+00  0.00000000000E+00 -0.58624267137E+03  0.58624267138E+03  0.25500000920E-02 0. -1.
    10030    2    1    2    0    0  0.00000000000E+00  0.00000000000E+00  0.36720868473E+03  0.15396940275E+04  0.14952643513E+04 0.  0.
        1    1    3    3  502    0  0.18213711584E+03  0.11528392161E+03  0.92075958144E+03  0.94565454495E+03  0.50400001928E-02 0.  1.
       -1    1    3    3    0  502 -0.18213711584E+03 -0.11528392161E+03 -0.55355089670E+03  0.59403948254E+03  0.50400001928E-02 0. -1.
</event>
<event>
 5   0  0.2542737E-04  0.1503256E+04  0.7818609E-02  0.8882290E-01
        1   -1    0    0  501    0  0.00000000000E+00  0.00000000000E+00  0.65902618691E+03  0.65902618693E+03  0.50400001928E-02 0.  1.
       -1   -1    0    0    0  501  0.00000000000E+00  0.00000000000E+00 -0.85724177429E+03  0.85724177431E+03  0.50400001928E-02 0. -1.
    10030    2    1    2    0    0  0.00000000000E+00  0.00000000000E+00 -0.19821558738E+03  0.15162679612E+04  0.15032561695E+04 0.  0.
        1    1    3    3  502    0 -0.37800274911E+03  0.60515278868E+03  0.13926127159E+03  0.72697295533E+03  0.50400001928E-02 0.  1.
       -1    1    3    3    0  502  0.37800274911E+03 -0.60515278868E+03 -0.33747685897E+03  0.78929500591E+03  0.50400001928E-02 0. -1.
</event>
<event>
 5   0  0.4948645E-04  0.1502832E+04  0.7818609E-02  0.8882572E-01
       -2   -1    0    0    0  501  0.00000000000E+00  0.00000000000E+00  0.19705143400E+03  0.19705143402E+03  0.25500000920E-02 0. -1.
        2   -1    0    0  501    0  0.00000000000E+00  0.00000000000E+00 -0.28653727119E+04  0.28653727119E+04  0.25500000920E-02 0.  1.
    10030    2    1    2    0    0  0.00000000000E+00  0.00000000000E+00 -0.26683212779E+04  0.30624241460E+04  0.15028317296E+04 0.  0.
        1    1    3    3  502    0  0.34226202673E+03  0.19621634870E+03 -0.30973166014E+02  0.39573158514E+03  0.50400001928E-02 0. -1.
       -1    1    3    3    0  502 -0.34226202673E+03 -0.19621634870E+03 -0.26373481119E+04  0.26666925608E+04  0.50400001928E-02 0.  1.
</event>
<event>
 5   0  0.4948645E-04  0.1517648E+04  0.7818609E-02  0.8872801E-01
       -2   -1    0    0    0  501  0.00000000000E+00  0.00000000000E+00  0.84771669464E+03  0.84771669465E+03  0.25500000920E-02 0.  1.
        2   -1    0    0  501    0  0.00000000000E+00  0.00000000000E+00 -0.67925274100E+03  0.67925274100E+03  0.25500000920E-02 0. -1.
    10030    2    1    2    0    0  0.00000000000E+00  0.00000000000E+00  0.16846395365E+03  0.15269694356E+04  0.15176480335E+04 0.  0.
        1    1    3    3  502    0 -0.74947897985E+03 -0.19113084837E+02  0.20212605031E+03  0.77649146260E+03  0.50400001928E-02 0.  1.
       -1    1    3    3    0  502  0.74947897985E+03  0.19113084837E+02 -0.33662096658E+02  0.75047797305E+03  0.50400001928E-02 0. -1.
</event>
<event>
 5   0  0.4569211E-04  0.1504141E+04  0.7818609E-02  0.8881704E-01
        2   -1    0    0  501    0  0.00000000000E+00  0.00000000000E+00  0.76976514537E+03  0.76976514537E+03  0.25500000920E-02 0. -1.
       -2   -1    0    0    0  501  0.00000000000E+00  0.00000000000E+00 -0.73478265431E+03  0.73478265432E+03  0.25500000920E-02 0.  1.
    10030    2    1    2    0    0  0.00000000000E+00  0.00000000000E+00  0.34982491056E+02  0.15045477997E+04  0.15041410528E+04 0.  0.
        5    1    3    3  502    0 -0.43075535349E+02 -0.74579622702E+03  0.10423535560E+03  0.75429080157E+03  0.46999998093E+01 0.  1.
       -5    1    3    3    0  502  0.43075535349E+02  0.74579622702E+03 -0.69252864547E+02  0.75025699812E+03  0.46999998093E+01 0. -1.
</event>
<event>
 5   0  0.4768387E-04  0.1515410E+04  0.7818609E-02  0.8874270E-01
       -2   -1    0    0    0  501  0.00000000000E+00  0.00000000000E+00  0.45978055122E+03  0.45978055123E+03  0.25500000920E-02 0. -1.
        2   -1    0    0  501    0  0.00000000000E+00  0.00000000000E+00 -0.12486755514E+04  0.12486755514E+04  0.25500000920E-02 0.  1.
    10030    2    1    2    0    0  0.00000000000E+00  0.00000000000E+00 -0.78889500020E+03  0.17084561027E+04  0.15154098236E+04 0.  0.
        3    1    3    3  502    0 -0.30843908137E+02  0.15749594575E+03  0.44039926736E+03  0.46873003369E+03  0.10100000352E+00 0. -1.
       -3    1    3    3    0  502  0.30843908137E+02 -0.15749594575E+03 -0.12292942676E+04  0.12397260690E+04  0.10100000352E+00 0.  1.
</event>
<event>
 5   0  0.2603873E-04  0.1514389E+04  0.7818609E-02  0.8874940E-01
        1   -1    0    0  501    0  0.00000000000E+00  0.00000000000E+00  0.49375721056E+03  0.49375721058E+03  0.50400001928E-02 0.  1.
       -1   -1    0    0    0  501  0.00000000000E+00  0.00000000000E+00 -0.11611849028E+04  0.11611849028E+04  0.50400001928E-02 0. -1.
    10030    2    1    2    0    0  0.00000000000E+00  0.00000000000E+00 -0.66742769226E+03  0.16549421134E+04  0.15143888782E+04 0.  0.
        2    1    3    3  502    0 -0.57609412634E+03 -0.39183140736E+03 -0.96677221008E+01  0.69678530341E+03  0.25500000920E-02 0.  1.
       -2    1    3    3    0  502  0.57609412634E+03  0.39183140736E+03 -0.65775997016E+03  0.95815681000E+03  0.25500000920E-02 0. -1.
</event>
<event>
 5   0  0.2605471E-04  0.1542264E+04  0.7818609E-02  0.8856824E-01
        1   -1    0    0  501    0  0.00000000000E+00  0.00000000000E+00  0.11639030539E+04  0.11639030539E+04  0.50400001928E-02 0.  1.
       -1   -1    0    0    0  501  0.00000000000E+00  0.00000000000E+00 -0.51090543945E+03  0.51090543948E+03  0.50400001928E-02 0. -1.
    10030    2    1    2    0    0  0.00000000000E+00  0.00000000000E+00  0.65299761445E+03  0.16748084934E+04  0.15422637923E+04 0.  0.
        3    1    3    3  502    0 -0.30695152805E+03  0.27366244434E+03  0.10348907835E+04  0.11136019567E+04  0.10100000352E+00 0.  1.
       -3    1    3    3    0  502  0.30695152805E+03 -0.27366244434E+03 -0.38189316907E+03  0.56120653667E+03  0.10100000352E+00 0. -1.
</event>
<event>
 5   0  0.1792000E-04  0.1498494E+04  0.7818609E-02  0.8885455E-01
       -3   -1    0    0    0  501  0.00000000000E+00  0.00000000000E+00  0.25818850632E+03  0.25818852608E+03  0.10100000352E+00 0.  1.
        3   -1    0    0  501    0  0.00000000000E+00  0.00000000000E+00 -0.21742685986E+04  0.21742686009E+04  0.10100000352E+00 0. -1.
    10030    2    1    2    0    0  0.00000000000E+00  0.00000000000E+00 -0.19160800922E+04  0.24324571270E+04  0.14984941624E+04 0.  0.
        4    1    3    3  502    0  0.22812012611E+02  0.42741714931E+03  0.40188758209E+02  0.42990994013E+03  0.12699999809E+01 0.  1.
       -4    1    3    3    0  502 -0.22812012611E+02 -0.42741714931E+03 -0.19562688504E+04  0.20025471868E+04  0.12699999809E+01 0. -1.
</event>
<event>
 5   0  0.2603873E-04  0.1471442E+04  0.7818609E-02  0.8903669E-01
       -1   -1    0    0    0  501  0.00000000000E+00  0.00000000000E+00  0.80133564733E+03  0.80133564734E+03  0.50400001928E-02 0.  1.
        1   -1    0    0  501    0  0.00000000000E+00  0.00000000000E+00 -0.67547929376E+03  0.67547929378E+03  0.50400001928E-02 0. -1.
    10030    2    1    2    0    0  0.00000000000E+00  0.00000000000E+00  0.12585635356E+03  0.14768149411E+04  0.14714423361E+04 0.  0.
        2    1    3    3  502    0 -0.41495279321E+03 -0.12036932400E+03 -0.53473838379E+03  0.68747344229E+03  0.25500000920E-02 0. -1.
       -2    1    3    3    0  502  0.41495279321E+03  0.12036932400E+03  0.66059473735E+03  0.78934149883E+03  0.25500000920E-02 0.  1.
</event>
<event>
 5   0  0.2542737E-04  0.1497577E+04  0.7818609E-02  0.8886066E-01
        1   -1    0    0  501    0  0.00000000000E+00  0.00000000000E+00  0.11672064831E+04  0.11672064831E+04  0.50400001928E-02 0.  1.
       -1   -1    0    0    0  501  0.00000000000E+00  0.00000000000E+00 -0.48036445470E+03  0.48036445473E+03  0.50400001928E-02 0. -1.
    10030    2    1    2    0    0  0.00000000000E+00  0.00000000000E+00  0.68684202842E+03  0.16475709379E+04  0.14975773847E+04 0.  0.
        1    1    3    3  502    0  0.30021855294E+03  0.64483025858E+03  0.60083732343E+03  0.93109759487E+03  0.50400001928E-02 0.  1.
       -1    1    3    3    0  502 -0.30021855294E+03 -0.64483025858E+03  0.86004704987E+02  0.71647334299E+03  0.50400001928E-02 0. -1.
</event>
<event>
 5   0  0.4785496E-04  0.1517616E+04  0.7818609E-02  0.8872822E-01
        2   -1    0    0  501    0  0.00000000000E+00  0.00000000000E+00  0.66374874174E+03  0.66374874174E+03  0.25500000920E-02 0.  1.
       -2   -1    0    0    0  501  0.00000000000E+00  0.00000000000E+00 -0.86748161339E+03  0.86748161339E+03  0.25500000920E-02 0. -1.
    10030    2    1    2    0    0  0.00000000000E+00  0.00000000000E+00 -0.20373287165E+03  0.15312303551E+04  0.15176163275E+04 0.  0.
        4    1    3    3  502    0 -0.16834345284E+03  0.57555802444E+03 -0.57099077125E+03  0.82803298930E+03  0.12699999809E+01 0. -1.
       -4    1    3    3    0  502  0.16834345284E+03 -0.57555802444E+03  0.36725789960E+03  0.70319736584E+03  0.12699999809E+01 0.  1.
</event>
<event>
 5   0  0.2605471E-04  0.1501057E+04  0.7818609E-02  0.8883751E-01
       -1   -1    0    0    0  501  0.00000000000E+00  0.00000000000E+00  0.10608875941E+04  0.10608875941E+04  0.50400001928E-02 0.  1.
        1   -1    0    0  501    0  0.00000000000E+00  0.00000000000E+00 -0.53096363811E+03  0.53096363814E+03  0.50400001928E-02 0. -1.
    10030    2    1    2    0    0  0.00000000000E+00  0.00000000000E+00  0.52992395601E+03  0.15918512323E+04  0.15010566100E+04 0.  0.
        3    1    3    3  502    0 -0.52301534990E+03 -0.21297471638E+03  0.78922185964E+03  0.97045063758E+03  0.10100000352E+00 0.  1.
       -3    1    3    3    0  502  0.52301534990E+03  0.21297471638E+03 -0.25929790363E+03  0.62140059469E+03  0.10100000352E+00 0. -1.
</event>
<event>
 5   0  0.4726600E-04  0.1471266E+04  0.7818609E-02  0.8903789E-01
        2   -1    0    0  501    0  0.00000000000E+00  0.00000000000E+00  0.10836973375E+04  0.10836973375E+04  0.25500000920E-02 0. -1.
       -2   -1    0    0    0  501  0.00000000000E+00  0.00000000000E+00 -0.49936047096E+03  0.49936047097E+03  0.25500000920E-02 0.  1.
    10030    2    1    2    0    0  0.00000000000E+00  0.00000000000E+00  0.58433686656E+03  0.15830578085E+04  0.14712655951E+04 0.  0.
        2    1    3    3  502    0  0.27151861118E+03  0.63182729172E+03  0.11117184260E+02  0.68778752139E+03  0.25500000920E-02 0.  1.
       -2    1    3    3    0  502 -0.27151861118E+03 -0.63182729172E+03  0.57321968230E+03  0.89527028710E+03  0.25500000920E-02 0. -1.
</event>
<event>
 5   0  0.2565416E-04  0.1463371E+04  0.7818609E-02  0.8909183E-01
        1   -1    0    0  501    0  0.00000000000E+00  0.00000000000E+00  0.97290705596E+03  0.97290705597E+03  0.50400001928E-02 0. -1.
       -1   -1    0    0    0  501  0.00000000000E+00  0.00000000000E+00 -0.55027218029E+03  0.55027218032E+03  0.50400001928E-02 0.  1.
    10030    2    1    2    0    0  0.00000000000E+00  0.00000000000E+00  0.42263487567E+03  0.15231792363E+04  0.14633710219E+04 0.  0.
        5    1    3    3  502    0 -0.31544682926E+03  0.20895917481E+03  0.86314733281E+03  0.94245214572E+03  0.46999998093E+01 0. -1.
       -5    1    3    3    0  502  0.31544682926E+03 -0.20895917481E+03 -0.44051245714E+03  0.58072709057E+03  0.46999998093E+01 0.  1.
</event>
<event>
 5   0  0.4785496E-04  0.1510287E+04  0.7818609E-02  0.8877641E-01
       -2   -1    0    0    0  501  0.00000000000E+00  0.00000000000E+00  0.34622511197E+03  0.34622511198E+03  0.25500000920E-02 0. -1.
        2   -1    0    0  501    0  0.00000000000E+00  0.00000000000E+00 -0.16470258650E+04  0.16470258650E+04  0.25500000920E-02 0.  1.
    10030    2    1    2    0    0  0.00000000000E+00  0.00000000000E+00 -0.13008007530E+04  0.19932509770E+04  0.15102870119E+04 0.  0.
        4    1    3    3  502    0  0.54341042006E+03  0.32324039180E+03 -0.10550284126E+03  0.64102394490E+03  0.12699999809E+01 0. -1.
       -4    1    3    3    0  502 -0.54341042006E+03 -0.32324039180E+03 -0.11952979118E+04  0.13522270321E+04  0.12699999809E+01 0.  1.
</event>
<event>
 5   0  0.4948645E-04  0.1511634E+04  0.7818609E-02  0.8876753E-01
       -2   -1    0    0    0  501  0.00000000000E+00  0.00000000000E+00  0.51511608849E+03  0.51511608850E+03  0.25500000920E-02 0.  1.
        2   -1    0    0  501    0  0.00000000000E+00  0.00000000000E+00 -0.11089917407E+04  0.11089917407E+04  0.25500000920E-02 0. -1.
    10030    2    1    2    0    0  0.00000000000E+00  0.00000000000E+00 -0.59387565223E+03  0.16241078292E+04  0.15116341987E+04 0.  0.
        1    1    3    3  502    0  0.50519459236E+03 -0.47232284869E+03  0.30621976768E+02  0.69227751302E+03  0.50400001928E-02 0. -1.
       -1    1    3    3    0  502 -0.50519459236E+03  0.47232284869E+03 -0.62449762899E+03  0.93183031620E+03  0.50400001928E-02 0.  1.
</event>
<event>
 5   0  0.4948645E-04  0.1498341E+04  0.7818609E-02  0.8885557E-01
        2   -1    0    0  501    0  0.00000000000E+00  0.00000000000E+00  0.18117876394E+04  0.18117876394E+04  0.25500000920E-02 0. -1.
       -2   -1    0    0    0  501  0.00000000000E+00  0.00000000000E+00 -0.30978057915E+03  0.30978057916E+03  0.25500000920E-02 0.  1.
    10030    2    1    2    0    0  0.00000000000E+00  0.00000000000E+00  0.15020070603E+04  0.21215682186E+04  0.14983412485E+04 0.  0.
        1    1    3    3  502    0 -0.28789303274E+02 -0.72743818657E+03  0.10013555313E+04  0.12380258637E+04  0.50400001928E-02 0. -1.
       -1    1    3    3    0  502  0.28789303274E+02  0.72743818657E+03  0.50065152901E+03  0.88354235484E+03  0.50400001928E-02 0.  1.
</event>
<event>
 5   0  0.2544374E-04  0.1541736E+04  0.7818609E-02  0.8857164E-01
        1   -1    0    0  501    0  0.00000000000E+00  0.00000000000E+00  0.13880297477E+04  0.13880297477E+04  0.50400001928E-02 0. -1.
       -1   -1    0    0    0  501  0.00000000000E+00  0.00000000000E+00 -0.42811558357E+03  0.42811558360E+03  0.50400001928E-02 0.  1.
    10030    2    1    2    0    0  0.00000000000E+00  0.00000000000E+00  0.95991416414E+03  0.18161453313E+04  0.15417356005E+04 0.  0.
        4    1    3    3  502    0  0.73030240422E+03 -0.40429481195E+02  0.19319656678E+03  0.75650688752E+03  0.12699999809E+01 0.  1.
       -4    1    3    3    0  502 -0.73030240422E+03  0.40429481195E+02  0.76671759736E+03  0.10596384438E+04  0.12699999809E+01 0. -1.
</event>
<event>
 5   0  0.4785496E-04  0.1503590E+04  0.7818609E-02  0.8882069E-01
        2   -1    0    0  501    0  0.00000000000E+00  0.00000000000E+00  0.12950895086E+04  0.12950895086E+04  0.25500000920E-02 0.  1.
       -2   -1    0    0    0  501  0.00000000000E+00  0.00000000000E+00 -0.43641423970E+03  0.43641423970E+03  0.25500000920E-02 0. -1.
    10030    2    1    2    0    0  0.00000000000E+00  0.00000000000E+00  0.85867526886E+03  0.17315037483E+04  0.15035897090E+04 0.  0.
        4    1    3    3  502    0 -0.19901991367E+03 -0.46126352003E+03  0.10734208656E+04  0.11851611404E+04  0.12699999809E+01 0.  1.
       -4    1    3    3    0  502  0.19901991367E+03  0.46126352003E+03 -0.21474559679E+03  0.54634260788E+03  0.12699999809E+01 0. -1.
</event>
<event>
 5   0  0.4785496E-04  0.1518364E+04  0.7818609E-02  0.8872332E-01
       -2   -1    0    0    0  501  0.00000000000E+00  0.00000000000E+00  0.55674707944E+03  0.55674707945E+03  0.25500000920E-02 0. -1.
        2   -1    0    0  501    0  0.00000000000E+00  0.00000000000E+00 -0.10352230923E+04  0.10352230923E+04  0.25500000920E-02 0.  1.
    10030    2    1    2    0    0  0.00000000000E+00  0.00000000000E+00 -0.47847601283E+03  0.15919701717E+04  0.15183641634E+04 0.  0.
        4    1    3    3  502    0 -0.29413883781E+03  0.46723738689E+03 -0.78558153440E+03  0.96019185151E+03  0.12699999809E+01 0.  1.
       -4    1    3    3    0  502  0.29413883781E+03 -0.46723738689E+03  0.30710552157E+03  0.63177832021E+03  0.12699999809E+01 0. -1.
</event>
<event>
 5   0  0.1792000E-04  0.1487509E+04  0.7818609E-02  0.8892802E-01
        4   -1    0    0  501    0  0.00000000000E+00  0.00000000000E+00  0.60196199625E+03  0.60196333595E+03  0.12699999809E+01 0.  1.
       -4   -1    0    0    0  501  0.00000000000E+00  0.00000000000E+00 -0.91894325039E+03  0.91894412797E+03  0.12699999809E+01 0. -1.
    10030    2    1    2    0    0  0.00000000000E+00  0.00000000000E+00 -0.31698125414E+03  0.15209074639E+04  0.14875087893E+04 0.  0.
        3    1    3    3  502    0  0.35311857407E+03 -0.32183818529E+03 -0.74128694517E+03  0.88191773434E+03  0.10100000352E+00 0. -1.
       -3    1    3    3    0  502 -0.35311857407E+03  0.32183818529E+03  0.42430569103E+03  0.63898972958E+03  0.10100000352E+00 0.  1.
</event>
<event>
 5   0  0.4785496E-04  0.1563681E+04  0.7818609E-02  0.8843176E-01
       -2   -1    0    0    0  501  0.00000000000E+00  0.00000000000E+00  0.31957855037E+03  0.31957855038E+03  0.25500000920E-02 0.  1.
        2   -1    0    0  501    0  0.00000000000E+00  0.00000000000E+00 -0.19127523867E+04  0.19127523867E+04  0.25500000920E-02 0. -1.
    10030    2    1    2    0    0  0.00000000000E+00  0.00000000000E+00 -0.15931738363E+04  0.22323309370E+04  0.15636810864E+04 0.  0.
        4    1    3    3  502    0 -0.16616852770E+03 -0.31976876893E+03 -0.17871165842E+04  0.18230884081E+04  0.12699999809E+01 0. -1.
       -4    1    3    3    0  502  0.16616852770E+03  0.31976876893E+03  0.19394274789E+03  0.40924252900E+03  0.12699999809E+01 0.  1.
</event>
<event>
 5   0  0.2605471E-04  0.1536706E+04  0.7818609E-02  0.8860404E-01
        1   -1    0    0  501    0  0.00000000000E+00  0.00000000000E+00  0.28870346575E+03  0.28870346579E+03  0.50400001928E-02 0. -1.
       -1   -1    0    0    0  501  0.00000000000E+00  0.00000000000E+00 -0.20448882149E+04  0.20448882150E+04  0.50400001928E-02 0.  1.
    10030    2    1    2    0    0  0.00000000000E+00  0.00000000000E+00 -0.17561847492E+04  0.23335916807E+04  0.15367059768E+04 0.  0.
        3    1    3    3  502    0 -0.32166208810E+03  0.14080353949E+02  0.18132100100E+03  0.36951599545E+03  0.10100000352E+00 0. -1.
       -3    1    3    3    0  502  0.32166208810E+03 -0.14080353949E+02 -0.19375057502E+04  0.19640756853E+04  0.10100000352E+00 0.  1.
</event>
<event>
 5   0  0.2565416E-04  0.1488263E+04  0.7818609E-02  0.8892296E-01
       -1   -1    0    0    0  501  0.00000000000E+00  0.00000000000E+00  0.50007173647E+03  0.50007173650E+03  0.50400001928E-02 0.  1.
        1   -1    0    0  501    0  0.00000000000E+00  0.00000000000E+00 -0.11073043808E+04  0.11073043808E+04  0.50400001928E-02 0. -1.
    10030    2    1    2    0    0  0.00000000000E+00  0.00000000000E+00 -0.60723264430E+03  0.16073761173E+04  0.14882629130E+04 0.  0.
        5    1    3    3  502    0  0.26331414031E+03 -0.53034515247E+03 -0.79036263241E+03  0.98757050277E+03  0.46999998093E+01 0. -1.
       -5    1    3    3    0  502 -0.26331414031E+03  0.53034515247E+03  0.18312998811E+03  0.61980561451E+03  0.46999998093E+01 0.  1.
</event>
<event>
 5   0  0.2565416E-04  0.1496671E+04  0.7818609E-02  0.8886670E-01
       -1   -1    0    0    0  501  0.00000000000E+00  0.00000000000E+00  0.82183421152E+03  0.82183421153E+03  0.50400001928E-02 0.  1.
        1   -1    0    0  501    0  0.00000000000E+00  0.00000000000E+00 -0.68140964290E+03  0.68140964292E+03  0.50400001928E-02 0. -1.
    10030    2    1    2    0    0  0.00000000000E+00  0.00000000000E+00  0.14042456862E+03  0.15032438544E+04  0.14966706473E+04 0.  0.
        5    1    3    3  502    0  0.19769840000E+03  0.19462270894E+03 -0.62783719378E+03  0.68641407918E+03  0.46999998093E+01 0. -1.
       -5    1    3    3    0  502 -0.19769840000E+03 -0.19462270894E+03  0.76826176240E+03  0.81682977527E+03  0.46999998093E+01 0.  1.
</event>
<event>
 5   0  0.2603873E-04  0.1494664E+04  0.7818609E-02  0.8888009E-01
        1   -1    0    0  501    0  0.00000000000E+00  0.00000000000E+00  0.10621304066E+04  0.10621304066E+04  0.50400001928E-02 0. -1.
       -1   -1    0    0    0  501  0.00000000000E+00  0.00000000000E+00 -0.52583468876E+03  0.52583468879E+03  0.50400001928E-02 0.  1.
    10030    2    1    2    0    0  0.00000000000E+00  0.00000000000E+00  0.53629571783E+03  0.15879650954E+04  0.14946638576E+04 0.  0.
        2    1    3    3  502    0  0.30900639446E+03  0.57989733634E+03  0.64637509213E+03  0.92171938909E+03  0.25500000920E-02 0. -1.
       -2    1    3    3    0  502 -0.30900639446E+03 -0.57989733634E+03 -0.11007937430E+03  0.66624570630E+03  0.25500000920E-02 0.  1.
</event>
<event>
 5   0  0.4768387E-04  0.1501981E+04  0.7818609E-02  0.8883137E-01
        2   -1    0    0  501    0  0.00000000000E+00  0.00000000000E+00  0.16734392252E+04  0.16734392252E+04  0.25500000920E-02 0.  1.
       -2   -1    0    0    0  501  0.00000000000E+00  0.00000000000E+00 -0.33702249723E+03  0.33702249724E+03  0.25500000920E-02 0. -1.
    10030    2    1    2    0    0  0.00000000000E+00  0.00000000000E+00  0.13364167279E+04  0.20104617224E+04  0.15019809142E+04 0.  0.
        3    1    3    3  502    0  0.91550054254E+02 -0.48407091857E+02  0.16638357066E+04  0.16670554663E+04  0.10100000352E+00 0.  1.
       -3    1    3    3    0  502 -0.91550054254E+02  0.48407091857E+02 -0.32741897864E+03  0.34340625613E+03  0.10100000352E+00 0. -1.
</event>
<event>
 5   0  0.4569211E-04  0.1498643E+04  0.7818609E-02  0.8885356E-01
        2   -1    0    0  501    0  0.00000000000E+00  0.00000000000E+00  0.12707225273E+04  0.12707225273E+04  0.25500000920E-02 0. -1.
       -2   -1    0    0    0  501  0.00000000000E+00  0.00000000000E+00 -0.44186070024E+03  0.44186070025E+03  0.25500000920E-02 0.  1.
    10030    2    1    2    0    0  0.00000000000E+00  0.00000000000E+00  0.82886182706E+03  0.17125832276E+04  0.14986425134E+04 0.  0.
        5    1    3    3  502    0 -0.24329057990E+03 -0.70346869248E+03  0.51274614148E+03  0.90387455057E+03  0.46999998093E+01 0. -1.
       -5    1    3    3    0  502  0.24329057990E+03  0.70346869248E+03  0.31611568558E+03  0.80870867699E+03  0.46999998093E+01 0.  1.
</event>
<event>
 5   0  0.4726600E-04  0.1491924E+04  0.7818609E-02  0.8889841E-01
       -2   -1    0    0    0  501  0.00000000000E+00  0.00000000000E+00  0.38461991910E+03  0.38461991911E+03  0.25500000920E-02 0.  1.
        2   -1    0    0  501    0  0.00000000000E+00  0.00000000000E+00 -0.14467771568E+04  0.14467771568E+04  0.25500000920E-02 0. -1.
    10030    2    1    2    0    0  0.00000000000E+00  0.00000000000E+00 -0.10621572377E+04  0.18313970759E+04  0.14919240101E+04 0.  0.
        2    1    3    3  502    0  0.62305393141E+03 -0.28550218772E+03 -0.16952343654E+03  0.70600700859E+03  0.25500000920E-02 0.  1.
       -2    1    3    3    0  502 -0.62305393141E+03  0.28550218772E+03 -0.89263380116E+03  0.11253900673E+04  0.25500000920E-02 0. -1.
</event>
<event>
 5   0  0.2603873E-04  0.1543934E+04  0.7818609E-02  0.8855752E-01
       -1   -1    0    0    0  501  0.00000000000E+00  0.00000000000E+00  0.71407139143E+03  0.71407139145E+03  0.50400001928E-02 0. -1.
        1   -1    0    0  501    0  0.00000000000E+00  0.00000000000E+00 -0.83455650708E+03  0.83455650709E+03  0.50400001928E-02 0.  1.
    10030    2    1    2    0    0  0.00000000000E+00  0.00000000000E+00 -0.12048511564E+03  0.15486278985E+04  0.15439338409E+04 0.  0.
        2    1    3    3  502    0 -0.48943442050E+03 -0.58741500454E+03 -0.16701094330E+03  0.78262065825E+03  0.25500000920E-02 0. -1.
       -2    1    3    3    0  502  0.48943442050E+03  0.58741500454E+03  0.46525827656E+02  0.76600724029E+03  0.25500000920E-02 0.  1.
</event>
<event>
 5   0  0.4948645E-04  0.1501914E+04  0.7818609E-02  0.8883181E-01
       -2   -1    0    0    0  501  0.00000000000E+00  0.00000000000E+00  0.34230807946E+03  0.34230807947E+03  0.25500000920E-02 0. -1.
        2   -1    0    0  501    0  0.00000000000E+00  0.00000000000E+00 -0.16474533823E+04  0.16474533823E+04  0.25500000920E-02 0.  1.
    10030    2    1    2    0    0  0.00000000000E+00  0.00000000000E+00 -0.13051453029E+04  0.19897614618E+04  0.15019142496E+04 0.  0.
        1    1    3    3  502    0  0.13270935859E+02 -0.61338603651E+03 -0.12262628408E+04  0.13711816445E+04  0.50400001928E-02 0.  1.
       -1    1    3    3    0  502 -0.13270935859E+02  0.61338603651E+03 -0.78882462112E+02  0.61857981731E+03  0.50400001928E-02 0. -1.
</event>
<event>
 5   0  0.1792000E-04  0.1490720E+04  0.7818609E-02  0.8890647E-01
        3   -1    0    0  501    0  0.00000000000E+00  0.00000000000E+00  0.16040340566E+04  0.16040340598E+04  0.10100000352E+00 0.  1.
       -3   -1    0    0    0  501  0.00000000000E+00  0.00000000000E+00 -0.34635279929E+03  0.34635281402E+03  0.10100000352E+00 0. -1.
    10030    2    1    2    0    0  0.00000000000E+00  0.00000000000E+00  0.12576812573E+04  0.19503868738E+04  0.14907202328E+04 0.  0.
        1    1    3    3  502    0  0.73329933028E+03 -0.10967818542E+02  0.45470933033E+03  0.86290716531E+03  0.50400001928E-02 0. -1.
       -1    1    3    3    0  502 -0.73329933028E+03  0.10967818542E+02  0.80297192699E+03  0.10874797085E+04  0.50400001928E-02 0.  1.
</event>
<event>
 5   0  0.1792000E-04  0.1507768E+04  0.7818609E-02  0.8879303E-01
       -4   -1    0    0    0  501  0.00000000000E+00  0.00000000000E+00  0.60701481889E+03  0.60701614744E+03  0.12699999809E+01 0. -1.
        4   -1    0    0  501    0  0.00000000000E+00  0.00000000000E+00 -0.93628645498E+03  0.93628731630E+03  0.12699999809E+01 0.  1.
    10030    2    1    2    0    0  0.00000000000E+00  0.00000000000E+00 -0.32927163609E+03  0.15433034637E+04  0.15077684739E+04 0.  0.
        4    1    3    3  502    0  0.19587099877E+03 -0.71787763624E+03 -0.40847215432E+02  0.74524080449E+03  0.12699999809E+01 0. -1.
       -4    1    3    3    0  502 -0.19587099877E+03  0.71787763624E+03 -0.28842442065E+03  0.79806265925E+03  0.12699999809E+01 0.  1.
</event>
<event>
 5   0  0.2542737E-04  0.1505341E+04  0.7818609E-02  0.8880909E-01
        1   -1    0    0  501    0  0.00000000000E+00  0.00000000000E+00  0.45164337313E+03  0.45164337316E+03  0.50400001928E-02 0. -1.
       -1   -1    0    0    0  501  0.00000000000E+00  0.00000000000E+00 -0.12543368084E+04  0.12543368084E+04  0.50400001928E-02 0.  1.
    10030    2    1    2    0    0  0.00000000000E+00  0.00000000000E+00 -0.80269343530E+03  0.17059801816E+04  0.15053410341E+04 0.  0.
        1    1    3    3  502    0 -0.98441887630E+02  0.43577821887E+03  0.28512784005E+03  0.52999183624E+03  0.50400001928E-02 0. -1.
       -1    1    3    3    0  502  0.98441887630E+02 -0.43577821887E+03 -0.10878212754E+04  0.11759883454E+04  0.50400001928E-02 0.  1.
</event>
<event>
 5   0  0.2605471E-04  0.1518632E+04  0.7818609E-02  0.8872157E-01
       -1   -1    0    0    0  501  0.00000000000E+00  0.00000000000E+00  0.52820003165E+03  0.52820003167E+03  0.50400001928E-02 0.  1.
        1   -1    0    0  501    0  0.00000000000E+00  0.00000000000E+00 -0.10915573289E+04  0.10915573289E+04  0.50400001928E-02 0. -1.
    10030    2    1    2    0    0  0.00000000000E+00  0.00000000000E+00 -0.56335729722E+03  0.16197573605E+04  0.15186317732E+04 0.  0.
        3    1    3    3  502    0  0.55236799303E+02  0.38089231939E+03 -0.97981088482E+03  0.10526915233E+04  0.10100000352E+00 0. -1.
       -3    1    3    3    0  502 -0.55236799303E+02 -0.38089231939E+03  0.41645358760E+03  0.56706583727E+03  0.10100000352E+00 0.  1.
</event>
<event>
 5   0  0.2603873E-04  0.1492219E+04  0.7818609E-02  0.8889644E-01
        1   -1    0    0  501    0  0.00000000000E+00  0.00000000000E+00  0.10747853196E+04  0.10747853196E+04  0.50400001928E-02 0.  1.
       -1   -1    0    0    0  501  0.00000000000E+00  0.00000000000E+00 -0.51794469744E+03  0.51794469747E+03  0.50400001928E-02 0. -1.
    10030    2    1    2    0    0  0.00000000000E+00  0.00000000000E+00  0.55684062212E+03  0.15927300170E+04  0.14922189614E+04 0.  0.
        2    1    3    3  502    0  0.13218667904E+03  0.73429641840E+03  0.27431286093E+03  0.79492898668E+03  0.25500000920E-02 0.  1.
       -2    1    3    3    0  502 -0.13218667904E+03 -0.73429641840E+03  0.28252776120E+03  0.79780103036E+03  0.25500000920E-02 0. -1.
</event>
<event>
 5   0  0.2605471E-04  0.1504977E+04  0.7818609E-02  0.8881150E-01
        1   -1    0    0  501    0  0.00000000000E+00  0.00000000000E+00  0.70511067904E+03  0.70511067905E+03  0.50400001928E-02 0.  1.
       -1   -1    0    0    0  501  0.00000000000E+00  0.00000000000E+00 -0.80305018015E+03  0.80305018017E+03  0.50400001928E-02 0. -1.
    10030    2    1    2    0    0  0.00000000000E+00  0.00000000000E+00 -0.97939501117E+02  0.15081608592E+04  0.15049774189E+04 0.  0.
        3    1    3    3  502    0  0.87771627608E+02 -0.69844665433E+03 -0.31544134133E+03  0.77138501254E+03  0.10100000352E+00 0. -1.
       -3    1    3    3    0  502 -0.87771627608E+02  0.69844665433E+03  0.21750184021E+03  0.73677584668E+03  0.10100000352E+00 0.  1.
</event>
<event>
 5   0  0.2544374E-04  0.1489895E+04  0.7818609E-02  0.8891200E-01
        1   -1    0    0  501    0  0.00000000000E+00  0.00000000000E+00  0.76594333481E+03  0.76594333483E+03  0.50400001928E-02 0. -1.
       -1   -1    0    0    0  501  0.00000000000E+00  0.00000000000E+00 -0.72452735738E+03  0.72452735740E+03  0.50400001928E-02 0.  1.
    10030    2    1    2    0    0  0.00000000000E+00  0.00000000000E+00  0.41415977425E+02  0.14904706922E+04  0.14898951645E+04 0.  0.
        4    1    3    3  502    0 -0.67889155613E+03  0.19913611220E+03  0.25402833630E+03  0.75171866061E+03  0.12699999809E+01 0. -1.
       -4    1    3    3    0  502  0.67889155613E+03 -0.19913611220E+03 -0.21261235888E+03  0.73875203162E+03  0.12699999809E+01 0.  1.
</event>
<event>
 5   0  0.2603873E-04  0.1504555E+04  0.7818609E-02  0.8881429E-01
       -1   -1    0    0    0  501  0.00000000000E+00  0.00000000000E+00  0.56523009494E+03  0.56523009496E+03  0.50400001928E-02 0. -1.
        1   -1    0    0  501    0  0.00000000000E+00  0.00000000000E+00 -0.10012235388E+04  0.10012235388E+04  0.50400001928E-02 0.  1.
    10030    2    1    2    0    0  0.00000000000E+00  0.00000000000E+00 -0.43599344387E+03  0.15664536338E+04  0.15045553176E+04 0.  0.
        2    1    3    3  502    0  0.46063026059E+03 -0.14805905066E+02 -0.83703534300E+03  0.95552478630E+03  0.25500000920E-02 0.  1.
       -2    1    3    3    0  502 -0.46063026059E+03  0.14805905066E+02  0.40104189914E+03  0.61092884747E+03  0.25500000920E-02 0. -1.
</event>
<event>
 5   0  0.4726600E-04  0.1494627E+04  0.7818609E-02  0.8888034E-01
        2   -1    0    0  501    0  0.00000000000E+00  0.00000000000E+00  0.94770510695E+03  0.94770510695E+03  0.25500000920E-02 0. -1.
       -2   -1    0    0    0  501  0.00000000000E+00  0.00000000000E+00 -0.58929487770E+03  0.58929487770E+03  0.25500000920E-02 0.  1.
    10030    2    1    2    0    0  0.00000000000E+00  0.00000000000E+00  0.35841022925E+03  0.15369999847E+04  0.14946273985E+04 0.  0.
        2    1    3    3  502    0  0.21748195714E+03 -0.39549871221E+03 -0.43329803730E+03  0.62567149702E+03  0.25500000920E-02 0.  1.
       -2    1    3    3    0  502 -0.21748195714E+03  0.39549871221E+03  0.79170826655E+03  0.91132848763E+03  0.25500000920E-02 0. -1.
</event>
<event>
 5   0  0.2603873E-04  0.1504805E+04  0.7818609E-02  0.8881264E-01
        1   -1    0    0  501    0  0.00000000000E+00  0.00000000000E+00  0.19687896003E+04  0.19687896003E+04  0.50400001928E-02 0. -1.
       -1   -1    0    0    0  501  0.00000000000E+00  0.00000000000E+00 -0.28754191734E+03  0.28754191739E+03  0.50400001928E-02 0.  1.
    10030    2    1    2    0    0  0.00000000000E+00  0.00000000000E+00  0.16812476830E+04  0.22563315177E+04  0.15048050194E+04 0.  0.
        2    1    3    3  502    0 -0.51501781513E+03  0.15770633908E+03  0.16283462591E+04  0.17151169577E+04  0.25500000920E-02 0. -1.
       -2    1    3    3    0  502  0.51501781513E+03 -0.15770633908E+03  0.52901423919E+02  0.54121455999E+03  0.25500000920E-02 0.  1.
</event>
<event>
 5   0  0.2565416E-04  0.1505135E+04  0.7818609E-02  0.8881045E-01
       -1   -1    0    0    0  501  0.00000000000E+00  0.00000000000E+00  0.25553022967E+03  0.25553022972E+03  0.50400001928E-02 0. -1.
        1   -1    0    0  501    0  0.00000000000E+00  0.00000000000E+00 -0.22164037976E+04  0.22164037976E+04  0.50400001928E-02 0.  1.
    10030    2    1    2    0    0  0.00000000000E+00  0.00000000000E+00 -0.19608735679E+04  0.24719340273E+04  0.15051354378E+04 0.  0.
        5    1    3    3  502    0 -0.12594574239E+03 -0.33700216106E+03 -0.20659970897E+04  0.20970929524E+04  0.46999998093E+01 0.  1.
       -5    1    3    3    0  502  0.12594574239E+03  0.33700216106E+03  0.10512352176E+03  0.37484107487E+03  0.46999998093E+01 0. -1.
</event>
<event>
 5   0  0.1792000E-04  0.1499309E+04  0.7818609E-02  0.8884913E-01
       -3   -1    0    0    0  501  0.00000000000E+00  0.00000000000E+00  0.12466267864E+04  0.12466267905E+04  0.10100000352E+00 0.  1.
        3   -1    0    0  501    0  0.00000000000E+00  0.00000000000E+00 -0.45080178344E+03  0.45080179475E+03  0.10100000352E+00 0. -1.
    10030    2    1    2    0    0  0.00000000000E+00  0.00000000000E+00  0.79582500300E+03  0.16974285853E+04  0.14993086296E+04 0.  0.
        4    1    3    3  502    0 -0.33874086727E+03 -0.17161798940E+03 -0.33385861787E+03  0.50562960659E+03  0.12699999809E+01 0. -1.
       -4    1    3    3    0  502  0.33874086727E+03  0.17161798940E+03  0.11296836209E+04  0.11917989787E+04  0.12699999809E+01 0.  1.
</event>
<event>
 5   0  0.4768387E-04  0.1479362E+04  0.7818609E-02  0.8898294E-01
        2   -1    0    0  501    0  0.00000000000E+00  0.00000000000E+00  0.11927235934E+04  0.11927235934E+04  0.25500000920E-02 0. -1.
       -2   -1    0    0    0  501  0.00000000000E+00  0.00000000000E+00 -0.45872171378E+03  0.45872171379E+03  0.25500000920E-02 0.  1.
    10030    2    1    2    0    0  0.00000000000E+00  0.00000000000E+00  0.73400187965E+03  0.16514453072E+04  0.14793623097E+04 0.  0.
        3    1    3    3  502    0 -0.13297314700E+03  0.49005963206E+03 -0.23341854806E+03  0.55886002682E+03  0.10100000352E+00 0.  1.
       -3    1    3    3    0  502  0.13297314700E+03 -0.49005963206E+03  0.96742042771E+03  0.10925852804E+04  0.10100000352E+00 0. -1.
</event>
<event>
 5   0  0.4768387E-04  0.1510794E+04  0.7818609E-02  0.8877307E-01
       -2   -1    0    0    0  501  0.00000000000E+00  0.00000000000E+00  0.35638603401E+03  0.35638603402E+03  0.25500000920E-02 0. -1.
        2   -1    0    0  501    0  0.00000000000E+00  0.00000000000E+00 -0.16011411794E+04  0.16011411794E+04  0.25500000920E-02 0.  1.
    10030    2    1    2    0    0  0.00000000000E+00  0.00000000000E+00 -0.12447551454E+04  0.19575272134E+04  0.15107936389E+04 0.  0.
        3    1    3    3  502    0  0.69037360570E+03  0.13802406583E+03 -0.26763638432E+03  0.75319028313E+03  0.10100000352E+00 0. -1.
       -3    1    3    3    0  502 -0.69037360570E+03 -0.13802406583E+03 -0.97711876105E+03  0.12043369303E+04  0.10100000352E+00 0.  1.
</event>
<event>
 5   0  0.4785496E-04  0.1502083E+04  0.7818609E-02  0.8883069E-01
        2   -1    0    0  501    0  0.00000000000E+00  0.00000000000E+00  0.52741990082E+03  0.52741990082E+03  0.25500000920E-02 0. -1.
       -2   -1    0    0    0  501  0.00000000000E+00  0.00000000000E+00 -0.10694765432E+04  0.10694765432E+04  0.25500000920E-02 0.  1.
    10030    2    1    2    0    0  0.00000000000E+00  0.00000000000E+00 -0.54205664233E+03  0.15968964440E+04  0.15020828370E+04 0.  0.
        4    1    3    3  502    0 -0.35496709934E+03  0.14673386903E+03 -0.95715697935E+03  0.10313503604E+04  0.12699999809E+01 0.  1.
       -4    1    3    3    0  502  0.35496709934E+03 -0.14673386903E+03  0.41510033702E+03  0.56554608355E+03  0.12699999809E+01 0. -1.
</event>
<event>
 5   0  0.4768387E-04  0.1529648E+04  0.7818609E-02  0.8864973E-01
       -2   -1    0    0    0  501  0.00000000000E+00  0.00000000000E+00  0.22351317028E+03  0.22351317030E+03  0.25500000920E-02 0. -1.
        2   -1    0    0  501    0  0.00000000000E+00  0.00000000000E+00 -0.26170976246E+04  0.26170976246E+04  0.25500000920E-02 0.  1.
    10030    2    1    2    0    0  0.00000000000E+00  0.00000000000E+00 -0.23935844543E+04  0.28406107949E+04  0.15296480471E+04 0.  0.
        3    1    3    3  502    0 -0.47415928292E+03 -0.59545096229E+03 -0.13353487686E+04  0.15370573243E+04  0.10100000352E+00 0.  1.
       -3    1    3    3    0  502  0.47415928292E+03  0.59545096229E+03 -0.10582356856E+04  0.13035534706E+04  0.10100000352E+00 0. -1.
</event>
<event>
 5   0  0.4948645E-04  0.1499869E+04  0.7818609E-02  0.8884540E-01
        2   -1    0    0  501    0  0.00000000000E+00  0.00000000000E+00  0.67728193902E+03  0.67728193902E+03  0.25500000920E-02 0. -1.
       -2   -1    0    0    0  501  0.00000000000E+00  0.00000000000E+00 -0.83038076171E+03  0.83038076172E+03  0.25500000920E-02 0.  1.
    10030    2    1    2    0    0  0.00000000000E+00  0.00000000000E+00 -0.15309882270E+03  0.15076627007E+04  0.14998691842E+04 0.  0.
        1    1    3    3  502    0  0.30731220756E+03  0.13967881119E+03  0.59659504319E+03  0.68547546185E+03  0.50400001928E-02 0. -1.
       -1    1    3    3    0  502 -0.30731220756E+03 -0.13967881119E+03 -0.74969386589E+03  0.82218723889E+03  0.50400001928E-02 0.  1.
</event>
<event>
 5   0  0.4768387E-04  0.1498733E+04  0.7818609E-02  0.8885296E-01
       -2   -1    0    0    0  501  0.00000000000E+00  0.00000000000E+00  0.95840907941E+03  0.95840907941E+03  0.25500000920E-02 0. -1.
        2   -1    0    0  501    0  0.00000000000E+00  0.00000000000E+00 -0.58591879272E+03  0.58591879272E+03  0.25500000920E-02 0.  1.
    10030    2    1    2    0    0  0.00000000000E+00  0.00000000000E+00  0.37249028669E+03  0.15443278721E+04  0.14987326523E+04 0.  0.
        3    1    3    3  502    0 -0.24110638920E+03 -0.41428301462E+03  0.77977850738E+03  0.91532357005E+03  0.10100000352E+00 0. -1.
       -3    1    3    3    0  502  0.24110638920E+03  0.41428301462E+03 -0.40728822069E+03  0.62900430208E+03  0.10100000352E+00 0.  1.
</event>
<event>
 5   0  0.4569211E-04  0.1495484E+04  0.7818609E-02  0.8887462E-01
       -2   -1    0    0    0  501  0.00000000000E+00  0.00000000000E+00  0.67246607587E+03  0.67246607587E+03  0.25500000920E-02 0. -1.
        2   -1    0    0  501    0  0.00000000000E+00  0.00000000000E+00 -0.83144403035E+03  0.83144403036E+03  0.25500000920E-02 0.  1.
    10030    2    1    2    0    0  0.00000000000E+00  0.00000000000E+00 -0.15897795449E+03  0.15039101062E+04  0.14954837403E+04 0.  0.
        5    1    3    3  502    0  0.39265229737E+03  0.31737510074E+03 -0.63413360902E+03  0.81058639595E+03  0.46999998093E+01 0.  1.
       -5    1    3    3    0  502 -0.39265229737E+03 -0.31737510074E+03  0.47515565454E+03  0.69332371028E+03  0.46999998093E+01 0. -1.
</event>
<event>
 5   0  0.2605471E-04  0.1502268E+04  0.7818609E-02  0.8882946E-01
        1   -1    0    0  501    0  0.00000000000E+00  0.00000000000E+00  0.10734955831E+04  0.10734955831E+04  0.50400001928E-02 0.  1.
       -1   -1    0    0    0  501  0.00000000000E+00  0.00000000000E+00 -0.52557472840E+03  0.52557472842E+03  0.50400001928E-02 0. -1.
    10030    2    1    2    0    0  0.00000000000E+00  0.00000000000E+00  0.54792085468E+03  0.15990703115E+04  0.15022678184E+04 0.  0.
        3    1    3    3  502    0  0.18121138825E+03 -0.49110219209E+03  0.84735864131E+03  0.99600984308E+03  0.10100000352E+00 0.  1.
       -3    1    3    3    0  502 -0.18121138825E+03  0.49110219209E+03 -0.29943778664E+03  0.60306046842E+03  0.10100000352E+00 0. -1.
</event>
<event>
 5   0  0.2542737E-04  0.1478527E+04  0.7818609E-02  0.8898859E-01
       -1   -1    0    0    0  501  0.00000000000E+00  0.00000000000E+00  0.57987001810E+03  0.57987001812E+03  0.50400001928E-02 0.  1.
        1   -1    0    0  501    0  0.00000000000E+00  0.00000000000E+00 -0.94247060495E+03  0.94247060497E+03  0.50400001928E-02 0. -1.
    10030    2    1    2    0    0  0.00000000000E+00  0.00000000000E+00 -0.36260058685E+03  0.15223406231E+04  0.14785268977E+04 0.  0.
        1    1    3    3  502    0 -0.15511712155E+03 -0.38973620056E+03  0.44547062842E+03  0.61188210322E+03  0.50400001928E-02 0.  1.
       -1    1    3    3    0  502  0.15511712155E+03  0.38973620056E+03 -0.80807121527E+03  0.91045851987E+03  0.50400001928E-02 0. -1.
</event>
<event>
 5   0  0.2605471E-04  0.1499221E+04  0.7818609E-02  0.8884971E-01
        1   -1    0    0  501    0  0.00000000000E+00  0.00000000000E+00  0.65838695029E+03  0.65838695031E+03  0.50400001928E-02 0. -1.
       -1   -1    0    0    0  501  0.00000000000E+00  0.00000000000E+00 -0.85347399893E+03  0.85347399895E+03  0.50400001928E-02 0.  1.
    10030    2    1    2    0    0  0.00000000000E+00  0.00000000000E+00 -0.19508704864E+03  0.15118609493E+04  0.14992213223E+04 0.  0.
        3    1    3    3  502    0  0.73859320598E+03 -0.12637761255E+03 -0.11833061401E+03  0.75861279272E+03  0.10100000352E+00 0. -1.
       -3    1    3    3    0  502 -0.73859320598E+03  0.12637761255E+03 -0.76756434632E+02  0.75324815654E+03  0.10100000352E+00 0.  1.
</event>
<event>
 5   0  0.2542737E-04  0.1494261E+04  0.7818609E-02  0.8888278E-01
       -1   -1    0    0    0  501  0.00000000000E+00  0.00000000000E+00  0.29635737175E+03  0.29635737179E+03  0.50400001928E-02 0. -1.
        1   -1    0    0  501    0  0.00000000000E+00  0.00000000000E+00 -0.18835505346E+04  0.18835505346E+04  0.50400001928E-02 0.  1.
    10030    2    1    2    0    0  0.00000000000E+00  0.00000000000E+00 -0.15871931628E+04  0.21799079064E+04  0.14942611365E+04 0.  0.
        1    1    3    3  502    0  0.56270154655E+03 -0.49147517523E+03 -0.78656865351E+03  0.10848369117E+04  0.50400001928E-02 0.  1.
       -1    1    3    3    0  502 -0.56270154655E+03  0.49147517523E+03 -0.80062450932E+03  0.10950709946E+04  0.50400001928E-02 0. -1.
</event>
<event>
 5   0  0.2544374E-04  0.1509599E+04  0.7818609E-02  0.8878095E-01
       -1   -1    0    0    0  501  0.00000000000E+00  0.00000000000E+00  0.77209941253E+03  0.77209941255E+03  0.50400001928E-02 0. -1.
        1   -1    0    0  501    0  0.00000000000E+00  0.00000000000E+00 -0.73788679433E+03  0.73788679435E+03  0.50400001928E-02 0.  1.
    10030    2    1    2    0    0  0.00000000000E+00  0.00000000000E+00  0.34212618205E+02  0.15099862069E+04  0.15095985697E+04 0.  0.
        4    1    3    3  502    0  0.15979293856E+03 -0.10639477776E+03  0.74727095593E+03  0.77153686006E+03  0.12699999809E+01 0. -1.
       -4    1    3    3    0  502 -0.15979293856E+03  0.10639477776E+03 -0.71305833773E+03  0.73844934684E+03  0.12699999809E+01 0.  1.
</event>
<event>
 5   0  0.4785496E-04  0.1506619E+04  0.7818609E-02  0.8880063E-01
        2   -1    0    0  501    0  0.00000000000E+00  0.00000000000E+00  0.18606956586E+04  0.18606956586E+04  0.25500000920E-02 0. -1.
       -2   -1    0    0    0  501  0.00000000000E+00  0.00000000000E+00 -0.30498000845E+03  0.30498000846E+03  0.25500000920E-02 0.  1.
    10030    2    1    2    0    0  0.00000000000E+00  0.00000000000E+00  0.15557156502E+04  0.21656756671E+04  0.15066187012E+04 0.  0.
        4    1    3    3  502    0  0.51306591635E+03 -0.39832354221E+03  0.22941218202E+03  0.68886126394E+03  0.12699999809E+01 0.  1.
       -4    1    3    3    0  502 -0.51306591635E+03  0.39832354221E+03  0.13263034682E+04  0.14768144032E+04  0.12699999809E+01 0. -1.
</event>
<event>
 5   0  0.4569211E-04  0.1496820E+04  0.7818609E-02  0.8886570E-01
        2   -1    0    0  501    0  0.00000000000E+00  0.00000000000E+00  0.13504901400E+04  0.13504901400E+04  0.25500000920E-02 0. -1.
       -2   -1    0    0    0  501  0.00000000000E+00  0.00000000000E+00 -0.41475137443E+03  0.41475137443E+03  0.25500000920E-02 0.  1.
    10030    2    1    2    0    0  0.00000000000E+00  0.00000000000E+00  0.93573876561E+03  0.17652415145E+04  0.14968201518E+04 0.  0.
        5    1    3    3  502    0  0.24495838387E+03 -0.45569827819E+03 -0.16987330658E+03  0.54455905177E+03  0.46999998093E+01 0.  1.
       -5    1    3    3    0  502 -0.24495838387E+03  0.45569827819E+03  0.11056120722E+04  0.12206824627E+04  0.46999998093E+01 0. -1.
</event>
<event>
 5   0  0.2544374E-04  0.1476563E+04  0.7818609E-02  0.8900190E-01
        1   -1    0    0  501    0  0.00000000000E+00  0.00000000000E+00  0.66750208168E+03  0.66750208170E+03  0.50400001928E-02 0.  1.
       -1   -1    0    0    0  501  0.00000000000E+00  0.00000000000E+00 -0.81656607644E+03  0.81656607645E+03  0.50400001928E-02 0. -1.
    10030    2    1    2    0    0  0.00000000000E+00  0.00000000000E+00 -0.14906399475E+03  0.14840681582E+04  0.14765629765E+04 0.  0.
        4    1    3    3  502    0  0.44152841295E+03 -0.39931244514E+03  0.36433393126E+03  0.69795314646E+03  0.12699999809E+01 0.  1.
       -4    1    3    3    0  502 -0.44152841295E+03  0.39931244514E+03 -0.51339792601E+03  0.78611501170E+03  0.12699999809E+01 0. -1.
</event>
<event>
 5   0  0.4768387E-04  0.1501212E+04  0.7818609E-02  0.8883647E-01
       -2   -1    0    0    0  501  0.00000000000E+00  0.00000000000E+00  0.82380711506E+03  0.82380711507E+03  0.25500000920E-02 0.  1.
        2   -1    0    0  501    0  0.00000000000E+00  0.00000000000E+00 -0.68390922635E+03  0.68390922636E+03  0.25500000920E-02 0. -1.
    10030    2    1    2    0    0  0.00000000000E+00  0.00000000000E+00  0.13989788871E+03  0.15077163414E+04  0.15012118927E+04 0.  0.
        3    1    3    3  502    0  0.74936577608E+02 -0.11368351832E+02  0.81995395221E+03  0.82344958804E+03  0.10100000352E+00 0.  1.
       -3    1    3    3    0  502 -0.74936577608E+02  0.11368351832E+02 -0.68005606350E+03  0.68426675339E+03  0.10100000352E+00 0. -1.
</event>
<event>
 5   0  0.4948645E-04  0.1495547E+04  0.7818609E-02  0.8887419E-01
        2   -1    0    0  501    0  0.00000000000E+00  0.00000000000E+00  0.13636123249E+04  0.13636123249E+04  0.25500000920E-02 0.  1.
       -2   -1    0    0    0  501  0.00000000000E+00  0.00000000000E+00 -0.41006198736E+03  0.41006198737E+03  0.25500000920E-02 0. -1.
    10030    2    1    2    0    0  0.00000000000E+00  0.00000000000E+00  0.95355033752E+03  0.17736743123E+04  0.14955474983E+04 0.  0.
        1    1    3    3  502    0 -0.14427166782E+03 -0.66606923006E+03  0.84174388563E+03  0.10830490766E+04  0.50400001928E-02 0.  1.
       -1    1    3    3    0  502  0.14427166782E+03  0.66606923006E+03  0.11180645189E+03  0.69062523562E+03  0.50400001928E-02 0. -1.
</event>
<event>
 5   0  0.4726600E-04  0.1503315E+04  0.7818609E-02  0.8882252E-01
        2   -1    0    0  501    0  0.00000000000E+00  0.00000000000E+00  0.13987141418E+04  0.13987141418E+04  0.25500000920E-02 0.  1.
       -2   -1    0    0    0  501  0.00000000000E+00  0.00000000000E+00 -0.40393453279E+03  0.40393453280E+03  0.25500000920E-02 0. -1.
    10030    2    1    2    0    0  0.00000000000E+00  0.00000000000E+00  0.99477960903E+03  0.18026486746E+04  0.15033149283E+04 0.  0.
        2    1    3    3  502    0 -0.74950905186E+03  0.48921933034E+02  0.53197279125E+03  0.92040872714E+03  0.25500000920E-02 0. -1.
       -2    1    3    3    0  502  0.74950905186E+03 -0.48921933034E+02  0.46280681778E+03  0.88223994749E+03  0.25500000920E-02 0.  1.
</event>
<event>
 5   0  0.1792000E-04  0.1506257E+04  0.7818609E-02  0.8880303E-01
       -4   -1    0    0    0  501  0.00000000000E+00  0.00000000000E+00  0.71846904083E+03  0.71847016329E+03  0.12699999809E+01 0.  1.
        4   -1    0    0  501    0  0.00000000000E+00  0.00000000000E+00 -0.78945729952E+03  0.78945832105E+03  0.12699999809E+01 0. -1.
    10030    2    1    2    0    0  0.00000000000E+00  0.00000000000E+00 -0.70988258689E+02  0.15079284843E+04  0.15062566119E+04 0.  0.
        3    1    3    3  502    0 -0.63320673602E+03  0.39657663098E+03  0.59365675646E+02  0.74949855799E+03  0.10100000352E+00 0.  1.
       -3    1    3    3    0  502  0.63320673602E+03 -0.39657663098E+03 -0.13035393434E+03  0.75842992635E+03  0.10100000352E+00 0. -1.
</event>
<event>
 5   0  0.2544374E-04  0.1495001E+04  0.7818609E-02  0.8887784E-01
        1   -1    0    0  501    0  0.00000000000E+00  0.00000000000E+00  0.10294953040E+04  0.10294953041E+04  0.50400001928E-02 0.  1.
       -1   -1    0    0    0  501  0.00000000000E+00  0.00000000000E+00 -0.54274858296E+03  0.54274858299E+03  0.50400001928E-02 0. -1.
    10030    2    1    2    0    0  0.00000000000E+00  0.00000000000E+00  0.48674672108E+03  0.15722438870E+04  0.14950011605E+04 0.  0.
        4    1    3    3  502    0  0.42242679367E+03  0.55109367429E+03 -0.47706559043E+02  0.69600730062E+03  0.12699999809E+01 0. -1.
       -4    1    3    3    0  502 -0.42242679367E+03 -0.55109367429E+03  0.53445328012E+03  0.87623658642E+03  0.12699999809E+01 0.  1.
</event>
<event>
 5   0  0.4569211E-04  0.1490251E+04  0.7818609E-02  0.8890962E-01
        2   -1    0    0  501    0  0.00000000000E+00  0.00000000000E+00  0.15908089814E+04  0.15908089814E+04  0.25500000920E-02 0. -1.
       -2   -1    0    0    0  501  0.00000000000E+00  0.00000000000E+00 -0.34901233033E+03  0.34901233034E+03  0.25500000920E-02 0.  1.
    10030    2    1    2    0    0  0.00000000000E+00  0.00000000000E+00  0.12417966511E+04  0.19398213117E+04  0.14902509181E+04 0.  0.
        5    1    3    3  502    0 -0.40679805762E+03  0.62166331169E+03  0.54680656132E+03  0.92248004763E+03  0.46999998093E+01 0. -1.
       -5    1    3    3    0  502  0.40679805762E+03 -0.62166331169E+03  0.69499008974E+03  0.10173412641E+04  0.46999998093E+01 0.  1.
</event>
<event>
 5   0  0.1792000E-04  0.1513643E+04  0.7818609E-02  0.8875431E-01
       -4   -1    0    0    0  501  0.00000000000E+00  0.00000000000E+00  0.13702252427E+04  0.13702258313E+04  0.12699999809E+01 0.  1.
        4   -1    0    0  501    0  0.00000000000E+00  0.00000000000E+00 -0.41801612778E+03  0.41801805701E+03  0.12699999809E+01 0. -1.
    10030    2    1    2    0    0  0.00000000000E+00  0.00000000000E+00  0.95220911496E+03  0.17882438883E+04  0.15136426280E+04 0.  0.
        2    1    3    3  502    0 -0.62164123484E+03  0.31856445657E+03  0.13195424637E+03  0.71086782244E+03  0.25500000920E-02 0.  1.
       -2    1    3    3    0  502  0.62164123484E+03 -0.31856445657E+03  0.82025486858E+03  0.10773760659E+04  0.25500000920E-02 0. -1.
</event>
<event>
 5   0  0.2565416E-04  0.1491644E+04  0.7818609E-02  0.8890029E-01
        1   -1    0    0  501    0  0.00000000000E+00  0.00000000000E+00  0.10892481357E+04  0.10892481357E+04  0.50400001928E-02 0. -1.
       -1   -1    0    0    0  501  0.00000000000E+00  0.00000000000E+00 -0.51067379056E+03  0.51067379059E+03  0.50400001928E-02 0.  1.
    10030    2    1    2    0    0  0.00000000000E+00  0.00000000000E+00  0.57857434517E+03  0.15999219263E+04  0.14916440250E+04 0.  0.
        5    1    3    3  502    0 -0.45054805442E+03  0.16277460301E+03  0.90239132911E+03  0.10216757419E+04  0.46999998093E+01 0. -1.
       -5    1    3    3    0  502  0.45054805442E+03 -0.16277460301E+03 -0.32381698394E+03  0.57824618443E+03  0.46999998093E+01 0.  1.
</event>
<event>
 5   0  0.2544374E-04  0.1433641E+04  0.7818609E-02  0.8929821E-01
        1   -1    0    0  501    0  0.00000000000E+00  0.00000000000E+00  0.47391419539E+03  0.47391419542E+03  0.50400001928E-02 0.  1.
       -1   -1    0    0    0  501  0.00000000000E+00  0.00000000000E+00 -0.10842298738E+04  0.10842298738E+04  0.50400001928E-02 0. -1.
    10030    2    1    2    0    0  0.00000000000E+00  0.00000000000E+00 -0.61031567837E+03  0.15581440692E+04  0.14336414172E+04 0.  0.
        4    1    3    3  502    0  0.63525658266E+03  0.19888215217E+03 -0.16120196265E+02  0.66585772496E+03  0.12699999809E+01 0.  1.
       -4    1    3    3    0  502 -0.63525658266E+03 -0.19888215217E+03 -0.59419548211E+03  0.89228634424E+03  0.12699999809E+01 0. -1.
</event>
<event>
 5   0  0.2605471E-04  0.1503880E+04  0.7818609E-02  0.8881877E-01
        1   -1    0    0  501    0  0.00000000000E+00  0.00000000000E+00  0.81811882639E+03  0.81811882641E+03  0.50400001928E-02 0. -1.
       -1   -1    0    0    0  501  0.00000000000E+00  0.00000000000E+00 -0.69111479159E+03  0.69111479160E+03  0.50400001928E-02 0.  1.
    10030    2    1    2    0    0  0.00000000000E+00  0.00000000000E+00  0.12700403481E+03  0.15092336180E+04  0.15038803439E+04 0.  0.
        3    1    3    3  502    0 -0.16006037005E+03 -0.72779660677E+03  0.16439240487E+03  0.76310687054E+03  0.10100000352E+00 0.  1.
       -3    1    3    3    0  502  0.16006037005E+03  0.72779660677E+03 -0.37388370058E+02  0.74612674748E+03  0.10100000352E+00 0. -1.
</event>
<event>
 5   0  0.1792000E-04  0.1498550E+04  0.7818609E-02  0.8885418E-01
       -3   -1    0    0    0  501  0.00000000000E+00  0.00000000000E+00  0.58517298662E+03  0.58517299534E+03  0.10100000352E+00 0.  1.
        3   -1    0    0  501    0  0.00000000000E+00  0.00000000000E+00 -0.95939665232E+03  0.95939665764E+03  0.10100000352E+00 0. -1.
    10030    2    1    2    0    0  0.00000000000E+00  0.00000000000E+00 -0.37422366570E+03  0.15445696530E+04  0.14985499861E+04 0.  0.
        5    1    3    3  502    0 -0.27042144044E+03 -0.66657451264E+03  0.28948052856E+02  0.71993709177E+03  0.46999998093E+01 0.  1.
       -5    1    3    3    0  502  0.27042144044E+03  0.66657451264E+03 -0.40317171856E+03  0.82463256120E+03  0.46999998093E+01 0. -1.
</event>
<event>
 5   0  0.2565416E-04  0.1510680E+04  0.7818609E-02  0.8877382E-01
       -1   -1    0    0    0  501  0.00000000000E+00  0.00000000000E+00  0.49507199979E+03  0.49507199981E+03  0.50400001928E-02 0.  1.
        1   -1    0    0  501    0  0.00000000000E+00  0.00000000000E+00 -0.11524348516E+04  0.11524348516E+04  0.50400001928E-02 0. -1.
    10030    2    1    2    0    0  0.00000000000E+00  0.00000000000E+00 -0.65736285178E+03  0.16475068514E+04  0.15106796174E+04 0.  0.
        5    1    3    3  502    0  0.54822126657E+03  0.14850190381E+03  0.21432854846E+03  0.60708993505E+03  0.46999998093E+01 0.  1.
       -5    1    3    3    0  502 -0.54822126657E+03 -0.14850190381E+03 -0.87169140024E+03  0.10404169163E+04  0.46999998093E+01 0. -1.
</event>
<event>
 5   0  0.2542737E-04  0.1499601E+04  0.7818609E-02  0.8884719E-01
        1   -1    0    0  501    0  0.00000000000E+00  0.00000000000E+00  0.25284557448E+04  0.25284557448E+04  0.50400001928E-02 0.  1.
       -1   -1    0    0    0  501  0.00000000000E+00  0.00000000000E+00 -0.22234936782E+03  0.22234936788E+03  0.50400001928E-02 0. -1.
    10030    2    1    2    0    0  0.00000000000E+00  0.00000000000E+00  0.23061063770E+04  0.27508051127E+04  0.14996006622E+04 0.  0.
        1    1    3    3  502    0  0.52582286980E+03  0.27912422257E+03  0.19892480771E+04  0.20764170906E+04  0.50400001928E-02 0.  1.
       -1    1    3    3    0  502 -0.52582286980E+03 -0.27912422257E+03  0.31685829986E+03  0.67438802202E+03  0.50400001928E-02 0. -1.
</event>
<event>
 5   0  0.1792000E-04  0.1518899E+04  0.7818609E-02  0.8871981E-01
        3   -1    0    0  501    0  0.00000000000E+00  0.00000000000E+00  0.58236268487E+03  0.58236269363E+03  0.10100000352E+00 0.  1.
       -3   -1    0    0    0  501  0.00000000000E+00  0.00000000000E+00 -0.99038589292E+03  0.99038589807E+03  0.10100000352E+00 0. -1.
    10030    2    1    2    0    0  0.00000000000E+00  0.00000000000E+00 -0.40802320804E+03  0.15727485917E+04  0.15188993365E+04 0.  0.
        4    1    3    3  502    0  0.28782966053E+03  0.74656982352E+02  0.51957850436E+03  0.59865099481E+03  0.12699999809E+01 0.  1.
       -4    1    3    3    0  502 -0.28782966053E+03 -0.74656982352E+02 -0.92760171241E+03  0.97409759688E+03  0.12699999809E+01 0. -1.
</event>
<event>
 5   0  0.4948645E-04  0.1497376E+04  0.7818609E-02  0.8886200E-01
        2   -1    0    0  501    0  0.00000000000E+00  0.00000000000E+00  0.29628196296E+03  0.29628196297E+03  0.25500000920E-02 0.  1.
       -2   -1    0    0    0  501  0.00000000000E+00  0.00000000000E+00 -0.18918923777E+04  0.18918923777E+04  0.25500000920E-02 0. -1.
    10030    2    1    2    0    0  0.00000000000E+00  0.00000000000E+00 -0.15956104147E+04  0.21881743407E+04  0.14973758211E+04 0.  0.
        1    1    3    3  502    0  0.15609846211E+02 -0.50926582656E+03 -0.15994644275E+04  0.16786547603E+04  0.50400001928E-02 0. -1.
       -1    1    3    3    0  502 -0.15609846211E+02  0.50926582656E+03  0.38540127079E+01  0.50951958043E+03  0.50400001928E-02 0.  1.
</event>
<event>
 5   0  0.2542737E-04  0.1481867E+04  0.7818609E-02  0.8896601E-01
        1   -1    0    0  501    0  0.00000000000E+00  0.00000000000E+00  0.53633267765E+03  0.53633267767E+03  0.50400001928E-02 0. -1.
       -1   -1    0    0    0  501  0.00000000000E+00  0.00000000000E+00 -0.10235858198E+04  0.10235858198E+04  0.50400001928E-02 0.  1.
    10030    2    1    2    0    0  0.00000000000E+00  0.00000000000E+00 -0.48725314214E+03  0.15599184975E+04  0.14818670974E+04 0.  0.
        1    1    3    3  502    0 -0.44716024172E+03 -0.42920788237E+03 -0.67097836674E+03  0.91344603383E+03  0.50400001928E-02 0. -1.
       -1    1    3    3    0  502  0.44716024172E+03  0.42920788237E+03  0.18372522460E+03  0.64647246364E+03  0.50400001928E-02 0.  1.
</event>
<event>
 5   0  0.4785496E-04  0.1501657E+04  0.7818609E-02  0.8883352E-01
        2   -1    0    0  501    0  0.00000000000E+00  0.00000000000E+00  0.21612363159E+04  0.21612363159E+04  0.25500000920E-02 0.  1.
       -2   -1    0    0    0  501  0.00000000000E+00  0.00000000000E+00 -0.26084304394E+03  0.26084304395E+03  0.25500000920E-02 0. -1.
    10030    2    1    2    0    0  0.00000000000E+00  0.00000000000E+00  0.19003932719E+04  0.24220793598E+04  0.15016570305E+04 0.  0.
        4    1    3    3  502    0 -0.53843042070E+03  0.20279725331E+03  0.17211872250E+03  0.60055017394E+03  0.12699999809E+01 0. -1.
       -4    1    3    3    0  502  0.53843042070E+03 -0.20279725331E+03  0.17282745494E+04  0.18215291859E+04  0.12699999809E+01 0.  1.
</event>
<event>
 5   0  0.4569211E-04  0.1500979E+04  0.7818609E-02  0.8883802E-01
       -2   -1    0    0    0  501  0.00000000000E+00  0.00000000000E+00  0.39476194772E+03  0.39476194773E+03  0.25500000920E-02 0.  1.
        2   -1    0    0  501    0  0.00000000000E+00  0.00000000000E+00 -0.14267697113E+04  0.14267697113E+04  0.25500000920E-02 0. -1.
    10030    2    1    2    0    0  0.00000000000E+00  0.00000000000E+00 -0.10320077636E+04  0.18215316590E+04  0.15009788675E+04 0.  0.
        5    1    3    3  502    0 -0.25893346757E+03  0.68180912275E+03 -0.30129562668E+03  0.78912062775E+03  0.46999998093E+01 0.  1.
       -5    1    3    3    0  502  0.25893346757E+03 -0.68180912275E+03 -0.73071213688E+03  0.10324110313E+04  0.46999998093E+01 0. -1.
</event>
<event>
 5   0  0.2603873E-04  0.1499727E+04  0.7818609E-02  0.8884634E-01
       -1   -1    0    0    0  501  0.00000000000E+00  0.00000000000E+00  0.45696440049E+03  0.45696440052E+03  0.50400001928E-02 0. -1.
        1   -1    0    0  501    0  0.00000000000E+00  0.00000000000E+00 -0.12305020682E+04  0.12305020683E+04  0.50400001928E-02 0.  1.
    10030    2    1    2    0    0  0.00000000000E+00  0.00000000000E+00 -0.77353766776E+03  0.16874664688E+04  0.14997274952E+04 0.  0.
        2    1    3    3  502    0 -0.39448301792E+03  0.17451790369E+03  0.30338365633E+03  0.52736609018E+03  0.25500000920E-02 0. -1.
       -2    1    3    3    0  502  0.39448301792E+03 -0.17451790369E+03 -0.10769213241E+04  0.11601003786E+04  0.25500000920E-02 0.  1.
</event>
<event>
 5   0  0.2542737E-04  0.1504113E+04  0.7818609E-02  0.8881722E-01
       -1   -1    0    0    0  501  0.00000000000E+00  0.00000000000E+00  0.40707621724E+03  0.40707621727E+03  0.50400001928E-02 0. -1.
        1   -1    0    0  501    0  0.00000000000E+00  0.00000000000E+00 -0.13893937774E+04  0.13893937774E+04  0.50400001928E-02 0.  1.
    10030    2    1    2    0    0  0.00000000000E+00  0.00000000000E+00 -0.98231756017E+03  0.17964699947E+04  0.15041132447E+04 0.  0.
        1    1    3    3  502    0 -0.33501368351E+03 -0.35451068565E+03  0.19253640852E+03  0.52438751225E+03  0.50400001928E-02 0. -1.
       -1    1    3    3    0  502  0.33501368351E+03  0.35451068565E+03 -0.11748539687E+04  0.12720824824E+04  0.50400001928E-02 0.  1.
</event>
<event>
 5   0  0.4726600E-04  0.1499461E+04  0.7818609E-02  0.8884811E-01
       -2   -1    0    0    0  501  0.00000000000E+00  0.00000000000E+00  0.38575740994E+03  0.38575740995E+03  0.25500000920E-02 0. -1.
        2   -1    0    0  501    0  0.00000000000E+00  0.00000000000E+00 -0.14571233921E+04  0.14571233921E+04  0.25500000920E-02 0.  1.
    10030    2    1    2    0    0  0.00000000000E+00  0.00000000000E+00 -0.10713659821E+04  0.18428808020E+04  0.14994614309E+04 0.  0.
        2    1    3    3  502    0  0.22127822876E+03  0.56561098087E+03 -0.10759193850E+04  0.12355089475E+04  0.25500000920E-02 0.  1.
       -2    1    3    3    0  502 -0.22127822876E+03 -0.56561098087E+03  0.45534029067E+01  0.60737185454E+03  0.25500000920E-02 0. -1.
</event>
<event>
 5   0  0.2605471E-04  0.1468795E+04  0.7818609E-02  0.8905473E-01
        1   -1    0    0  501    0  0.00000000000E+00  0.00000000000E+00  0.50798007794E+03  0.50798007797E+03  0.50400001928E-02 0.  1.
       -1   -1    0    0    0  501  0.00000000000E+00  0.00000000000E+00 -0.10617337900E+04  0.10617337900E+04  0.50400001928E-02 0. -1.
    10030    2    1    2    0    0  0.00000000000E+00  0.00000000000E+00 -0.55375371203E+03  0.15697138679E+04  0.14687948984E+04 0.  0.
        3    1    3    3  502    0 -0.19012423269E+03 -0.11752867541E+03  0.47074532399E+03  0.52111551853E+03  0.10100000352E+00 0.  1.
       -3    1    3    3    0  502  0.19012423269E+03  0.11752867541E+03 -0.10244990360E+04  0.10485983494E+04  0.10100000352E+00 0. -1.
</event>
<event>
 5   0  0.2605471E-04  0.1314237E+04  0.7818609E-02  0.9018350E-01
        1   -1    0    0  501    0  0.00000000000E+00  0.00000000000E+00  0.81927437616E+03  0.81927437618E+03  0.50400001928E-02 0. -1.
       -1   -1    0    0    0  501  0.00000000000E+00  0.00000000000E+00 -0.52705774666E+03  0.52705774668E+03  0.50400001928E-02 0.  1.
    10030    2    1    2    0    0  0.00000000000E+00  0.00000000000E+00  0.29221662951E+03  0.13463321229E+04  0.13142372794E+04 0.  0.
        3    1    3    3  502    0 -0.20415960274E+03 -0.43942295572E+03  0.60083029548E+03  0.77186186042E+03  0.10100000352E+00 0. -1.
       -3    1    3    3    0  502  0.20415960274E+03  0.43942295572E+03 -0.30861366597E+03  0.57447026244E+03  0.10100000352E+00 0.  1.
</event>
<event>
 5   0  0.4726600E-04  0.1503192E+04  0.7818609E-02  0.8882333E-01
       -2   -1    0    0    0  501  0.00000000000E+00  0.00000000000E+00  0.47953171441E+03  0.47953171442E+03  0.25500000920E-02 0.  1.
        2   -1    0    0  501    0  0.00000000000E+00  0.00000000000E+00 -0.11780165405E+04  0.11780165405E+04  0.25500000920E-02 0. -1.
    10030    2    1    2    0    0  0.00000000000E+00  0.00000000000E+00 -0.69848482608E+03  0.16575482549E+04  0.15031916595E+04 0.  0.
        2    1    3    3  502    0 -0.57006658649E+03  0.40829453846E+03 -0.64761207923E+03  0.95450602321E+03  0.25500000920E-02 0. -1.
       -2    1    3    3    0  502  0.57006658649E+03 -0.40829453846E+03 -0.50872746844E+02  0.70304223169E+03  0.25500000920E-02 0.  1.
</event>
<event>
 5   0  0.2565416E-04  0.1520288E+04  0.7818609E-02  0.8871073E-01
       -1   -1    0    0    0  501  0.00000000000E+00  0.00000000000E+00  0.65327003911E+03  0.65327003913E+03  0.50400001928E-02 0. -1.
        1   -1    0    0  501    0  0.00000000000E+00  0.00000000000E+00 -0.88450184450E+03  0.88450184451E+03  0.50400001928E-02 0.  1.
    10030    2    1    2    0    0  0.00000000000E+00  0.00000000000E+00 -0.23123180539E+03  0.15377718836E+04  0.15202875446E+04 0.  0.
        5    1    3    3  502    0 -0.65806854431E+03 -0.36147676878E+03  0.43942994293E+01  0.75084023817E+03  0.46999998093E+01 0.  1.
       -5    1    3    3    0  502  0.65806854431E+03  0.36147676878E+03 -0.23562610482E+03  0.78693164548E+03  0.46999998093E+01 0. -1.
</event>
<event>
 5   0  0.4768387E-04  0.1502008E+04  0.7818609E-02  0.8883119E-01
        2   -1    0    0  501    0  0.00000000000E+00  0.00000000000E+00  0.17813556821E+04  0.17813556821E+04  0.25500000920E-02 0.  1.
       -2   -1    0    0    0  501  0.00000000000E+00  0.00000000000E+00 -0.31661683120E+03  0.31661683121E+03  0.25500000920E-02 0. -1.
    10030    2    1    2    0    0  0.00000000000E+00  0.00000000000E+00  0.14647388509E+04  0.20979725133E+04  0.15020082441E+04 0.  0.
        3    1    3    3  502    0  0.26638343121E+02 -0.32739748067E+02 -0.31495882946E+03  0.31777439621E+03  0.10100000352E+00 0. -1.
       -3    1    3    3    0  502 -0.26638343121E+02  0.32739748067E+02  0.17796976804E+04  0.17801981171E+04  0.10100000352E+00 0.  1.
</event>
<event>
 5   0  0.4768387E-04  0.1505526E+04  0.7818609E-02  0.8880786E-01
        2   -1    0    0  501    0  0.00000000000E+00  0.00000000000E+00  0.75208674730E+03  0.75208674731E+03  0.25500000920E-02 0. -1.
       -2   -1    0    0    0  501  0.00000000000E+00  0.00000000000E+00 -0.75344000199E+03  0.75344000200E+03  0.25500000920E-02 0.  1.
    10030    2    1    2    0    0  0.00000000000E+00  0.00000000000E+00 -0.13532546895E+01  0.15055267493E+04  0.15055261411E+04 0.  0.
        3    1    3    3  502    0  0.18394847372E+03  0.17260700147E+03  0.70856410659E+03  0.75212586798E+03  0.10100000352E+00 0. -1.
       -3    1    3    3    0  502 -0.18394847372E+03 -0.17260700147E+03 -0.70991736127E+03  0.75340088132E+03  0.10100000352E+00 0.  1.
</event>
<event>
 5   0  0.4726600E-04  0.1499812E+04  0.7818609E-02  0.8884578E-01
        2   -1    0    0  501    0  0.00000000000E+00  0.00000000000E+00  0.40266045597E+03  0.40266045598E+03  0.25500000920E-02 0. -1.
       -2   -1    0    0    0  501  0.00000000000E+00  0.00000000000E+00 -0.13966091458E+04  0.13966091458E+04  0.25500000920E-02 0.  1.
    10030    2    1    2    0    0  0.00000000000E+00  0.00000000000E+00 -0.99394868982E+03  0.17992696018E+04  0.14998123555E+04 0.  0.
        2    1    3    3  502    0 -0.87119572356E+02  0.63541592259E+03 -0.30775831168E+02  0.64209840863E+03  0.25500000920E-02 0. -1.
       -2    1    3    3    0  502  0.87119572356E+02 -0.63541592259E+03 -0.96317285866E+03  0.11571711931E+04  0.25500000920E-02 0.  1.
</event>
<event>
 5   0  0.2544374E-04  0.1500925E+04  0.7818609E-02  0.8883838E-01
       -1   -1    0    0    0  501  0.00000000000E+00  0.00000000000E+00  0.69959269628E+03  0.69959269630E+03  0.50400001928E-02 0.  1.
        1   -1    0    0  501    0  0.00000000000E+00  0.00000000000E+00 -0.80503169876E+03  0.80503169878E+03  0.50400001928E-02 0. -1.
    10030    2    1    2    0    0  0.00000000000E+00  0.00000000000E+00 -0.10543900248E+03  0.15046243951E+04  0.15009254435E+04 0.  0.
        4    1    3    3  502    0 -0.14258472472E+02  0.11229390268E+03  0.69098444808E+03  0.70019593329E+03  0.12699999809E+01 0.  1.
       -4    1    3    3    0  502  0.14258472472E+02 -0.11229390268E+03 -0.79642345056E+03  0.80442846178E+03  0.12699999809E+01 0. -1.
</event>
<event>
 5   0  0.4948645E-04  0.1496338E+04  0.7818609E-02  0.8886892E-01
       -2   -1    0    0    0  501  0.00000000000E+00  0.00000000000E+00  0.45391724469E+03  0.45391724469E+03  0.25500000920E-02 0.  1.
        2   -1    0    0  501    0  0.00000000000E+00  0.00000000000E+00 -0.12331689028E+04  0.12331689028E+04  0.25500000920E-02 0. -1.
    10030    2    1    2    0    0  0.00000000000E+00  0.00000000000E+00 -0.77925165814E+03  0.16870861475E+04  0.14963377033E+04 0.  0.
        1    1    3    3  502    0  0.20354162628E+03  0.61584631580E+03 -0.81007154117E+03  0.10377436004E+04  0.50400001928E-02 0. -1.
       -1    1    3    3    0  502 -0.20354162628E+03 -0.61584631580E+03  0.30819883031E+02  0.64934254714E+03  0.50400001928E-02 0.  1.
</event>
<event>
 5   0  0.4726600E-04  0.1492057E+04  0.7818609E-02  0.8889752E-01
        2   -1    0    0  501    0  0.00000000000E+00  0.00000000000E+00  0.82792849498E+03  0.82792849499E+03  0.25500000920E-02 0.  1.
       -2   -1    0    0    0  501  0.00000000000E+00  0.00000000000E+00 -0.67223054908E+03  0.67223054908E+03  0.25500000920E-02 0. -1.
    10030    2    1    2    0    0  0.00000000000E+00  0.00000000000E+00  0.15569794591E+03  0.15001590441E+04  0.14920574075E+04 0.  0.
        2    1    3    3  502    0 -0.67301381468E+03 -0.17589151948E+03 -0.19319485805E+03  0.72194852625E+03  0.25500000920E-02 0. -1.
       -2    1    3    3    0  502  0.67301381468E+03  0.17589151948E+03  0.34889280396E+03  0.77821051781E+03  0.25500000920E-02 0.  1.
</event>
<event>
 5   0  0.4948645E-04  0.1500691E+04  0.7818609E-02  0.8883994E-01
       -2   -1    0    0    0  501  0.00000000000E+00  0.00000000000E+00  0.44832069284E+03  0.44832069284E+03  0.25500000920E-02 0.  1.
        2   -1    0    0  501    0  0.00000000000E+00  0.00000000000E+00 -0.12558378321E+04  0.12558378321E+04  0.25500000920E-02 0. -1.
    10030    2    1    2    0    0  0.00000000000E+00  0.00000000000E+00 -0.80751713929E+03  0.17041585250E+04  0.15006906237E+04 0.  0.
        1    1    3    3  502    0 -0.61526281088E+03 -0.42910275593E+03 -0.42471570006E+03  0.86200981868E+03  0.50400001928E-02 0. -1.
       -1    1    3    3    0  502  0.61526281088E+03  0.42910275593E+03 -0.38280143922E+03  0.84214870629E+03  0.50400001928E-02 0.  1.
</event>
<event>
 5   0  0.4768387E-04  0.1508914E+04  0.7818609E-02  0.8878547E-01
       -2   -1    0    0    0  501  0.00000000000E+00  0.00000000000E+00  0.57153660618E+03  0.57153660618E+03  0.25500000920E-02 0. -1.
        2   -1    0    0  501    0  0.00000000000E+00  0.00000000000E+00 -0.99592085679E+03  0.99592085680E+03  0.25500000920E-02 0.  1.
    10030    2    1    2    0    0  0.00000000000E+00  0.00000000000E+00 -0.42438425061E+03  0.15674574630E+04  0.15089138167E+04 0.  0.
        3    1    3    3  502    0  0.14118317435E+03 -0.60333868805E+03 -0.65930404216E+03  0.90478289740E+03  0.10100000352E+00 0.  1.
       -3    1    3    3    0  502 -0.14118317435E+03  0.60333868805E+03  0.23491979154E+03  0.66267456558E+03  0.10100000352E+00 0. -1.
</event>
<event>
 5   0  0.2603873E-04  0.1494137E+04  0.7818609E-02  0.8888361E-01
       -1   -1    0    0    0  501  0.00000000000E+00  0.00000000000E+00  0.37421747682E+03  0.37421747685E+03  0.50400001928E-02 0. -1.
        1   -1    0    0  501    0  0.00000000000E+00  0.00000000000E+00 -0.14914092136E+04  0.14914092136E+04  0.50400001928E-02 0.  1.
    10030    2    1    2    0    0  0.00000000000E+00  0.00000000000E+00 -0.11171917368E+04  0.18656266905E+04  0.14941370658E+04 0.  0.
        2    1    3    3  502    0  0.51822643220E+03  0.51713891373E+03 -0.37288904270E+03  0.82160667555E+03  0.25500000920E-02 0. -1.
       -2    1    3    3    0  502 -0.51822643220E+03 -0.51713891373E+03 -0.74430269412E+03  0.10440200149E+04  0.25500000920E-02 0.  1.
</event>
<event>
 5   0  0.4948645E-04  0.1497641E+04  0.7818609E-02  0.8886023E-01
        2   -1    0    0  501    0  0.00000000000E+00  0.00000000000E+00  0.64438021597E+03  0.64438021597E+03  0.25500000920E-02 0. -1.
       -2   -1    0    0    0  501  0.00000000000E+00  0.00000000000E+00 -0.87018817076E+03  0.87018817076E+03  0.25500000920E-02 0.  1.
    10030    2    1    2    0    0  0.00000000000E+00  0.00000000000E+00 -0.22580795479E+03  0.15145683867E+04  0.14976408667E+04 0.  0.
        1    1    3    3  502    0  0.27314172928E+03  0.66292207741E+03 -0.33135464165E+03  0.78985314050E+03  0.50400001928E-02 0.  1.
       -1    1    3    3    0  502 -0.27314172928E+03 -0.66292207741E+03  0.10554668686E+03  0.72471524623E+03  0.50400001928E-02 0. -1.
</event>
<event>
 5   0  0.4785496E-04  0.1490107E+04  0.7818609E-02  0.8891059E-01
       -2   -1    0    0    0  501  0.00000000000E+00  0.00000000000E+00  0.74694648324E+03  0.74694648325E+03  0.25500000920E-02 0. -1.
        2   -1    0    0  501    0  0.00000000000E+00  0.00000000000E+00 -0.74316496894E+03  0.74316496895E+03  0.25500000920E-02 0.  1.
    10030    2    1    2    0    0  0.00000000000E+00  0.00000000000E+00  0.37815142981E+01  0.14901114522E+04  0.14901066539E+04 0.  0.
        4    1    3    3  502    0  0.41995758246E+03  0.61094529366E+03 -0.72165704685E+02  0.74486779011E+03  0.12699999809E+01 0.  1.
       -4    1    3    3    0  502 -0.41995758246E+03 -0.61094529366E+03  0.75947218983E+02  0.74524366209E+03  0.12699999809E+01 0. -1.
</event>
<event>
 5   0  0.2542737E-04  0.1506396E+04  0.7818609E-02  0.8880211E-01
        1   -1    0    0  501    0  0.00000000000E+00  0.00000000000E+00  0.14857440909E+04  0.14857440909E+04  0.50400001928E-02 0. -1.
       -1   -1    0    0    0  501  0.00000000000E+00  0.00000000000E+00 -0.38183368956E+03  0.38183368960E+03  0.50400001928E-02 0.  1.
    10030    2    1    2    0    0  0.00000000000E+00  0.00000000000E+00  0.11039104013E+04  0.18675777805E+04  0.15063958948E+04 0.  0.
        1    1    3    3  502    0  0.77761859290E+02 -0.59710984516E+03  0.11128995658E+04  0.12653586517E+04  0.50400001928E-02 0. -1.
       -1    1    3    3    0  502 -0.77761859290E+02  0.59710984516E+03 -0.89891644591E+01  0.60221912876E+03  0.50400001928E-02 0.  1.
</event>
<event>
 5   0  0.2603873E-04  0.1505096E+04  0.7818609E-02  0.8881071E-01
       -1   -1    0    0    0  501  0.00000000000E+00  0.00000000000E+00  0.10380479012E+04  0.10380479012E+04  0.50400001928E-02 0. -1.
        1   -1    0    0  501    0  0.00000000000E+00  0.00000000000E+00 -0.54557096028E+03  0.54557096030E+03  0.50400001928E-02 0.  1.
    10030    2    1    2    0    0  0.00000000000E+00  0.00000000000E+00  0.49247694093E+03  0.15836188615E+04  0.15050963960E+04 0.  0.
        2    1    3    3  502    0  0.19669370210E+03 -0.67577995241E+02  0.10072088414E+04  0.10284575091E+04  0.25500000920E-02 0. -1.
       -2    1    3    3    0  502 -0.19669370210E+03  0.67577995241E+02 -0.51473190044E+03  0.55516135242E+03  0.25500000920E-02 0.  1.
</event>
<event>
 5   0  0.2565416E-04  0.1512308E+04  0.7818609E-02  0.8876309E-01
        1   -1    0    0  501    0  0.00000000000E+00  0.00000000000E+00  0.15882387226E+04  0.15882387226E+04  0.50400001928E-02 0. -1.
       -1   -1    0    0    0  501  0.00000000000E+00  0.00000000000E+00 -0.36000169710E+03  0.36000169713E+03  0.50400001928E-02 0.  1.
    10030    2    1    2    0    0  0.00000000000E+00  0.00000000000E+00  0.12282370255E+04  0.19482404198E+04  0.15123076877E+04 0.  0.
        5    1    3    3  502    0  0.53217901533E+03 -0.34614869815E+03  0.84970928348E+02  0.64052757494E+03  0.46999998093E+01 0.  1.
       -5    1    3    3    0  502 -0.53217901533E+03  0.34614869815E+03  0.11432660972E+04  0.13077128448E+04  0.46999998093E+01 0. -1.
</event>
<event>
 5   0  0.1792000E-04  0.1494718E+04  0.7818609E-02  0.8887973E-01
        3   -1    0    0  501    0  0.00000000000E+00  0.00000000000E+00  0.46686755165E+03  0.46686756257E+03  0.10100000352E+00 0.  1.
       -3   -1    0    0    0  501  0.00000000000E+00  0.00000000000E+00 -0.11963687184E+04  0.11963687227E+04  0.10100000352E+00 0. -1.
    10030    2    1    2    0    0  0.00000000000E+00  0.00000000000E+00 -0.72950116677E+03  0.16632362852E+04  0.14947183642E+04 0.  0.
        2    1    3    3  502    0 -0.74387466765E+03  0.18246209659E+02 -0.44235030942E+03  0.86565364990E+03  0.25500000920E-02 0. -1.
       -2    1    3    3    0  502  0.74387466765E+03 -0.18246209659E+02 -0.28715085734E+03  0.79758263535E+03  0.25500000920E-02 0.  1.
</event>
<event>
 5   0  0.2605471E-04  0.1497673E+04  0.7818609E-02  0.8886001E-01
       -1   -1    0    0    0  501  0.00000000000E+00  0.00000000000E+00  0.94601057707E+03  0.94601057709E+03  0.50400001928E-02 0. -1.
        1   -1    0    0  501    0  0.00000000000E+00  0.00000000000E+00 -0.59275919960E+03  0.59275919963E+03  0.50400001928E-02 0.  1.
    10030    2    1    2    0    0  0.00000000000E+00  0.00000000000E+00  0.35325137747E+03  0.15387697767E+04  0.14976734925E+04 0.  0.
        3    1    3    3  502    0  0.34046002268E+03 -0.56481923610E+03  0.54107400285E+03  0.85305034041E+03  0.10100000352E+00 0.  1.
       -3    1    3    3    0  502 -0.34046002268E+03  0.56481923610E+03 -0.18782262538E+03  0.68571943630E+03  0.10100000352E+00 0. -1.
</event>
<event>
 5   0  0.4785496E-04  0.1496016E+04  0.7818609E-02  0.8887106E-01
        2   -1    0    0  501    0  0.00000000000E+00  0.00000000000E+00  0.15546793269E+04  0.15546793269E+04  0.25500000920E-02 0.  1.
       -2   -1    0    0    0  501  0.00000000000E+00  0.00000000000E+00 -0.35989162505E+03  0.35989162506E+03  0.25500000920E-02 0. -1.
    10030    2    1    2    0    0  0.00000000000E+00  0.00000000000E+00  0.11947877019E+04  0.19145709520E+04  0.14960161355E+04 0.  0.
        4    1    3    3  502    0 -0.12335098459E+03  0.12698622583E+03 -0.33269296294E+03  0.37686494588E+03  0.12699999809E+01 0. -1.
       -4    1    3    3    0  502  0.12335098459E+03 -0.12698622583E+03  0.15274806648E+04  0.15377060061E+04  0.12699999809E+01 0.  1.
</event>
<event>
 5   0  0.2542737E-04  0.1514555E+04  0.7818609E-02  0.8874831E-01
        1   -1    0    0  501    0  0.00000000000E+00  0.00000000000E+00  0.13079186369E+04  0.13079186370E+04  0.50400001928E-02 0. -1.
       -1   -1    0    0    0  501  0.00000000000E+00  0.00000000000E+00 -0.43845933202E+03  0.43845933205E+03  0.50400001928E-02 0.  1.
    10030    2    1    2    0    0  0.00000000000E+00  0.00000000000E+00  0.86945930492E+03  0.17463779690E+04  0.15145548943E+04 0.  0.
        1    1    3    3  502    0 -0.23112220740E+03  0.16742531063E+03 -0.37407714039E+03  0.47051292903E+03  0.50400001928E-02 0.  1.
       -1    1    3    3    0  502  0.23112220740E+03 -0.16742531063E+03  0.12435364453E+04  0.12758650400E+04  0.50400001928E-02 0. -1.
</event>
<event>
 5   0  0.4569211E-04  0.1498250E+04  0.7818609E-02  0.8885617E-01
       -2   -1    0    0    0  501  0.00000000000E+00  0.00000000000E+00  0.45109421941E+03  0.45109421942E+03  0.25500000920E-02 0.  1.
        2   -1    0    0  501    0  0.00000000000E+00  0.00000000000E+00 -0.12440604567E+04  0.12440604567E+04  0.25500000920E-02 0. -1.
    10030    2    1    2    0    0  0.00000000000E+00  0.00000000000E+00 -0.79296623727E+03  0.16951546761E+04  0.14982502870E+04 0.  0.
        5    1    3    3  502    0  0.35166621355E+03 -0.65953454595E+03 -0.45318363574E+03  0.87410093282E+03  0.46999998093E+01 0.  1.
       -5    1    3    3    0  502 -0.35166621355E+03  0.65953454595E+03 -0.33978260153E+03  0.82105374328E+03  0.46999998093E+01 0. -1.
</event>
<event>
 5   0  0.4569211E-04  0.1550555E+04  0.7818609E-02  0.8851513E-01
       -2   -1    0    0    0  501  0.00000000000E+00  0.00000000000E+00  0.14745345142E+04  0.14745345142E+04  0.25500000920E-02 0.  1.
        2   -1    0    0  501    0  0.00000000000E+00  0.00000000000E+00 -0.40762379540E+03  0.40762379541E+03  0.25500000920E-02 0. -1.
    10030    2    1    2    0    0  0.00000000000E+00  0.00000000000E+00  0.10669107188E+04  0.18821583097E+04  0.15505551975E+04 0.  0.
        5    1    3    3  502    0 -0.47565874487E+03  0.46071375286E+03  0.44094961477E+02  0.66368280019E+03  0.46999998093E+01 0. -1.
       -5    1    3    3    0  502  0.47565874487E+03 -0.46071375286E+03  0.10228157574E+04  0.12184755095E+04  0.46999998093E+01 0.  1.
</event>
<event>
 5   0  0.4569211E-04  0.1545530E+04  0.7818609E-02  0.8854728E-01
       -2   -1    0    0    0  501  0.00000000000E+00  0.00000000000E+00  0.10525509475E+04  0.10525509475E+04  0.25500000920E-02 0. -1.
        2   -1    0    0  501    0  0.00000000000E+00  0.00000000000E+00 -0.56735122706E+03  0.56735122707E+03  0.25500000920E-02 0.  1.
    10030    2    1    2    0    0  0.00000000000E+00  0.00000000000E+00  0.48519972045E+03  0.16199021746E+04  0.15455304224E+04 0.  0.
        5    1    3    3  502    0  0.15784804263E+02 -0.64742298653E+02 -0.56431903803E+03  0.56825944072E+03  0.46999998093E+01 0.  1.
       -5    1    3    3    0  502 -0.15784804263E+02  0.64742298653E+02  0.10495187585E+04  0.10516427339E+04  0.46999998093E+01 0. -1.
</event>
<event>
 5   0  0.4726600E-04  0.1518372E+04  0.7818609E-02  0.8872327E-01
       -2   -1    0    0    0  501  0.00000000000E+00  0.00000000000E+00  0.42718226448E+03  0.42718226448E+03  0.25500000920E-02 0.  1.
        2   -1    0    0  501    0  0.00000000000E+00  0.00000000000E+00 -0.13492215331E+04  0.13492215331E+04  0.25500000920E-02 0. -1.
    10030    2    1    2    0    0  0.00000000000E+00  0.00000000000E+00 -0.92203926866E+03  0.17764037976E+04  0.15183721676E+04 0.  0.
        2    1    3    3  502    0 -0.30594154282E+03  0.65331018563E+03 -0.73775199452E+03  0.10318393439E+04  0.25500000920E-02 0. -1.
       -2    1    3    3    0  502  0.30594154282E+03 -0.65331018563E+03 -0.18428727414E+03  0.74456445369E+03  0.25500000920E-02 0.  1.
</event>
<event>
 5   0  0.2544374E-04  0.1504223E+04  0.7818609E-02  0.8881649E-01
       -1   -1    0    0    0  501  0.00000000000E+00  0.00000000000E+00  0.36445161446E+03  0.36445161450E+03  0.50400001928E-02 0.  1.
        1   -1    0    0  501    0  0.00000000000E+00  0.00000000000E+00 -0.15521184663E+04  0.15521184663E+04  0.50400001928E-02 0. -1.
    10030    2    1    2    0    0  0.00000000000E+00  0.00000000000E+00 -0.11876668519E+04  0.19165700808E+04  0.15042234953E+04 0.  0.
        4    1    3    3  502    0  0.66953908291E+03  0.23623504011E+03 -0.91001409786E+03  0.11542169852E+04  0.12699999809E+01 0. -1.
       -4    1    3    3    0  502 -0.66953908291E+03 -0.23623504011E+03 -0.27765275401E+03  0.76235309564E+03  0.12699999809E+01 0.  1.
</event>
<event>
 5   0  0.4948645E-04  0.1495789E+04  0.7818609E-02  0.8887258E-01
        2   -1    0    0  501    0  0.00000000000E+00  0.00000000000E+00  0.51818786315E+03  0.51818786316E+03  0.25500000920E-02 0. -1.
       -2   -1    0    0    0  501  0.00000000000E+00  0.00000000000E+00 -0.10794272870E+04  0.10794272870E+04  0.25500000920E-02 0.  1.
    10030    2    1    2    0    0  0.00000000000E+00  0.00000000000E+00 -0.56123942381E+03  0.15976151501E+04  0.14957889146E+04 0.  0.
        1    1    3    3  502    0 -0.65568787231E+03  0.21306026773E+03  0.28983706730E+02  0.69004443253E+03  0.50400001928E-02 0. -1.
       -1    1    3    3    0  502  0.65568787231E+03 -0.21306026773E+03 -0.59022313054E+03  0.90757071759E+03  0.50400001928E-02 0.  1.
</event>
<event>
 5   0  0.4569211E-04  0.1495673E+04  0.7818609E-02  0.8887336E-01
        2   -1    0    0  501    0  0.00000000000E+00  0.00000000000E+00  0.15107648277E+04  0.15107648277E+04  0.25500000920E-02 0. -1.
       -2   -1    0    0    0  501  0.00000000000E+00  0.00000000000E+00 -0.37018282172E+03  0.37018282173E+03  0.25500000920E-02 0.  1.
    10030    2    1    2    0    0  0.00000000000E+00  0.00000000000E+00  0.11405820060E+04  0.18809476495E+04  0.14956726740E+04 0.  0.
        5    1    3    3  502    0  0.57353462044E+03  0.47224862550E+03  0.46301623362E+03  0.87542381034E+03  0.46999998093E+01 0. -1.
       -5    1    3    3    0  502 -0.57353462044E+03 -0.47224862550E+03  0.67756577239E+03  0.10055238391E+04  0.46999998093E+01 0.  1.
</event>
<event>
 5   0  0.4785496E-04  0.1502726E+04  0.7818609E-02  0.8882642E-01
        2   -1    0    0  501    0  0.00000000000E+00  0.00000000000E+00  0.67710326587E+03  0.67710326587E+03  0.25500000920E-02 0.  1.
       -2   -1    0    0    0  501  0.00000000000E+00  0.00000000000E+00 -0.83376706814E+03  0.83376706814E+03  0.25500000920E-02 0. -1.
    10030    2    1    2    0    0  0.00000000000E+00  0.00000000000E+00 -0.15666380227E+03  0.15108703340E+04  0.15027260626E+04 0.  0.
        4    1    3    3  502    0  0.22813919297E+03 -0.48841560630E+03  0.44790468997E+03  0.70086911763E+03  0.12699999809E+01 0.  1.
       -4    1    3    3    0  502 -0.22813919297E+03  0.48841560630E+03 -0.60456849224E+03  0.81000121639E+03  0.12699999809E+01 0. -1.
</event>
<event>
 5   0  0.4768387E-04  0.1493223E+04  0.7818609E-02  0.8888972E-01
       -2   -1    0    0    0  501  0.00000000000E+00  0.00000000000E+00  0.14665628954E+04  0.14665628954E+04  0.25500000920E-02 0. -1.
        2   -1    0    0  501    0  0.00000000000E+00  0.00000000000E+00 -0.38009208346E+03  0.38009208347E+03  0.25500000920E-02 0.  1.
    10030    2    1    2    0    0  0.00000000000E+00  0.00000000000E+00  0.10864708119E+04  0.18466549788E+04  0.14932232873E+04 0.  0.
        3    1    3    3  502    0  0.56540940171E+03 -0.20828865014E+02  0.11456792332E+04  0.12777724949E+04  0.10100000352E+00 0. -1.
       -3    1    3    3    0  502 -0.56540940171E+03  0.20828865014E+02 -0.59208421308E+02  0.56888248392E+03  0.10100000352E+00 0.  1.
</event>
<event>
 5   0  0.4569211E-04  0.1493275E+04  0.7818609E-02  0.8888938E-01
       -2   -1    0    0    0  501  0.00000000000E+00  0.00000000000E+00  0.53124512847E+03  0.53124512848E+03  0.25500000920E-02 0.  1.
        2   -1    0    0  501    0  0.00000000000E+00  0.00000000000E+00 -0.10493598491E+04  0.10493598491E+04  0.25500000920E-02 0. -1.
    10030    2    1    2    0    0  0.00000000000E+00  0.00000000000E+00 -0.51811472063E+03  0.15806049776E+04  0.14932746671E+04 0.  0.
        5    1    3    3  502    0  0.58468387582E+03 -0.37932939310E+03 -0.54248407768E+03  0.88320840555E+03  0.46999998093E+01 0. -1.
       -5    1    3    3    0  502 -0.58468387582E+03  0.37932939310E+03  0.24369357050E+02  0.69739657202E+03  0.46999998093E+01 0.  1.
</event>
<event>
 5   0  0.2544374E-04  0.1501458E+04  0.7818609E-02  0.8883484E-01
       -1   -1    0    0    0  501  0.00000000000E+00  0.00000000000E+00  0.39481601764E+03  0.39481601768E+03  0.50400001928E-02 0.  1.
        1   -1    0    0  501    0  0.00000000000E+00  0.00000000000E+00 -0.14274844673E+04  0.14274844673E+04  0.50400001928E-02 0. -1.
    10030    2    1    2    0    0  0.00000000000E+00  0.00000000000E+00 -0.10326684496E+04  0.18223004849E+04  0.15014576020E+04 0.  0.
        4    1    3    3  502    0  0.14103415508E+03 -0.32871099132E+03  0.28474609295E+03  0.45719087815E+03  0.12699999809E+01 0.  1.
       -4    1    3    3    0  502 -0.14103415508E+03  0.32871099132E+03 -0.13174145426E+04  0.13651096068E+04  0.12699999809E+01 0. -1.
</event>
<event>
 5   0  0.2605471E-04  0.1489638E+04  0.7818609E-02  0.8891373E-01
        1   -1    0    0  501    0  0.00000000000E+00  0.00000000000E+00  0.55326239173E+03  0.55326239175E+03  0.50400001928E-02 0.  1.
       -1   -1    0    0    0  501  0.00000000000E+00  0.00000000000E+00 -0.10026985919E+04  0.10026985919E+04  0.50400001928E-02 0. -1.
    10030    2    1    2    0    0  0.00000000000E+00  0.00000000000E+00 -0.44943620015E+03  0.15559609836E+04  0.14896381053E+04 0.  0.
        3    1    3    3  502    0  0.59862452709E+03 -0.31552669870E+03  0.10033999867E+03  0.68408811389E+03  0.10100000352E+00 0.  1.
       -3    1    3    3    0  502 -0.59862452709E+03  0.31552669870E+03 -0.54977619882E+03  0.87187286976E+03  0.10100000352E+00 0. -1.
</event>
<event>
 5   0  0.2565416E-04  0.1487545E+04  0.7818609E-02  0.8892778E-01
       -1   -1    0    0    0  501  0.00000000000E+00  0.00000000000E+00  0.47724920513E+03  0.47724920516E+03  0.50400001928E-02 0.  1.
        1   -1    0    0  501    0  0.00000000000E+00  0.00000000000E+00 -0.11591371564E+04  0.11591371564E+04  0.50400001928E-02 0. -1.
    10030    2    1    2    0    0  0.00000000000E+00  0.00000000000E+00 -0.68188795130E+03  0.16363863616E+04  0.14875446703E+04 0.  0.
        5    1    3    3  502    0  0.39379898534E+03  0.61644976557E+03 -0.48888956171E+03  0.87984262676E+03  0.46999998093E+01 0. -1.
       -5    1    3    3    0  502 -0.39379898534E+03 -0.61644976557E+03 -0.19299838960E+03  0.75654373483E+03  0.46999998093E+01 0.  1.
</event>
<event>
 5   0  0.4948645E-04  0.1499338E+04  0.7818609E-02  0.8884893E-01
        2   -1    0    0  501    0  0.00000000000E+00  0.00000000000E+00  0.61338068301E+03  0.61338068302E+03  0.25500000920E-02 0. -1.
       -2   -1    0    0    0  501  0.00000000000E+00  0.00000000000E+00 -0.91623964868E+03  0.91623964869E+03  0.25500000920E-02 0.  1.
    10030    2    1    2    0    0  0.00000000000E+00  0.00000000000E+00 -0.30285896567E+03  0.15296203317E+04  0.14993381227E+04 0.  0.
        1    1    3    3  502    0  0.41012055167E+03  0.58471860082E+03 -0.38386653749E+03  0.81083181220E+03  0.50400001928E-02 0.  1.
       -1    1    3    3    0  502 -0.41012055167E+03 -0.58471860082E+03  0.81007571819E+02  0.71878851950E+03  0.50400001928E-02 0. -1.
</event>
<event>
 5   0  0.4569211E-04  0.1318167E+04  0.7818609E-02  0.9015282E-01
        2   -1    0    0  501    0  0.00000000000E+00  0.00000000000E+00  0.70744406655E+03  0.70744406656E+03  0.25500000920E-02 0.  1.
       -2   -1    0    0    0  501  0.00000000000E+00  0.00000000000E+00 -0.61402848743E+03  0.61402848743E+03  0.25500000920E-02 0. -1.
    10030    2    1    2    0    0  0.00000000000E+00  0.00000000000E+00  0.93415579125E+02  0.13214725540E+04  0.13181666209E+04 0.  0.
        5    1    3    3  502    0  0.41997950231E+03 -0.11581981351E+03 -0.44907442867E+03  0.62568917526E+03  0.46999998093E+01 0. -1.
       -5    1    3    3    0  502 -0.41997950231E+03  0.11581981351E+03  0.54249000779E+03  0.69578337873E+03  0.46999998093E+01 0.  1.
</event>
<event>
 5   0  0.2565416E-04  0.1498129E+04  0.7818609E-02  0.8885698E-01
       -1   -1    0    0    0  501  0.00000000000E+00  0.00000000000E+00  0.70425239832E+03  0.70425239834E+03  0.50400001928E-02 0.  1.
        1   -1    0    0  501    0  0.00000000000E+00  0.00000000000E+00 -0.79672819492E+03  0.79672819494E+03  0.50400001928E-02 0. -1.
    10030    2    1    2    0    0  0.00000000000E+00  0.00000000000E+00 -0.92475796607E+02  0.15009805933E+04  0.14981291561E+04 0.  0.
        5    1    3    3  502    0  0.71865736487E+03  0.15033639140E+03  0.10238936510E+03  0.74133333309E+03  0.46999998093E+01 0.  1.
       -5    1    3    3    0  502 -0.71865736487E+03 -0.15033639140E+03 -0.19486516171E+03  0.75964726019E+03  0.46999998093E+01 0. -1.
</event>
<event>
 5   0  0.2542737E-04  0.1500598E+04  0.7818609E-02  0.8884055E-01
       -1   -1    0    0    0  501  0.00000000000E+00  0.00000000000E+00  0.69681751028E+03  0.69681751030E+03  0.50400001928E-02 0.  1.
        1   -1    0    0  501    0  0.00000000000E+00  0.00000000000E+00 -0.80788510255E+03  0.80788510257E+03  0.50400001928E-02 0. -1.
    10030    2    1    2    0    0  0.00000000000E+00  0.00000000000E+00 -0.11106759227E+03  0.15047026129E+04  0.15005978619E+04 0.  0.
        1    1    3    3  502    0 -0.43600392253E+03 -0.53312254493E+03 -0.35405507880E+03  0.77438625196E+03  0.50400001928E-02 0. -1.
       -1    1    3    3    0  502  0.43600392253E+03  0.53312254493E+03  0.24298748653E+03  0.73031636091E+03  0.50400001928E-02 0.  1.
</event>
<event>
 5   0  0.4726600E-04  0.1522043E+04  0.7818609E-02  0.8869925E-01
        2   -1    0    0  501    0  0.00000000000E+00  0.00000000000E+00  0.91881490949E+03  0.91881490949E+03  0.25500000920E-02 0.  1.
       -2   -1    0    0    0  501  0.00000000000E+00  0.00000000000E+00 -0.63032717395E+03  0.63032717396E+03  0.25500000920E-02 0. -1.
    10030    2    1    2    0    0  0.00000000000E+00  0.00000000000E+00  0.28848773553E+03  0.15491420834E+04  0.15220433703E+04 0.  0.
        2    1    3    3  502    0  0.56251930743E+02 -0.66453579900E+03 -0.22886417313E+03  0.70508929762E+03  0.25500000920E-02 0. -1.
       -2    1    3    3    0  502 -0.56251930743E+02  0.66453579900E+03  0.51735190866E+03  0.84405278583E+03  0.25500000920E-02 0.  1.
</event>
<event>
 5   0  0.2542737E-04  0.1503591E+04  0.7818609E-02  0.8882068E-01
        1   -1    0    0  501    0  0.00000000000E+00  0.00000000000E+00  0.74583424073E+03  0.74583424075E+03  0.50400001928E-02 0. -1.
       -1   -1    0    0    0  501  0.00000000000E+00  0.00000000000E+00 -0.75780451953E+03  0.75780451955E+03  0.50400001928E-02 0.  1.
    10030    2    1    2    0    0  0.00000000000E+00  0.00000000000E+00 -0.11970278795E+02  0.15036387603E+04  0.15035911126E+04 0.  0.
        1    1    3    3  502    0  0.25938362353E+03 -0.14044747193E+03 -0.69752075631E+03  0.75732460810E+03  0.50400001928E-02 0.  1.
       -1    1    3    3    0  502 -0.25938362353E+03  0.14044747193E+03  0.68555047751E+03  0.74631415220E+03  0.50400001928E-02 0. -1.
</event>
<event>
 5   0  0.4785496E-04  0.1494219E+04  0.7818609E-02  0.8888306E-01
       -2   -1    0    0    0  501  0.00000000000E+00  0.00000000000E+00  0.61960665910E+03  0.61960665911E+03  0.25500000920E-02 0. -1.
        2   -1    0    0  501    0  0.00000000000E+00  0.00000000000E+00 -0.90085032294E+03  0.90085032294E+03  0.25500000920E-02 0.  1.
    10030    2    1    2    0    0  0.00000000000E+00  0.00000000000E+00 -0.28124366383E+03  0.15204569820E+04  0.14942193399E+04 0.  0.
        4    1    3    3  502    0  0.66045724073E+02 -0.16986221612E+03  0.59663915078E+03  0.62385503066E+03  0.12699999809E+01 0. -1.
       -4    1    3    3    0  502 -0.66045724073E+02  0.16986221612E+03 -0.87788281462E+03  0.89660195139E+03  0.12699999809E+01 0.  1.
</event>
<event>
 5   0  0.4948645E-04  0.1476318E+04  0.7818609E-02  0.8900356E-01
        2   -1    0    0  501    0  0.00000000000E+00  0.00000000000E+00  0.12740157038E+04  0.12740157038E+04  0.25500000920E-02 0.  1.
       -2   -1    0    0    0  501  0.00000000000E+00  0.00000000000E+00 -0.42768589880E+03  0.42768589880E+03  0.25500000920E-02 0. -1.
    10030    2    1    2    0    0  0.00000000000E+00  0.00000000000E+00  0.84632980505E+03  0.17017016027E+04  0.14763177861E+04 0.  0.
        1    1    3    3  502    0 -0.56270189588E+02 -0.24750697083E+03 -0.37580200593E+03  0.45349000269E+03  0.50400001928E-02 0. -1.
       -1    1    3    3    0  502  0.56270189588E+02  0.24750697083E+03  0.12221318110E+04  0.12482116000E+04  0.50400001928E-02 0.  1.
</event>
<event>
 5   0  0.1792000E-04  0.1505451E+04  0.7818609E-02  0.8880836E-01
       -4   -1    0    0    0  501  0.00000000000E+00  0.00000000000E+00  0.10461512914E+04  0.10461520622E+04  0.12699999809E+01 0.  1.
        4   -1    0    0  501    0  0.00000000000E+00  0.00000000000E+00 -0.54159840677E+03  0.54159989579E+03  0.12699999809E+01 0. -1.
    10030    2    1    2    0    0  0.00000000000E+00  0.00000000000E+00  0.50455288460E+03  0.15877519580E+04  0.15054509845E+04 0.  0.
        2    1    3    3  502    0  0.23146025797E+03 -0.38996729978E+03 -0.38135679219E+03  0.59252118010E+03  0.25500000920E-02 0. -1.
       -2    1    3    3    0  502 -0.23146025797E+03  0.38996729978E+03  0.88590967678E+03  0.99523077793E+03  0.25500000920E-02 0.  1.
</event>
<event>
 5   0  0.2542737E-04  0.1506125E+04  0.7818609E-02  0.8880390E-01
        1   -1    0    0  501    0  0.00000000000E+00  0.00000000000E+00  0.13272883057E+04  0.13272883057E+04  0.50400001928E-02 0.  1.
       -1   -1    0    0    0  501  0.00000000000E+00  0.00000000000E+00 -0.42726419670E+03  0.42726419673E+03  0.50400001928E-02 0. -1.
    10030    2    1    2    0    0  0.00000000000E+00  0.00000000000E+00  0.90002410900E+03  0.17545525024E+04  0.15061245257E+04 0.  0.
        1    1    3    3  502    0  0.17958757121E+03  0.13294827236E+02 -0.40181249468E+03  0.44032003028E+03  0.50400001928E-02 0. -1.
       -1    1    3    3    0  502 -0.17958757121E+03 -0.13294827236E+02  0.13018366037E+04  0.13142324722E+04  0.50400001928E-02 0.  1.
</event>
<event>
 5   0  0.2565416E-04  0.1458211E+04  0.7818609E-02  0.8912728E-01
        1   -1    0    0  501    0  0.00000000000E+00  0.00000000000E+00  0.63712476045E+03  0.63712476047E+03  0.50400001928E-02 0. -1.
       -1   -1    0    0    0  501  0.00000000000E+00  0.00000000000E+00 -0.83436569930E+03  0.83436569931E+03  0.50400001928E-02 0.  1.
    10030    2    1    2    0    0  0.00000000000E+00  0.00000000000E+00 -0.19724093885E+03  0.14714904598E+04  0.14582112965E+04 0.  0.
        5    1    3    3  502    0  0.35734136956E+03 -0.60972668805E+03 -0.27945468028E+03  0.75998453725E+03  0.46999998093E+01 0.  1.
       -5    1    3    3    0  502 -0.35734136956E+03  0.60972668805E+03  0.82213741432E+02  0.71150592254E+03  0.46999998093E+01 0. -1.
</event>
<event>
 5   0  0.4785496E-04  0.1414240E+04  0.7818609E-02  0.8943575E-01
        2   -1    0    0  501    0  0.00000000000E+00  0.00000000000E+00  0.68221198832E+03  0.68221198832E+03  0.25500000920E-02 0. -1.
       -2   -1    0    0    0  501  0.00000000000E+00  0.00000000000E+00 -0.73293774379E+03  0.73293774380E+03  0.25500000920E-02 0.  1.
    10030    2    1    2    0    0  0.00000000000E+00  0.00000000000E+00 -0.50725755478E+02  0.14151497321E+04  0.14142403127E+04 0.  0.
        4    1    3    3  502    0 -0.16508729441E+02  0.93366370767E+02 -0.72654701429E+03  0.73270866939E+03  0.12699999809E+01 0.  1.
       -4    1    3    3    0  502  0.16508729441E+02 -0.93366370767E+02  0.67582125881E+03  0.68244106273E+03  0.12699999809E+01 0. -1.
</event>
<event>
 5   0  0.2544374E-04  0.1489003E+04  0.7818609E-02  0.8891799E-01
        1   -1    0    0  501    0  0.00000000000E+00  0.00000000000E+00  0.24284594553E+04  0.24284594553E+04  0.50400001928E-02 0. -1.
       -1   -1    0    0    0  501  0.00000000000E+00  0.00000000000E+00 -0.22824462863E+03  0.22824462869E+03  0.50400001928E-02 0.  1.
    10030    2    1    2    0    0  0.00000000000E+00  0.00000000000E+00  0.22002148266E+04  0.26567040840E+04  0.14890034608E+04 0.  0.
        4    1    3    3  502    0  0.64988759144E+03 -0.27740379636E+03  0.15184460587E+04  0.16748094798E+04  0.12699999809E+01 0. -1.
       -4    1    3    3    0  502 -0.64988759144E+03  0.27740379636E+03  0.68176876796E+03  0.98189460412E+03  0.12699999809E+01 0.  1.
</event>
<event>
 5   0  0.4785496E-04  0.1502902E+04  0.7818609E-02  0.8882526E-01
        2   -1    0    0  501    0  0.00000000000E+00  0.00000000000E+00  0.13272990842E+04  0.13272990842E+04  0.25500000920E-02 0.  1.
       -2   -1    0    0    0  501  0.00000000000E+00  0.00000000000E+00 -0.42543419968E+03  0.42543419969E+03  0.25500000920E-02 0. -1.
    10030    2    1    2    0    0  0.00000000000E+00  0.00000000000E+00  0.90186488454E+03  0.17527332839E+04  0.15029017581E+04 0.  0.
        4    1    3    3  502    0 -0.20946435040E+03 -0.59422085857E+03 -0.26658129963E+02  0.63062351022E+03  0.12699999809E+01 0. -1.
       -4    1    3    3    0  502  0.20946435040E+03  0.59422085857E+03  0.92852301450E+03  0.11221097737E+04  0.12699999809E+01 0.  1.
</event>
<event>
 5   0  0.2603873E-04  0.1502143E+04  0.7818609E-02  0.8883029E-01
       -1   -1    0    0    0  501  0.00000000000E+00  0.00000000000E+00  0.36634276452E+03  0.36634276455E+03  0.50400001928E-02 0. -1.
        1   -1    0    0  501    0  0.00000000000E+00  0.00000000000E+00 -0.15398385364E+04  0.15398385364E+04  0.50400001928E-02 0.  1.
    10030    2    1    2    0    0  0.00000000000E+00  0.00000000000E+00 -0.11734957719E+04  0.19061813010E+04  0.15021434104E+04 0.  0.
        2    1    3    3  502    0 -0.62463323503E+03 -0.37049030214E+03 -0.82977869844E+03  0.11027068653E+04  0.25500000920E-02 0.  1.
       -2    1    3    3    0  502  0.62463323503E+03  0.37049030214E+03 -0.34371707347E+03  0.80347443574E+03  0.25500000920E-02 0. -1.
</event>
<event>
 5   0  0.4948645E-04  0.1504087E+04  0.7818609E-02  0.8881740E-01
        2   -1    0    0  501    0  0.00000000000E+00  0.00000000000E+00  0.14775445553E+04  0.14775445553E+04  0.25500000920E-02 0. -1.
       -2   -1    0    0    0  501  0.00000000000E+00  0.00000000000E+00 -0.38277666916E+03  0.38277666917E+03  0.25500000920E-02 0.  1.
    10030    2    1    2    0    0  0.00000000000E+00  0.00000000000E+00  0.10947678862E+04  0.18603212245E+04  0.15040872095E+04 0.  0.
        1    1    3    3  502    0 -0.32855053857E+02  0.34189206119E+02  0.14756938413E+04  0.14764554411E+04  0.50400001928E-02 0. -1.
       -1    1    3    3    0  502  0.32855053857E+02 -0.34189206119E+02 -0.38092595509E+03  0.38386578340E+03  0.50400001928E-02 0.  1.
</event>
<event>
 5   0  0.2542737E-04  0.1498023E+04  0.7818609E-02  0.8885768E-01
        1   -1    0    0  501    0  0.00000000000E+00  0.00000000000E+00  0.93870529906E+03  0.93870529908E+03  0.50400001928E-02 0.  1.
       -1   -1    0    0    0  501  0.00000000000E+00  0.00000000000E+00 -0.59765136775E+03  0.59765136777E+03  0.50400001928E-02 0. -1.
    10030    2    1    2    0    0  0.00000000000E+00  0.00000000000E+00  0.34105393132E+03  0.15363566668E+04  0.14980233722E+04 0.  0.
        1    1    3    3  502    0  0.49536337776E+03 -0.49646790672E+03  0.44022622255E+03  0.82804854053E+03  0.50400001928E-02 0.  1.
       -1    1    3    3    0  502 -0.49536337776E+03  0.49646790672E+03 -0.99172291235E+02  0.70830812632E+03  0.50400001928E-02 0. -1.
</event>
<event>
 5   0  0.2542737E-04  0.1500088E+04  0.7818609E-02  0.8884394E-01
        1   -1    0    0  501    0  0.00000000000E+00  0.00000000000E+00  0.97911018569E+03  0.97911018570E+03  0.50400001928E-02 0.  1.
       -1   -1    0    0    0  501  0.00000000000E+00  0.00000000000E+00 -0.57456864878E+03  0.57456864880E+03  0.50400001928E-02 0. -1.
    10030    2    1    2    0    0  0.00000000000E+00  0.00000000000E+00  0.40454153691E+03  0.15536788345E+04  0.15000880193E+04 0.  0.
        1    1    3    3  502    0 -0.31595489790E+03 -0.52428106019E+03  0.65119266028E+03  0.89372815129E+03  0.50400001928E-02 0.  1.
       -1    1    3    3    0  502  0.31595489790E+03  0.52428106019E+03 -0.24665112336E+03  0.65995068321E+03  0.50400001928E-02 0. -1.
</event>
<event>
 5   0  0.2605471E-04  0.1453738E+04  0.7818609E-02  0.8915813E-01
        1   -1    0    0  501    0  0.00000000000E+00  0.00000000000E+00  0.13304715314E+04  0.13304715314E+04  0.50400001928E-02 0. -1.
       -1   -1    0    0    0  501  0.00000000000E+00  0.00000000000E+00 -0.39710599170E+03  0.39710599173E+03  0.50400001928E-02 0.  1.
    10030    2    1    2    0    0  0.00000000000E+00  0.00000000000E+00  0.93336553969E+03  0.17275775231E+04  0.14537375512E+04 0.  0.
        3    1    3    3  502    0  0.65183377527E+03  0.72574018166E+01  0.84881015684E+03  0.10702423244E+04  0.10100000352E+00 0.  1.
       -3    1    3    3    0  502 -0.65183377527E+03 -0.72574018166E+01  0.84555382853E+02  0.65733519869E+03  0.10100000352E+00 0. -1.
</event>
<event>
 5   0  0.4768387E-04  0.1501383E+04  0.7818609E-02  0.8883534E-01
       -2   -1    0    0    0  501  0.00000000000E+00  0.00000000000E+00  0.42125409631E+03  0.42125409632E+03  0.25500000920E-02 0.  1.
        2   -1    0    0  501    0  0.00000000000E+00  0.00000000000E+00 -0.13377626584E+04  0.13377626584E+04  0.25500000920E-02 0. -1.
    10030    2    1    2    0    0  0.00000000000E+00  0.00000000000E+00 -0.91650856205E+03  0.17590167547E+04  0.15013833618E+04 0.  0.
        3    1    3    3  502    0  0.23288481459E+03  0.18365339907E+03  0.34970126498E+03  0.45853559599E+03  0.10100000352E+00 0.  1.
       -3    1    3    3    0  502 -0.23288481459E+03 -0.18365339907E+03 -0.12662098270E+04  0.13004811587E+04  0.10100000352E+00 0. -1.
</event>
<event>
 5   0  0.4726600E-04  0.1491276E+04  0.7818609E-02  0.8890275E-01
        2   -1    0    0  501    0  0.00000000000E+00  0.00000000000E+00  0.88053564962E+03  0.88053564963E+03  0.25500000920E-02 0. -1.
       -2   -1    0    0    0  501  0.00000000000E+00  0.00000000000E+00 -0.63140649893E+03  0.63140649893E+03  0.25500000920E-02 0.  1.
    10030    2    1    2    0    0  0.00000000000E+00  0.00000000000E+00  0.24912915070E+03  0.15119421486E+04  0.14912758722E+04 0.  0.
        2    1    3    3  502    0  0.12482372601E+03 -0.18981008707E+03 -0.59546536816E+03  0.63732867221E+03  0.25500000920E-02 0.  1.
       -2    1    3    3    0  502 -0.12482372601E+03  0.18981008707E+03  0.84459451886E+03  0.87461347635E+03  0.25500000920E-02 0. -1.
</event>
<event>
 5   0  0.2603873E-04  0.1496504E+04  0.7818609E-02  0.8886781E-01
       -1   -1    0    0    0  501  0.00000000000E+00  0.00000000000E+00  0.12340539768E+04  0.12340539768E+04  0.50400001928E-02 0.  1.
        1   -1    0    0  501    0  0.00000000000E+00  0.00000000000E+00 -0.45369252229E+03  0.45369252232E+03  0.50400001928E-02 0. -1.
    10030    2    1    2    0    0  0.00000000000E+00  0.00000000000E+00  0.78036145449E+03  0.16877464991E+04  0.14965040079E+04 0.  0.
        2    1    3    3  502    0  0.41710090489E+03  0.60663066434E+03  0.23926226598E+03  0.77409325001E+03  0.25500000920E-02 0.  1.
       -2    1    3    3    0  502 -0.41710090489E+03 -0.60663066434E+03  0.54109918851E+03  0.91365324910E+03  0.25500000920E-02 0. -1.
</event>
<event>
 5   0  0.4948645E-04  0.1499353E+04  0.7818609E-02  0.8884883E-01
        2   -1    0    0  501    0  0.00000000000E+00  0.00000000000E+00  0.18307120599E+04  0.18307120599E+04  0.25500000920E-02 0. -1.
       -2   -1    0    0    0  501  0.00000000000E+00  0.00000000000E+00 -0.30699238883E+03  0.30699238884E+03  0.25500000920E-02 0.  1.
    10030    2    1    2    0    0  0.00000000000E+00  0.00000000000E+00  0.15237196710E+04  0.21377044487E+04  0.14993527517E+04 0.  0.
        1    1    3    3  502    0 -0.40210872011E+03  0.49685463344E+03  0.20333868468E+03  0.67074776949E+03  0.50400001928E-02 0.  1.
       -1    1    3    3    0  502  0.40210872011E+03 -0.49685463344E+03  0.13203809863E+04  0.14669566792E+04  0.50400001928E-02 0. -1.
</event>
<event>
 5   0  0.4569211E-04  0.1500028E+04  0.7818609E-02  0.8884434E-01
        2   -1    0    0  501    0  0.00000000000E+00  0.00000000000E+00  0.14230484172E+04  0.14230484172E+04  0.25500000920E-02 0. -1.
       -2   -1    0    0    0  501  0.00000000000E+00  0.00000000000E+00 -0.39529290152E+03  0.39529290153E+03  0.25500000920E-02 0.  1.
    10030    2    1    2    0    0  0.00000000000E+00  0.00000000000E+00  0.10277555157E+04  0.18183413188E+04  0.15000279169E+04 0.  0.
        5    1    3    3  502    0 -0.37280851591E+03 -0.42544381312E+03 -0.83076547408E+02  0.57176256469E+03  0.46999998093E+01 0.  1.
       -5    1    3    3    0  502  0.37280851591E+03  0.42544381312E+03  0.11108320631E+04  0.12465787541E+04  0.46999998093E+01 0. -1.
</event>
<event>
 5   0  0.2544374E-04  0.1490523E+04  0.7818609E-02  0.8890780E-01
       -1   -1    0    0    0  501  0.00000000000E+00  0.00000000000E+00  0.41503082089E+03  0.41503082092E+03  0.50400001928E-02 0.  1.
        1   -1    0    0  501    0  0.00000000000E+00  0.00000000000E+00 -0.13382485015E+04  0.13382485015E+04  0.50400001928E-02 0. -1.
    10030    2    1    2    0    0  0.00000000000E+00  0.00000000000E+00 -0.92321768063E+03  0.17532793224E+04  0.14905225583E+04 0.  0.
        4    1    3    3  502    0 -0.72000316852E+03 -0.18542121961E+03 -0.52190041656E+03  0.90838716914E+03  0.12699999809E+01 0. -1.
       -4    1    3    3    0  502  0.72000316852E+03  0.18542121961E+03 -0.40131726408E+03  0.84489215330E+03  0.12699999809E+01 0.  1.
</event>
<event>
 5   0  0.4948645E-04  0.1452003E+04  0.7818609E-02  0.8917013E-01
        2   -1    0    0  501    0  0.00000000000E+00  0.00000000000E+00  0.11808802377E+04  0.11808802377E+04  0.25500000920E-02 0.  1.
       -2   -1    0    0    0  501  0.00000000000E+00  0.00000000000E+00 -0.44634334011E+03  0.44634334012E+03  0.25500000920E-02 0. -1.
    10030    2    1    2    0    0  0.00000000000E+00  0.00000000000E+00  0.73453689763E+03  0.16272235779E+04  0.14520027956E+04 0.  0.
        1    1    3    3  502    0 -0.70071743267E+03 -0.17721456842E+03  0.29069995149E+03  0.77904838459E+03  0.50400001928E-02 0. -1.
       -1    1    3    3    0  502  0.70071743267E+03  0.17721456842E+03  0.44383694614E+03  0.84817519328E+03  0.50400001928E-02 0.  1.
</event>
<event>
 5   0  0.2542737E-04  0.1548980E+04  0.7818609E-02  0.8852519E-01
       -1   -1    0    0    0  501  0.00000000000E+00  0.00000000000E+00  0.46034642967E+03  0.46034642970E+03  0.50400001928E-02 0. -1.
        1   -1    0    0  501    0  0.00000000000E+00  0.00000000000E+00 -0.13030079482E+04  0.13030079482E+04  0.50400001928E-02 0.  1.
    10030    2    1    2    0    0  0.00000000000E+00  0.00000000000E+00 -0.84266151850E+03  0.17633543779E+04  0.15489803831E+04 0.  0.
        1    1    3    3  502    0 -0.76054321588E+03  0.25298551783E+02 -0.25727099996E+03  0.80327726682E+03  0.50400001928E-02 0. -1.
       -1    1    3    3    0  502  0.76054321588E+03 -0.25298551783E+02 -0.58539051854E+03  0.96007711106E+03  0.50400001928E-02 0.  1.
</event>
<event>
 5   0  0.4948645E-04  0.1520605E+04  0.7818609E-02  0.8870865E-01
        2   -1    0    0  501    0  0.00000000000E+00  0.00000000000E+00  0.29344393986E+04  0.29344393986E+04  0.25500000920E-02 0. -1.
       -2   -1    0    0    0  501  0.00000000000E+00  0.00000000000E+00 -0.19699160692E+03  0.19699160694E+03  0.25500000920E-02 0.  1.
    10030    2    1    2    0    0  0.00000000000E+00  0.00000000000E+00  0.27374477916E+04  0.31314310055E+04  0.15206050540E+04 0.  0.
        1    1    3    3  502    0 -0.13610071568E+03 -0.25461556658E+03 -0.79716535668E+02  0.29951163189E+03  0.50400001928E-02 0.  1.
       -1    1    3    3    0  502  0.13610071568E+03  0.25461556658E+03  0.28171643273E+04  0.28319193736E+04  0.50400001928E-02 0. -1.
</event>
<event>
 5   0  0.2544374E-04  0.1471645E+04  0.7818609E-02  0.8903531E-01
        1   -1    0    0  501    0  0.00000000000E+00  0.00000000000E+00  0.60896699832E+03  0.60896699834E+03  0.50400001928E-02 0. -1.
       -1   -1    0    0    0  501  0.00000000000E+00  0.00000000000E+00 -0.88910377414E+03  0.88910377416E+03  0.50400001928E-02 0.  1.
    10030    2    1    2    0    0  0.00000000000E+00  0.00000000000E+00 -0.28013677582E+03  0.14980707725E+04  0.14716451428E+04 0.  0.
        4    1    3    3  502    0  0.43137072133E+03 -0.51531801203E+03 -0.44511565194E+03  0.80607872398E+03  0.12699999809E+01 0.  1.
       -4    1    3    3    0  502 -0.43137072133E+03  0.51531801203E+03  0.16497887612E+03  0.69199204852E+03  0.12699999809E+01 0. -1.
</event>
<event>
 5   0  0.4726600E-04  0.1492575E+04  0.7818609E-02  0.8889406E-01
       -2   -1    0    0    0  501  0.00000000000E+00  0.00000000000E+00  0.33688965853E+03  0.33688965853E+03  0.25500000920E-02 0.  1.
        2   -1    0    0  501    0  0.00000000000E+00  0.00000000000E+00 -0.16531961425E+04  0.16531961425E+04  0.25500000920E-02 0. -1.
    10030    2    1    2    0    0  0.00000000000E+00  0.00000000000E+00 -0.13163064840E+04  0.19900858010E+04  0.14925745327E+04 0.  0.
        2    1    3    3  502    0  0.24912570213E+03  0.49271845691E+03  0.11315736359E+02  0.55223467760E+03  0.25500000920E-02 0.  1.
       -2    1    3    3    0  502 -0.24912570213E+03 -0.49271845691E+03 -0.13276222203E+04  0.14378511234E+04  0.25500000920E-02 0. -1.
</event>
<event>
 5   0  0.4726600E-04  0.1347530E+04  0.7818609E-02  0.8992700E-01
        2   -1    0    0  501    0  0.00000000000E+00  0.00000000000E+00  0.13410682579E+04  0.13410682579E+04  0.25500000920E-02 0. -1.
       -2   -1    0    0    0  501  0.00000000000E+00  0.00000000000E+00 -0.33850585364E+03  0.33850585365E+03  0.25500000920E-02 0.  1.
    10030    2    1    2    0    0  0.00000000000E+00  0.00000000000E+00  0.10025624042E+04  0.16795741115E+04  0.13475302675E+04 0.  0.
        2    1    3    3  502    0  0.17145993356E+03 -0.14088104627E+03  0.12942105215E+04  0.13130981883E+04  0.25500000920E-02 0. -1.
       -2    1    3    3    0  502 -0.17145993356E+03  0.14088104627E+03 -0.29164811728E+03  0.36647592327E+03  0.25500000920E-02 0.  1.
</event>
<event>
 5   0  0.2544374E-04  0.1498379E+04  0.7818609E-02  0.8885532E-01
       -1   -1    0    0    0  501  0.00000000000E+00  0.00000000000E+00  0.65740293038E+03  0.65740293040E+03  0.50400001928E-02 0. -1.
        1   -1    0    0  501    0  0.00000000000E+00  0.00000000000E+00 -0.85379076296E+03  0.85379076297E+03  0.50400001928E-02 0.  1.
    10030    2    1    2    0    0  0.00000000000E+00  0.00000000000E+00 -0.19638783257E+03  0.15111936934E+04  0.14983785230E+04 0.  0.
        4    1    3    3  502    0 -0.69453911816E+03 -0.18759097300E+03 -0.30904650874E+03  0.78299828689E+03  0.12699999809E+01 0.  1.
       -4    1    3    3    0  502  0.69453911816E+03  0.18759097300E+03  0.11265867617E+03  0.72819540648E+03  0.12699999809E+01 0. -1.
</event>
<event>
 5   0  0.2565416E-04  0.1488412E+04  0.7818609E-02  0.8892196E-01
       -1   -1    0    0    0  501  0.00000000000E+00  0.00000000000E+00  0.21291277668E+03  0.21291277674E+03  0.50400001928E-02 0. -1.
        1   -1    0    0  501    0  0.00000000000E+00  0.00000000000E+00 -0.26012639586E+04  0.26012639586E+04  0.50400001928E-02 0.  1.
    10030    2    1    2    0    0  0.00000000000E+00  0.00000000000E+00 -0.23883511819E+04  0.28141767353E+04  0.14884116801E+04 0.  0.
        5    1    3    3  502    0 -0.71876925280E+03  0.12589800924E+03 -0.91796992874E+03  0.11726766083E+04  0.46999998093E+01 0. -1.
       -5    1    3    3    0  502  0.71876925280E+03 -0.12589800924E+03 -0.14703812532E+04  0.16415001271E+04  0.46999998093E+01 0.  1.
</event>
<event>
 5   0  0.1792000E-04  0.1559661E+04  0.7818609E-02  0.8845720E-01
        4   -1    0    0  501    0  0.00000000000E+00  0.00000000000E+00  0.78146397576E+03  0.78146500773E+03  0.12699999809E+01 0.  1.
       -4   -1    0    0    0  501  0.00000000000E+00  0.00000000000E+00 -0.77819839802E+03  0.77819943432E+03  0.12699999809E+01 0. -1.
    10030    2    1    2    0    0  0.00000000000E+00  0.00000000000E+00  0.32655777430E+01  0.15596644420E+04  0.15596610234E+04 0.  0.
        5    1    3    3  502    0 -0.59036044425E+03  0.33584461367E+03  0.38477391408E+03  0.78063443020E+03  0.46999998093E+01 0. -1.
       -5    1    3    3    0  502  0.59036044425E+03 -0.33584461367E+03 -0.38150833633E+03  0.77903001185E+03  0.46999998093E+01 0.  1.
</event>
<event>
 5   0  0.4768387E-04  0.1500934E+04  0.7818609E-02  0.8883832E-01
       -2   -1    0    0    0  501  0.00000000000E+00  0.00000000000E+00  0.32817429509E+03  0.32817429510E+03  0.25500000920E-02 0. -1.
        2   -1    0    0  501    0  0.00000000000E+00  0.00000000000E+00 -0.17161641647E+04  0.17161641647E+04  0.25500000920E-02 0.  1.
    10030    2    1    2    0    0  0.00000000000E+00  0.00000000000E+00 -0.13879898696E+04  0.20443384598E+04  0.15009343290E+04 0.  0.
        3    1    3    3  502    0  0.93981692101E+02 -0.62238073787E+03 -0.12506204933E+04  0.14000864151E+04  0.10100000352E+00 0.  1.
       -3    1    3    3    0  502 -0.93981692101E+02  0.62238073787E+03 -0.13736937629E+03  0.64425204467E+03  0.10100000352E+00 0. -1.
</event>
<event>
 5   0  0.2603873E-04  0.1496922E+04  0.7818609E-02  0.8886502E-01
        1   -1    0    0  501    0  0.00000000000E+00  0.00000000000E+00  0.11703240846E+04  0.11703240846E+04  0.50400001928E-02 0.  1.
       -1   -1    0    0    0  501  0.00000000000E+00  0.00000000000E+00 -0.47866546759E+03  0.47866546762E+03  0.50400001928E-02 0. -1.
    10030    2    1    2    0    0  0.00000000000E+00  0.00000000000E+00  0.69165861699E+03  0.16489895522E+04  0.14969218085E+04 0.  0.
        2    1    3    3  502    0  0.49102041937E+03  0.27470460664E+03  0.88956046254E+03  0.10525594946E+04  0.25500000920E-02 0.  1.
       -2    1    3    3    0  502 -0.49102041937E+03 -0.27470460664E+03 -0.19790184555E+03  0.59643005762E+03  0.25500000920E-02 0. -1.
</event>
<event>
 5   0  0.2542737E-04  0.1511599E+04  0.7818609E-02  0.8876776E-01
       -1   -1    0    0    0  501  0.00000000000E+00  0.00000000000E+00  0.47785294024E+03  0.47785294026E+03  0.50400001928E-02 0.  1.
        1   -1    0    0  501    0  0.00000000000E+00  0.00000000000E+00 -0.11954158445E+04  0.11954158445E+04  0.50400001928E-02 0. -1.
    10030    2    1    2    0    0  0.00000000000E+00  0.00000000000E+00 -0.71756290425E+03  0.16732687848E+04  0.15115991216E+04 0.  0.
        1    1    3    3  502    0  0.31622789182E+03 -0.91384465120E+02 -0.11119013459E+04  0.11596015709E+04  0.50400001928E-02 0. -1.
       -1    1    3    3    0  502 -0.31622789182E+03  0.91384465120E+02  0.39433844168E+03  0.51366721391E+03  0.50400001928E-02 0.  1.
</event>
<event>
 5   0  0.4948645E-04  0.1501504E+04  0.7818609E-02  0.8883453E-01
       -2   -1    0    0    0  501  0.00000000000E+00  0.00000000000E+00  0.36899807199E+03  0.36899807200E+03  0.25500000920E-02 0. -1.
        2   -1    0    0  501    0  0.00000000000E+00  0.00000000000E+00 -0.15274571533E+04  0.15274571533E+04  0.25500000920E-02 0.  1.
    10030    2    1    2    0    0  0.00000000000E+00  0.00000000000E+00 -0.11584590813E+04  0.18964552253E+04  0.15015042386E+04 0.  0.
        1    1    3    3  502    0  0.71729340185E+02  0.70542084209E+02  0.36044567143E+03  0.37422234830E+03  0.50400001928E-02 0. -1.
       -1    1    3    3    0  502 -0.71729340185E+02 -0.70542084209E+02 -0.15189047527E+04  0.15222328770E+04  0.50400001928E-02 0.  1.
</event>
<event>
 5   0  0.2565416E-04  0.1525098E+04  0.7818609E-02  0.8867932E-01
        1   -1    0    0  501    0  0.00000000000E+00  0.00000000000E+00  0.87316657987E+03  0.87316657989E+03  0.50400001928E-02 0.  1.
       -1   -1    0    0    0  501  0.00000000000E+00  0.00000000000E+00 -0.66594539357E+03  0.66594539359E+03  0.50400001928E-02 0. -1.
    10030    2    1    2    0    0  0.00000000000E+00  0.00000000000E+00  0.20722118630E+03  0.15391119735E+04  0.15250983728E+04 0.  0.
        5    1    3    3  502    0 -0.33297994807E+03  0.68085503683E+03  0.18816557586E+03  0.78094020317E+03  0.46999998093E+01 0.  1.
       -5    1    3    3    0  502  0.33297994807E+03 -0.68085503683E+03  0.19055610442E+02  0.75817177030E+03  0.46999998093E+01 0. -1.
</event>
<event>
 5   0  0.2565416E-04  0.1499761E+04  0.7818609E-02  0.8884612E-01
        1   -1    0    0  501    0  0.00000000000E+00  0.00000000000E+00  0.13476055848E+04  0.13476055848E+04  0.50400001928E-02 0. -1.
       -1   -1    0    0    0  501  0.00000000000E+00  0.00000000000E+00 -0.41727425183E+03  0.41727425186E+03  0.50400001928E-02 0.  1.
    10030    2    1    2    0    0  0.00000000000E+00  0.00000000000E+00  0.93033133295E+03  0.17648798366E+04  0.14997614639E+04 0.  0.
        5    1    3    3  502    0 -0.21013792443E+03  0.21109394959E+03  0.12749881311E+04  0.13093263257E+04  0.46999998093E+01 0. -1.
       -5    1    3    3    0  502  0.21013792443E+03 -0.21109394959E+03 -0.34465679812E+03  0.45555351093E+03  0.46999998093E+01 0.  1.
</event>
<event>
 5   0  0.4726600E-04  0.1499728E+04  0.7818609E-02  0.8884634E-01
        2   -1    0    0  501    0  0.00000000000E+00  0.00000000000E+00  0.13179176913E+04  0.13179176913E+04  0.25500000920E-02 0. -1.
       -2   -1    0    0    0  501  0.00000000000E+00  0.00000000000E+00 -0.42665505741E+03  0.42665505742E+03  0.25500000920E-02 0.  1.
    10030    2    1    2    0    0  0.00000000000E+00  0.00000000000E+00  0.89126263385E+03  0.17445727487E+04  0.14997283064E+04 0.  0.
        2    1    3    3  502    0  0.40220997713E+03 -0.63251849484E+03  0.42112720717E+03  0.85976778065E+03  0.25500000920E-02 0.  1.
       -2    1    3    3    0  502 -0.40220997713E+03  0.63251849484E+03  0.47013542668E+03  0.88480496803E+03  0.25500000920E-02 0. -1.
</event>
<event>
 5   0  0.4726600E-04  0.1491448E+04  0.7818609E-02  0.8890160E-01
       -2   -1    0    0    0  501  0.00000000000E+00  0.00000000000E+00  0.22050998634E+04  0.22050998634E+04  0.25500000920E-02 0.  1.
        2   -1    0    0  501    0  0.00000000000E+00  0.00000000000E+00 -0.25219005821E+03  0.25219005822E+03  0.25500000920E-02 0. -1.
    10030    2    1    2    0    0  0.00000000000E+00  0.00000000000E+00  0.19529098052E+04  0.24572899216E+04  0.14914479715E+04 0.  0.
        2    1    3    3  502    0  0.26588052005E+02  0.54540943501E+03  0.18132049732E+04  0.18936448059E+04  0.25500000920E-02 0.  1.
       -2    1    3    3    0  502 -0.26588052005E+02 -0.54540943501E+03  0.13970483199E+03  0.56364511565E+03  0.25500000920E-02 0. -1.
</event>
<event>
 5   0  0.2605471E-04  0.1495972E+04  0.7818609E-02  0.8887136E-01
       -1   -1    0    0    0  501  0.00000000000E+00  0.00000000000E+00  0.11137420127E+04  0.11137420127E+04  0.50400001928E-02 0.  1.
        1   -1    0    0  501    0  0.00000000000E+00  0.00000000000E+00 -0.50234554276E+03  0.50234554279E+03  0.50400001928E-02 0. -1.
    10030    2    1    2    0    0  0.00000000000E+00  0.00000000000E+00  0.61139646992E+03  0.16160875555E+04  0.14959723739E+04 0.  0.
        3    1    3    3  502    0  0.74774927128E+03  0.70451398510E+01  0.32455603689E+03  0.81517804067E+03  0.10100000352E+00 0.  1.
       -3    1    3    3    0  502 -0.74774927128E+03 -0.70451398510E+01  0.28684043303E+03  0.80090951482E+03  0.10100000352E+00 0. -1.
</event>
<event>
 5   0  0.4569211E-04  0.1496102E+04  0.7818609E-02  0.8887049E-01
       -2   -1    0    0    0  501  0.00000000000E+00  0.00000000000E+00  0.80033634222E+03  0.80033634222E+03  0.25500000920E-02 0. -1.
        2   -1    0    0  501    0  0.00000000000E+00  0.00000000000E+00 -0.69918161335E+03  0.69918161336E+03  0.25500000920E-02 0.  1.
    10030    2    1    2    0    0  0.00000000000E+00  0.00000000000E+00  0.10115472887E+03  0.14995179556E+04  0.14961022091E+04 0.  0.
        5    1    3    3  502    0  0.14108702096E+03 -0.51634218292E+03  0.57430607360E+03  0.78508875519E+03  0.46999998093E+01 0. -1.
       -5    1    3    3    0  502 -0.14108702096E+03  0.51634218292E+03 -0.47315134473E+03  0.71442920039E+03  0.46999998093E+01 0.  1.
</event>
<event>
 5   0  0.2544374E-04  0.1487201E+04  0.7818609E-02  0.8893009E-01
       -1   -1    0    0    0  501  0.00000000000E+00  0.00000000000E+00  0.49131885947E+03  0.49131885950E+03  0.50400001928E-02 0. -1.
        1   -1    0    0  501    0  0.00000000000E+00  0.00000000000E+00 -0.11254230946E+04  0.11254230946E+04  0.50400001928E-02 0.  1.
    10030    2    1    2    0    0  0.00000000000E+00  0.00000000000E+00 -0.63410423512E+03  0.16167419541E+04  0.14872008490E+04 0.  0.
        4    1    3    3  502    0 -0.22387526130E+03  0.12642193112E+02 -0.10877927518E+04  0.11106640543E+04  0.12699999809E+01 0.  1.
       -4    1    3    3    0  502  0.22387526130E+03 -0.12642193112E+02  0.45368851666E+03  0.50607789985E+03  0.12699999809E+01 0. -1.
</event>
<event>
 5   0  0.4726600E-04  0.1519272E+04  0.7818609E-02  0.8871738E-01
       -2   -1    0    0    0  501  0.00000000000E+00  0.00000000000E+00  0.19200731234E+03  0.19200731236E+03  0.25500000920E-02 0. -1.
        2   -1    0    0  501    0  0.00000000000E+00  0.00000000000E+00 -0.30053374833E+04  0.30053374833E+04  0.25500000920E-02 0.  1.
    10030    2    1    2    0    0  0.00000000000E+00  0.00000000000E+00 -0.28133301710E+04  0.31973447957E+04  0.15192718952E+04 0.  0.
        2    1    3    3  502    0 -0.39886014052E+03  0.37294696989E+03 -0.25180212074E+04  0.25765499519E+04  0.25500000920E-02 0.  1.
       -2    1    3    3    0  502  0.39886014052E+03 -0.37294696989E+03 -0.29530896364E+03  0.62079484378E+03  0.25500000920E-02 0. -1.
</event>
<event>
 5   0  0.2605471E-04  0.1515660E+04  0.7818609E-02  0.8874106E-01
        1   -1    0    0  501    0  0.00000000000E+00  0.00000000000E+00  0.13359171794E+04  0.13359171794E+04  0.50400001928E-02 0. -1.
       -1   -1    0    0    0  501  0.00000000000E+00  0.00000000000E+00 -0.42989653583E+03  0.42989653586E+03  0.50400001928E-02 0.  1.
    10030    2    1    2    0    0  0.00000000000E+00  0.00000000000E+00  0.90602064353E+03  0.17658137152E+04  0.15156598135E+04 0.  0.
        3    1    3    3  502    0 -0.67678863826E+03 -0.30435912097E+03  0.63209737281E+03  0.97479456005E+03  0.10100000352E+00 0. -1.
       -3    1    3    3    0  502  0.67678863826E+03  0.30435912097E+03  0.27392327072E+03  0.79101915517E+03  0.10100000352E+00 0.  1.
</event>
<event>
 5   0  0.2565416E-04  0.1502755E+04  0.7818609E-02  0.8882623E-01
        1   -1    0    0  501    0  0.00000000000E+00  0.00000000000E+00  0.14994454650E+04  0.14994454651E+04  0.50400001928E-02 0.  1.
       -1   -1    0    0    0  501  0.00000000000E+00  0.00000000000E+00 -0.37651783380E+03  0.37651783383E+03  0.50400001928E-02 0. -1.
    10030    2    1    2    0    0  0.00000000000E+00  0.00000000000E+00  0.11229276312E+04  0.18759632989E+04  0.15027547484E+04 0.  0.
        5    1    3    3  502    0  0.73028345843E+03 -0.16274775918E+03  0.64745603803E+03  0.98945549367E+03  0.46999998093E+01 0.  1.
       -5    1    3    3    0  502 -0.73028345843E+03  0.16274775918E+03  0.47547159322E+03  0.88650780523E+03  0.46999998093E+01 0. -1.
</event>
<event>
 5   0  0.2603873E-04  0.1605187E+04  0.7818609E-02  0.8817368E-01
       -1   -1    0    0    0  501  0.00000000000E+00  0.00000000000E+00  0.39915682809E+03  0.39915682812E+03  0.50400001928E-02 0.  1.
        1   -1    0    0  501    0  0.00000000000E+00  0.00000000000E+00 -0.16137923827E+04  0.16137923827E+04  0.50400001928E-02 0. -1.
    10030    2    1    2    0    0  0.00000000000E+00  0.00000000000E+00 -0.12146355546E+04  0.20129492108E+04  0.16051869034E+04 0.  0.
        2    1    3    3  502    0  0.73303337525E+03  0.48201973660E+02 -0.20194485622E+03  0.76186815425E+03  0.25500000920E-02 0.  1.
       -2    1    3    3    0  502 -0.73303337525E+03 -0.48201973660E+02 -0.10126906984E+04  0.12510810566E+04  0.25500000920E-02 0. -1.
</event>
<event>
 5   0  0.2565416E-04  0.1552338E+04  0.7818609E-02  0.8850376E-01
        1   -1    0    0  501    0  0.00000000000E+00  0.00000000000E+00  0.64894412409E+03  0.64894412411E+03  0.50400001928E-02 0. -1.
       -1   -1    0    0    0  501  0.00000000000E+00  0.00000000000E+00 -0.92833565050E+03  0.92833565051E+03  0.50400001928E-02 0.  1.
    10030    2    1    2    0    0  0.00000000000E+00  0.00000000000E+00 -0.27939152641E+03  0.15772797746E+04  0.15523375478E+04 0.  0.
        5    1    3    3  502    0  0.40511428243E+03  0.60719880908E+03  0.12837647358E+03  0.74115489915E+03  0.46999998093E+01 0. -1.
       -5    1    3    3    0  502 -0.40511428243E+03 -0.60719880908E+03 -0.40776799999E+03  0.83612487547E+03  0.46999998093E+01 0.  1.
</event>
<event>
 5   0  0.4726600E-04  0.1500182E+04  0.7818609E-02  0.8884332E-01
       -2   -1    0    0    0  501  0.00000000000E+00  0.00000000000E+00  0.28238680307E+03  0.28238680308E+03  0.25500000920E-02 0.  1.
        2   -1    0    0  501    0  0.00000000000E+00  0.00000000000E+00 -0.19924307988E+04  0.19924307988E+04  0.25500000920E-02 0. -1.
    10030    2    1    2    0    0  0.00000000000E+00  0.00000000000E+00 -0.17100439957E+04  0.22748176019E+04  0.15001815405E+04 0.  0.
        2    1    3    3  502    0  0.46627804249E+03 -0.53113239981E+03 -0.12359859945E+04  0.14237900891E+04  0.25500000920E-02 0. -1.
       -2    1    3    3    0  502 -0.46627804249E+03  0.53113239981E+03 -0.47405800117E+03  0.85102751279E+03  0.25500000920E-02 0.  1.
</event>
<event>
 5   0  0.4726600E-04  0.1515726E+04  0.7818609E-02  0.8874062E-01
       -2   -1    0    0    0  501  0.00000000000E+00  0.00000000000E+00  0.27227300349E+03  0.27227300350E+03  0.25500000920E-02 0. -1.
        2   -1    0    0  501    0  0.00000000000E+00  0.00000000000E+00 -0.21094858851E+04  0.21094858851E+04  0.25500000920E-02 0.  1.
    10030    2    1    2    0    0  0.00000000000E+00  0.00000000000E+00 -0.18372128816E+04  0.23817588886E+04  0.15157256451E+04 0.  0.
        2    1    3    3  502    0  0.67365036096E+03 -0.27756419018E+03 -0.59083690217E+03  0.93804847075E+03  0.25500000920E-02 0. -1.
       -2    1    3    3    0  502 -0.67365036096E+03  0.27756419018E+03 -0.12463759795E+04  0.14437104179E+04  0.25500000920E-02 0.  1.
</event>
<event>
 5   0  0.2544374E-04  0.1500207E+04  0.7818609E-02  0.8884315E-01
        1   -1    0    0  501    0  0.00000000000E+00  0.00000000000E+00  0.14222848630E+04  0.14222848630E+04  0.50400001928E-02 0. -1.
       -1   -1    0    0    0  501  0.00000000000E+00  0.00000000000E+00 -0.39559967681E+03  0.39559967684E+03  0.50400001928E-02 0.  1.
    10030    2    1    2    0    0  0.00000000000E+00  0.00000000000E+00  0.10266851861E+04  0.18178845398E+04  0.15002072285E+04 0.  0.
        4    1    3    3  502    0 -0.27229930843E+03  0.64077628819E+03  0.17510720601E+03  0.71791734300E+03  0.12699999809E+01 0.  1.
       -4    1    3    3    0  502  0.27229930843E+03 -0.64077628819E+03  0.85157798013E+03  0.10999671968E+04  0.12699999809E+01 0. -1.
</event>
<event>
 5   0  0.4785496E-04  0.1497675E+04  0.7818609E-02  0.8886000E-01
       -2   -1    0    0    0  501  0.00000000000E+00  0.00000000000E+00  0.49126989102E+03  0.49126989103E+03  0.25500000920E-02 0.  1.
        2   -1    0    0  501    0  0.00000000000E+00  0.00000000000E+00 -0.11414453620E+04  0.11414453620E+04  0.25500000920E-02 0. -1.
    10030    2    1    2    0    0  0.00000000000E+00  0.00000000000E+00 -0.65017547101E+03  0.16327152531E+04  0.14976751832E+04 0.  0.
        4    1    3    3  502    0 -0.12076805274E+03  0.52065629569E+03 -0.89686754676E+03  0.10440502431E+04  0.12699999809E+01 0. -1.
       -4    1    3    3    0  502  0.12076805274E+03 -0.52065629569E+03  0.24669207575E+03  0.58866500996E+03  0.12699999809E+01 0.  1.
</event>
<event>
 5   0  0.1792000E-04  0.1504598E+04  0.7818609E-02  0.8881401E-01
        3   -1    0    0  501    0  0.00000000000E+00  0.00000000000E+00  0.12646227815E+04  0.12646227855E+04  0.10100000352E+00 0.  1.
       -3   -1    0    0    0  501  0.00000000000E+00  0.00000000000E+00 -0.44752787906E+03  0.44752789046E+03  0.10100000352E+00 0. -1.
    10030    2    1    2    0    0  0.00000000000E+00  0.00000000000E+00  0.81709490240E+03  0.17121506759E+04  0.15045982379E+04 0.  0.
        2    1    3    3  502    0  0.35380511119E+03 -0.64868201962E+03  0.56942711919E+03  0.93285243386E+03  0.25500000920E-02 0.  1.
       -2    1    3    3    0  502 -0.35380511119E+03  0.64868201962E+03  0.24766778320E+03  0.77929824209E+03  0.25500000920E-02 0. -1.
</event>
<event>
 5   0  0.2565416E-04  0.1540480E+04  0.7818609E-02  0.8857972E-01
        1   -1    0    0  501    0  0.00000000000E+00  0.00000000000E+00  0.81018299178E+03  0.81018299180E+03  0.50400001928E-02 0.  1.
       -1   -1    0    0    0  501  0.00000000000E+00  0.00000000000E+00 -0.73226614848E+03  0.73226614850E+03  0.50400001928E-02 0. -1.
    10030    2    1    2    0    0  0.00000000000E+00  0.00000000000E+00  0.77916843304E+02  0.15424491403E+04  0.15404798979E+04 0.  0.
        5    1    3    3  502    0  0.33530249919E+03  0.20745839069E+03 -0.62353739829E+03  0.73775858307E+03  0.46999998093E+01 0. -1.
       -5    1    3    3    0  502 -0.33530249919E+03 -0.20745839069E+03  0.70145424160E+03  0.80469055722E+03  0.46999998093E+01 0.  1.
</event>
<event>
 5   0  0.2605471E-04  0.1510884E+04  0.7818609E-02  0.8877247E-01
       -1   -1    0    0    0  501  0.00000000000E+00  0.00000000000E+00  0.31495542019E+03  0.31495542023E+03  0.50400001928E-02 0.  1.
        1   -1    0    0  501    0  0.00000000000E+00  0.00000000000E+00 -0.18119786049E+04  0.18119786049E+04  0.50400001928E-02 0. -1.
    10030    2    1    2    0    0  0.00000000000E+00  0.00000000000E+00 -0.14970231847E+04  0.21269340251E+04  0.15108838247E+04 0.  0.
        3    1    3    3  502    0 -0.59802741307E+03 -0.40089162041E+02 -0.10118224349E+03  0.60785013309E+03  0.10100000352E+00 0.  1.
       -3    1    3    3    0  502  0.59802741307E+03  0.40089162041E+02 -0.13958409412E+04  0.15190838920E+04  0.10100000352E+00 0. -1.
</event>
<event>
 5   0  0.4726600E-04  0.1498874E+04  0.7818609E-02  0.8885202E-01
        2   -1    0    0  501    0  0.00000000000E+00  0.00000000000E+00  0.17716245277E+04  0.17716245277E+04  0.25500000920E-02 0. -1.
       -2   -1    0    0    0  501  0.00000000000E+00  0.00000000000E+00 -0.31702856789E+03  0.31702856790E+03  0.25500000920E-02 0.  1.
    10030    2    1    2    0    0  0.00000000000E+00  0.00000000000E+00  0.14545959598E+04  0.20886530956E+04  0.14988736930E+04 0.  0.
        2    1    3    3  502    0 -0.43607145729E+03  0.50253545991E+03  0.24668740133E+03  0.70961600764E+03  0.25500000920E-02 0.  1.
       -2    1    3    3    0  502  0.43607145729E+03 -0.50253545991E+03  0.12079085585E+04  0.13790370880E+04  0.25500000920E-02 0. -1.
</event>
<event>
 5   0  0.2542737E-04  0.1485370E+04  0.7818609E-02  0.8894240E-01
        1   -1    0    0  501    0  0.00000000000E+00  0.00000000000E+00  0.86446178927E+03  0.86446178928E+03  0.50400001928E-02 0.  1.
       -1   -1    0    0    0  501  0.00000000000E+00  0.00000000000E+00 -0.63806312902E+03  0.63806312904E+03  0.50400001928E-02 0. -1.
    10030    2    1    2    0    0  0.00000000000E+00  0.00000000000E+00  0.22639866025E+03  0.15025249183E+04  0.14853702491E+04 0.  0.
        1    1    3    3  502    0  0.51026100629E+03 -0.21409814542E+03 -0.38787688175E+03  0.67576089398E+03  0.50400001928E-02 0. -1.
       -1    1    3    3    0  502 -0.51026100629E+03  0.21409814542E+03  0.61427554200E+03  0.82676402434E+03  0.50400001928E-02 0.  1.
</event>
<event>
 5   0  0.4726600E-04  0.1496185E+04  0.7818609E-02  0.8886994E-01
       -2   -1    0    0    0  501  0.00000000000E+00  0.00000000000E+00  0.31045075814E+03  0.31045075815E+03  0.25500000920E-02 0. -1.
        2   -1    0    0  501    0  0.00000000000E+00  0.00000000000E+00 -0.18026760069E+04  0.18026760069E+04  0.25500000920E-02 0.  1.
    10030    2    1    2    0    0  0.00000000000E+00  0.00000000000E+00 -0.14922252488E+04  0.21131267651E+04  0.14961846584E+04 0.  0.
        2    1    3    3  502    0  0.72319066636E+03  0.18230326082E+03 -0.82850098379E+03  0.11147435126E+04  0.25500000920E-02 0.  1.
       -2    1    3    3    0  502 -0.72319066636E+03 -0.18230326082E+03 -0.66372426501E+03  0.99838325245E+03  0.25500000920E-02 0. -1.
</event>
<event>
 5   0  0.4726600E-04  0.1506091E+04  0.7818609E-02  0.8880412E-01
        2   -1    0    0  501    0  0.00000000000E+00  0.00000000000E+00  0.21072066751E+04  0.21072066751E+04  0.25500000920E-02 0.  1.
       -2   -1    0    0    0  501  0.00000000000E+00  0.00000000000E+00 -0.26911356496E+03  0.26911356497E+03  0.25500000920E-02 0. -1.
    10030    2    1    2    0    0  0.00000000000E+00  0.00000000000E+00  0.18380931102E+04  0.23763202401E+04  0.15060914985E+04 0.  0.
        2    1    3    3  502    0  0.55872846323E+03 -0.93964019252E+02  0.17017260847E+04  0.17935658337E+04  0.25500000920E-02 0.  1.
       -2    1    3    3    0  502 -0.55872846323E+03  0.93964019252E+02  0.13636702551E+03  0.58275440641E+03  0.25500000920E-02 0. -1.
</event>
<event>
 5   0  0.2605471E-04  0.1500362E+04  0.7818609E-02  0.8884212E-01
        1   -1    0    0  501    0  0.00000000000E+00  0.00000000000E+00  0.11290893181E+04  0.11290893181E+04  0.50400001928E-02 0. -1.
       -1   -1    0    0    0  501  0.00000000000E+00  0.00000000000E+00 -0.49842943924E+03  0.49842943927E+03  0.50400001928E-02 0.  1.
    10030    2    1    2    0    0  0.00000000000E+00  0.00000000000E+00  0.63065987887E+03  0.16275187574E+04  0.15003617640E+04 0.  0.
        3    1    3    3  502    0  0.12734301809E+02  0.47372104251E+03  0.94616416509E+03  0.10582062304E+04  0.10100000352E+00 0. -1.
       -3    1    3    3    0  502 -0.12734301809E+02 -0.47372104251E+03 -0.31550428622E+03  0.56931252699E+03  0.10100000352E+00 0.  1.
</event>
<event>
 5   0  0.2542737E-04  0.1497050E+04  0.7818609E-02  0.8886417E-01
        1   -1    0    0  501    0  0.00000000000E+00  0.00000000000E+00  0.84556150061E+03  0.84556150063E+03  0.50400001928E-02 0.  1.
       -1   -1    0    0    0  501  0.00000000000E+00  0.00000000000E+00 -0.66262399868E+03  0.66262399870E+03  0.50400001928E-02 0. -1.
    10030    2    1    2    0    0  0.00000000000E+00  0.00000000000E+00  0.18293750193E+03  0.15081854993E+04  0.14970495552E+04 0.  0.
        1    1    3    3  502    0 -0.57150044548E+03 -0.31832583923E+03  0.45796771645E+03  0.79854776215E+03  0.50400001928E-02 0.  1.
       -1    1    3    3    0  502  0.57150044548E+03  0.31832583923E+03 -0.27503021452E+03  0.70963773718E+03  0.50400001928E-02 0. -1.
</event>
<event>
 5   0  0.2605471E-04  0.1507323E+04  0.7818609E-02  0.8879598E-01
       -1   -1    0    0    0  501  0.00000000000E+00  0.00000000000E+00  0.40354468337E+03  0.40354468340E+03  0.50400001928E-02 0. -1.
        1   -1    0    0  501    0  0.00000000000E+00  0.00000000000E+00 -0.14075410599E+04  0.14075410599E+04  0.50400001928E-02 0.  1.
    10030    2    1    2    0    0  0.00000000000E+00  0.00000000000E+00 -0.10039963765E+04  0.18110857433E+04  0.15073230727E+04 0.  0.
        3    1    3    3  502    0  0.10710410010E+03  0.41815490982E+03 -0.12443040154E+04  0.13170487120E+04  0.10100000352E+00 0.  1.
       -3    1    3    3    0  502 -0.10710410010E+03 -0.41815490982E+03  0.24030763883E+03  0.49403703135E+03  0.10100000352E+00 0. -1.
</event>
<event>
 5   0  0.2565416E-04  0.1473051E+04  0.7818609E-02  0.8902574E-01
        1   -1    0    0  501    0  0.00000000000E+00  0.00000000000E+00  0.12047503784E+04  0.12047503784E+04  0.50400001928E-02 0. -1.
       -1   -1    0    0    0  501  0.00000000000E+00  0.00000000000E+00 -0.45027594653E+03  0.45027594656E+03  0.50400001928E-02 0.  1.
    10030    2    1    2    0    0  0.00000000000E+00  0.00000000000E+00  0.75447443191E+03  0.16550263250E+04  0.14730514139E+04 0.  0.
        5    1    3    3  502    0  0.90936900409E+02  0.71806255932E+03  0.53032149564E+03  0.89729946935E+03  0.46999998093E+01 0.  1.
       -5    1    3    3    0  502 -0.90936900409E+02 -0.71806255932E+03  0.22415293627E+03  0.75772685566E+03  0.46999998093E+01 0. -1.
</event>
<event>
 5   0  0.2544374E-04  0.1502482E+04  0.7818609E-02  0.8882804E-01
       -1   -1    0    0    0  501  0.00000000000E+00  0.00000000000E+00  0.51445800922E+03  0.51445800925E+03  0.50400001928E-02 0.  1.
        1   -1    0    0  501    0  0.00000000000E+00  0.00000000000E+00 -0.10970046638E+04  0.10970046639E+04  0.50400001928E-02 0. -1.
    10030    2    1    2    0    0  0.00000000000E+00  0.00000000000E+00 -0.58254665463E+03  0.16114626731E+04  0.15024817277E+04 0.  0.
        4    1    3    3  502    0  0.29565647978E+03 -0.68276768983E+03 -0.40261428721E+03  0.84598129381E+03  0.12699999809E+01 0. -1.
       -4    1    3    3    0  502 -0.29565647978E+03  0.68276768983E+03 -0.17993236741E+03  0.76548137930E+03  0.12699999809E+01 0.  1.
</event>
<event>
 5   0  0.2544374E-04  0.1507167E+04  0.7818609E-02  0.8879701E-01
       -1   -1    0    0    0  501  0.00000000000E+00  0.00000000000E+00  0.14174373122E+04  0.14174373122E+04  0.50400001928E-02 0. -1.
        1   -1    0    0  501    0  0.00000000000E+00  0.00000000000E+00 -0.40064416158E+03  0.40064416161E+03  0.50400001928E-02 0.  1.
    10030    2    1    2    0    0  0.00000000000E+00  0.00000000000E+00  0.10167931506E+04  0.18180814738E+04  0.15071668568E+04 0.  0.
        4    1    3    3  502    0  0.63723814874E+03 -0.33180449858E+03  0.23406237633E+03  0.75561464544E+03  0.12699999809E+01 0.  1.
       -4    1    3    3    0  502 -0.63723814874E+03  0.33180449858E+03  0.78273077430E+03  0.10624668284E+04  0.12699999809E+01 0. -1.
</event>
<event>
 5   0  0.4948645E-04  0.1498187E+04  0.7818609E-02  0.8885660E-01
        2   -1    0    0  501    0  0.00000000000E+00  0.00000000000E+00  0.75421469189E+03  0.75421469189E+03  0.25500000920E-02 0. -1.
       -2   -1    0    0    0  501  0.00000000000E+00  0.00000000000E+00 -0.74400674261E+03  0.74400674261E+03  0.25500000920E-02 0.  1.
    10030    2    1    2    0    0  0.00000000000E+00  0.00000000000E+00  0.10207949275E+02  0.14982214345E+04  0.14981866588E+04 0.  0.
        1    1    3    3  502    0  0.16171556388E+03 -0.16771933343E+02 -0.72615002924E+03  0.74412840716E+03  0.50400001928E-02 0.  1.
       -1    1    3    3    0  502 -0.16171556388E+03  0.16771933343E+02  0.73635797851E+03  0.75409302735E+03  0.50400001928E-02 0. -1.
</event>
<event>
 5   0  0.4768387E-04  0.1511555E+04  0.7818609E-02  0.8876805E-01
       -2   -1    0    0    0  501  0.00000000000E+00  0.00000000000E+00  0.57995324736E+03  0.57995324737E+03  0.25500000920E-02 0. -1.
        2   -1    0    0  501    0  0.00000000000E+00  0.00000000000E+00 -0.98490610015E+03  0.98490610015E+03  0.25500000920E-02 0.  1.
    10030    2    1    2    0    0  0.00000000000E+00  0.00000000000E+00 -0.40495285279E+03  0.15648593475E+04  0.15115548169E+04 0.  0.
        3    1    3    3  502    0  0.12554346093E+03 -0.56791495827E+03  0.29715107176E+03  0.65313653248E+03  0.10100000352E+00 0. -1.
       -3    1    3    3    0  502 -0.12554346093E+03  0.56791495827E+03 -0.70210392454E+03  0.91172281504E+03  0.10100000352E+00 0.  1.
</event>
<event>
 5   0  0.2565416E-04  0.1496922E+04  0.7818609E-02  0.8886503E-01
       -1   -1    0    0    0  501  0.00000000000E+00  0.00000000000E+00  0.44468821532E+03  0.44468821534E+03  0.50400001928E-02 0.  1.
        1   -1    0    0  501    0  0.00000000000E+00  0.00000000000E+00 -0.12597445576E+04  0.12597445576E+04  0.50400001928E-02 0. -1.
    10030    2    1    2    0    0  0.00000000000E+00  0.00000000000E+00 -0.81505634224E+03  0.17044327729E+04  0.14969215866E+04 0.  0.
        5    1    3    3  502    0 -0.14004349462E+03 -0.73016602301E+03 -0.30946835234E+03  0.80532437728E+03  0.46999998093E+01 0.  1.
       -5    1    3    3    0  502  0.14004349462E+03  0.73016602301E+03 -0.50558798990E+03  0.89910839562E+03  0.46999998093E+01 0. -1.
</event>
<event>
 5   0  0.4726600E-04  0.1498992E+04  0.7818609E-02  0.8885123E-01
       -2   -1    0    0    0  501  0.00000000000E+00  0.00000000000E+00  0.25673691361E+03  0.25673691362E+03  0.25500000920E-02 0. -1.
        2   -1    0    0  501    0  0.00000000000E+00  0.00000000000E+00 -0.21880155280E+04  0.21880155280E+04  0.25500000920E-02 0.  1.
    10030    2    1    2    0    0  0.00000000000E+00  0.00000000000E+00 -0.19312786144E+04  0.24447524416E+04  0.14989921329E+04 0.  0.
        2    1    3    3  502    0  0.20856782837E+03 -0.57401694266E+03 -0.25707848910E+03  0.66263514777E+03  0.25500000920E-02 0. -1.
       -2    1    3    3    0  502 -0.20856782837E+03  0.57401694266E+03 -0.16742001253E+04  0.17821172938E+04  0.25500000920E-02 0.  1.
</event>
<event>
 5   0  0.4785496E-04  0.1499004E+04  0.7818609E-02  0.8885115E-01
        2   -1    0    0  501    0  0.00000000000E+00  0.00000000000E+00  0.70710434713E+03  0.70710434714E+03  0.25500000920E-02 0.  1.
       -2   -1    0    0    0  501  0.00000000000E+00  0.00000000000E+00 -0.79444186824E+03  0.79444186824E+03  0.25500000920E-02 0. -1.
    10030    2    1    2    0    0  0.00000000000E+00  0.00000000000E+00 -0.87337521106E+02  0.15015462154E+04  0.14990040675E+04 0.  0.
        4    1    3    3  502    0 -0.17129992534E+03  0.17234183107E+03  0.66655150868E+03  0.70946310530E+03  0.12699999809E+01 0.  1.
       -4    1    3    3    0  502  0.17129992534E+03 -0.17234183107E+03 -0.75388902978E+03  0.79208311009E+03  0.12699999809E+01 0. -1.
</event>
<event>
 5   0  0.2544374E-04  0.1487247E+04  0.7818609E-02  0.8892978E-01
       -1   -1    0    0    0  501  0.00000000000E+00  0.00000000000E+00  0.20091918544E+03  0.20091918551E+03  0.50400001928E-02 0. -1.
        1   -1    0    0  501    0  0.00000000000E+00  0.00000000000E+00 -0.27522293704E+04  0.27522293704E+04  0.50400001928E-02 0.  1.
    10030    2    1    2    0    0  0.00000000000E+00  0.00000000000E+00 -0.25513101850E+04  0.29531485559E+04  0.14872466955E+04 0.  0.
        4    1    3    3  502    0  0.45199170029E+03 -0.48089257438E+03 -0.59524124364E+03  0.88874513572E+03  0.12699999809E+01 0. -1.
       -4    1    3    3    0  502 -0.45199170029E+03  0.48089257438E+03 -0.19560689413E+04  0.20644034202E+04  0.12699999809E+01 0.  1.
</event>
<event>
 5   0  0.4569211E-04  0.1495971E+04  0.7818609E-02  0.8887136E-01
       -2   -1    0    0    0  501  0.00000000000E+00  0.00000000000E+00  0.36901667015E+03  0.36901667016E+03  0.25500000920E-02 0.  1.
        2   -1    0    0  501    0  0.00000000000E+00  0.00000000000E+00 -0.15161440054E+04  0.15161440054E+04  0.25500000920E-02 0. -1.
    10030    2    1    2    0    0  0.00000000000E+00  0.00000000000E+00 -0.11471273352E+04  0.18851606755E+04  0.14959711392E+04 0.  0.
        5    1    3    3  502    0  0.17170093581E+03 -0.23527188429E+03  0.29459885573E+03  0.41430018910E+03  0.46999998093E+01 0.  1.
       -5    1    3    3    0  502 -0.17170093581E+03  0.23527188429E+03 -0.14417261909E+04  0.14708604864E+04  0.46999998093E+01 0. -1.
</event>
<event>
 5   0  0.4768387E-04  0.1511017E+04  0.7818609E-02  0.8877160E-01
        2   -1    0    0  501    0  0.00000000000E+00  0.00000000000E+00  0.10327917213E+04  0.10327917213E+04  0.25500000920E-02 0.  1.
       -2   -1    0    0    0  501  0.00000000000E+00  0.00000000000E+00 -0.55266976491E+03  0.55266976492E+03  0.25500000920E-02 0. -1.
    10030    2    1    2    0    0  0.00000000000E+00  0.00000000000E+00  0.48012195640E+03  0.15854614862E+04  0.15110165556E+04 0.  0.
        3    1    3    3  502    0  0.40617302091E+03  0.18774336368E+03 -0.39867416841E+03  0.59930392646E+03  0.10100000352E+00 0. -1.
       -3    1    3    3    0  502 -0.40617302091E+03 -0.18774336368E+03  0.87879612481E+03  0.98615755977E+03  0.10100000352E+00 0.  1.
</event>
<event>
 5   0  0.2544374E-04  0.1502704E+04  0.7818609E-02  0.8882657E-01
       -1   -1    0    0    0  501  0.00000000000E+00  0.00000000000E+00  0.30289076077E+03  0.30289076081E+03  0.50400001928E-02 0.  1.
        1   -1    0    0  501    0  0.00000000000E+00  0.00000000000E+00 -0.18638070352E+04  0.18638070352E+04  0.50400001928E-02 0. -1.
    10030    2    1    2    0    0  0.00000000000E+00  0.00000000000E+00 -0.15609162744E+04  0.21666977960E+04  0.15027041371E+04 0.  0.
        4    1    3    3  502    0  0.28368918177E+03  0.69458298270E+03 -0.72272502380E+03  0.10417572388E+04  0.12699999809E+01 0. -1.
       -4    1    3    3    0  502 -0.28368918177E+03 -0.69458298270E+03 -0.83819125064E+03  0.11249405572E+04  0.12699999809E+01 0.  1.
</event>
<event>
 5   0  0.2542737E-04  0.1501907E+04  0.7818609E-02  0.8883186E-01
       -1   -1    0    0    0  501  0.00000000000E+00  0.00000000000E+00  0.38725261066E+03  0.38725261069E+03  0.50400001928E-02 0.  1.
        1   -1    0    0  501    0  0.00000000000E+00  0.00000000000E+00 -0.14562352654E+04  0.14562352654E+04  0.50400001928E-02 0. -1.
    10030    2    1    2    0    0  0.00000000000E+00  0.00000000000E+00 -0.10689826547E+04  0.18434878761E+04  0.15019066659E+04 0.  0.
        1    1    3    3  502    0  0.76350033794E+01  0.63384109782E+03 -0.40279580735E+02  0.63516554945E+03  0.50400001928E-02 0.  1.
       -1    1    3    3    0  502 -0.76350033794E+01 -0.63384109782E+03 -0.10287030740E+04  0.12083223266E+04  0.50400001928E-02 0. -1.
</event>
<event>
 5   0  0.4785496E-04  0.1495925E+04  0.7818609E-02  0.8887167E-01
       -2   -1    0    0    0  501  0.00000000000E+00  0.00000000000E+00  0.43690673293E+03  0.43690673293E+03  0.25500000920E-02 0. -1.
        2   -1    0    0  501    0  0.00000000000E+00  0.00000000000E+00 -0.12804739124E+04  0.12804739124E+04  0.25500000920E-02 0.  1.
    10030    2    1    2    0    0  0.00000000000E+00  0.00000000000E+00 -0.84356717947E+03  0.17173806453E+04  0.14959246955E+04 0.  0.
        4    1    3    3  502    0 -0.32924377396E+03 -0.73818329758E+02  0.34456649056E+03  0.48226371190E+03  0.12699999809E+01 0. -1.
       -4    1    3    3    0  502  0.32924377396E+03  0.73818329758E+02 -0.11881336700E+04  0.12351169334E+04  0.12699999809E+01 0.  1.
</event>
<event>
 5   0  0.4768387E-04  0.1543534E+04  0.7818609E-02  0.8856009E-01
       -2   -1    0    0    0  501  0.00000000000E+00  0.00000000000E+00  0.32705728656E+03  0.32705728657E+03  0.25500000920E-02 0. -1.
        2   -1    0    0  501    0  0.00000000000E+00  0.00000000000E+00 -0.18211609587E+04  0.18211609587E+04  0.25500000920E-02 0.  1.
    10030    2    1    2    0    0  0.00000000000E+00  0.00000000000E+00 -0.14941036722E+04  0.21482182453E+04  0.15435335585E+04 0.  0.
        3    1    3    3  502    0  0.11364534427E+03  0.34872680731E+03  0.19800751943E+03  0.41681247386E+03  0.10100000352E+00 0. -1.
       -3    1    3    3    0  502 -0.11364534427E+03 -0.34872680731E+03 -0.16921111916E+04  0.17314057714E+04  0.10100000352E+00 0.  1.
</event>
<event>
 5   0  0.4726600E-04  0.1496578E+04  0.7818609E-02  0.8886732E-01
       -2   -1    0    0    0  501  0.00000000000E+00  0.00000000000E+00  0.23465064663E+03  0.23465064664E+03  0.25500000920E-02 0.  1.
        2   -1    0    0  501    0  0.00000000000E+00  0.00000000000E+00 -0.23862562921E+04  0.23862562921E+04  0.25500000920E-02 0. -1.
    10030    2    1    2    0    0  0.00000000000E+00  0.00000000000E+00 -0.21516056455E+04  0.26209069387E+04  0.14965782064E+04 0.  0.
        2    1    3    3  502    0 -0.57949603211E+03  0.17569539336E+03 -0.30593840153E+03  0.67844146986E+03  0.25500000920E-02 0.  1.
       -2    1    3    3    0  502  0.57949603211E+03 -0.17569539336E+03 -0.18456672439E+04  0.19424654689E+04  0.25500000920E-02 0. -1.
</event>
<event>
 5   0  0.4726600E-04  0.1508793E+04  0.7818609E-02  0.8878626E-01
       -2   -1    0    0    0  501  0.00000000000E+00  0.00000000000E+00  0.29645205322E+03  0.29645205323E+03  0.25500000920E-02 0.  1.
        2   -1    0    0  501    0  0.00000000000E+00  0.00000000000E+00 -0.19197514556E+04  0.19197514556E+04  0.25500000920E-02 0. -1.
    10030    2    1    2    0    0  0.00000000000E+00  0.00000000000E+00 -0.16232994024E+04  0.22162035088E+04  0.15087932406E+04 0.  0.
        2    1    3    3  502    0  0.31367336153E+03  0.53572886539E+03 -0.14412364870E+04  0.15692542835E+04  0.25500000920E-02 0. -1.
       -2    1    3    3    0  502 -0.31367336153E+03 -0.53572886539E+03 -0.18206291538E+03  0.64694922529E+03  0.25500000920E-02 0.  1.
</event>
<event>
 5   0  0.4785496E-04  0.1488786E+04  0.7818609E-02  0.8891944E-01
        2   -1    0    0  501    0  0.00000000000E+00  0.00000000000E+00  0.44292607671E+03  0.44292607671E+03  0.25500000920E-02 0. -1.
       -2   -1    0    0    0  501  0.00000000000E+00  0.00000000000E+00 -0.12510463156E+04  0.12510463156E+04  0.25500000920E-02 0.  1.
    10030    2    1    2    0    0  0.00000000000E+00  0.00000000000E+00 -0.80812023892E+03  0.16939723923E+04  0.14887861315E+04 0.  0.
        4    1    3    3  502    0 -0.13036921589E+02 -0.55622185485E+03 -0.96675463795E+03  0.11154231735E+04  0.12699999809E+01 0.  1.
       -4    1    3    3    0  502  0.13036921589E+02  0.55622185485E+03  0.15863439904E+03  0.57854921881E+03  0.12699999809E+01 0. -1.
</event>
<event>
 5   0  0.4569211E-04  0.1470649E+04  0.7818609E-02  0.8904209E-01
       -2   -1    0    0    0  501  0.00000000000E+00  0.00000000000E+00  0.13272143116E+04  0.13272143116E+04  0.25500000920E-02 0. -1.
        2   -1    0    0  501    0  0.00000000000E+00  0.00000000000E+00 -0.40739598221E+03  0.40739598222E+03  0.25500000920E-02 0.  1.
    10030    2    1    2    0    0  0.00000000000E+00  0.00000000000E+00  0.91981832942E+03  0.17346102939E+04  0.14706485346E+04 0.  0.
        5    1    3    3  502    0  0.23374989328E+03  0.66343937550E+03  0.71257510884E+03  0.10012872681E+04  0.46999998093E+01 0. -1.
       -5    1    3    3    0  502 -0.23374989328E+03 -0.66343937550E+03  0.20724322058E+03  0.73332302572E+03  0.46999998093E+01 0.  1.
</event>
<event>
 5   0  0.4569211E-04  0.1499203E+04  0.7818609E-02  0.8884983E-01
       -2   -1    0    0    0  501  0.00000000000E+00  0.00000000000E+00  0.72622767454E+03  0.72622767454E+03  0.25500000920E-02 0.  1.
        2   -1    0    0  501    0  0.00000000000E+00  0.00000000000E+00 -0.77372738901E+03  0.77372738901E+03  0.25500000920E-02 0. -1.
    10030    2    1    2    0    0  0.00000000000E+00  0.00000000000E+00 -0.47499714467E+02  0.14999550636E+04  0.14992027781E+04 0.  0.
        5    1    3    3  502    0  0.24976223570E+02  0.20285186502E+03 -0.74529650322E+03  0.77282705607E+03  0.46999998093E+01 0. -1.
       -5    1    3    3    0  502 -0.24976223570E+02 -0.20285186502E+03  0.69779678875E+03  0.72712800749E+03  0.46999998093E+01 0.  1.
</event>
<event>
 5   0  0.4768387E-04  0.1482448E+04  0.7818609E-02  0.8896209E-01
       -2   -1    0    0    0  501  0.00000000000E+00  0.00000000000E+00  0.10869422576E+04  0.10869422576E+04  0.25500000920E-02 0. -1.
        2   -1    0    0  501    0  0.00000000000E+00  0.00000000000E+00 -0.50546670404E+03  0.50546670405E+03  0.25500000920E-02 0.  1.
    10030    2    1    2    0    0  0.00000000000E+00  0.00000000000E+00  0.58147555351E+03  0.15924089616E+04  0.14824481379E+04 0.  0.
        3    1    3    3  502    0 -0.24074711255E+03 -0.95354249294E+02 -0.45530104052E+03  0.52378492987E+03  0.10100000352E+00 0.  1.
       -3    1    3    3    0  502  0.24074711255E+03  0.95354249294E+02  0.10367765940E+04  0.10686240317E+04  0.10100000352E+00 0. -1.
</event>
<event>
 5   0  0.2542737E-04  0.1505653E+04  0.7818609E-02  0.8880702E-01
       -1   -1    0    0    0  501  0.00000000000E+00  0.00000000000E+00  0.52428367607E+03  0.52428367609E+03  0.50400001928E-02 0. -1.
        1   -1    0    0  501    0  0.00000000000E+00  0.00000000000E+00 -0.10809949746E+04  0.10809949747E+04  0.50400001928E-02 0.  1.
    10030    2    1    2    0    0  0.00000000000E+00  0.00000000000E+00 -0.55671129858E+03  0.16052786508E+04  0.15056533720E+04 0.  0.
        1    1    3    3  502    0  0.54520135679E+03  0.12433737886E+03 -0.81573337013E+03  0.98900214074E+03  0.50400001928E-02 0.  1.
       -1    1    3    3    0  502 -0.54520135679E+03 -0.12433737886E+03  0.25902207154E+03  0.61627651001E+03  0.50400001928E-02 0. -1.
</event>
<event>
 5   0  0.2542737E-04  0.1500124E+04  0.7818609E-02  0.8884370E-01
       -1   -1    0    0    0  501  0.00000000000E+00  0.00000000000E+00  0.39673530295E+03  0.39673530298E+03  0.50400001928E-02 0.  1.
        1   -1    0    0  501    0  0.00000000000E+00  0.00000000000E+00 -0.14180571560E+04  0.14180571560E+04  0.50400001928E-02 0. -1.
    10030    2    1    2    0    0  0.00000000000E+00  0.00000000000E+00 -0.10213218530E+04  0.18147924590E+04  0.15001244421E+04 0.  0.
        1    1    3    3  502    0 -0.14972779224E+03  0.42654461369E+03  0.21341390756E+03  0.49990420603E+03  0.50400001928E-02 0.  1.
       -1    1    3    3    0  502  0.14972779224E+03 -0.42654461369E+03 -0.12347357606E+04  0.13148882529E+04  0.50400001928E-02 0. -1.
</event>
<event>
 5   0  0.4726600E-04  0.1502959E+04  0.7818609E-02  0.8882488E-01
        2   -1    0    0  501    0  0.00000000000E+00  0.00000000000E+00  0.93081890756E+03  0.93081890756E+03  0.25500000920E-02 0. -1.
       -2   -1    0    0    0  501  0.00000000000E+00  0.00000000000E+00 -0.60669284854E+03  0.60669284854E+03  0.25500000920E-02 0.  1.
    10030    2    1    2    0    0  0.00000000000E+00  0.00000000000E+00  0.32412605902E+03  0.15375117561E+04  0.15029586481E+04 0.  0.
        2    1    3    3  502    0 -0.34498590887E+03 -0.37951582896E+03 -0.39981246328E+03  0.65030573391E+03  0.25500000920E-02 0.  1.
       -2    1    3    3    0  502  0.34498590887E+03  0.37951582896E+03  0.72393852229E+03  0.88720602220E+03  0.25500000920E-02 0. -1.
</event>
<event>
 5   0  0.4785496E-04  0.1485741E+04  0.7818609E-02  0.8893991E-01
       -2   -1    0    0    0  501  0.00000000000E+00  0.00000000000E+00  0.10193650805E+04  0.10193650805E+04  0.25500000920E-02 0.  1.
        2   -1    0    0  501    0  0.00000000000E+00  0.00000000000E+00 -0.54137301927E+03  0.54137301928E+03  0.25500000920E-02 0. -1.
    10030    2    1    2    0    0  0.00000000000E+00  0.00000000000E+00  0.47799206126E+03  0.15607380998E+04  0.14857412310E+04 0.  0.
        4    1    3    3  502    0  0.58344191023E+03  0.13473542473E+03 -0.22285238671E+03  0.63892323204E+03  0.12699999809E+01 0.  1.
       -4    1    3    3    0  502 -0.58344191023E+03 -0.13473542473E+03  0.70084444797E+03  0.92181486777E+03  0.12699999809E+01 0. -1.
</event>
<event>
 5   0  0.2565416E-04  0.1508079E+04  0.7818609E-02  0.8879099E-01
        1   -1    0    0  501    0  0.00000000000E+00  0.00000000000E+00  0.17421355305E+04  0.17421355306E+04  0.50400001928E-02 0. -1.
       -1   -1    0    0    0  501  0.00000000000E+00  0.00000000000E+00 -0.32636679836E+03  0.32636679840E+03  0.50400001928E-02 0.  1.
    10030    2    1    2    0    0  0.00000000000E+00  0.00000000000E+00  0.14157687322E+04  0.20685023290E+04  0.15080785065E+04 0.  0.
        5    1    3    3  502    0  0.38006708496E+02 -0.33947434056E+03 -0.21412808217E+03  0.40318762799E+03  0.46999998093E+01 0.  1.
       -5    1    3    3    0  502 -0.38006708496E+02  0.33947434056E+03  0.16298968144E+04  0.16653147010E+04  0.46999998093E+01 0. -1.
</event>
<event>
 5   0  0.1792000E-04  0.1504198E+04  0.7818609E-02  0.8881666E-01
       -3   -1    0    0    0  501  0.00000000000E+00  0.00000000000E+00  0.10315769061E+04  0.10315769110E+04  0.10100000352E+00 0.  1.
        3   -1    0    0  501    0  0.00000000000E+00  0.00000000000E+00 -0.54833822133E+03  0.54833823063E+03  0.10100000352E+00 0. -1.
    10030    2    1    2    0    0  0.00000000000E+00  0.00000000000E+00  0.48323868476E+03  0.15799151417E+04  0.15041982012E+04 0.  0.
        1    1    3    3  502    0  0.68847268661E+01 -0.69078176066E+03  0.55395331030E+03  0.88548919268E+03  0.50400001928E-02 0. -1.
       -1    1    3    3    0  502 -0.68847268661E+01  0.69078176066E+03 -0.70714625544E+02  0.69442594898E+03  0.50400001928E-02 0.  1.
</event>
<event>
 5   0  0.4785496E-04  0.1505503E+04  0.7818609E-02  0.8880801E-01
       -2   -1    0    0    0  501  0.00000000000E+00  0.00000000000E+00  0.32119237180E+03  0.32119237181E+03  0.25500000920E-02 0. -1.
        2   -1    0    0  501    0  0.00000000000E+00  0.00000000000E+00 -0.17641613117E+04  0.17641613117E+04  0.25500000920E-02 0.  1.
    10030    2    1    2    0    0  0.00000000000E+00  0.00000000000E+00 -0.14429689399E+04  0.20853536835E+04  0.15055034453E+04 0.  0.
        4    1    3    3  502    0  0.30400173250E+03 -0.67236621566E+03 -0.51537954756E+03  0.90006170470E+03  0.12699999809E+01 0. -1.
       -4    1    3    3    0  502 -0.30400173250E+03  0.67236621566E+03 -0.92758939231E+03  0.11852919788E+04  0.12699999809E+01 0.  1.
</event>
<event>
 5   0  0.2565416E-04  0.1495660E+04  0.7818609E-02  0.8887344E-01
        1   -1    0    0  501    0  0.00000000000E+00  0.00000000000E+00  0.50730860321E+03  0.50730860323E+03  0.50400001928E-02 0. -1.
       -1   -1    0    0    0  501  0.00000000000E+00  0.00000000000E+00 -0.11023852804E+04  0.11023852804E+04  0.50400001928E-02 0.  1.
    10030    2    1    2    0    0  0.00000000000E+00  0.00000000000E+00 -0.59507667715E+03  0.16096938836E+04  0.14956597699E+04 0.  0.
        5    1    3    3  502    0  0.25905266504E+03 -0.65423284163E+03 -0.25058362377E+02  0.70411569068E+03  0.46999998093E+01 0. -1.
       -5    1    3    3    0  502 -0.25905266504E+03  0.65423284163E+03 -0.57001831478E+03  0.90557819293E+03  0.46999998093E+01 0.  1.
</event>
<event>
 5   0  0.2544374E-04  0.1503426E+04  0.7818609E-02  0.8882178E-01
        1   -1    0    0  501    0  0.00000000000E+00  0.00000000000E+00  0.12986344671E+04  0.12986344671E+04  0.50400001928E-02 0.  1.
       -1   -1    0    0    0  501  0.00000000000E+00  0.00000000000E+00 -0.43512841137E+03  0.43512841139E+03  0.50400001928E-02 0. -1.
    10030    2    1    2    0    0  0.00000000000E+00  0.00000000000E+00  0.86350605575E+03  0.17337628785E+04  0.15034264234E+04 0.  0.
        4    1    3    3  502    0 -0.67646009588E+03 -0.28914631760E+03  0.25359350751E+03  0.77814852968E+03  0.12699999809E+01 0. -1.
       -4    1    3    3    0  502  0.67646009588E+03  0.28914631760E+03  0.60991254824E+03  0.95561434883E+03  0.12699999809E+01 0.  1.
</event>
<event>
 5   0  0.2542737E-04  0.1502502E+04  0.7818609E-02  0.8882791E-01
        1   -1    0    0  501    0  0.00000000000E+00  0.00000000000E+00  0.24643210110E+04  0.24643210110E+04  0.50400001928E-02 0.  1.
       -1   -1    0    0    0  501  0.00000000000E+00  0.00000000000E+00 -0.22901978660E+03  0.22901978666E+03  0.50400001928E-02 0. -1.
    10030    2    1    2    0    0  0.00000000000E+00  0.00000000000E+00  0.22353012244E+04  0.26933407976E+04  0.15025022757E+04 0.  0.
        1    1    3    3  502    0  0.10545216514E+03 -0.63776804523E+03  0.43151516736E+03  0.77722170475E+03  0.50400001928E-02 0. -1.
       -1    1    3    3    0  502 -0.10545216514E+03  0.63776804523E+03  0.18037860570E+04  0.19161190929E+04  0.50400001928E-02 0.  1.
</event>
<event>
 5   0  0.2542737E-04  0.1513348E+04  0.7818609E-02  0.8875625E-01
       -1   -1    0    0    0  501  0.00000000000E+00  0.00000000000E+00  0.65995465387E+03  0.65995465389E+03  0.50400001928E-02 0.  1.
        1   -1    0    0  501    0  0.00000000000E+00  0.00000000000E+00 -0.86756839197E+03  0.86756839199E+03  0.50400001928E-02 0. -1.
    10030    2    1    2    0    0  0.00000000000E+00  0.00000000000E+00 -0.20761373810E+03  0.15275230459E+04  0.15133483378E+04 0.  0.
        1    1    3    3  502    0  0.24925099851E+02 -0.15147520967E+03  0.64407155487E+03  0.66211340990E+03  0.50400001928E-02 0.  1.
       -1    1    3    3    0  502 -0.24925099851E+02  0.15147520967E+03 -0.85168529298E+03  0.86540963598E+03  0.50400001928E-02 0. -1.
</event>
<event>
 5   0  0.2542737E-04  0.1513338E+04  0.7818609E-02  0.8875631E-01
        1   -1    0    0  501    0  0.00000000000E+00  0.00000000000E+00  0.40955921999E+03  0.40955922002E+03  0.50400001928E-02 0. -1.
       -1   -1    0    0    0  501  0.00000000000E+00  0.00000000000E+00 -0.13979618358E+04  0.13979618358E+04  0.50400001928E-02 0.  1.
    10030    2    1    2    0    0  0.00000000000E+00  0.00000000000E+00 -0.98840261582E+03  0.18075210558E+04  0.15133382425E+04 0.  0.
        1    1    3    3  502    0 -0.60205092274E+03  0.15868570871E+03  0.19390159593E+02  0.62291447730E+03  0.50400001928E-02 0. -1.
       -1    1    3    3    0  502  0.60205092274E+03 -0.15868570871E+03 -0.10077927754E+04  0.11846065785E+04  0.50400001928E-02 0.  1.
</event>
<event>
 5   0  0.1792000E-04  0.1510643E+04  0.7818609E-02  0.8877406E-01
        4   -1    0    0  501    0  0.00000000000E+00  0.00000000000E+00  0.92051186113E+03  0.92051273722E+03  0.12699999809E+01 0. -1.
       -4   -1    0    0    0  501  0.00000000000E+00  0.00000000000E+00 -0.61977372247E+03  0.61977502367E+03  0.12699999809E+01 0.  1.
    10030    2    1    2    0    0  0.00000000000E+00  0.00000000000E+00  0.30073813866E+03  0.15402877609E+04  0.15106432267E+04 0.  0.
        3    1    3    3  502    0  0.18418484459E+03 -0.45331935014E+02  0.89583308565E+03  0.91569425512E+03  0.10100000352E+00 0. -1.
       -3    1    3    3    0  502 -0.18418484459E+03  0.45331935014E+02 -0.59509494700E+03  0.62459350577E+03  0.10100000352E+00 0.  1.
</event>
<event>
 5   0  0.2565416E-04  0.1512239E+04  0.7818609E-02  0.8876355E-01
        1   -1    0    0  501    0  0.00000000000E+00  0.00000000000E+00  0.86613694954E+03  0.86613694956E+03  0.50400001928E-02 0.  1.
       -1   -1    0    0    0  501  0.00000000000E+00  0.00000000000E+00 -0.66007635857E+03  0.66007635859E+03  0.50400001928E-02 0. -1.
    10030    2    1    2    0    0  0.00000000000E+00  0.00000000000E+00  0.20606059097E+03  0.15262133081E+04  0.15122387691E+04 0.  0.
        5    1    3    3  502    0  0.24102937824E+03  0.12384340810E+03  0.81543009386E+03  0.85929079994E+03  0.46999998093E+01 0.  1.
       -5    1    3    3    0  502 -0.24102937824E+03 -0.12384340810E+03 -0.60936950288E+03  0.66692250820E+03  0.46999998093E+01 0. -1.
</event>
<event>
 5   0  0.4768387E-04  0.1500611E+04  0.7818609E-02  0.8884047E-01
       -2   -1    0    0    0  501  0.00000000000E+00  0.00000000000E+00  0.95094900930E+03  0.95094900930E+03  0.25500000920E-02 0. -1.
        2   -1    0    0  501    0  0.00000000000E+00  0.00000000000E+00 -0.59199648733E+03  0.59199648733E+03  0.25500000920E-02 0.  1.
    10030    2    1    2    0    0  0.00000000000E+00  0.00000000000E+00  0.35895252197E+03  0.15429454966E+04  0.15006111730E+04 0.  0.
        3    1    3    3  502    0  0.47711461104E+02 -0.12709798342E+03  0.93821557970E+03  0.94798669036E+03  0.10100000352E+00 0. -1.
       -3    1    3    3    0  502 -0.47711461104E+02  0.12709798342E+03 -0.57926305773E+03  0.59495880627E+03  0.10100000352E+00 0.  1.
</event>
<event>
 5   0  0.2605471E-04  0.1500624E+04  0.7818609E-02  0.8884038E-01
        1   -1    0    0  501    0  0.00000000000E+00  0.00000000000E+00  0.13868363593E+04  0.13868363593E+04  0.50400001928E-02 0. -1.
       -1   -1    0    0    0  501  0.00000000000E+00  0.00000000000E+00 -0.40593683953E+03  0.40593683956E+03  0.50400001928E-02 0.  1.
    10030    2    1    2    0    0  0.00000000000E+00  0.00000000000E+00  0.98089951978E+03  0.17927731989E+04  0.15006238285E+04 0.  0.
        3    1    3    3  502    0 -0.29608537273E+03 -0.10306189757E+03 -0.32393632084E+03  0.45080267616E+03  0.10100000352E+00 0.  1.
       -3    1    3    3    0  502  0.29608537273E+03  0.10306189757E+03  0.13048358406E+04  0.13419705227E+04  0.10100000352E+00 0. -1.
</event>
<event>
 5   0  0.2603873E-04  0.1489357E+04  0.7818609E-02  0.8891562E-01
        1   -1    0    0  501    0  0.00000000000E+00  0.00000000000E+00  0.10325973267E+04  0.10325973267E+04  0.50400001928E-02 0. -1.
       -1   -1    0    0    0  501  0.00000000000E+00  0.00000000000E+00 -0.53703983307E+03  0.53703983310E+03  0.50400001928E-02 0.  1.
    10030    2    1    2    0    0  0.00000000000E+00  0.00000000000E+00  0.49555749362E+03  0.15696371598E+04  0.14893567685E+04 0.  0.
        2    1    3    3  502    0  0.31718318301E+03 -0.36683348020E+03  0.84337266474E+03  0.97285632311E+03  0.25500000920E-02 0. -1.
       -2    1    3    3    0  502 -0.31718318301E+03  0.36683348020E+03 -0.34781517112E+03  0.59678083669E+03  0.25500000920E-02 0.  1.
</event>
<event>
 5   0  0.4569211E-04  0.1537713E+04  0.7818609E-02  0.8859754E-01
        2   -1    0    0  501    0  0.00000000000E+00  0.00000000000E+00  0.63951303458E+03  0.63951303458E+03  0.25500000920E-02 0.  1.
       -2   -1    0    0    0  501  0.00000000000E+00  0.00000000000E+00 -0.92436008270E+03  0.92436008271E+03  0.25500000920E-02 0. -1.
    10030    2    1    2    0    0  0.00000000000E+00  0.00000000000E+00 -0.28484704813E+03  0.15638731173E+04  0.15377130051E+04 0.  0.
        5    1    3    3  502    0  0.24708309998E+03  0.18493484198E+03  0.57373464768E+03  0.65149404450E+03  0.46999998093E+01 0.  1.
       -5    1    3    3    0  502 -0.24708309998E+03 -0.18493484198E+03 -0.85858169581E+03  0.91237907278E+03  0.46999998093E+01 0. -1.
</event>
<event>
 5   0  0.4768387E-04  0.1493829E+04  0.7818609E-02  0.8888567E-01
       -2   -1    0    0    0  501  0.00000000000E+00  0.00000000000E+00  0.32476104244E+03  0.32476104245E+03  0.25500000920E-02 0.  1.
        2   -1    0    0  501    0  0.00000000000E+00  0.00000000000E+00 -0.17178204482E+04  0.17178204482E+04  0.25500000920E-02 0. -1.
    10030    2    1    2    0    0  0.00000000000E+00  0.00000000000E+00 -0.13930594057E+04  0.20425814906E+04  0.14938288516E+04 0.  0.
        3    1    3    3  502    0  0.43767614727E+03 -0.28544617781E+03  0.33230149175E+02  0.52358779907E+03  0.10100000352E+00 0.  1.
       -3    1    3    3    0  502 -0.43767614727E+03  0.28544617781E+03 -0.14262895549E+04  0.15189936915E+04  0.10100000352E+00 0. -1.
</event>
<event>
 5   0  0.2542737E-04  0.1504633E+04  0.7818609E-02  0.8881378E-01
        1   -1    0    0  501    0  0.00000000000E+00  0.00000000000E+00  0.11944563030E+04  0.11944563030E+04  0.50400001928E-02 0. -1.
       -1   -1    0    0    0  501  0.00000000000E+00  0.00000000000E+00 -0.47383940575E+03  0.47383940578E+03  0.50400001928E-02 0.  1.
    10030    2    1    2    0    0  0.00000000000E+00  0.00000000000E+00  0.72061689725E+03  0.16682957088E+04  0.15046334635E+04 0.  0.
        1    1    3    3  502    0  0.13281882471E+03 -0.72370896593E+03  0.18645750794E+03  0.75905329844E+03  0.50400001928E-02 0.  1.
       -1    1    3    3    0  502 -0.13281882471E+03  0.72370896593E+03  0.53415938931E+03  0.90924241035E+03  0.50400001928E-02 0. -1.
</event>
<event>
 5   0  0.4785496E-04  0.1509844E+04  0.7818609E-02  0.8877933E-01
       -2   -1    0    0    0  501  0.00000000000E+00  0.00000000000E+00  0.53369108585E+03  0.53369108585E+03  0.25500000920E-02 0. -1.
        2   -1    0    0  501    0  0.00000000000E+00  0.00000000000E+00 -0.10678603590E+04  0.10678603590E+04  0.25500000920E-02 0.  1.
    10030    2    1    2    0    0  0.00000000000E+00  0.00000000000E+00 -0.53416927316E+03  0.16015514449E+04  0.15098444351E+04 0.  0.
        4    1    3    3  502    0 -0.73240000898E+03 -0.12570484797E+03 -0.12598452936E+03  0.75371426714E+03  0.12699999809E+01 0. -1.
       -4    1    3    3    0  502  0.73240000898E+03  0.12570484797E+03 -0.40818474380E+03  0.84783717772E+03  0.12699999809E+01 0.  1.
</event>
<event>
 5   0  0.4948645E-04  0.1500986E+04  0.7818609E-02  0.8883798E-01
        2   -1    0    0  501    0  0.00000000000E+00  0.00000000000E+00  0.10249474990E+04  0.10249474990E+04  0.25500000920E-02 0.  1.
       -2   -1    0    0    0  501  0.00000000000E+00  0.00000000000E+00 -0.54953023476E+03  0.54953023476E+03  0.25500000920E-02 0. -1.
    10030    2    1    2    0    0  0.00000000000E+00  0.00000000000E+00  0.47541726424E+03  0.15744777338E+04  0.15009858624E+04 0.  0.
        1    1    3    3  502    0 -0.60563904591E+03  0.24570724492E+03  0.62464487937E+03  0.90407517911E+03  0.50400001928E-02 0.  1.
       -1    1    3    3    0  502  0.60563904591E+03 -0.24570724492E+03 -0.14922761513E+03  0.67040255465E+03  0.50400001928E-02 0. -1.
</event>
<event>
 5   0  0.4768387E-04  0.1502817E+04  0.7818609E-02  0.8882582E-01
        2   -1    0    0  501    0  0.00000000000E+00  0.00000000000E+00  0.12516807664E+04  0.12516807664E+04  0.25500000920E-02 0.  1.
       -2   -1    0    0    0  501  0.00000000000E+00  0.00000000000E+00 -0.45108549858E+03  0.45108549859E+03  0.25500000920E-02 0. -1.
    10030    2    1    2    0    0  0.00000000000E+00  0.00000000000E+00  0.80059526784E+03  0.17027662650E+04  0.15028174109E+04 0.  0.
        3    1    3    3  502    0 -0.35613070891E+03 -0.17480613641E+02  0.11497225176E+04  0.12037427181E+04  0.10100000352E+00 0.  1.
       -3    1    3    3    0  502  0.35613070891E+03  0.17480613641E+02 -0.34912724974E+03  0.49902354694E+03  0.10100000352E+00 0. -1.
</event>
<event>
 5   0  0.2565416E-04  0.1494470E+04  0.7818609E-02  0.8888139E-01
        1   -1    0    0  501    0  0.00000000000E+00  0.00000000000E+00  0.11494204078E+04  0.11494204078E+04  0.50400001928E-02 0. -1.
       -1   -1    0    0    0  501  0.00000000000E+00  0.00000000000E+00 -0.48577514692E+03  0.48577514694E+03  0.50400001928E-02 0.  1.
    10030    2    1    2    0    0  0.00000000000E+00  0.00000000000E+00  0.66364526086E+03  0.16351955547E+04  0.14944696283E+04 0.  0.
        5    1    3    3  502    0 -0.28418850964E+03  0.26104501049E+03  0.10319426976E+04  0.11017419968E+04  0.46999998093E+01 0. -1.
       -5    1    3    3    0  502  0.28418850964E+03 -0.26104501049E+03 -0.36829743673E+03  0.53345355788E+03  0.46999998093E+01 0.  1.
</event>
<event>
 5   0  0.2603873E-04  0.1480050E+04  0.7818609E-02  0.8897829E-01
        1   -1    0    0  501    0  0.00000000000E+00  0.00000000000E+00  0.96395792253E+03  0.96395792254E+03  0.50400001928E-02 0.  1.
       -1   -1    0    0    0  501  0.00000000000E+00  0.00000000000E+00 -0.56811320325E+03  0.56811320327E+03  0.50400001928E-02 0. -1.
    10030    2    1    2    0    0  0.00000000000E+00  0.00000000000E+00  0.39584471927E+03  0.15320711258E+04  0.14800503008E+04 0.  0.
        2    1    3    3  502    0  0.42395927664E+03 -0.51505216804E+03  0.52952054839E+03  0.85171134501E+03  0.25500000920E-02 0.  1.
       -2    1    3    3    0  502 -0.42395927664E+03  0.51505216804E+03 -0.13367582912E+03  0.68035978081E+03  0.25500000920E-02 0. -1.
</event>
<event>
 5   0  0.2542737E-04  0.1499328E+04  0.7818609E-02  0.8884900E-01
       -1   -1    0    0    0  501  0.00000000000E+00  0.00000000000E+00  0.47757609865E+03  0.47757609868E+03  0.50400001928E-02 0.  1.
        1   -1    0    0  501    0  0.00000000000E+00  0.00000000000E+00 -0.11767670665E+04  0.11767670665E+04  0.50400001928E-02 0. -1.
    10030    2    1    2    0    0  0.00000000000E+00  0.00000000000E+00 -0.69919096786E+03  0.16543431652E+04  0.14993276155E+04 0.  0.
        1    1    3    3  502    0 -0.19646868469E+03 -0.62431068214E+02  0.44568642384E+03  0.49105393875E+03  0.50400001928E-02 0.  1.
       -1    1    3    3    0  502  0.19646868469E+03  0.62431068214E+02 -0.11448773917E+04  0.11632892265E+04  0.50400001928E-02 0. -1.
</event>
<event>
 5   0  0.4726600E-04  0.1588401E+04  0.7818609E-02  0.8827706E-01
       -2   -1    0    0    0  501  0.00000000000E+00  0.00000000000E+00  0.70971785078E+03  0.70971785078E+03  0.25500000920E-02 0. -1.
        2   -1    0    0  501    0  0.00000000000E+00  0.00000000000E+00 -0.88873936132E+03  0.88873936132E+03  0.25500000920E-02 0.  1.
    10030    2    1    2    0    0  0.00000000000E+00  0.00000000000E+00 -0.17902151054E+03  0.15984572121E+04  0.15884006918E+04 0.  0.
        2    1    3    3  502    0  0.22134189353E+03 -0.95833429575E+02  0.67196879049E+03  0.71394561099E+03  0.25500000920E-02 0. -1.
       -2    1    3    3    0  502 -0.22134189353E+03  0.95833429575E+02 -0.85099030103E+03  0.88451160112E+03  0.25500000920E-02 0.  1.
</event>
<event>
 5   0  0.4785496E-04  0.1502404E+04  0.7818609E-02  0.8882856E-01
        2   -1    0    0  501    0  0.00000000000E+00  0.00000000000E+00  0.11077162993E+04  0.11077162993E+04  0.25500000920E-02 0.  1.
       -2   -1    0    0    0  501  0.00000000000E+00  0.00000000000E+00 -0.50943027943E+03  0.50943027944E+03  0.25500000920E-02 0. -1.
    10030    2    1    2    0    0  0.00000000000E+00  0.00000000000E+00  0.59828601990E+03  0.16171465788E+04  0.15024037059E+04 0.  0.
        4    1    3    3  502    0  0.91500374060E+02  0.96016566263E+02  0.10950121964E+04  0.11030162386E+04  0.12699999809E+01 0.  1.
       -4    1    3    3    0  502 -0.91500374060E+02 -0.96016566263E+02 -0.49672617646E+03  0.51413034021E+03  0.12699999809E+01 0. -1.
</event>
<event>
 5   0  0.2603873E-04  0.1504594E+04  0.7818609E-02  0.8881404E-01
       -1   -1    0    0    0  501  0.00000000000E+00  0.00000000000E+00  0.62917474231E+03  0.62917474233E+03  0.50400001928E-02 0.  1.
        1   -1    0    0  501    0  0.00000000000E+00  0.00000000000E+00 -0.89951312194E+03  0.89951312195E+03  0.50400001928E-02 0. -1.
    10030    2    1    2    0    0  0.00000000000E+00  0.00000000000E+00 -0.27033837963E+03  0.15286878643E+04  0.15045942134E+04 0.  0.
        2    1    3    3  502    0  0.11538727399E+03  0.65180938943E+02  0.61722159033E+03  0.63128857853E+03  0.25500000920E-02 0.  1.
       -2    1    3    3    0  502 -0.11538727399E+03 -0.65180938943E+02 -0.88755996996E+03  0.89739928576E+03  0.25500000920E-02 0. -1.
</event>
<event>
 5   0  0.2565416E-04  0.1498266E+04  0.7818609E-02  0.8885607E-01
        1   -1    0    0  501    0  0.00000000000E+00  0.00000000000E+00  0.56980234975E+03  0.56980234977E+03  0.50400001928E-02 0. -1.
       -1   -1    0    0    0  501  0.00000000000E+00  0.00000000000E+00 -0.98490347240E+03  0.98490347241E+03  0.50400001928E-02 0.  1.
    10030    2    1    2    0    0  0.00000000000E+00  0.00000000000E+00 -0.41510112265E+03  0.15547058222E+04  0.14982660817E+04 0.  0.
        5    1    3    3  502    0  0.44988183144E+03 -0.67405986663E+02 -0.82515254992E+03  0.94225052398E+03  0.46999998093E+01 0.  1.
       -5    1    3    3    0  502 -0.44988183144E+03  0.67405986663E+02  0.41005142727E+03  0.61245529821E+03  0.46999998093E+01 0. -1.
</event>
<event>
 5   0  0.2603873E-04  0.1504374E+04  0.7818609E-02  0.8881550E-01
        1   -1    0    0  501    0  0.00000000000E+00  0.00000000000E+00  0.10715704763E+04  0.10715704763E+04  0.50400001928E-02 0. -1.
       -1   -1    0    0    0  501  0.00000000000E+00  0.00000000000E+00 -0.52799611943E+03  0.52799611946E+03  0.50400001928E-02 0.  1.
    10030    2    1    2    0    0  0.00000000000E+00  0.00000000000E+00  0.54357435690E+03  0.15995665958E+04  0.15043736946E+04 0.  0.
        2    1    3    3  502    0  0.39339366296E+03  0.32096732610E+03  0.86188838722E+03  0.10003150456E+04  0.25500000920E-02 0. -1.
       -2    1    3    3    0  502 -0.39339366296E+03 -0.32096732610E+03 -0.31831403032E+03  0.59925155018E+03  0.25500000920E-02 0.  1.
</event>
<event>
 5   0  0.1792000E-04  0.1500099E+04  0.7818609E-02  0.8884387E-01
       -3   -1    0    0    0  501  0.00000000000E+00  0.00000000000E+00  0.77682207856E+03  0.77682208512E+03  0.10100000352E+00 0. -1.
        3   -1    0    0  501    0  0.00000000000E+00  0.00000000000E+00 -0.72419914153E+03  0.72419914857E+03  0.10100000352E+00 0.  1.
    10030    2    1    2    0    0  0.00000000000E+00  0.00000000000E+00  0.52622937027E+02  0.15010212337E+04  0.15000985203E+04 0.  0.
        1    1    3    3  502    0 -0.62043618233E+03 -0.41737081872E+03 -0.32328639740E+02  0.74845480667E+03  0.50400001928E-02 0. -1.
       -1    1    3    3    0  502  0.62043618233E+03  0.41737081872E+03  0.84951576768E+02  0.75256642702E+03  0.50400001928E-02 0.  1.
</event>
<event>
 5   0  0.4726600E-04  0.1520882E+04  0.7818609E-02  0.8870684E-01
       -2   -1    0    0    0  501  0.00000000000E+00  0.00000000000E+00  0.46834866056E+03  0.46834866056E+03  0.25500000920E-02 0.  1.
        2   -1    0    0  501    0  0.00000000000E+00  0.00000000000E+00 -0.12347007634E+04  0.12347007634E+04  0.25500000920E-02 0. -1.
    10030    2    1    2    0    0  0.00000000000E+00  0.00000000000E+00 -0.76635210282E+03  0.17030494239E+04  0.15208819135E+04 0.  0.
        2    1    3    3  502    0 -0.31728539072E+03  0.41911762317E+02 -0.11556146716E+04  0.11991129573E+04  0.25500000920E-02 0. -1.
       -2    1    3    3    0  502  0.31728539072E+03 -0.41911762317E+02  0.38926256880E+03  0.50393646669E+03  0.25500000920E-02 0.  1.
</event>
<event>
 5   0  0.4768387E-04  0.1503556E+04  0.7818609E-02  0.8882092E-01
        2   -1    0    0  501    0  0.00000000000E+00  0.00000000000E+00  0.71040294425E+03  0.71040294426E+03  0.25500000920E-02 0.  1.
       -2   -1    0    0    0  501  0.00000000000E+00  0.00000000000E+00 -0.79556284408E+03  0.79556284409E+03  0.25500000920E-02 0. -1.
    10030    2    1    2    0    0  0.00000000000E+00  0.00000000000E+00 -0.85159899831E+02  0.15059657883E+04  0.15035560339E+04 0.  0.
        3    1    3    3  502    0 -0.26244179391E+03 -0.17732318257E+03 -0.72547247503E+03  0.79159934846E+03  0.10100000352E+00 0. -1.
       -3    1    3    3    0  502  0.26244179391E+03  0.17732318257E+03  0.64031257519E+03  0.71436643988E+03  0.10100000352E+00 0.  1.
</event>
<event>
 5   0  0.4726600E-04  0.1491960E+04  0.7818609E-02  0.8889817E-01
       -2   -1    0    0    0  501  0.00000000000E+00  0.00000000000E+00  0.88322919311E+03  0.88322919312E+03  0.25500000920E-02 0.  1.
        2   -1    0    0  501    0  0.00000000000E+00  0.00000000000E+00 -0.63005861006E+03  0.63005861006E+03  0.25500000920E-02 0. -1.
    10030    2    1    2    0    0  0.00000000000E+00  0.00000000000E+00  0.25317058306E+03  0.15132878032E+04  0.14919599965E+04 0.  0.
        2    1    3    3  502    0  0.20086513873E+03 -0.60309082715E+03  0.52257735598E+03  0.82289272857E+03  0.25500000920E-02 0.  1.
       -2    1    3    3    0  502 -0.20086513873E+03  0.60309082715E+03 -0.26940677292E+03  0.69039507461E+03  0.25500000920E-02 0. -1.
</event>
<event>
 5   0  0.2605471E-04  0.1517678E+04  0.7818609E-02  0.8872782E-01
        1   -1    0    0  501    0  0.00000000000E+00  0.00000000000E+00  0.12057872539E+04  0.12057872540E+04  0.50400001928E-02 0. -1.
       -1   -1    0    0    0  501  0.00000000000E+00  0.00000000000E+00 -0.47756064268E+03  0.47756064271E+03  0.50400001928E-02 0.  1.
    10030    2    1    2    0    0  0.00000000000E+00  0.00000000000E+00  0.72822661126E+03  0.16833478967E+04  0.15176778788E+04 0.  0.
        3    1    3    3  502    0  0.58338186405E+03 -0.13941855632E+03 -0.15145484184E+03  0.61863600968E+03  0.10100000352E+00 0.  1.
       -3    1    3    3    0  502 -0.58338186405E+03  0.13941855632E+03  0.87968145311E+03  0.10647118870E+04  0.10100000352E+00 0. -1.
</event>
<event>
 5   0  0.2565416E-04  0.1497624E+04  0.7818609E-02  0.8886034E-01
       -1   -1    0    0    0  501  0.00000000000E+00  0.00000000000E+00  0.79421122558E+03  0.79421122559E+03  0.50400001928E-02 0.  1.
        1   -1    0    0  501    0  0.00000000000E+00  0.00000000000E+00 -0.70600809338E+03  0.70600809340E+03  0.50400001928E-02 0. -1.
    10030    2    1    2    0    0  0.00000000000E+00  0.00000000000E+00  0.88203132195E+02  0.15002193190E+04  0.14976241894E+04 0.  0.
        5    1    3    3  502    0 -0.22228436128E+03 -0.47848762895E+02 -0.67057539859E+03  0.70809130525E+03  0.46999998093E+01 0. -1.
       -5    1    3    3    0  502  0.22228436128E+03  0.47848762895E+02  0.75877853078E+03  0.79212801374E+03  0.46999998093E+01 0.  1.
</event>
<event>
 5   0  0.4569211E-04  0.1499261E+04  0.7818609E-02  0.8884945E-01
        2   -1    0    0  501    0  0.00000000000E+00  0.00000000000E+00  0.86580413341E+03  0.86580413342E+03  0.25500000920E-02 0. -1.
       -2   -1    0    0    0  501  0.00000000000E+00  0.00000000000E+00 -0.64904477718E+03  0.64904477718E+03  0.25500000920E-02 0.  1.
    10030    2    1    2    0    0  0.00000000000E+00  0.00000000000E+00  0.21675935624E+03  0.15148489106E+04  0.14992606856E+04 0.  0.
        5    1    3    3  502    0  0.33465578356E+03 -0.84986552596E+02 -0.56390009274E+03  0.66122810904E+03  0.46999998093E+01 0.  1.
       -5    1    3    3    0  502 -0.33465578356E+03  0.84986552596E+02  0.78065944897E+03  0.85362080156E+03  0.46999998093E+01 0. -1.
</event>
<event>
 5   0  0.2565416E-04  0.1515253E+04  0.7818609E-02  0.8874373E-01
        1   -1    0    0  501    0  0.00000000000E+00  0.00000000000E+00  0.74936078234E+03  0.74936078236E+03  0.50400001928E-02 0.  1.
       -1   -1    0    0    0  501  0.00000000000E+00  0.00000000000E+00 -0.76598309635E+03  0.76598309637E+03  0.50400001928E-02 0. -1.
    10030    2    1    2    0    0  0.00000000000E+00  0.00000000000E+00 -0.16622314008E+02  0.15153438787E+04  0.15152527081E+04 0.  0.
        5    1    3    3  502    0  0.11198249653E+03  0.28383434197E+03  0.68518106203E+03  0.75006479118E+03  0.46999998093E+01 0.  1.
       -5    1    3    3    0  502 -0.11198249653E+03 -0.28383434197E+03 -0.70180337604E+03  0.76527908754E+03  0.46999998093E+01 0. -1.
</event>
<event>
 5   0  0.2603873E-04  0.1491825E+04  0.7818609E-02  0.8889907E-01
        1   -1    0    0  501    0  0.00000000000E+00  0.00000000000E+00  0.10682401286E+04  0.10682401286E+04  0.50400001928E-02 0.  1.
       -1   -1    0    0    0  501  0.00000000000E+00  0.00000000000E+00 -0.52084302674E+03  0.52084302676E+03  0.50400001928E-02 0. -1.
    10030    2    1    2    0    0  0.00000000000E+00  0.00000000000E+00  0.54739710188E+03  0.15890831554E+04  0.14918249521E+04 0.  0.
        2    1    3    3  502    0  0.35767993508E+03  0.23374285122E+03  0.92496241720E+03  0.10188847480E+04  0.25500000920E-02 0.  1.
       -2    1    3    3    0  502 -0.35767993508E+03 -0.23374285122E+03 -0.37756531532E+03  0.57019840740E+03  0.25500000920E-02 0. -1.
</event>
<event>
 5   0  0.4569211E-04  0.1493034E+04  0.7818609E-02  0.8889099E-01
       -2   -1    0    0    0  501  0.00000000000E+00  0.00000000000E+00  0.13889064486E+04  0.13889064486E+04  0.25500000920E-02 0. -1.
        2   -1    0    0  501    0  0.00000000000E+00  0.00000000000E+00 -0.40124197441E+03  0.40124197442E+03  0.25500000920E-02 0.  1.
    10030    2    1    2    0    0  0.00000000000E+00  0.00000000000E+00  0.98766447422E+03  0.17901484230E+04  0.14930339122E+04 0.  0.
        5    1    3    3  502    0  0.70973633168E+02  0.11237357743E+03 -0.38692353652E+03  0.40914177325E+03  0.46999998093E+01 0.  1.
       -5    1    3    3    0  502 -0.70973633168E+02 -0.11237357743E+03  0.13745880107E+04  0.13810066498E+04  0.46999998093E+01 0. -1.
</event>
<event>
 5   0  0.2542737E-04  0.1493987E+04  0.7818609E-02  0.8888462E-01
        1   -1    0    0  501    0  0.00000000000E+00  0.00000000000E+00  0.16762874937E+04  0.16762874937E+04  0.50400001928E-02 0. -1.
       -1   -1    0    0    0  501  0.00000000000E+00  0.00000000000E+00 -0.33287784136E+03  0.33287784140E+03  0.50400001928E-02 0.  1.
    10030    2    1    2    0    0  0.00000000000E+00  0.00000000000E+00  0.13434096523E+04  0.20091653351E+04  0.14939865628E+04 0.  0.
        1    1    3    3  502    0  0.23791147020E+03 -0.69499870443E+03  0.48941198776E+03  0.88269426225E+03  0.50400001928E-02 0.  1.
       -1    1    3    3    0  502 -0.23791147020E+03  0.69499870443E+03  0.85399766454E+03  0.11264710728E+04  0.50400001928E-02 0. -1.
</event>
<event>
 5   0  0.4768387E-04  0.1535078E+04  0.7818609E-02  0.8861456E-01
       -2   -1    0    0    0  501  0.00000000000E+00  0.00000000000E+00  0.39025202642E+03  0.39025202643E+03  0.25500000920E-02 0. -1.
        2   -1    0    0  501    0  0.00000000000E+00  0.00000000000E+00 -0.15095782867E+04  0.15095782867E+04  0.25500000920E-02 0.  1.
    10030    2    1    2    0    0  0.00000000000E+00  0.00000000000E+00 -0.11193262603E+04  0.18998303132E+04  0.15350778292E+04 0.  0.
        3    1    3    3  502    0  0.97721392144E+02 -0.59919540589E+02 -0.14989249416E+04  0.15033016372E+04  0.10100000352E+00 0.  1.
       -3    1    3    3    0  502 -0.97721392144E+02  0.59919540589E+02  0.37959868126E+03  0.39652867594E+03  0.10100000352E+00 0. -1.
</event>
<event>
 5   0  0.4948645E-04  0.1506616E+04  0.7818609E-02  0.8880065E-01
       -2   -1    0    0    0  501  0.00000000000E+00  0.00000000000E+00  0.42398107247E+03  0.42398107247E+03  0.25500000920E-02 0.  1.
        2   -1    0    0  501    0  0.00000000000E+00  0.00000000000E+00 -0.13384393595E+04  0.13384393595E+04  0.25500000920E-02 0. -1.
    10030    2    1    2    0    0  0.00000000000E+00  0.00000000000E+00 -0.91445828704E+03  0.17624204320E+04  0.15066160162E+04 0.  0.
        1    1    3    3  502    0 -0.31264205003E+03  0.52790867126E+03  0.54063422682E+02  0.61591839584E+03  0.50400001928E-02 0.  1.
       -1    1    3    3    0  502  0.31264205003E+03 -0.52790867126E+03 -0.96852170972E+03  0.11465020361E+04  0.50400001928E-02 0. -1.
</event>
<event>
 5   0  0.4768387E-04  0.1486554E+04  0.7818609E-02  0.8893444E-01
       -2   -1    0    0    0  501  0.00000000000E+00  0.00000000000E+00  0.64669389540E+03  0.64669389540E+03  0.25500000920E-02 0.  1.
        2   -1    0    0  501    0  0.00000000000E+00  0.00000000000E+00 -0.85428447007E+03  0.85428447007E+03  0.25500000920E-02 0. -1.
    10030    2    1    2    0    0  0.00000000000E+00  0.00000000000E+00 -0.20759057467E+03  0.15009783655E+04  0.14865538022E+04 0.  0.
        3    1    3    3  502    0  0.44536594204E+03  0.53294416628E+03 -0.37109074262E+03  0.78745708211E+03  0.10100000352E+00 0. -1.
       -3    1    3    3    0  502 -0.44536594204E+03 -0.53294416628E+03  0.16350016796E+03  0.71352128337E+03  0.10100000352E+00 0.  1.
</event>
<event>
 5   0  0.1792000E-04  0.1552893E+04  0.7818609E-02  0.8850022E-01
       -4   -1    0    0    0  501  0.00000000000E+00  0.00000000000E+00  0.74989344219E+03  0.74989451761E+03  0.12699999809E+01 0. -1.
        4   -1    0    0  501    0  0.00000000000E+00  0.00000000000E+00 -0.80393752630E+03  0.80393852942E+03  0.12699999809E+01 0.  1.
    10030    2    1    2    0    0  0.00000000000E+00  0.00000000000E+00 -0.54044084106E+02  0.15538330470E+04  0.15528929052E+04 0.  0.
        5    1    3    3  502    0 -0.48397705514E+03  0.37667666132E+03  0.44942577031E+03  0.76034512565E+03  0.46999998093E+01 0. -1.
       -5    1    3    3    0  502  0.48397705514E+03 -0.37667666132E+03 -0.50346985441E+03  0.79348792139E+03  0.46999998093E+01 0.  1.
</event>
<event>
 5   0  0.4785496E-04  0.1496397E+04  0.7818609E-02  0.8886853E-01
        2   -1    0    0  501    0  0.00000000000E+00  0.00000000000E+00  0.16617048196E+04  0.16617048196E+04  0.25500000920E-02 0. -1.
       -2   -1    0    0    0  501  0.00000000000E+00  0.00000000000E+00 -0.33688335124E+03  0.33688335125E+03  0.25500000920E-02 0.  1.
    10030    2    1    2    0    0  0.00000000000E+00  0.00000000000E+00  0.13248214683E+04  0.19985881708E+04  0.14963965897E+04 0.  0.
        4    1    3    3  502    0 -0.45574378507E+03 -0.59170709871E+03  0.72183201143E+03  0.10386831826E+04  0.12699999809E+01 0.  1.
       -4    1    3    3    0  502  0.45574378507E+03  0.59170709871E+03  0.60298945689E+03  0.95990498817E+03  0.12699999809E+01 0. -1.
</event>
<event>
 5   0  0.2565416E-04  0.1505548E+04  0.7818609E-02  0.8880772E-01
       -1   -1    0    0    0  501  0.00000000000E+00  0.00000000000E+00  0.46184688366E+03  0.46184688368E+03  0.50400001928E-02 0. -1.
        1   -1    0    0  501    0  0.00000000000E+00  0.00000000000E+00 -0.12269625208E+04  0.12269625208E+04  0.50400001928E-02 0.  1.
    10030    2    1    2    0    0  0.00000000000E+00  0.00000000000E+00 -0.76511563713E+03  0.16888094045E+04  0.15055481615E+04 0.  0.
        5    1    3    3  502    0 -0.70407082118E+02  0.29067535490E+03 -0.11574388391E+04  0.11954647947E+04  0.46999998093E+01 0.  1.
       -5    1    3    3    0  502  0.70407082118E+02 -0.29067535490E+03  0.39232320198E+03  0.49334460975E+03  0.46999998093E+01 0. -1.
</event>
<event>
 5   0  0.1792000E-04  0.1505322E+04  0.7818609E-02  0.8880921E-01
        4   -1    0    0  501    0  0.00000000000E+00  0.00000000000E+00  0.37549248783E+03  0.37549463554E+03  0.12699999809E+01 0. -1.
       -4   -1    0    0    0  501  0.00000000000E+00  0.00000000000E+00 -0.15086750358E+04  0.15086755703E+04  0.12699999809E+01 0.  1.
    10030    2    1    2    0    0  0.00000000000E+00  0.00000000000E+00 -0.11331825480E+04  0.18841702059E+04  0.15053221176E+04 0.  0.
        4    1    3    3  502    0  0.34095262896E+03 -0.53542806709E+03 -0.10728075126E+04  0.12465349904E+04  0.12699999809E+01 0.  1.
       -4    1    3    3    0  502 -0.34095262896E+03  0.53542806709E+03 -0.60375035330E+02  0.63763521548E+03  0.12699999809E+01 0. -1.
</event>
<event>
 5   0  0.1792000E-04  0.1472583E+04  0.7818609E-02  0.8902892E-01
        3   -1    0    0  501    0  0.00000000000E+00  0.00000000000E+00  0.75722625453E+03  0.75722626126E+03  0.10100000352E+00 0.  1.
       -3   -1    0    0    0  501  0.00000000000E+00  0.00000000000E+00 -0.71593536586E+03  0.71593537299E+03  0.10100000352E+00 0. -1.
    10030    2    1    2    0    0  0.00000000000E+00  0.00000000000E+00  0.41290888665E+02  0.14731616343E+04  0.14725828544E+04 0.  0.
        4    1    3    3  502    0 -0.73561915326E+03 -0.26447080613E+00  0.52087787902E+02  0.73746210692E+03  0.12699999809E+01 0. -1.
       -4    1    3    3    0  502  0.73561915326E+03  0.26447080613E+00 -0.10796899237E+02  0.73569952734E+03  0.12699999809E+01 0.  1.
</event>
<event>
 5   0  0.2603873E-04  0.1482732E+04  0.7818609E-02  0.8896018E-01
       -1   -1    0    0    0  501  0.00000000000E+00  0.00000000000E+00  0.16792570319E+04  0.16792570319E+04  0.50400001928E-02 0. -1.
        1   -1    0    0  501    0  0.00000000000E+00  0.00000000000E+00 -0.32730155792E+03  0.32730155796E+03  0.50400001928E-02 0.  1.
    10030    2    1    2    0    0  0.00000000000E+00  0.00000000000E+00  0.13519554740E+04  0.20065585899E+04  0.14827318608E+04 0.  0.
        2    1    3    3  502    0 -0.41085513168E+03  0.38798490592E+03  0.13253982860E+04  0.14408382432E+04  0.25500000920E-02 0. -1.
       -2    1    3    3    0  502  0.41085513168E+03 -0.38798490592E+03  0.26557188008E+02  0.56572034672E+03  0.25500000920E-02 0.  1.
</event>
<event>
 5   0  0.2605471E-04  0.1513326E+04  0.7818609E-02  0.8875640E-01
       -1   -1    0    0    0  501  0.00000000000E+00  0.00000000000E+00  0.10353678284E+04  0.10353678284E+04  0.50400001928E-02 0.  1.
        1   -1    0    0  501    0  0.00000000000E+00  0.00000000000E+00 -0.55298092185E+03  0.55298092187E+03  0.50400001928E-02 0. -1.
    10030    2    1    2    0    0  0.00000000000E+00  0.00000000000E+00  0.48238690658E+03  0.15883487503E+04  0.15133256837E+04 0.  0.
        3    1    3    3  502    0 -0.51314715762E+01  0.21011197000E+03 -0.52172935042E+03  0.56247213018E+03  0.10100000352E+00 0. -1.
       -3    1    3    3    0  502  0.51314715762E+01 -0.21011197000E+03  0.10041162570E+04  0.10258766201E+04  0.10100000352E+00 0.  1.
</event>
<event>
 5   0  0.2565416E-04  0.1470605E+04  0.7818609E-02  0.8904239E-01
        1   -1    0    0  501    0  0.00000000000E+00  0.00000000000E+00  0.45650078435E+03  0.45650078438E+03  0.50400001928E-02 0. -1.
       -1   -1    0    0    0  501  0.00000000000E+00  0.00000000000E+00 -0.11843780206E+04  0.11843780206E+04  0.50400001928E-02 0.  1.
    10030    2    1    2    0    0  0.00000000000E+00  0.00000000000E+00 -0.72787723622E+03  0.16408788050E+04  0.14706046313E+04 0.  0.
        5    1    3    3  502    0 -0.47331615951E+03 -0.11918687371E+03  0.24965567597E+03  0.54825518170E+03  0.46999998093E+01 0. -1.
       -5    1    3    3    0  502  0.47331615951E+03  0.11918687371E+03 -0.97753291219E+03  0.10926236233E+04  0.46999998093E+01 0.  1.
</event>
<event>
 5   0  0.4569211E-04  0.1482166E+04  0.7818609E-02  0.8896400E-01
       -2   -1    0    0    0  501  0.00000000000E+00  0.00000000000E+00  0.50771750044E+03  0.50771750044E+03  0.25500000920E-02 0.  1.
        2   -1    0    0  501    0  0.00000000000E+00  0.00000000000E+00 -0.10817114652E+04  0.10817114652E+04  0.25500000920E-02 0. -1.
    10030    2    1    2    0    0  0.00000000000E+00  0.00000000000E+00 -0.57399396473E+03  0.15894289656E+04  0.14821657684E+04 0.  0.
        5    1    3    3  502    0  0.37687377224E+02  0.48253924115E+03 -0.88878370256E+03  0.10120390396E+04  0.46999998093E+01 0. -1.
       -5    1    3    3    0  502 -0.37687377224E+02 -0.48253924115E+03  0.31478973784E+03  0.57738992605E+03  0.46999998093E+01 0.  1.
</event>
<event>
 5   0  0.2542737E-04  0.1471548E+04  0.7818609E-02  0.8903596E-01
        1   -1    0    0  501    0  0.00000000000E+00  0.00000000000E+00  0.50500220899E+03  0.50500220901E+03  0.50400001928E-02 0. -1.
       -1   -1    0    0    0  501  0.00000000000E+00  0.00000000000E+00 -0.10720025903E+04  0.10720025903E+04  0.50400001928E-02 0.  1.
    10030    2    1    2    0    0  0.00000000000E+00  0.00000000000E+00 -0.56700038127E+03  0.15770047993E+04  0.14715484037E+04 0.  0.
        1    1    3    3  502    0 -0.39932461071E+03 -0.49236735551E+03  0.11673124070E+03  0.64460215643E+03  0.50400001928E-02 0. -1.
       -1    1    3    3    0  502  0.39932461071E+03  0.49236735551E+03 -0.68373162197E+03  0.93240264285E+03  0.50400001928E-02 0.  1.
</event>
<event>
 5   0  0.2565416E-04  0.1483734E+04  0.7818609E-02  0.8895342E-01
        1   -1    0    0  501    0  0.00000000000E+00  0.00000000000E+00  0.13203502956E+04  0.13203502956E+04  0.50400001928E-02 0.  1.
       -1   -1    0    0    0  501  0.00000000000E+00  0.00000000000E+00 -0.41683403516E+03  0.41683403519E+03  0.50400001928E-02 0. -1.
    10030    2    1    2    0    0  0.00000000000E+00  0.00000000000E+00  0.90351626041E+03  0.17371843308E+04  0.14837343988E+04 0.  0.
        5    1    3    3  502    0 -0.66921170121E+03  0.33824218518E+02  0.79009992602E+02  0.67472442354E+03  0.46999998093E+01 0. -1.
       -5    1    3    3    0  502  0.66921170121E+03 -0.33824218518E+02  0.82450626780E+03  0.10624599072E+04  0.46999998093E+01 0.  1.
</event>
<event>
 5   0  0.2544374E-04  0.1497594E+04  0.7818609E-02  0.8886055E-01
       -1   -1    0    0    0  501  0.00000000000E+00  0.00000000000E+00  0.40969210122E+03  0.40969210125E+03  0.50400001928E-02 0.  1.
        1   -1    0    0  501    0  0.00000000000E+00  0.00000000000E+00 -0.13685810199E+04  0.13685810200E+04  0.50400001928E-02 0. -1.
    10030    2    1    2    0    0  0.00000000000E+00  0.00000000000E+00 -0.95888891873E+03  0.17782731212E+04  0.14975938485E+04 0.  0.
        4    1    3    3  502    0  0.63069111668E+03 -0.29224203730E+03 -0.14884116652E+03  0.71086707533E+03  0.12699999809E+01 0. -1.
       -4    1    3    3    0  502 -0.63069111668E+03  0.29224203730E+03 -0.81004775221E+03  0.10674060459E+04  0.12699999809E+01 0.  1.
</event>
<event>
 5   0  0.2603873E-04  0.1529059E+04  0.7818609E-02  0.8865356E-01
       -1   -1    0    0    0  501  0.00000000000E+00  0.00000000000E+00  0.37227432490E+03  0.37227432494E+03  0.50400001928E-02 0. -1.
        1   -1    0    0  501    0  0.00000000000E+00  0.00000000000E+00 -0.15700927056E+04  0.15700927056E+04  0.50400001928E-02 0.  1.
    10030    2    1    2    0    0  0.00000000000E+00  0.00000000000E+00 -0.11978183807E+04  0.19423670305E+04  0.15290587981E+04 0.  0.
        2    1    3    3  502    0 -0.32893428404E+03  0.38479222429E+03 -0.13266964357E+04  0.14199951590E+04  0.25500000920E-02 0.  1.
       -2    1    3    3    0  502  0.32893428404E+03 -0.38479222429E+03  0.12887805502E+03  0.52237187153E+03  0.25500000920E-02 0. -1.
</event>
<event>
 5   0  0.4726600E-04  0.1502523E+04  0.7818609E-02  0.8882777E-01
        2   -1    0    0  501    0  0.00000000000E+00  0.00000000000E+00  0.89517607127E+03  0.89517607128E+03  0.25500000920E-02 0.  1.
       -2   -1    0    0    0  501  0.00000000000E+00  0.00000000000E+00 -0.63048338728E+03  0.63048338729E+03  0.25500000920E-02 0. -1.
    10030    2    1    2    0    0  0.00000000000E+00  0.00000000000E+00  0.26469268399E+03  0.15256594586E+04  0.15025227341E+04 0.  0.
        2    1    3    3  502    0 -0.35316280025E+03 -0.20539890309E+03 -0.50782278192E+03  0.65176426007E+03  0.25500000920E-02 0. -1.
       -2    1    3    3    0  502  0.35316280025E+03  0.20539890309E+03  0.77251546591E+03  0.87389519849E+03  0.25500000920E-02 0.  1.
</event>
<event>
 5   0  0.4768387E-04  0.1496705E+04  0.7818609E-02  0.8886647E-01
        2   -1    0    0  501    0  0.00000000000E+00  0.00000000000E+00  0.60948424544E+03  0.60948424545E+03  0.25500000920E-02 0. -1.
       -2   -1    0    0    0  501  0.00000000000E+00  0.00000000000E+00 -0.91886078332E+03  0.91886078332E+03  0.25500000920E-02 0.  1.
    10030    2    1    2    0    0  0.00000000000E+00  0.00000000000E+00 -0.30937653788E+03  0.15283450288E+04  0.14967046084E+04 0.  0.
        3    1    3    3  502    0  0.63220012909E+03  0.12137657766E+03  0.23498322433E+03  0.68529293207E+03  0.10100000352E+00 0. -1.
       -3    1    3    3    0  502 -0.63220012909E+03 -0.12137657766E+03 -0.54435976221E+03  0.84305209670E+03  0.10100000352E+00 0.  1.
</event>
<event>
 5   0  0.4785496E-04  0.1504285E+04  0.7818609E-02  0.8881609E-01
       -2   -1    0    0    0  501  0.00000000000E+00  0.00000000000E+00  0.13603618573E+04  0.13603618573E+04  0.25500000920E-02 0.  1.
        2   -1    0    0  501    0  0.00000000000E+00  0.00000000000E+00 -0.41585860773E+03  0.41585860774E+03  0.25500000920E-02 0. -1.
    10030    2    1    2    0    0  0.00000000000E+00  0.00000000000E+00  0.94450324953E+03  0.17762204650E+04  0.15042847975E+04 0.  0.
        4    1    3    3  502    0  0.17514571619E+03  0.45992018547E+03 -0.19935245671E+03  0.53098551186E+03  0.12699999809E+01 0. -1.
       -4    1    3    3    0  502 -0.17514571619E+03 -0.45992018547E+03  0.11438557062E+04  0.12452349531E+04  0.12699999809E+01 0.  1.
</event>
<event>
 5   0  0.2565416E-04  0.1497018E+04  0.7818609E-02  0.8886438E-01
        1   -1    0    0  501    0  0.00000000000E+00  0.00000000000E+00  0.68129802956E+03  0.68129802958E+03  0.50400001928E-02 0.  1.
       -1   -1    0    0    0  501  0.00000000000E+00  0.00000000000E+00 -0.82235017363E+03  0.82235017364E+03  0.50400001928E-02 0. -1.
    10030    2    1    2    0    0  0.00000000000E+00  0.00000000000E+00 -0.14105214406E+03  0.15036482032E+04  0.14970177727E+04 0.  0.
        5    1    3    3  502    0 -0.65971943336E+03  0.27162030276E+03 -0.29788263707E+03  0.77315165077E+03  0.46999998093E+01 0. -1.
       -5    1    3    3    0  502  0.65971943336E+03 -0.27162030276E+03  0.15683049300E+03  0.73049655246E+03  0.46999998093E+01 0.  1.
</event>
<event>
 5   0  0.4948645E-04  0.1498766E+04  0.7818609E-02  0.8885274E-01
       -2   -1    0    0    0  501  0.00000000000E+00  0.00000000000E+00  0.47984152361E+03  0.47984152362E+03  0.25500000920E-02 0.  1.
        2   -1    0    0  501    0  0.00000000000E+00  0.00000000000E+00 -0.11703336942E+04  0.11703336942E+04  0.25500000920E-02 0. -1.
    10030    2    1    2    0    0  0.00000000000E+00  0.00000000000E+00 -0.69049217060E+03  0.16501752178E+04  0.14987657628E+04 0.  0.
        1    1    3    3  502    0 -0.10482225632E+03 -0.68052104946E+03 -0.67089224784E+03  0.96134957867E+03  0.50400001928E-02 0. -1.
       -1    1    3    3    0  502  0.10482225632E+03  0.68052104946E+03 -0.19599922766E+02  0.68882563917E+03  0.50400001928E-02 0.  1.
</event>
<event>
 5   0  0.4569211E-04  0.1500460E+04  0.7818609E-02  0.8884147E-01
       -2   -1    0    0    0  501  0.00000000000E+00  0.00000000000E+00  0.84250518268E+03  0.84250518268E+03  0.25500000920E-02 0.  1.
        2   -1    0    0  501    0  0.00000000000E+00  0.00000000000E+00 -0.66806115906E+03  0.66806115907E+03  0.25500000920E-02 0. -1.
    10030    2    1    2    0    0  0.00000000000E+00  0.00000000000E+00  0.17444402361E+03  0.15105663417E+04  0.15004599146E+04 0.  0.
        5    1    3    3  502    0  0.29860964798E+03  0.38330702574E+03  0.66267587665E+03  0.82173803936E+03  0.46999998093E+01 0.  1.
       -5    1    3    3    0  502 -0.29860964798E+03 -0.38330702574E+03 -0.48823185303E+03  0.68882830238E+03  0.46999998093E+01 0. -1.
</event>
<event>
 5   0  0.2544374E-04  0.1485255E+04  0.7818609E-02  0.8894318E-01
       -1   -1    0    0    0  501  0.00000000000E+00  0.00000000000E+00  0.36921135871E+03  0.36921135875E+03  0.50400001928E-02 0.  1.
        1   -1    0    0  501    0  0.00000000000E+00  0.00000000000E+00 -0.14937122326E+04  0.14937122326E+04  0.50400001928E-02 0. -1.
    10030    2    1    2    0    0  0.00000000000E+00  0.00000000000E+00 -0.11245008739E+04  0.18629235914E+04  0.14852548912E+04 0.  0.
        4    1    3    3  502    0 -0.35458740078E+03  0.26174732768E+03 -0.13119377877E+04  0.13839892557E+04  0.12699999809E+01 0. -1.
       -4    1    3    3    0  502  0.35458740078E+03 -0.26174732768E+03  0.18743691375E+03  0.47893433566E+03  0.12699999809E+01 0.  1.
</event>
<event>
 5   0  0.2603873E-04  0.1540833E+04  0.7818609E-02  0.8857745E-01
       -1   -1    0    0    0  501  0.00000000000E+00  0.00000000000E+00  0.10493976351E+04  0.10493976352E+04  0.50400001928E-02 0. -1.
        1   -1    0    0  501    0  0.00000000000E+00  0.00000000000E+00 -0.56560205888E+03  0.56560205890E+03  0.50400001928E-02 0.  1.
    10030    2    1    2    0    0  0.00000000000E+00  0.00000000000E+00  0.48379557626E+03  0.16149996941E+04  0.15408328437E+04 0.  0.
        2    1    3    3  502    0 -0.41457805447E+03 -0.64225995215E+03  0.14153569717E+03  0.77743498955E+03  0.25500000920E-02 0.  1.
       -2    1    3    3    0  502  0.41457805447E+03  0.64225995215E+03  0.34225987909E+03  0.83756470450E+03  0.25500000920E-02 0. -1.
</event>
<event>
 5   0  0.2603873E-04  0.1518159E+04  0.7818609E-02  0.8872466E-01
       -1   -1    0    0    0  501  0.00000000000E+00  0.00000000000E+00  0.40499901551E+03  0.40499901554E+03  0.50400001928E-02 0. -1.
        1   -1    0    0  501    0  0.00000000000E+00  0.00000000000E+00 -0.14227240850E+04  0.14227240850E+04  0.50400001928E-02 0.  1.
    10030    2    1    2    0    0  0.00000000000E+00  0.00000000000E+00 -0.10177250695E+04  0.18277231006E+04  0.15181592193E+04 0.  0.
        2    1    3    3  502    0 -0.49991402595E+03  0.51433060323E+03 -0.80803255435E+03  0.10804474127E+04  0.25500000920E-02 0.  1.
       -2    1    3    3    0  502  0.49991402595E+03 -0.51433060323E+03 -0.20969251518E+03  0.74727568787E+03  0.25500000920E-02 0. -1.
</event>
<event>
 5   0  0.2605471E-04  0.1481897E+04  0.7818609E-02  0.8896581E-01
       -1   -1    0    0    0  501  0.00000000000E+00  0.00000000000E+00  0.44961460302E+03  0.44961460305E+03  0.50400001928E-02 0. -1.
        1   -1    0    0  501    0  0.00000000000E+00  0.00000000000E+00 -0.12210561535E+04  0.12210561535E+04  0.50400001928E-02 0.  1.
    10030    2    1    2    0    0  0.00000000000E+00  0.00000000000E+00 -0.77144155048E+03  0.16706707566E+04  0.14818969974E+04 0.  0.
        3    1    3    3  502    0 -0.37754574036E+03 -0.41716814220E+03  0.15780890259E+03  0.58435751460E+03  0.10100000352E+00 0. -1.
       -3    1    3    3    0  502  0.37754574036E+03  0.41716814220E+03 -0.92925045307E+03  0.10863132420E+04  0.10100000352E+00 0.  1.
</event>
<event>
 5   0  0.2603873E-04  0.1499669E+04  0.7818609E-02  0.8884673E-01
       -1   -1    0    0    0  501  0.00000000000E+00  0.00000000000E+00  0.55177672225E+03  0.55177672227E+03  0.50400001928E-02 0. -1.
        1   -1    0    0  501    0  0.00000000000E+00  0.00000000000E+00 -0.10189839647E+04  0.10189839647E+04  0.50400001928E-02 0.  1.
    10030    2    1    2    0    0  0.00000000000E+00  0.00000000000E+00 -0.46720724241E+03  0.15707606869E+04  0.14996688062E+04 0.  0.
        2    1    3    3  502    0 -0.51340968524E+03 -0.54128035468E+03 -0.31252616401E+03  0.80885507383E+03  0.25500000920E-02 0.  1.
       -2    1    3    3    0  502  0.51340968524E+03  0.54128035468E+03 -0.15468107840E+03  0.76190561311E+03  0.25500000920E-02 0. -1.
</event>
<event>
 5   0  0.4726600E-04  0.1501945E+04  0.7818609E-02  0.8883161E-01
        2   -1    0    0  501    0  0.00000000000E+00  0.00000000000E+00  0.98254529350E+03  0.98254529350E+03  0.25500000920E-02 0. -1.
       -2   -1    0    0    0  501  0.00000000000E+00  0.00000000000E+00 -0.57397826547E+03  0.57397826547E+03  0.25500000920E-02 0.  1.
    10030    2    1    2    0    0  0.00000000000E+00  0.00000000000E+00  0.40856702803E+03  0.15565235590E+04  0.15019449302E+04 0.  0.
        2    1    3    3  502    0 -0.41984264185E+03  0.13140392899E+03 -0.42645844215E+03  0.61270028509E+03  0.25500000920E-02 0.  1.
       -2    1    3    3    0  502  0.41984264185E+03 -0.13140392899E+03  0.83502547017E+03  0.94382327388E+03  0.25500000920E-02 0. -1.
</event>
<event>
 5   0  0.4726600E-04  0.1455601E+04  0.7818609E-02  0.8914527E-01
        2   -1    0    0  501    0  0.00000000000E+00  0.00000000000E+00  0.17015432822E+04  0.17015432822E+04  0.25500000920E-02 0. -1.
       -2   -1    0    0    0  501  0.00000000000E+00  0.00000000000E+00 -0.31130170475E+03  0.31130170476E+03  0.25500000920E-02 0.  1.
    10030    2    1    2    0    0  0.00000000000E+00  0.00000000000E+00  0.13902415774E+04  0.20128449869E+04  0.14556006656E+04 0.  0.
        2    1    3    3  502    0 -0.16017393749E+00 -0.70400351670E+03  0.43986881349E+03  0.83012381623E+03  0.25500000920E-02 0.  1.
       -2    1    3    3    0  502  0.16017393749E+00  0.70400351670E+03  0.95037276395E+03  0.11827211707E+04  0.25500000920E-02 0. -1.
</event>
<event>
 5   0  0.4768387E-04  0.1496736E+04  0.7818609E-02  0.8886626E-01
        2   -1    0    0  501    0  0.00000000000E+00  0.00000000000E+00  0.78184931398E+03  0.78184931399E+03  0.25500000920E-02 0.  1.
       -2   -1    0    0    0  501  0.00000000000E+00  0.00000000000E+00 -0.71632036687E+03  0.71632036687E+03  0.25500000920E-02 0. -1.
    10030    2    1    2    0    0  0.00000000000E+00  0.00000000000E+00  0.65528947113E+02  0.14981696809E+04  0.14967358985E+04 0.  0.
        3    1    3    3  502    0 -0.10477817485E+03  0.63394955798E+03  0.41677774309E+03  0.76588132587E+03  0.10100000352E+00 0.  1.
       -3    1    3    3    0  502  0.10477817485E+03 -0.63394955798E+03 -0.35124879597E+03  0.73228835499E+03  0.10100000352E+00 0. -1.
</event>
<event>
 5   0  0.2542737E-04  0.1496612E+04  0.7818609E-02  0.8886709E-01
        1   -1    0    0  501    0  0.00000000000E+00  0.00000000000E+00  0.17970177333E+04  0.17970177333E+04  0.50400001928E-02 0.  1.
       -1   -1    0    0    0  501  0.00000000000E+00  0.00000000000E+00 -0.31160627006E+03  0.31160627010E+03  0.50400001928E-02 0. -1.
    10030    2    1    2    0    0  0.00000000000E+00  0.00000000000E+00  0.14854114632E+04  0.21086240034E+04  0.14966121651E+04 0.  0.
        1    1    3    3  502    0 -0.60971809591E+02  0.16565293867E+03  0.17672649142E+04  0.17760584828E+04  0.50400001928E-02 0.  1.
       -1    1    3    3    0  502  0.60971809591E+02 -0.16565293867E+03 -0.28185345091E+03  0.33256552056E+03  0.50400001928E-02 0. -1.
</event>
<event>
 5   0  0.2603873E-04  0.1512177E+04  0.7818609E-02  0.8876396E-01
       -1   -1    0    0    0  501  0.00000000000E+00  0.00000000000E+00  0.68420783250E+03  0.68420783252E+03  0.50400001928E-02 0.  1.
        1   -1    0    0  501    0  0.00000000000E+00  0.00000000000E+00 -0.83552025963E+03  0.83552025965E+03  0.50400001928E-02 0. -1.
    10030    2    1    2    0    0  0.00000000000E+00  0.00000000000E+00 -0.15131242713E+03  0.15197280922E+04  0.15121765848E+04 0.  0.
        2    1    3    3  502    0  0.28867170362E+03 -0.29349445783E+03  0.56170254801E+03  0.69640512757E+03  0.25500000920E-02 0.  1.
       -2    1    3    3    0  502 -0.28867170362E+03  0.29349445783E+03 -0.71301497514E+03  0.82332296460E+03  0.25500000920E-02 0. -1.
</event>
<event>
 5   0  0.2603873E-04  0.1502330E+04  0.7818609E-02  0.8882905E-01
       -1   -1    0    0    0  501  0.00000000000E+00  0.00000000000E+00  0.59222632423E+03  0.59222632426E+03  0.50400001928E-02 0.  1.
        1   -1    0    0  501    0  0.00000000000E+00  0.00000000000E+00 -0.95275894127E+03  0.95275894128E+03  0.50400001928E-02 0. -1.
    10030    2    1    2    0    0  0.00000000000E+00  0.00000000000E+00 -0.36053261704E+03  0.15449852655E+04  0.15023300912E+04 0.  0.
        2    1    3    3  502    0 -0.34503224168E+03 -0.28373961132E+03 -0.80131119996E+03  0.91741760066E+03  0.25500000920E-02 0. -1.
       -2    1    3    3    0  502  0.34503224168E+03  0.28373961132E+03  0.44077858292E+03  0.62756766487E+03  0.25500000920E-02 0.  1.
</event>
<event>
 5   0  0.4768387E-04  0.1494520E+04  0.7818609E-02  0.8888105E-01
       -2   -1    0    0    0  501  0.00000000000E+00  0.00000000000E+00  0.12759667905E+04  0.12759667905E+04  0.25500000920E-02 0. -1.
        2   -1    0    0  501    0  0.00000000000E+00  0.00000000000E+00 -0.43762706568E+03  0.43762706569E+03  0.25500000920E-02 0.  1.
    10030    2    1    2    0    0  0.00000000000E+00  0.00000000000E+00  0.83833972486E+03  0.17135938562E+04  0.14945201269E+04 0.  0.
        3    1    3    3  502    0  0.16481523078E+03 -0.43448616286E+03  0.10901475495E+04  0.11850586382E+04  0.10100000352E+00 0. -1.
       -3    1    3    3    0  502 -0.16481523078E+03  0.43448616286E+03 -0.25180782462E+03  0.52853521808E+03  0.10100000352E+00 0.  1.
</event>
<event>
 5   0  0.4726600E-04  0.1483956E+04  0.7818609E-02  0.8895192E-01
        2   -1    0    0  501    0  0.00000000000E+00  0.00000000000E+00  0.12922695924E+04  0.12922695924E+04  0.25500000920E-02 0. -1.
       -2   -1    0    0    0  501  0.00000000000E+00  0.00000000000E+00 -0.42601917727E+03  0.42601917728E+03  0.25500000920E-02 0.  1.
    10030    2    1    2    0    0  0.00000000000E+00  0.00000000000E+00  0.86625041510E+03  0.17182887697E+04  0.14839563721E+04 0.  0.
        2    1    3    3  502    0 -0.14914321088E+03  0.48958820996E+03 -0.18891240792E+03  0.54555312350E+03  0.25500000920E-02 0.  1.
       -2    1    3    3    0  502  0.14914321088E+03 -0.48958820996E+03  0.10551628230E+04  0.11727356462E+04  0.25500000920E-02 0. -1.
</event>
<event>
 5   0  0.4726600E-04  0.1520688E+04  0.7818609E-02  0.8870811E-01
       -2   -1    0    0    0  501  0.00000000000E+00  0.00000000000E+00  0.41882708086E+03  0.41882708087E+03  0.25500000920E-02 0.  1.
        2   -1    0    0  501    0  0.00000000000E+00  0.00000000000E+00 -0.13803378381E+04  0.13803378381E+04  0.25500000920E-02 0. -1.
    10030    2    1    2    0    0  0.00000000000E+00  0.00000000000E+00 -0.96151075722E+03  0.17991649190E+04  0.15206878277E+04 0.  0.
        2    1    3    3  502    0  0.46989383067E+03 -0.40524112364E+02  0.22484840854E+03  0.52249327519E+03  0.25500000920E-02 0.  1.
       -2    1    3    3    0  502 -0.46989383067E+03  0.40524112364E+02 -0.11863591658E+04  0.12766716438E+04  0.25500000920E-02 0. -1.
</event>
<event>
 5   0  0.2544374E-04  0.1501321E+04  0.7818609E-02  0.8883575E-01
        1   -1    0    0  501    0  0.00000000000E+00  0.00000000000E+00  0.39505396268E+03  0.39505396271E+03  0.50400001928E-02 0. -1.
       -1   -1    0    0    0  501  0.00000000000E+00  0.00000000000E+00 -0.14263646033E+04  0.14263646033E+04  0.50400001928E-02 0.  1.
    10030    2    1    2    0    0  0.00000000000E+00  0.00000000000E+00 -0.10313106406E+04  0.18214185660E+04  0.15013207369E+04 0.  0.
        4    1    3    3  502    0 -0.37703144107E+03 -0.74021784501E+02  0.26670806209E+03  0.46772506392E+03  0.12699999809E+01 0. -1.
       -4    1    3    3    0  502  0.37703144107E+03  0.74021784501E+02 -0.12980187027E+04  0.13536935021E+04  0.12699999809E+01 0.  1.
</event>
<event>
 5   0  0.2565416E-04  0.1602777E+04  0.7818609E-02  0.8818844E-01
       -1   -1    0    0    0  501  0.00000000000E+00  0.00000000000E+00  0.58791126582E+03  0.58791126584E+03  0.50400001928E-02 0.  1.
        1   -1    0    0  501    0  0.00000000000E+00  0.00000000000E+00 -0.10923810964E+04  0.10923810965E+04  0.50400001928E-02 0. -1.
    10030    2    1    2    0    0  0.00000000000E+00  0.00000000000E+00 -0.50446983062E+03  0.16802923623E+04  0.16027765324E+04 0.  0.
        5    1    3    3  502    0  0.23275542292E+03  0.54083349669E+02  0.54967814481E+03  0.59938989689E+03  0.46999998093E+01 0.  1.
       -5    1    3    3    0  502 -0.23275542292E+03 -0.54083349669E+02 -0.10541479754E+04  0.10809024654E+04  0.46999998093E+01 0. -1.
</event>
<event>
 5   0  0.4948645E-04  0.1504495E+04  0.7818609E-02  0.8881469E-01
        2   -1    0    0  501    0  0.00000000000E+00  0.00000000000E+00  0.10008187920E+04  0.10008187920E+04  0.25500000920E-02 0.  1.
       -2   -1    0    0    0  501  0.00000000000E+00  0.00000000000E+00 -0.56541339487E+03  0.56541339487E+03  0.25500000920E-02 0. -1.
    10030    2    1    2    0    0  0.00000000000E+00  0.00000000000E+00  0.43540539711E+03  0.15662321869E+04  0.15044950659E+04 0.  0.
        1    1    3    3  502    0  0.37371725045E+03  0.46183815252E+03  0.69806712734E+03  0.91665521146E+03  0.50400001928E-02 0.  1.
       -1    1    3    3    0  502 -0.37371725045E+03 -0.46183815252E+03 -0.26266173023E+03  0.64957697539E+03  0.50400001928E-02 0. -1.
</event>
<event>
 5   0  0.4768387E-04  0.1494170E+04  0.7818609E-02  0.8888339E-01
       -2   -1    0    0    0  501  0.00000000000E+00  0.00000000000E+00  0.29815952080E+04  0.29815952080E+04  0.25500000920E-02 0.  1.
        2   -1    0    0  501    0  0.00000000000E+00  0.00000000000E+00 -0.18719384323E+03  0.18719384325E+03  0.25500000920E-02 0. -1.
    10030    2    1    2    0    0  0.00000000000E+00  0.00000000000E+00  0.27944013648E+04  0.31687890512E+04  0.14941703597E+04 0.  0.
        3    1    3    3  502    0 -0.17018153495E+03  0.65767280400E+03  0.20564867272E+04  0.21657869104E+04  0.10100000352E+00 0.  1.
       -3    1    3    3    0  502  0.17018153495E+03 -0.65767280400E+03  0.73791463754E+03  0.10030021408E+04  0.10100000352E+00 0. -1.
</event>
<event>
 5   0  0.1792000E-04  0.1506732E+04  0.7818609E-02  0.8879988E-01
        4   -1    0    0  501    0  0.00000000000E+00  0.00000000000E+00  0.42179811838E+03  0.42180003030E+03  0.12699999809E+01 0.  1.
       -4   -1    0    0    0  501  0.00000000000E+00  0.00000000000E+00 -0.13455687459E+04  0.13455693452E+04  0.12699999809E+01 0. -1.
    10030    2    1    2    0    0  0.00000000000E+00  0.00000000000E+00 -0.92377062751E+03  0.17673693755E+04  0.15067323376E+04 0.  0.
        3    1    3    3  502    0 -0.68881652377E+03 -0.18335832798E+02 -0.10464322887E+03  0.69696099011E+03  0.10100000352E+00 0. -1.
       -3    1    3    3    0  502  0.68881652377E+03  0.18335832798E+02 -0.81912739864E+03  0.10704083854E+04  0.10100000352E+00 0.  1.
</event>
<event>
 5   0  0.4768387E-04  0.1452414E+04  0.7818609E-02  0.8916728E-01
       -2   -1    0    0    0  501  0.00000000000E+00  0.00000000000E+00  0.50857375057E+03  0.50857375058E+03  0.25500000920E-02 0. -1.
        2   -1    0    0  501    0  0.00000000000E+00  0.00000000000E+00 -0.10369722485E+04  0.10369722485E+04  0.25500000920E-02 0.  1.
    10030    2    1    2    0    0  0.00000000000E+00  0.00000000000E+00 -0.52839849797E+03  0.15455459991E+04  0.14524143564E+04 0.  0.
        3    1    3    3  502    0 -0.44455508559E+03  0.42132788712E+03 -0.67938472976E+03  0.91471855443E+03  0.10100000352E+00 0.  1.
       -3    1    3    3    0  502  0.44455508559E+03 -0.42132788712E+03  0.15098623179E+03  0.63082744470E+03  0.10100000352E+00 0. -1.
</event>
<event>
 5   0  0.4726600E-04  0.1499728E+04  0.7818609E-02  0.8884634E-01
        2   -1    0    0  501    0  0.00000000000E+00  0.00000000000E+00  0.78156839578E+03  0.78156839578E+03  0.25500000920E-02 0. -1.
       -2   -1    0    0    0  501  0.00000000000E+00  0.00000000000E+00 -0.71944567192E+03  0.71944567192E+03  0.25500000920E-02 0.  1.
    10030    2    1    2    0    0  0.00000000000E+00  0.00000000000E+00  0.62122723860E+02  0.15010140677E+04  0.14997279749E+04 0.  0.
        2    1    3    3  502    0 -0.37575213927E+03 -0.61057558509E+03 -0.18890833096E+03  0.74140311086E+03  0.25500000920E-02 0.  1.
       -2    1    3    3    0  502  0.37575213927E+03  0.61057558509E+03  0.25103105482E+03  0.75961095685E+03  0.25500000920E-02 0. -1.
</event>
<event>
 5   0  0.4569211E-04  0.1362492E+04  0.7818609E-02  0.8981426E-01
       -2   -1    0    0    0  501  0.00000000000E+00  0.00000000000E+00  0.31561369806E+03  0.31561369807E+03  0.25500000920E-02 0. -1.
        2   -1    0    0  501    0  0.00000000000E+00  0.00000000000E+00 -0.14704551147E+04  0.14704551147E+04  0.25500000920E-02 0.  1.
    10030    2    1    2    0    0  0.00000000000E+00  0.00000000000E+00 -0.11548414166E+04  0.17860688128E+04  0.13624915069E+04 0.  0.
        5    1    3    3  502    0 -0.66334576644E+02 -0.51563987562E+03 -0.11544911967E+04  0.12661582724E+04  0.46999998093E+01 0.  1.
       -5    1    3    3    0  502  0.66334576644E+02  0.51563987562E+03 -0.35021992727E+00  0.51991054042E+03  0.46999998093E+01 0. -1.
</event>
<event>
 5   0  0.2605471E-04  0.1494021E+04  0.7818609E-02  0.8888439E-01
       -1   -1    0    0    0  501  0.00000000000E+00  0.00000000000E+00  0.86881191376E+03  0.86881191377E+03  0.50400001928E-02 0.  1.
        1   -1    0    0  501    0  0.00000000000E+00  0.00000000000E+00 -0.64228440734E+03  0.64228440736E+03  0.50400001928E-02 0. -1.
    10030    2    1    2    0    0  0.00000000000E+00  0.00000000000E+00  0.22652750642E+03  0.15110963211E+04  0.14940205422E+04 0.  0.
        3    1    3    3  502    0 -0.11866798839E+03 -0.73109073966E+03  0.21157851028E+03  0.77028646444E+03  0.10100000352E+00 0. -1.
       -3    1    3    3    0  502  0.11866798839E+03  0.73109073966E+03  0.14948996146E+02  0.74080985669E+03  0.10100000352E+00 0.  1.
</event>
<event>
 5   0  0.2565416E-04  0.1498242E+04  0.7818609E-02  0.8885623E-01
       -1   -1    0    0    0  501  0.00000000000E+00  0.00000000000E+00  0.12011058732E+04  0.12011058732E+04  0.50400001928E-02 0.  1.
        1   -1    0    0  501    0  0.00000000000E+00  0.00000000000E+00 -0.46722157069E+03  0.46722157072E+03  0.50400001928E-02 0. -1.
    10030    2    1    2    0    0  0.00000000000E+00  0.00000000000E+00  0.73388430252E+03  0.16683274439E+04  0.14982424005E+04 0.  0.
        5    1    3    3  502    0 -0.17410374062E+03 -0.55828521825E+03 -0.15435552206E+03  0.60484891883E+03  0.46999998093E+01 0. -1.
       -5    1    3    3    0  502  0.17410374062E+03  0.55828521825E+03  0.88823982458E+03  0.10634785251E+04  0.46999998093E+01 0.  1.
</event>
<event>
 5   0  0.4948645E-04  0.1464464E+04  0.7818609E-02  0.8908434E-01
        2   -1    0    0  501    0  0.00000000000E+00  0.00000000000E+00  0.55719651393E+03  0.55719651394E+03  0.25500000920E-02 0. -1.
       -2   -1    0    0    0  501  0.00000000000E+00  0.00000000000E+00 -0.96225292600E+03  0.96225292600E+03  0.25500000920E-02 0.  1.
    10030    2    1    2    0    0  0.00000000000E+00  0.00000000000E+00 -0.40505641207E+03  0.15194494399E+04  0.14644643743E+04 0.  0.
        1    1    3    3  502    0  0.52215347383E+03 -0.50808428118E+03 -0.12649589731E+03  0.73945594803E+03  0.50400001928E-02 0.  1.
       -1    1    3    3    0  502 -0.52215347383E+03  0.50808428118E+03 -0.27856051475E+03  0.77999349191E+03  0.50400001928E-02 0. -1.
</event>
<event>
 5   0  0.2603873E-04  0.1490999E+04  0.7818609E-02  0.8890461E-01
       -1   -1    0    0    0  501  0.00000000000E+00  0.00000000000E+00  0.34246409805E+03  0.34246409809E+03  0.50400001928E-02 0. -1.
        1   -1    0    0  501    0  0.00000000000E+00  0.00000000000E+00 -0.16228550886E+04  0.16228550886E+04  0.50400001928E-02 0.  1.
    10030    2    1    2    0    0  0.00000000000E+00  0.00000000000E+00 -0.12803909905E+04  0.19653191866E+04  0.14909991338E+04 0.  0.
        2    1    3    3  502    0 -0.53793173912E+03 -0.24573991833E+03 -0.12384704817E+04  0.13724313452E+04  0.25500000920E-02 0.  1.
       -2    1    3    3    0  502  0.53793173912E+03  0.24573991833E+03 -0.41920508822E+02  0.59288784140E+03  0.25500000920E-02 0. -1.
</event>
<event>
 5   0  0.4726600E-04  0.1477545E+04  0.7818609E-02  0.8899524E-01
        2   -1    0    0  501    0  0.00000000000E+00  0.00000000000E+00  0.48458502167E+03  0.48458502167E+03  0.25500000920E-02 0. -1.
       -2   -1    0    0    0  501  0.00000000000E+00  0.00000000000E+00 -0.11262935756E+04  0.11262935756E+04  0.25500000920E-02 0.  1.
    10030    2    1    2    0    0  0.00000000000E+00  0.00000000000E+00 -0.64170855396E+03  0.16108785973E+04  0.14775452572E+04 0.  0.
        2    1    3    3  502    0 -0.59617836761E+03 -0.42009875079E+03 -0.19243999675E+03  0.75428426921E+03  0.25500000920E-02 0.  1.
       -2    1    3    3    0  502  0.59617836761E+03  0.42009875079E+03 -0.44926855721E+03  0.85659432810E+03  0.25500000920E-02 0. -1.
</event>
<event>
 5   0  0.2542737E-04  0.1536879E+04  0.7818609E-02  0.8860293E-01
       -1   -1    0    0    0  501  0.00000000000E+00  0.00000000000E+00  0.45384701824E+03  0.45384701827E+03  0.50400001928E-02 0.  1.
        1   -1    0    0  501    0  0.00000000000E+00  0.00000000000E+00 -0.13010968296E+04  0.13010968296E+04  0.50400001928E-02 0. -1.
    10030    2    1    2    0    0  0.00000000000E+00  0.00000000000E+00 -0.84724981138E+03  0.17549438479E+04  0.15368785464E+04 0.  0.
        1    1    3    3  502    0  0.45117706536E+03 -0.56643316621E+03 -0.71718494878E+03  0.10191965104E+04  0.50400001928E-02 0. -1.
       -1    1    3    3    0  502 -0.45117706536E+03  0.56643316621E+03 -0.13006486260E+03  0.73574733747E+03  0.50400001928E-02 0.  1.
</event>
<event>
 5   0  0.4785496E-04  0.1519619E+04  0.7818609E-02  0.8871510E-01
        2   -1    0    0  501    0  0.00000000000E+00  0.00000000000E+00  0.15443466256E+04  0.15443466256E+04  0.25500000920E-02 0.  1.
       -2   -1    0    0    0  501  0.00000000000E+00  0.00000000000E+00 -0.37382192445E+03  0.37382192446E+03  0.25500000920E-02 0. -1.
    10030    2    1    2    0    0  0.00000000000E+00  0.00000000000E+00  0.11705247011E+04  0.19181685500E+04  0.15196191991E+04 0.  0.
        4    1    3    3  502    0 -0.60453408171E+03 -0.96443369355E+02  0.17176356707E+02  0.61242094965E+03  0.12699999809E+01 0. -1.
       -4    1    3    3    0  502  0.60453408171E+03  0.96443369355E+02  0.11533483444E+04  0.13057476004E+04  0.12699999809E+01 0.  1.
</event>
<event>
 5   0  0.2544374E-04  0.1501720E+04  0.7818609E-02  0.8883310E-01
        1   -1    0    0  501    0  0.00000000000E+00  0.00000000000E+00  0.21070826514E+04  0.21070826514E+04  0.50400001928E-02 0. -1.
       -1   -1    0    0    0  501  0.00000000000E+00  0.00000000000E+00 -0.26756948515E+03  0.26756948520E+03  0.50400001928E-02 0.  1.
    10030    2    1    2    0    0  0.00000000000E+00  0.00000000000E+00  0.18395131662E+04  0.23746521366E+04  0.15017203738E+04 0.  0.
        4    1    3    3  502    0 -0.46894589187E+03 -0.40498718903E+02 -0.53157286739E+01  0.47072313052E+03  0.12699999809E+01 0.  1.
       -4    1    3    3    0  502  0.46894589187E+03  0.40498718903E+02  0.18448288949E+04  0.19039290061E+04  0.12699999809E+01 0. -1.
</event>
<event>
 5   0  0.4569211E-04  0.1520974E+04  0.7818609E-02  0.8870624E-01
       -2   -1    0    0    0  501  0.00000000000E+00  0.00000000000E+00  0.47426835473E+03  0.47426835473E+03  0.25500000920E-02 0. -1.
        2   -1    0    0  501    0  0.00000000000E+00  0.00000000000E+00 -0.12194370841E+04  0.12194370841E+04  0.25500000920E-02 0.  1.
    10030    2    1    2    0    0  0.00000000000E+00  0.00000000000E+00 -0.74516872939E+03  0.16937054389E+04  0.15209739243E+04 0.  0.
        5    1    3    3  502    0  0.11208090251E+03  0.61721955810E+03  0.10611478161E+03  0.63624252332E+03  0.46999998093E+01 0. -1.
       -5    1    3    3    0  502 -0.11208090251E+03 -0.61721955810E+03 -0.85128351100E+03  0.10574629155E+04  0.46999998093E+01 0.  1.
</event>
<event>
 5   0  0.2603873E-04  0.1457518E+04  0.7818609E-02  0.8913205E-01
       -1   -1    0    0    0  501  0.00000000000E+00  0.00000000000E+00  0.44027487413E+03  0.44027487416E+03  0.50400001928E-02 0.  1.
        1   -1    0    0  501    0  0.00000000000E+00  0.00000000000E+00 -0.12062684923E+04  0.12062684923E+04  0.50400001928E-02 0. -1.
    10030    2    1    2    0    0  0.00000000000E+00  0.00000000000E+00 -0.76599361820E+03  0.16465433665E+04  0.14575180392E+04 0.  0.
        2    1    3    3  502    0 -0.22739634126E+03  0.41945833063E+03 -0.10052860637E+04  0.11127688246E+04  0.25500000920E-02 0. -1.
       -2    1    3    3    0  502  0.22739634126E+03 -0.41945833063E+03  0.23929244546E+03  0.53377454193E+03  0.25500000920E-02 0.  1.
</event>
<event>
 5   0  0.2605471E-04  0.1498139E+04  0.7818609E-02  0.8885691E-01
       -1   -1    0    0    0  501  0.00000000000E+00  0.00000000000E+00  0.99244436330E+03  0.99244436332E+03  0.50400001928E-02 0. -1.
        1   -1    0    0  501    0  0.00000000000E+00  0.00000000000E+00 -0.56537694881E+03  0.56537694884E+03  0.50400001928E-02 0.  1.
    10030    2    1    2    0    0  0.00000000000E+00  0.00000000000E+00  0.42706741449E+03  0.15578213122E+04  0.14981390670E+04 0.  0.
        3    1    3    3  502    0  0.55924118790E+03 -0.49757941885E+03  0.18469491248E+03  0.77100467262E+03  0.10100000352E+00 0. -1.
       -3    1    3    3    0  502 -0.55924118790E+03  0.49757941885E+03  0.24237250201E+03  0.78681663953E+03  0.10100000352E+00 0.  1.
</event>
<event>
 5   0  0.4948645E-04  0.1520410E+04  0.7818609E-02  0.8870993E-01
       -2   -1    0    0    0  501  0.00000000000E+00  0.00000000000E+00  0.35840348961E+03  0.35840348962E+03  0.25500000920E-02 0.  1.
        2   -1    0    0  501    0  0.00000000000E+00  0.00000000000E+00 -0.16124604213E+04  0.16124604213E+04  0.25500000920E-02 0. -1.
    10030    2    1    2    0    0  0.00000000000E+00  0.00000000000E+00 -0.12540569316E+04  0.19708639109E+04  0.15204097367E+04 0.  0.
        1    1    3    3  502    0 -0.11613321270E+03 -0.38621155241E+03 -0.14623597386E+04  0.15169516443E+04  0.50400001928E-02 0. -1.
       -1    1    3    3    0  502  0.11613321270E+03  0.38621155241E+03  0.20830280691E+03  0.45391226652E+03  0.50400001928E-02 0.  1.
</event>
<event>
 5   0  0.2605471E-04  0.1524304E+04  0.7818609E-02  0.8868450E-01
        1   -1    0    0  501    0  0.00000000000E+00  0.00000000000E+00  0.11054992487E+04  0.11054992487E+04  0.50400001928E-02 0.  1.
       -1   -1    0    0    0  501  0.00000000000E+00  0.00000000000E+00 -0.52544203967E+03  0.52544203970E+03  0.50400001928E-02 0. -1.
    10030    2    1    2    0    0  0.00000000000E+00  0.00000000000E+00  0.58005720906E+03  0.16309412884E+04  0.15243041431E+04 0.  0.
        3    1    3    3  502    0  0.41706985650E+02  0.64921404648E+03 -0.13480993161E+03  0.66437344819E+03  0.10100000352E+00 0. -1.
       -3    1    3    3    0  502 -0.41706985650E+02 -0.64921404648E+03  0.71486714066E+03  0.96656784025E+03  0.10100000352E+00 0.  1.
</event>
<event>
 5   0  0.4948645E-04  0.1504075E+04  0.7818609E-02  0.8881747E-01
        2   -1    0    0  501    0  0.00000000000E+00  0.00000000000E+00  0.14529230531E+04  0.14529230531E+04  0.25500000920E-02 0. -1.
       -2   -1    0    0    0  501  0.00000000000E+00  0.00000000000E+00 -0.38925711260E+03  0.38925711260E+03  0.25500000920E-02 0.  1.
    10030    2    1    2    0    0  0.00000000000E+00  0.00000000000E+00  0.10636659405E+04  0.18421801657E+04  0.15040753073E+04 0.  0.
        1    1    3    3  502    0  0.16484762252E+03 -0.48694045733E+02  0.14285406819E+04  0.14388447896E+04  0.50400001928E-02 0. -1.
       -1    1    3    3    0  502 -0.16484762252E+03  0.48694045733E+02 -0.36487474135E+03  0.40333537613E+03  0.50400001928E-02 0.  1.
</event>
<event>
 5   0  0.2605471E-04  0.1494537E+04  0.7818609E-02  0.8888094E-01
       -1   -1    0    0    0  501  0.00000000000E+00  0.00000000000E+00  0.11418619693E+04  0.11418619693E+04  0.50400001928E-02 0. -1.
        1   -1    0    0  501    0  0.00000000000E+00  0.00000000000E+00 -0.48903503525E+03  0.48903503527E+03  0.50400001928E-02 0.  1.
    10030    2    1    2    0    0  0.00000000000E+00  0.00000000000E+00  0.65282693402E+03  0.16308970045E+04  0.14945373979E+04 0.  0.
        3    1    3    3  502    0 -0.31818350210E+03 -0.39122220124E+03  0.92819468743E+03  0.10563337255E+04  0.10100000352E+00 0. -1.
       -3    1    3    3    0  502  0.31818350210E+03  0.39122220124E+03 -0.27536775341E+03  0.57456327900E+03  0.10100000352E+00 0.  1.
</event>
<event>
 5   0  0.2565416E-04  0.1498413E+04  0.7818609E-02  0.8885509E-01
        1   -1    0    0  501    0  0.00000000000E+00  0.00000000000E+00  0.11811298684E+04  0.11811298684E+04  0.50400001928E-02 0.  1.
       -1   -1    0    0    0  501  0.00000000000E+00  0.00000000000E+00 -0.47523178551E+03  0.47523178553E+03  0.50400001928E-02 0. -1.
    10030    2    1    2    0    0  0.00000000000E+00  0.00000000000E+00  0.70589808293E+03  0.16563616540E+04  0.14984131023E+04 0.  0.
        5    1    3    3  502    0 -0.62024030250E+03 -0.40529846287E+03  0.23023607493E+03  0.77588376516E+03  0.46999998093E+01 0.  1.
       -5    1    3    3    0  502  0.62024030250E+03  0.40529846287E+03  0.47566200800E+03  0.88047788882E+03  0.46999998093E+01 0. -1.
</event>
<event>
 5   0  0.4785496E-04  0.1501061E+04  0.7818609E-02  0.8883748E-01
       -2   -1    0    0    0  501  0.00000000000E+00  0.00000000000E+00  0.61441549408E+03  0.61441549409E+03  0.25500000920E-02 0.  1.
        2   -1    0    0  501    0  0.00000000000E+00  0.00000000000E+00 -0.91679939429E+03  0.91679939429E+03  0.25500000920E-02 0. -1.
    10030    2    1    2    0    0  0.00000000000E+00  0.00000000000E+00 -0.30238390021E+03  0.15312148884E+04  0.15010606288E+04 0.  0.
        4    1    3    3  502    0 -0.30606104599E+02  0.81971964051E+02  0.60919364378E+03  0.61544670366E+03  0.12699999809E+01 0.  1.
       -4    1    3    3    0  502  0.30606104599E+02 -0.81971964051E+02 -0.91157754399E+03  0.91576818471E+03  0.12699999809E+01 0. -1.
</event>
<event>
 5   0  0.4726600E-04  0.1500174E+04  0.7818609E-02  0.8884337E-01
       -2   -1    0    0    0  501  0.00000000000E+00  0.00000000000E+00  0.42509802329E+03  0.42509802330E+03  0.25500000920E-02 0. -1.
        2   -1    0    0  501    0  0.00000000000E+00  0.00000000000E+00 -0.13235316166E+04  0.13235316166E+04  0.25500000920E-02 0.  1.
    10030    2    1    2    0    0  0.00000000000E+00  0.00000000000E+00 -0.89843359335E+03  0.17486296399E+04  0.15001742219E+04 0.  0.
        2    1    3    3  502    0  0.39707814935E+03 -0.37051094910E+03 -0.10522831741E+04  0.11841660773E+04  0.25500000920E-02 0.  1.
       -2    1    3    3    0  502 -0.39707814935E+03  0.37051094910E+03  0.15384958071E+03  0.56446356268E+03  0.25500000920E-02 0. -1.
</event>
<event>
 5   0  0.2544374E-04  0.1504491E+04  0.7818609E-02  0.8881472E-01
        1   -1    0    0  501    0  0.00000000000E+00  0.00000000000E+00  0.79630587874E+03  0.79630587875E+03  0.50400001928E-02 0. -1.
       -1   -1    0    0    0  501  0.00000000000E+00  0.00000000000E+00 -0.71062272936E+03  0.71062272937E+03  0.50400001928E-02 0.  1.
    10030    2    1    2    0    0  0.00000000000E+00  0.00000000000E+00  0.85683149380E+02  0.15069286081E+04  0.15044906872E+04 0.  0.
        4    1    3    3  502    0 -0.47473254829E+03 -0.44628476513E+03  0.41939006151E+03  0.77487464830E+03  0.12699999809E+01 0. -1.
       -4    1    3    3    0  502  0.47473254829E+03  0.44628476513E+03 -0.33370691213E+03  0.73205395982E+03  0.12699999809E+01 0.  1.
</event>
<event>
 5   0  0.1792000E-04  0.1484107E+04  0.7818609E-02  0.8895091E-01
       -3   -1    0    0    0  501  0.00000000000E+00  0.00000000000E+00  0.26274669134E+04  0.26274669153E+04  0.10100000352E+00 0. -1.
        3   -1    0    0  501    0  0.00000000000E+00  0.00000000000E+00 -0.20957185545E+03  0.20957187979E+03  0.10100000352E+00 0.  1.
    10030    2    1    2    0    0  0.00000000000E+00  0.00000000000E+00  0.24178950579E+04  0.28370387951E+04  0.14841066720E+04 0.  0.
        5    1    3    3  502    0 -0.69466490889E+03 -0.16366369981E+03  0.15973200947E+04  0.17495138517E+04  0.46999998093E+01 0. -1.
       -5    1    3    3    0  502  0.69466490889E+03  0.16366369981E+03  0.82057496317E+03  0.10875249434E+04  0.46999998093E+01 0.  1.
</event>
<event>
 5   0  0.4569211E-04  0.1507800E+04  0.7818609E-02  0.8879282E-01
       -2   -1    0    0    0  501  0.00000000000E+00  0.00000000000E+00  0.69451596524E+03  0.69451596524E+03  0.25500000920E-02 0. -1.
        2   -1    0    0  501    0  0.00000000000E+00  0.00000000000E+00 -0.81836179931E+03  0.81836179931E+03  0.25500000920E-02 0.  1.
    10030    2    1    2    0    0  0.00000000000E+00  0.00000000000E+00 -0.12384583407E+03  0.15128777646E+04  0.15078001658E+04 0.  0.
        5    1    3    3  502    0  0.36141506449E+03 -0.20884234753E+03  0.56797079983E+03  0.70487509136E+03  0.46999998093E+01 0. -1.
       -5    1    3    3    0  502 -0.36141506449E+03  0.20884234753E+03 -0.69181663389E+03  0.80800267320E+03  0.46999998093E+01 0.  1.
</event>
<event>
 5   0  0.2542737E-04  0.1500165E+04  0.7818609E-02  0.8884343E-01
       -1   -1    0    0    0  501  0.00000000000E+00  0.00000000000E+00  0.61168926168E+03  0.61168926170E+03  0.50400001928E-02 0.  1.
        1   -1    0    0  501    0  0.00000000000E+00  0.00000000000E+00 -0.91978737571E+03  0.91978737572E+03  0.50400001928E-02 0. -1.
    10030    2    1    2    0    0  0.00000000000E+00  0.00000000000E+00 -0.30809811403E+03  0.15314766374E+04  0.15001654052E+04 0.  0.
        1    1    3    3  502    0 -0.19930463549E+03 -0.18829769864E+03 -0.86679433968E+03  0.90912638746E+03  0.50400001928E-02 0. -1.
       -1    1    3    3    0  502  0.19930463549E+03  0.18829769864E+03  0.55869622565E+03  0.62235024996E+03  0.50400001928E-02 0.  1.
</event>
<event>
 5   0  0.4785496E-04  0.1494013E+04  0.7818609E-02  0.8888444E-01
       -2   -1    0    0    0  501  0.00000000000E+00  0.00000000000E+00  0.76777747883E+03  0.76777747883E+03  0.25500000920E-02 0.  1.
        2   -1    0    0  501    0  0.00000000000E+00  0.00000000000E+00 -0.72679784587E+03  0.72679784588E+03  0.25500000920E-02 0. -1.
    10030    2    1    2    0    0  0.00000000000E+00  0.00000000000E+00  0.40979632955E+02  0.14945753247E+04  0.14940134106E+04 0.  0.
        4    1    3    3  502    0 -0.33255733490E+03  0.10330401821E+03 -0.64063036848E+03  0.72916046457E+03  0.12699999809E+01 0. -1.
       -4    1    3    3    0  502  0.33255733490E+03 -0.10330401821E+03  0.68161000143E+03  0.76541486014E+03  0.12699999809E+01 0.  1.
</event>
<event>
 5   0  0.2603873E-04  0.1341895E+04  0.7818609E-02  0.8996986E-01
       -1   -1    0    0    0  501  0.00000000000E+00  0.00000000000E+00  0.35881434148E+03  0.35881434152E+03  0.50400001928E-02 0. -1.
        1   -1    0    0  501    0  0.00000000000E+00  0.00000000000E+00 -0.12546064333E+04  0.12546064333E+04  0.50400001928E-02 0.  1.
    10030    2    1    2    0    0  0.00000000000E+00  0.00000000000E+00 -0.89579209177E+03  0.16134207748E+04  0.13418953479E+04 0.  0.
        2    1    3    3  502    0 -0.18285908145E+03 -0.33360984164E+03  0.21659693344E+03  0.43777528675E+03  0.25500000920E-02 0. -1.
       -2    1    3    3    0  502  0.18285908145E+03  0.33360984164E+03 -0.11123890252E+04  0.11756454880E+04  0.25500000920E-02 0.  1.
</event>
<event>
 5   0  0.2603873E-04  0.1490725E+04  0.7818609E-02  0.8890644E-01
        1   -1    0    0  501    0  0.00000000000E+00  0.00000000000E+00  0.33566649007E+03  0.33566649011E+03  0.50400001928E-02 0.  1.
       -1   -1    0    0    0  501  0.00000000000E+00  0.00000000000E+00 -0.16551106436E+04  0.16551106436E+04  0.50400001928E-02 0. -1.
    10030    2    1    2    0    0  0.00000000000E+00  0.00000000000E+00 -0.13194441535E+04  0.19907771337E+04  0.14907248981E+04 0.  0.
        2    1    3    3  502    0 -0.14783043488E+03  0.18353885913E+03 -0.16040458521E+04  0.16212660010E+04  0.25500000920E-02 0. -1.
       -2    1    3    3    0  502  0.14783043488E+03 -0.18353885913E+03  0.28460169865E+03  0.36951113267E+03  0.25500000920E-02 0.  1.
</event>
<event>
 5   0  0.4726600E-04  0.1501624E+04  0.7818609E-02  0.8883374E-01
       -2   -1    0    0    0  501  0.00000000000E+00  0.00000000000E+00  0.42484430503E+03  0.42484430504E+03  0.25500000920E-02 0. -1.
        2   -1    0    0  501    0  0.00000000000E+00  0.00000000000E+00 -0.13268833394E+04  0.13268833394E+04  0.25500000920E-02 0.  1.
    10030    2    1    2    0    0  0.00000000000E+00  0.00000000000E+00 -0.90203903441E+03  0.17517276445E+04  0.15016242276E+04 0.  0.
        2    1    3    3  502    0  0.53411668891E+03 -0.18209823453E+02 -0.10662119165E+04  0.11926525420E+04  0.25500000920E-02 0. -1.
       -2    1    3    3    0  502 -0.53411668891E+03  0.18209823453E+02  0.16417288206E+03  0.55907510251E+03  0.25500000920E-02 0.  1.
</event>
<event>
 5   0  0.2565416E-04  0.1503523E+04  0.7818609E-02  0.8882113E-01
        1   -1    0    0  501    0  0.00000000000E+00  0.00000000000E+00  0.65021465482E+03  0.65021465484E+03  0.50400001928E-02 0. -1.
       -1   -1    0    0    0  501  0.00000000000E+00  0.00000000000E+00 -0.86916758979E+03  0.86916758981E+03  0.50400001928E-02 0.  1.
    10030    2    1    2    0    0  0.00000000000E+00  0.00000000000E+00 -0.21895293497E+03  0.15193822446E+04  0.15035232016E+04 0.  0.
        5    1    3    3  502    0  0.60991094163E+03  0.18993013784E+03 -0.50996286899E+03  0.81740383638E+03  0.46999998093E+01 0. -1.
       -5    1    3    3    0  502 -0.60991094163E+03 -0.18993013784E+03  0.29100993402E+03  0.70197840827E+03  0.46999998093E+01 0.  1.
</event>
<event>
 5   0  0.2544374E-04  0.1509544E+04  0.7818609E-02  0.8878131E-01
       -1   -1    0    0    0  501  0.00000000000E+00  0.00000000000E+00  0.61092716795E+03  0.61092716797E+03  0.50400001928E-02 0. -1.
        1   -1    0    0  501    0  0.00000000000E+00  0.00000000000E+00 -0.93248523400E+03  0.93248523401E+03  0.50400001928E-02 0.  1.
    10030    2    1    2    0    0  0.00000000000E+00  0.00000000000E+00 -0.32155806605E+03  0.15434124020E+04  0.15095437234E+04 0.  0.
        4    1    3    3  502    0 -0.60510964341E+03 -0.40269463041E+03 -0.36870927145E+03  0.81502686192E+03  0.12699999809E+01 0. -1.
       -4    1    3    3    0  502  0.60510964341E+03  0.40269463041E+03  0.47151205396E+02  0.72838554006E+03  0.12699999809E+01 0.  1.
</event>
<event>
 5   0  0.2565416E-04  0.1496070E+04  0.7818609E-02  0.8887070E-01
        1   -1    0    0  501    0  0.00000000000E+00  0.00000000000E+00  0.48036081418E+03  0.48036081421E+03  0.50400001928E-02 0. -1.
       -1   -1    0    0    0  501  0.00000000000E+00  0.00000000000E+00 -0.11648670815E+04  0.11648670815E+04  0.50400001928E-02 0.  1.
    10030    2    1    2    0    0  0.00000000000E+00  0.00000000000E+00 -0.68450626730E+03  0.16452278957E+04  0.14960701851E+04 0.  0.
        5    1    3    3  502    0 -0.88134085170E+02 -0.67977293436E+03 -0.67156783734E+03  0.95962717209E+03  0.46999998093E+01 0.  1.
       -5    1    3    3    0  502  0.88134085170E+02  0.67977293436E+03 -0.12938429956E+02  0.68560072362E+03  0.46999998093E+01 0. -1.
</event>
<event>
 5   0  0.4726600E-04  0.1504013E+04  0.7818609E-02  0.8881788E-01
       -2   -1    0    0    0  501  0.00000000000E+00  0.00000000000E+00  0.91108682943E+03  0.91108682944E+03  0.25500000920E-02 0. -1.
        2   -1    0    0  501    0  0.00000000000E+00  0.00000000000E+00 -0.62070278980E+03  0.62070278980E+03  0.25500000920E-02 0.  1.
    10030    2    1    2    0    0  0.00000000000E+00  0.00000000000E+00  0.29038403964E+03  0.15317896192E+04  0.15040134797E+04 0.  0.
        2    1    3    3  502    0 -0.66884557869E+03  0.23894577739E+03  0.39686831287E+03  0.81360552507E+03  0.25500000920E-02 0.  1.
       -2    1    3    3    0  502  0.66884557869E+03 -0.23894577739E+03 -0.10648427323E+03  0.71818409417E+03  0.25500000920E-02 0. -1.
</event>
<event>
 5   0  0.4726600E-04  0.1501956E+04  0.7818609E-02  0.8883154E-01
        2   -1    0    0  501    0  0.00000000000E+00  0.00000000000E+00  0.83213754168E+03  0.83213754169E+03  0.25500000920E-02 0.  1.
       -2   -1    0    0    0  501  0.00000000000E+00  0.00000000000E+00 -0.67773370671E+03  0.67773370672E+03  0.25500000920E-02 0. -1.
    10030    2    1    2    0    0  0.00000000000E+00  0.00000000000E+00  0.15440383497E+03  0.15098712484E+04  0.15019556060E+04 0.  0.
        2    1    3    3  502    0  0.90541972513E+02 -0.31575537965E+03  0.75608937808E+03  0.82436063480E+03  0.25500000920E-02 0.  1.
       -2    1    3    3    0  502 -0.90541972513E+02  0.31575537965E+03 -0.60168554311E+03  0.68551061360E+03  0.25500000920E-02 0. -1.
</event>
<event>
 5   0  0.2542737E-04  0.1495836E+04  0.7818609E-02  0.8887226E-01
        1   -1    0    0  501    0  0.00000000000E+00  0.00000000000E+00  0.84549878750E+03  0.84549878751E+03  0.50400001928E-02 0. -1.
       -1   -1    0    0    0  501  0.00000000000E+00  0.00000000000E+00 -0.66159943051E+03  0.66159943053E+03  0.50400001928E-02 0.  1.
    10030    2    1    2    0    0  0.00000000000E+00  0.00000000000E+00  0.18389935698E+03  0.15070982180E+04  0.14958362428E+04 0.  0.
        1    1    3    3  502    0 -0.29228995098E+03  0.55201134058E+03 -0.32252519749E+03  0.70297399569E+03  0.50400001928E-02 0.  1.
       -1    1    3    3    0  502  0.29228995098E+03 -0.55201134058E+03  0.50642455447E+03  0.80412422235E+03  0.50400001928E-02 0. -1.
</event>
<event>
 5   0  0.4768387E-04  0.1503361E+04  0.7818609E-02  0.8882221E-01
       -2   -1    0    0    0  501  0.00000000000E+00  0.00000000000E+00  0.49221974322E+03  0.49221974323E+03  0.25500000920E-02 0.  1.
        2   -1    0    0  501    0  0.00000000000E+00  0.00000000000E+00 -0.11479099399E+04  0.11479099399E+04  0.25500000920E-02 0. -1.
    10030    2    1    2    0    0  0.00000000000E+00  0.00000000000E+00 -0.65569019671E+03  0.16401296832E+04  0.15033614813E+04 0.  0.
        3    1    3    3  502    0 -0.74500163255E+03  0.71109602110E+02 -0.40452377790E+03  0.85071940445E+03  0.10100000352E+00 0. -1.
       -3    1    3    3    0  502  0.74500163255E+03 -0.71109602110E+02 -0.25116641881E+03  0.78941027872E+03  0.10100000352E+00 0.  1.
</event>
<event>
 5   0  0.4768387E-04  0.1505389E+04  0.7818609E-02  0.8880877E-01
        2   -1    0    0  501    0  0.00000000000E+00  0.00000000000E+00  0.14156023059E+04  0.14156023059E+04  0.25500000920E-02 0.  1.
       -2   -1    0    0    0  501  0.00000000000E+00  0.00000000000E+00 -0.40021778058E+03  0.40021778059E+03  0.25500000920E-02 0. -1.
    10030    2    1    2    0    0  0.00000000000E+00  0.00000000000E+00  0.10153845253E+04  0.18158200865E+04  0.15053892693E+04 0.  0.
        3    1    3    3  502    0 -0.31667261934E+03  0.14790181653E+03 -0.29640292285E+03  0.45826978741E+03  0.10100000352E+00 0. -1.
       -3    1    3    3    0  502  0.31667261934E+03 -0.14790181653E+03  0.13117874482E+04  0.13575502991E+04  0.10100000352E+00 0.  1.
</event>
<event>
 5   0  0.4785496E-04  0.1506471E+04  0.7818609E-02  0.8880161E-01
       -2   -1    0    0    0  501  0.00000000000E+00  0.00000000000E+00  0.36804921366E+03  0.36804921367E+03  0.25500000920E-02 0. -1.
        2   -1    0    0  501    0  0.00000000000E+00  0.00000000000E+00 -0.15415434271E+04  0.15415434271E+04  0.25500000920E-02 0.  1.
    10030    2    1    2    0    0  0.00000000000E+00  0.00000000000E+00 -0.11734942134E+04  0.19095926408E+04  0.15064711696E+04 0.  0.
        4    1    3    3  502    0 -0.68454697586E+03  0.21734010622E+03 -0.87446828892E+03  0.11316084505E+04  0.12699999809E+01 0.  1.
       -4    1    3    3    0  502  0.68454697586E+03 -0.21734010622E+03 -0.29902592452E+03  0.77798419031E+03  0.12699999809E+01 0. -1.
</event>
<event>
 5   0  0.2544374E-04  0.1503042E+04  0.7818609E-02  0.8882433E-01
        1   -1    0    0  501    0  0.00000000000E+00  0.00000000000E+00  0.91132525908E+03  0.91132525910E+03  0.50400001928E-02 0.  1.
       -1   -1    0    0    0  501  0.00000000000E+00  0.00000000000E+00 -0.61973870945E+03  0.61973870947E+03  0.50400001928E-02 0. -1.
    10030    2    1    2    0    0  0.00000000000E+00  0.00000000000E+00  0.29158654963E+03  0.15310639686E+04  0.15030416361E+04 0.  0.
        4    1    3    3  502    0 -0.67590041699E+03  0.31314905102E+03  0.44551025075E+02  0.74625070089E+03  0.12699999809E+01 0.  1.
       -4    1    3    3    0  502  0.67590041699E+03 -0.31314905102E+03  0.24703552456E+03  0.78481326768E+03  0.12699999809E+01 0. -1.
</event>
<event>
 5   0  0.2544374E-04  0.1500635E+04  0.7818609E-02  0.8884031E-01
       -1   -1    0    0    0  501  0.00000000000E+00  0.00000000000E+00  0.41184966249E+03  0.41184966252E+03  0.50400001928E-02 0.  1.
        1   -1    0    0  501    0  0.00000000000E+00  0.00000000000E+00 -0.13669462164E+04  0.13669462165E+04  0.50400001928E-02 0. -1.
    10030    2    1    2    0    0  0.00000000000E+00  0.00000000000E+00 -0.95509655396E+03  0.17787958790E+04  0.15006349828E+04 0.  0.
        4    1    3    3  502    0  0.16916062416E+02 -0.74202855416E+03 -0.60784215134E+03  0.95935719219E+03  0.12699999809E+01 0. -1.
       -4    1    3    3    0  502 -0.16916062416E+02  0.74202855416E+03 -0.34725440262E+03  0.81943868678E+03  0.12699999809E+01 0.  1.
</event>
<event>
 5   0  0.4569211E-04  0.1501255E+04  0.7818609E-02  0.8883619E-01
       -2   -1    0    0    0  501  0.00000000000E+00  0.00000000000E+00  0.91511574806E+03  0.91511574806E+03  0.25500000920E-02 0.  1.
        2   -1    0    0  501    0  0.00000000000E+00  0.00000000000E+00 -0.61570494071E+03  0.61570494071E+03  0.25500000920E-02 0. -1.
    10030    2    1    2    0    0  0.00000000000E+00  0.00000000000E+00  0.29941080735E+03  0.15308206888E+04  0.15012545253E+04 0.  0.
        5    1    3    3  502    0 -0.54975767671E+03 -0.38249002752E+03  0.49533074397E+03  0.83301066031E+03  0.46999998093E+01 0.  1.
       -5    1    3    3    0  502  0.54975767671E+03  0.38249002752E+03 -0.19591993662E+03  0.69781002846E+03  0.46999998093E+01 0. -1.
</event>
<event>
 5   0  0.2544374E-04  0.1511779E+04  0.7818609E-02  0.8876657E-01
        1   -1    0    0  501    0  0.00000000000E+00  0.00000000000E+00  0.52456194130E+03  0.52456194133E+03  0.50400001928E-02 0.  1.
       -1   -1    0    0    0  501  0.00000000000E+00  0.00000000000E+00 -0.10892310329E+04  0.10892310329E+04  0.50400001928E-02 0. -1.
    10030    2    1    2    0    0  0.00000000000E+00  0.00000000000E+00 -0.56466909159E+03  0.16137929742E+04  0.15117792764E+04 0.  0.
        4    1    3    3  502    0  0.36378319617E+03  0.27903319127E+03 -0.92386184967E+03  0.10313680555E+04  0.12699999809E+01 0. -1.
       -4    1    3    3    0  502 -0.36378319617E+03 -0.27903319127E+03  0.35919275808E+03  0.58242491877E+03  0.12699999809E+01 0.  1.
</event>
<event>
 5   0  0.4768387E-04  0.1492973E+04  0.7818609E-02  0.8889139E-01
       -2   -1    0    0    0  501  0.00000000000E+00  0.00000000000E+00  0.90983487261E+03  0.90983487262E+03  0.25500000920E-02 0. -1.
        2   -1    0    0  501    0  0.00000000000E+00  0.00000000000E+00 -0.61246525229E+03  0.61246525230E+03  0.25500000920E-02 0.  1.
    10030    2    1    2    0    0  0.00000000000E+00  0.00000000000E+00  0.29736962032E+03  0.15223001249E+04  0.14929732011E+04 0.  0.
        3    1    3    3  502    0  0.33173397349E+03  0.36865065183E+03 -0.42020991049E+03  0.65002085455E+03  0.10100000352E+00 0.  1.
       -3    1    3    3    0  502 -0.33173397349E+03 -0.36865065183E+03  0.71757953082E+03  0.87227927037E+03  0.10100000352E+00 0. -1.
</event>
<event>
 5   0  0.4768387E-04  0.1499428E+04  0.7818609E-02  0.8884833E-01
        2   -1    0    0  501    0  0.00000000000E+00  0.00000000000E+00  0.12952933012E+04  0.12952933012E+04  0.25500000920E-02 0. -1.
       -2   -1    0    0    0  501  0.00000000000E+00  0.00000000000E+00 -0.43393364794E+03  0.43393364794E+03  0.25500000920E-02 0.  1.
    10030    2    1    2    0    0  0.00000000000E+00  0.00000000000E+00  0.86135965328E+03  0.17292269492E+04  0.14994283542E+04 0.  0.
        3    1    3    3  502    0 -0.39016840210E+02 -0.55832106965E+03 -0.14459409161E+03  0.57805898675E+03  0.10100000352E+00 0.  1.
       -3    1    3    3    0  502  0.39016840210E+02  0.55832106965E+03  0.10059537449E+04  0.11511679624E+04  0.10100000352E+00 0. -1.
</event>
<event>
 5   0  0.2544374E-04  0.1503763E+04  0.7818609E-02  0.8881955E-01
        1   -1    0    0  501    0  0.00000000000E+00  0.00000000000E+00  0.10690080906E+04  0.10690080906E+04  0.50400001928E-02 0.  1.
       -1   -1    0    0    0  501  0.00000000000E+00  0.00000000000E+00 -0.52883183919E+03  0.52883183922E+03  0.50400001928E-02 0. -1.
    10030    2    1    2    0    0  0.00000000000E+00  0.00000000000E+00  0.54017625139E+03  0.15978399298E+04  0.15037626338E+04 0.  0.
        4    1    3    3  502    0  0.31049996590E+03 -0.29464198951E+03  0.92690207782E+03  0.10209667994E+04  0.12699999809E+01 0.  1.
       -4    1    3    3    0  502 -0.31049996590E+03  0.29464198951E+03 -0.38672582643E+03  0.57687313036E+03  0.12699999809E+01 0. -1.
</event>
<event>
 5   0  0.2605471E-04  0.1396594E+04  0.7818609E-02  0.8956288E-01
       -1   -1    0    0    0  501  0.00000000000E+00  0.00000000000E+00  0.39530371196E+03  0.39530371200E+03  0.50400001928E-02 0.  1.
        1   -1    0    0  501    0  0.00000000000E+00  0.00000000000E+00 -0.12335296302E+04  0.12335296302E+04  0.50400001928E-02 0. -1.
    10030    2    1    2    0    0  0.00000000000E+00  0.00000000000E+00 -0.83822591825E+03  0.16288333422E+04  0.13965942026E+04 0.  0.
        3    1    3    3  502    0 -0.80561435537E+02 -0.11613188758E+03 -0.12166726632E+04  0.12248547423E+04  0.10100000352E+00 0. -1.
       -3    1    3    3    0  502  0.80561435537E+02  0.11613188758E+03  0.37844674495E+03  0.40397859990E+03  0.10100000352E+00 0.  1.
</event>
<event>
 5   0  0.2544374E-04  0.1504396E+04  0.7818609E-02  0.8881535E-01
        1   -1    0    0  501    0  0.00000000000E+00  0.00000000000E+00  0.62278062656E+03  0.62278062658E+03  0.50400001928E-02 0.  1.
       -1   -1    0    0    0  501  0.00000000000E+00  0.00000000000E+00 -0.90850875269E+03  0.90850875271E+03  0.50400001928E-02 0. -1.
    10030    2    1    2    0    0  0.00000000000E+00  0.00000000000E+00 -0.28572812614E+03  0.15312893793E+04  0.15043957594E+04 0.  0.
        4    1    3    3  502    0  0.37335918633E+00 -0.18389392946E+03 -0.88527440748E+03  0.90417338278E+03  0.12699999809E+01 0. -1.
       -4    1    3    3    0  502 -0.37335918633E+00  0.18389392946E+03  0.59954628135E+03  0.62711599650E+03  0.12699999809E+01 0.  1.
</event>
<event>
 5   0  0.4569211E-04  0.1492629E+04  0.7818609E-02  0.8889369E-01
       -2   -1    0    0    0  501  0.00000000000E+00  0.00000000000E+00  0.11452150990E+04  0.11452150990E+04  0.25500000920E-02 0. -1.
        2   -1    0    0  501    0  0.00000000000E+00  0.00000000000E+00 -0.48635890769E+03  0.48635890770E+03  0.25500000920E-02 0.  1.
    10030    2    1    2    0    0  0.00000000000E+00  0.00000000000E+00  0.65885619133E+03  0.16315740067E+04  0.14926293105E+04 0.  0.
        5    1    3    3  502    0 -0.19372507349E+03 -0.40904316664E+03  0.97806070180E+03  0.10777154275E+04  0.46999998093E+01 0. -1.
       -5    1    3    3    0  502  0.19372507349E+03  0.40904316664E+03 -0.31920451047E+03  0.55385857922E+03  0.46999998093E+01 0.  1.
</event>
<event>
 5   0  0.2544374E-04  0.1490999E+04  0.7818609E-02  0.8890460E-01
        1   -1    0    0  501    0  0.00000000000E+00  0.00000000000E+00  0.88003188160E+03  0.88003188161E+03  0.50400001928E-02 0.  1.
       -1   -1    0    0    0  501  0.00000000000E+00  0.00000000000E+00 -0.63153360294E+03  0.63153360296E+03  0.50400001928E-02 0. -1.
    10030    2    1    2    0    0  0.00000000000E+00  0.00000000000E+00  0.24849827865E+03  0.15115654846E+04  0.14909992688E+04 0.  0.
        4    1    3    3  502    0 -0.66519500659E+03 -0.71106638404E+01  0.46539200973E+03  0.81186593348E+03  0.12699999809E+01 0.  1.
       -4    1    3    3    0  502  0.66519500659E+03  0.71106638404E+01 -0.21689373107E+03  0.69969955110E+03  0.12699999809E+01 0. -1.
</event>
<event>
 5   0  0.1792000E-04  0.1527610E+04  0.7818609E-02  0.8866297E-01
       -3   -1    0    0    0  501  0.00000000000E+00  0.00000000000E+00  0.93743662692E+03  0.93743663236E+03  0.10100000352E+00 0. -1.
        3   -1    0    0  501    0  0.00000000000E+00  0.00000000000E+00 -0.62233359452E+03  0.62233360272E+03  0.10100000352E+00 0.  1.
    10030    2    1    2    0    0  0.00000000000E+00  0.00000000000E+00  0.31510303240E+03  0.15597702351E+04  0.15276103120E+04 0.  0.
        1    1    3    3  502    0  0.42351739819E+03  0.12653279692E+03 -0.47847546561E+03  0.65139566047E+03  0.50400001928E-02 0.  1.
       -1    1    3    3    0  502 -0.42351739819E+03 -0.12653279692E+03  0.79357849800E+03  0.90837457461E+03  0.50400001928E-02 0. -1.
</event>
<event>
 5   0  0.2603873E-04  0.1503048E+04  0.7818609E-02  0.8882428E-01
       -1   -1    0    0    0  501  0.00000000000E+00  0.00000000000E+00  0.29018942839E+03  0.29018942843E+03  0.50400001928E-02 0.  1.
        1   -1    0    0  501    0  0.00000000000E+00  0.00000000000E+00 -0.19462749422E+04  0.19462749422E+04  0.50400001928E-02 0. -1.
    10030    2    1    2    0    0  0.00000000000E+00  0.00000000000E+00 -0.16560855138E+04  0.22364643706E+04  0.15030481203E+04 0.  0.
        2    1    3    3  502    0  0.43696889023E+03 -0.97755282618E+02  0.70033109307E+02  0.45321357296E+03  0.25500000920E-02 0.  1.
       -2    1    3    3    0  502 -0.43696889023E+03  0.97755282618E+02 -0.17261186231E+04  0.17832507977E+04  0.25500000920E-02 0. -1.
</event>
<event>
 5   0  0.2565416E-04  0.1499460E+04  0.7818609E-02  0.8884812E-01
        1   -1    0    0  501    0  0.00000000000E+00  0.00000000000E+00  0.92595538742E+03  0.92595538743E+03  0.50400001928E-02 0. -1.
       -1   -1    0    0    0  501  0.00000000000E+00  0.00000000000E+00 -0.60704369703E+03  0.60704369705E+03  0.50400001928E-02 0.  1.
    10030    2    1    2    0    0  0.00000000000E+00  0.00000000000E+00  0.31891169039E+03  0.15329990845E+04  0.14994604119E+04 0.  0.
        5    1    3    3  502    0 -0.72462131450E+03 -0.18570155745E+03  0.10821317710E+03  0.75583946680E+03  0.46999998093E+01 0.  1.
       -5    1    3    3    0  502  0.72462131450E+03  0.18570155745E+03  0.21069851328E+03  0.77715961769E+03  0.46999998093E+01 0. -1.
</event>
<event>
 5   0  0.4726600E-04  0.1502210E+04  0.7818609E-02  0.8882985E-01
        2   -1    0    0  501    0  0.00000000000E+00  0.00000000000E+00  0.12829475323E+04  0.12829475323E+04  0.25500000920E-02 0. -1.
       -2   -1    0    0    0  501  0.00000000000E+00  0.00000000000E+00 -0.43973622557E+03  0.43973622558E+03  0.25500000920E-02 0.  1.
    10030    2    1    2    0    0  0.00000000000E+00  0.00000000000E+00  0.84321130669E+03  0.17226837578E+04  0.15022097130E+04 0.  0.
        2    1    3    3  502    0 -0.12945486846E+03 -0.50422953256E+03  0.10425058679E+04  0.11652572545E+04  0.25500000920E-02 0. -1.
       -2    1    3    3    0  502  0.12945486846E+03  0.50422953256E+03 -0.19929456126E+03  0.55742650334E+03  0.25500000920E-02 0.  1.
</event>
<event>
 5   0  0.4785496E-04  0.1506901E+04  0.7818609E-02  0.8879877E-01
       -2   -1    0    0    0  501  0.00000000000E+00  0.00000000000E+00  0.32378864712E+03  0.32378864713E+03  0.25500000920E-02 0.  1.
        2   -1    0    0  501    0  0.00000000000E+00  0.00000000000E+00 -0.17532663272E+04  0.17532663272E+04  0.25500000920E-02 0. -1.
    10030    2    1    2    0    0  0.00000000000E+00  0.00000000000E+00 -0.14294776801E+04  0.20770549744E+04  0.15069011011E+04 0.  0.
        4    1    3    3  502    0 -0.30749043291E+03 -0.67084105398E+03 -0.50520955424E+03  0.89432454547E+03  0.12699999809E+01 0.  1.
       -4    1    3    3    0  502  0.30749043291E+03  0.67084105398E+03 -0.92426812587E+03  0.11827304289E+04  0.12699999809E+01 0. -1.
</event>
<event>
 5   0  0.4768387E-04  0.1497948E+04  0.7818609E-02  0.8885819E-01
        2   -1    0    0  501    0  0.00000000000E+00  0.00000000000E+00  0.16576783238E+04  0.16576783238E+04  0.25500000920E-02 0. -1.
       -2   -1    0    0    0  501  0.00000000000E+00  0.00000000000E+00 -0.33840227541E+03  0.33840227542E+03  0.25500000920E-02 0.  1.
    10030    2    1    2    0    0  0.00000000000E+00  0.00000000000E+00  0.13192760484E+04  0.19960805992E+04  0.14979480855E+04 0.  0.
        3    1    3    3  502    0  0.11743957049E+02  0.69553650105E+03  0.10295313908E+04  0.12425151265E+04  0.10100000352E+00 0. -1.
       -3    1    3    3    0  502 -0.11743957049E+02 -0.69553650105E+03  0.28974465758E+03  0.75356547268E+03  0.10100000352E+00 0.  1.
</event>
<event>
 5   0  0.2544374E-04  0.1498907E+04  0.7818609E-02  0.8885180E-01
        1   -1    0    0  501    0  0.00000000000E+00  0.00000000000E+00  0.12318636426E+04  0.12318636426E+04  0.50400001928E-02 0. -1.
       -1   -1    0    0    0  501  0.00000000000E+00  0.00000000000E+00 -0.45595979550E+03  0.45595979553E+03  0.50400001928E-02 0.  1.
    10030    2    1    2    0    0  0.00000000000E+00  0.00000000000E+00  0.77590384709E+03  0.16878234381E+04  0.14989066610E+04 0.  0.
        4    1    3    3  502    0 -0.22330047152E+03 -0.12644308594E+03 -0.40494700050E+03  0.47941072233E+03  0.12699999809E+01 0.  1.
       -4    1    3    3    0  502  0.22330047152E+03  0.12644308594E+03  0.11808508476E+04  0.12084127158E+04  0.12699999809E+01 0. -1.
</event>
<event>
 5   0  0.2605471E-04  0.1513225E+04  0.7818609E-02  0.8875705E-01
        1   -1    0    0  501    0  0.00000000000E+00  0.00000000000E+00  0.31189250054E+03  0.31189250058E+03  0.50400001928E-02 0. -1.
       -1   -1    0    0    0  501  0.00000000000E+00  0.00000000000E+00 -0.18354490839E+04  0.18354490839E+04  0.50400001928E-02 0.  1.
    10030    2    1    2    0    0  0.00000000000E+00  0.00000000000E+00 -0.15235565833E+04  0.21473415844E+04  0.15132254352E+04 0.  0.
        3    1    3    3  502    0  0.59850305763E+03 -0.22874695406E+03 -0.19074232906E+03  0.66851606210E+03  0.10100000352E+00 0. -1.
       -3    1    3    3    0  502 -0.59850305763E+03  0.22874695406E+03 -0.13328142543E+04  0.14788255223E+04  0.10100000352E+00 0.  1.
</event>
<event>
 5   0  0.2565416E-04  0.1494732E+04  0.7818609E-02  0.8887964E-01
       -1   -1    0    0    0  501  0.00000000000E+00  0.00000000000E+00  0.30653263275E+03  0.30653263279E+03  0.50400001928E-02 0.  1.
        1   -1    0    0  501    0  0.00000000000E+00  0.00000000000E+00 -0.18221733486E+04  0.18221733486E+04  0.50400001928E-02 0. -1.
    10030    2    1    2    0    0  0.00000000000E+00  0.00000000000E+00 -0.15156407159E+04  0.21287059814E+04  0.14947315397E+04 0.  0.
        5    1    3    3  502    0  0.30694124885E+03 -0.60694753169E+03 -0.11989249991E+04  0.13784199215E+04  0.46999998093E+01 0. -1.
       -5    1    3    3    0  502 -0.30694124885E+03  0.60694753169E+03 -0.31671571674E+03  0.75028605991E+03  0.46999998093E+01 0.  1.
</event>
<event>
 5   0  0.2565416E-04  0.1506131E+04  0.7818609E-02  0.8880386E-01
        1   -1    0    0  501    0  0.00000000000E+00  0.00000000000E+00  0.14139034800E+04  0.14139034800E+04  0.50400001928E-02 0.  1.
       -1   -1    0    0    0  501  0.00000000000E+00  0.00000000000E+00 -0.40109344531E+03  0.40109344534E+03  0.50400001928E-02 0. -1.
    10030    2    1    2    0    0  0.00000000000E+00  0.00000000000E+00  0.10128100347E+04  0.18149969254E+04  0.15061306958E+04 0.  0.
        5    1    3    3  502    0 -0.24382183166E+03 -0.63888444861E+03  0.12635233572E+03  0.69542032398E+03  0.46999998093E+01 0. -1.
       -5    1    3    3    0  502  0.24382183166E+03  0.63888444861E+03  0.88645769900E+03  0.11195766014E+04  0.46999998093E+01 0.  1.
</event>
<event>
 5   0  0.4726600E-04  0.1495712E+04  0.7818609E-02  0.8887309E-01
       -2   -1    0    0    0  501  0.00000000000E+00  0.00000000000E+00  0.53487847183E+03  0.53487847184E+03  0.25500000920E-02 0.  1.
        2   -1    0    0  501    0  0.00000000000E+00  0.00000000000E+00 -0.10456368660E+04  0.10456368660E+04  0.25500000920E-02 0. -1.
    10030    2    1    2    0    0  0.00000000000E+00  0.00000000000E+00 -0.51075839412E+03  0.15805153378E+04  0.14957120698E+04 0.  0.
        2    1    3    3  502    0  0.48721360342E+02 -0.66514360600E+03 -0.61294114983E+03  0.90580717634E+03  0.25500000920E-02 0. -1.
       -2    1    3    3    0  502 -0.48721360342E+02  0.66514360600E+03  0.10218275571E+03  0.67470816145E+03  0.25500000920E-02 0.  1.
</event>
<event>
 5   0  0.4726600E-04  0.1501266E+04  0.7818609E-02  0.8883612E-01
        2   -1    0    0  501    0  0.00000000000E+00  0.00000000000E+00  0.11965591255E+04  0.11965591255E+04  0.25500000920E-02 0. -1.
       -2   -1    0    0    0  501  0.00000000000E+00  0.00000000000E+00 -0.47089159135E+03  0.47089159135E+03  0.25500000920E-02 0.  1.
    10030    2    1    2    0    0  0.00000000000E+00  0.00000000000E+00  0.72566753411E+03  0.16674507168E+04  0.15012656404E+04 0.  0.
        2    1    3    3  502    0  0.10595780124E+03 -0.74281694738E+03  0.33938891637E+03  0.82352225806E+03  0.25500000920E-02 0. -1.
       -2    1    3    3    0  502 -0.10595780124E+03  0.74281694738E+03  0.38627861774E+03  0.84392845875E+03  0.25500000920E-02 0.  1.
</event>
<event>
 5   0  0.2605471E-04  0.1518402E+04  0.7818609E-02  0.8872307E-01
       -1   -1    0    0    0  501  0.00000000000E+00  0.00000000000E+00  0.23878184769E+03  0.23878184775E+03  0.50400001928E-02 0.  1.
        1   -1    0    0  501    0  0.00000000000E+00  0.00000000000E+00 -0.24138623150E+04  0.24138623150E+04  0.50400001928E-02 0. -1.
    10030    2    1    2    0    0  0.00000000000E+00  0.00000000000E+00 -0.21750804673E+04  0.26526441627E+04  0.15184024549E+04 0.  0.
        3    1    3    3  502    0 -0.59511218216E+03  0.17868046495E+03 -0.32543850236E+03  0.70142387108E+03  0.10100000352E+00 0.  1.
       -3    1    3    3    0  502  0.59511218216E+03 -0.17868046495E+03 -0.18496419649E+04  0.19512202917E+04  0.10100000352E+00 0. -1.
</event>
<event>
 5   0  0.2542737E-04  0.1493435E+04  0.7818609E-02  0.8888831E-01
       -1   -1    0    0    0  501  0.00000000000E+00  0.00000000000E+00  0.54030569423E+03  0.54030569426E+03  0.50400001928E-02 0.  1.
        1   -1    0    0  501    0  0.00000000000E+00  0.00000000000E+00 -0.10319838341E+04  0.10319838341E+04  0.50400001928E-02 0. -1.
    10030    2    1    2    0    0  0.00000000000E+00  0.00000000000E+00 -0.49167813987E+03  0.15722895284E+04  0.14934346212E+04 0.  0.
        1    1    3    3  502    0 -0.20168989636E+03  0.58815432828E+03 -0.68117251010E+03  0.92227995571E+03  0.50400001928E-02 0. -1.
       -1    1    3    3    0  502  0.20168989636E+03 -0.58815432828E+03  0.18949437024E+03  0.65000957265E+03  0.50400001928E-02 0.  1.
</event>
<event>
 5   0  0.4948645E-04  0.1489329E+04  0.7818609E-02  0.8891580E-01
        2   -1    0    0  501    0  0.00000000000E+00  0.00000000000E+00  0.11285272280E+04  0.11285272280E+04  0.25500000920E-02 0.  1.
       -2   -1    0    0    0  501  0.00000000000E+00  0.00000000000E+00 -0.49137102623E+03  0.49137102624E+03  0.25500000920E-02 0. -1.
    10030    2    1    2    0    0  0.00000000000E+00  0.00000000000E+00  0.63715620178E+03  0.16198982543E+04  0.14893294896E+04 0.  0.
        1    1    3    3  502    0  0.89909000221E+02  0.68836408566E+03  0.25518600257E+02  0.69467974041E+03  0.50400001928E-02 0. -1.
       -1    1    3    3    0  502 -0.89909000221E+02 -0.68836408566E+03  0.61163760152E+03  0.92521851385E+03  0.50400001928E-02 0.  1.
</event>
<event>
 5   0  0.4569211E-04  0.1498567E+04  0.7818609E-02  0.8885406E-01
        2   -1    0    0  501    0  0.00000000000E+00  0.00000000000E+00  0.22376860685E+04  0.22376860685E+04  0.25500000920E-02 0. -1.
       -2   -1    0    0    0  501  0.00000000000E+00  0.00000000000E+00 -0.25089572696E+03  0.25089572698E+03  0.25500000920E-02 0.  1.
    10030    2    1    2    0    0  0.00000000000E+00  0.00000000000E+00  0.19867903415E+04  0.24885817955E+04  0.14985671462E+04 0.  0.
        5    1    3    3  502    0 -0.66402314146E+03 -0.17874159987E+03  0.14874978894E+04  0.16387639710E+04  0.46999998093E+01 0.  1.
       -5    1    3    3    0  502  0.66402314146E+03  0.17874159987E+03  0.49929245215E+03  0.84981782442E+03  0.46999998093E+01 0. -1.
</event>
<event>
 5   0  0.2603873E-04  0.1414839E+04  0.7818609E-02  0.8943147E-01
       -1   -1    0    0    0  501  0.00000000000E+00  0.00000000000E+00  0.40764586138E+03  0.40764586141E+03  0.50400001928E-02 0.  1.
        1   -1    0    0  501    0  0.00000000000E+00  0.00000000000E+00 -0.12276403770E+04  0.12276403770E+04  0.50400001928E-02 0. -1.
    10030    2    1    2    0    0  0.00000000000E+00  0.00000000000E+00 -0.81999451559E+03  0.16352862384E+04  0.14148392403E+04 0.  0.
        2    1    3    3  502    0  0.20569413010E+03  0.54634109473E+03  0.51812159354E+02  0.58607436969E+03  0.25500000920E-02 0.  1.
       -2    1    3    3    0  502 -0.20569413010E+03 -0.54634109473E+03 -0.87180667495E+03  0.10492118687E+04  0.25500000920E-02 0. -1.
</event>
<event>
 5   0  0.2603873E-04  0.1500218E+04  0.7818609E-02  0.8884308E-01
        1   -1    0    0  501    0  0.00000000000E+00  0.00000000000E+00  0.74039718961E+03  0.74039718962E+03  0.50400001928E-02 0. -1.
       -1   -1    0    0    0  501  0.00000000000E+00  0.00000000000E+00 -0.75994795002E+03  0.75994795004E+03  0.50400001928E-02 0.  1.
    10030    2    1    2    0    0  0.00000000000E+00  0.00000000000E+00 -0.19550760417E+02  0.15003451397E+04  0.15002177528E+04 0.  0.
        2    1    3    3  502    0 -0.88292037394E+02 -0.23075033813E+03 -0.71808838685E+03  0.75940248469E+03  0.25500000920E-02 0.  1.
       -2    1    3    3    0  502  0.88292037394E+02  0.23075033813E+03  0.69853762643E+03  0.74094265498E+03  0.25500000920E-02 0. -1.
</event>
<event>
 5   0  0.2605471E-04  0.1496639E+04  0.7818609E-02  0.8886691E-01
       -1   -1    0    0    0  501  0.00000000000E+00  0.00000000000E+00  0.11637905714E+04  0.11637905714E+04  0.50400001928E-02 0.  1.
        1   -1    0    0  501    0  0.00000000000E+00  0.00000000000E+00 -0.48117051256E+03  0.48117051259E+03  0.50400001928E-02 0. -1.
    10030    2    1    2    0    0  0.00000000000E+00  0.00000000000E+00  0.68262005880E+03  0.16449610840E+04  0.14966385078E+04 0.  0.
        3    1    3    3  502    0 -0.58305567183E+03  0.33595152693E+03 -0.18492225836E+02  0.67317109082E+03  0.10100000352E+00 0. -1.
       -3    1    3    3    0  502  0.58305567183E+03 -0.33595152693E+03  0.70111228464E+03  0.97178999315E+03  0.10100000352E+00 0.  1.
</event>
<event>
 5   0  0.4768387E-04  0.1505497E+04  0.7818609E-02  0.8880806E-01
        2   -1    0    0  501    0  0.00000000000E+00  0.00000000000E+00  0.54108562326E+03  0.54108562326E+03  0.25500000920E-02 0.  1.
       -2   -1    0    0    0  501  0.00000000000E+00  0.00000000000E+00 -0.10472099028E+04  0.10472099028E+04  0.25500000920E-02 0. -1.
    10030    2    1    2    0    0  0.00000000000E+00  0.00000000000E+00 -0.50612427950E+03  0.15882955260E+04  0.15054968920E+04 0.  0.
        3    1    3    3  502    0 -0.97632204978E+02 -0.74572887232E+03 -0.21992422756E+03  0.78358807707E+03  0.10100000352E+00 0. -1.
       -3    1    3    3    0  502  0.97632204978E+02  0.74572887232E+03 -0.28620005195E+03  0.80470744895E+03  0.10100000352E+00 0.  1.
</event>
<event>
 5   0  0.2565416E-04  0.1547957E+04  0.7818609E-02  0.8853174E-01
        1   -1    0    0  501    0  0.00000000000E+00  0.00000000000E+00  0.11105570653E+04  0.11105570653E+04  0.50400001928E-02 0.  1.
       -1   -1    0    0    0  501  0.00000000000E+00  0.00000000000E+00 -0.53940757578E+03  0.53940757580E+03  0.50400001928E-02 0. -1.
    10030    2    1    2    0    0  0.00000000000E+00  0.00000000000E+00  0.57114948950E+03  0.16499646411E+04  0.15479572273E+04 0.  0.
        5    1    3    3  502    0  0.18909432962E+03 -0.39524448410E+03 -0.39446984997E+03  0.58957901951E+03  0.46999998093E+01 0. -1.
       -5    1    3    3    0  502 -0.18909432962E+03  0.39524448410E+03  0.96561933947E+03  0.10603856216E+04  0.46999998093E+01 0.  1.
</event>
<event>
 5   0  0.2603873E-04  0.1389615E+04  0.7818609E-02  0.8961371E-01
        1   -1    0    0  501    0  0.00000000000E+00  0.00000000000E+00  0.67083444702E+03  0.67083444704E+03  0.50400001928E-02 0. -1.
       -1   -1    0    0    0  501  0.00000000000E+00  0.00000000000E+00 -0.71963681071E+03  0.71963681073E+03  0.50400001928E-02 0.  1.
    10030    2    1    2    0    0  0.00000000000E+00  0.00000000000E+00 -0.48802363698E+02  0.13904712578E+04  0.13896145681E+04 0.  0.
        2    1    3    3  502    0  0.38310700867E+03  0.28115911911E+02  0.55491660427E+03  0.67490289842E+03  0.25500000920E-02 0. -1.
       -2    1    3    3    0  502 -0.38310700867E+03 -0.28115911911E+02 -0.60371896797E+03  0.71556835934E+03  0.25500000920E-02 0.  1.
</event>
<event>
 5   0  0.4768387E-04  0.1493220E+04  0.7818609E-02  0.8888974E-01
        2   -1    0    0  501    0  0.00000000000E+00  0.00000000000E+00  0.51852339236E+03  0.51852339237E+03  0.25500000920E-02 0.  1.
       -2   -1    0    0    0  501  0.00000000000E+00  0.00000000000E+00 -0.10750273900E+04  0.10750273900E+04  0.25500000920E-02 0. -1.
    10030    2    1    2    0    0  0.00000000000E+00  0.00000000000E+00 -0.55650399765E+03  0.15935507824E+04  0.14932204782E+04 0.  0.
        3    1    3    3  502    0  0.38478609249E+03  0.61045178660E+03 -0.48273840209E+03  0.86818667105E+03  0.10100000352E+00 0.  1.
       -3    1    3    3    0  502 -0.38478609249E+03 -0.61045178660E+03 -0.73765595566E+02  0.72536411134E+03  0.10100000352E+00 0. -1.
</event>
<event>
 5   0  0.4569211E-04  0.1404725E+04  0.7818609E-02  0.8950406E-01
        2   -1    0    0  501    0  0.00000000000E+00  0.00000000000E+00  0.89272219390E+03  0.89272219390E+03  0.25500000920E-02 0. -1.
       -2   -1    0    0    0  501  0.00000000000E+00  0.00000000000E+00 -0.55259406027E+03  0.55259406028E+03  0.25500000920E-02 0.  1.
    10030    2    1    2    0    0  0.00000000000E+00  0.00000000000E+00  0.34012813363E+03  0.14453162542E+04  0.14047248582E+04 0.  0.
        5    1    3    3  502    0  0.29787841028E+03 -0.34127131006E+03  0.72231715231E+03  0.85262055622E+03  0.46999998093E+01 0. -1.
       -5    1    3    3    0  502 -0.29787841028E+03  0.34127131006E+03 -0.38218901868E+03  0.59269569796E+03  0.46999998093E+01 0.  1.
</event>
<event>
 5   0  0.4569211E-04  0.1502217E+04  0.7818609E-02  0.8882980E-01
       -2   -1    0    0    0  501  0.00000000000E+00  0.00000000000E+00  0.39157926438E+03  0.39157926439E+03  0.25500000920E-02 0.  1.
        2   -1    0    0  501    0  0.00000000000E+00  0.00000000000E+00 -0.14407396219E+04  0.14407396219E+04  0.25500000920E-02 0. -1.
    10030    2    1    2    0    0  0.00000000000E+00  0.00000000000E+00 -0.10491603575E+04  0.18323188863E+04  0.15022167105E+04 0.  0.
        5    1    3    3  502    0 -0.32956444588E+02 -0.35238944744E+03 -0.13326334443E+04  0.13788395254E+04  0.46999998093E+01 0. -1.
       -5    1    3    3    0  502  0.32956444588E+02  0.35238944744E+03  0.28347308673E+03  0.45347936095E+03  0.46999998093E+01 0.  1.
</event>
<event>
 5   0  0.4569211E-04  0.1526649E+04  0.7818609E-02  0.8866923E-01
        2   -1    0    0  501    0  0.00000000000E+00  0.00000000000E+00  0.45312491775E+03  0.45312491776E+03  0.25500000920E-02 0. -1.
       -2   -1    0    0    0  501  0.00000000000E+00  0.00000000000E+00 -0.12858799749E+04  0.12858799749E+04  0.25500000920E-02 0.  1.
    10030    2    1    2    0    0  0.00000000000E+00  0.00000000000E+00 -0.83275505718E+03  0.17390048927E+04  0.15266489549E+04 0.  0.
        5    1    3    3  502    0 -0.35407701444E+02  0.40794692981E+03 -0.11501624785E+04  0.12208891103E+04  0.46999998093E+01 0.  1.
       -5    1    3    3    0  502  0.35407701444E+02 -0.40794692981E+03  0.31740742127E+03  0.51811578237E+03  0.46999998093E+01 0. -1.
</event>
<event>
 5   0  0.4726600E-04  0.1494174E+04  0.7818609E-02  0.8888336E-01
       -2   -1    0    0    0  501  0.00000000000E+00  0.00000000000E+00  0.30564140994E+03  0.30564140995E+03  0.25500000920E-02 0. -1.
        2   -1    0    0  501    0  0.00000000000E+00  0.00000000000E+00 -0.18261232588E+04  0.18261232588E+04  0.25500000920E-02 0.  1.
    10030    2    1    2    0    0  0.00000000000E+00  0.00000000000E+00 -0.15204818489E+04  0.21317646687E+04  0.14941738688E+04 0.  0.
        2    1    3    3  502    0  0.37575746554E+03  0.30777350791E+03  0.49628176842E+02  0.48824293239E+03  0.25500000920E-02 0. -1.
       -2    1    3    3    0  502 -0.37575746554E+03 -0.30777350791E+03 -0.15701100257E+04  0.16435217364E+04  0.25500000920E-02 0.  1.
</event>
<event>
 5   0  0.4785496E-04  0.1478889E+04  0.7818609E-02  0.8898614E-01
       -2   -1    0    0    0  501  0.00000000000E+00  0.00000000000E+00  0.13302868708E+04  0.13302868708E+04  0.25500000920E-02 0.  1.
        2   -1    0    0  501    0  0.00000000000E+00  0.00000000000E+00 -0.41102282228E+03  0.41102282229E+03  0.25500000920E-02 0. -1.
    10030    2    1    2    0    0  0.00000000000E+00  0.00000000000E+00  0.91926404849E+03  0.17413096931E+04  0.14788891291E+04 0.  0.
        4    1    3    3  502    0 -0.28464670848E+03  0.48261354429E+03  0.10277865404E+04  0.11705923147E+04  0.12699999809E+01 0.  1.
       -4    1    3    3    0  502  0.28464670848E+03 -0.48261354429E+03 -0.10852249191E+03  0.57071737833E+03  0.12699999809E+01 0. -1.
</event>
<event>
 5   0  0.4768387E-04  0.1508251E+04  0.7818609E-02  0.8878984E-01
        2   -1    0    0  501    0  0.00000000000E+00  0.00000000000E+00  0.11529428515E+04  0.11529428515E+04  0.25500000920E-02 0. -1.
       -2   -1    0    0    0  501  0.00000000000E+00  0.00000000000E+00 -0.49326436866E+03  0.49326436867E+03  0.25500000920E-02 0.  1.
    10030    2    1    2    0    0  0.00000000000E+00  0.00000000000E+00  0.65967848286E+03  0.16462072202E+04  0.15082514747E+04 0.  0.
        3    1    3    3  502    0 -0.70820629395E+03  0.11017357890E+03  0.58583718791E+03  0.92568871292E+03  0.10100000352E+00 0. -1.
       -3    1    3    3    0  502  0.70820629395E+03 -0.11017357890E+03  0.73841294951E+02  0.72051850728E+03  0.10100000352E+00 0.  1.
</event>
<event>
 5   0  0.4569211E-04  0.1503035E+04  0.7818609E-02  0.8882437E-01
        2   -1    0    0  501    0  0.00000000000E+00  0.00000000000E+00  0.21773012842E+04  0.21773012842E+04  0.25500000920E-02 0.  1.
       -2   -1    0    0    0  501  0.00000000000E+00  0.00000000000E+00 -0.25939400110E+03  0.25939400111E+03  0.25500000920E-02 0. -1.
    10030    2    1    2    0    0  0.00000000000E+00  0.00000000000E+00  0.19179072831E+04  0.24366952853E+04  0.15030354510E+04 0.  0.
        5    1    3    3  502    0 -0.52194417730E+03 -0.32897361146E+03  0.26334067466E+03  0.67083512295E+03  0.46999998093E+01 0. -1.
       -5    1    3    3    0  502  0.52194417730E+03  0.32897361146E+03  0.16545666084E+04  0.17658601623E+04  0.46999998093E+01 0.  1.
</event>
<event>
 5   0  0.4785496E-04  0.1502583E+04  0.7818609E-02  0.8882737E-01
       -2   -1    0    0    0  501  0.00000000000E+00  0.00000000000E+00  0.84999665001E+03  0.84999665002E+03  0.25500000920E-02 0. -1.
        2   -1    0    0  501    0  0.00000000000E+00  0.00000000000E+00 -0.66404805569E+03  0.66404805569E+03  0.25500000920E-02 0.  1.
    10030    2    1    2    0    0  0.00000000000E+00  0.00000000000E+00  0.18594859432E+03  0.15140447057E+04  0.15025826071E+04 0.  0.
        4    1    3    3  502    0  0.53124181177E+03 -0.34896761527E+03 -0.31063176835E+03  0.70745315569E+03  0.12699999809E+01 0.  1.
       -4    1    3    3    0  502 -0.53124181177E+03  0.34896761527E+03  0.49658036267E+03  0.80659155003E+03  0.12699999809E+01 0. -1.
</event>
<event>
 5   0  0.1792000E-04  0.1496018E+04  0.7818609E-02  0.8887105E-01
        3   -1    0    0  501    0  0.00000000000E+00  0.00000000000E+00  0.66858932208E+03  0.66858932971E+03  0.10100000352E+00 0.  1.
       -3   -1    0    0    0  501  0.00000000000E+00  0.00000000000E+00 -0.83686240765E+03  0.83686241375E+03  0.10100000352E+00 0. -1.
    10030    2    1    2    0    0  0.00000000000E+00  0.00000000000E+00 -0.16827308557E+03  0.15054517435E+04  0.14960177541E+04 0.  0.
        4    1    3    3  502    0  0.86089463134E+02 -0.64532886613E+03 -0.45477277813E+03  0.79415403654E+03  0.12699999809E+01 0. -1.
       -4    1    3    3    0  502 -0.86089463134E+02  0.64532886613E+03  0.28649969256E+03  0.71129770692E+03  0.12699999809E+01 0.  1.
</event>
<event>
 5   0  0.4948645E-04  0.1502049E+04  0.7818609E-02  0.8883091E-01
       -2   -1    0    0    0  501  0.00000000000E+00  0.00000000000E+00  0.39338458881E+03  0.39338458882E+03  0.25500000920E-02 0.  1.
        2   -1    0    0  501    0  0.00000000000E+00  0.00000000000E+00 -0.14338082681E+04  0.14338082681E+04  0.25500000920E-02 0. -1.
    10030    2    1    2    0    0  0.00000000000E+00  0.00000000000E+00 -0.10404236793E+04  0.18271928570E+04  0.15020493680E+04 0.  0.
        1    1    3    3  502    0 -0.67313526539E+03 -0.14703248291E+03 -0.88374700915E+03  0.11205973464E+04  0.50400001928E-02 0. -1.
       -1    1    3    3    0  502  0.67313526539E+03  0.14703248291E+03 -0.15667667017E+03  0.70659551056E+03  0.50400001928E-02 0.  1.
</event>
<event>
 5   0  0.2603873E-04  0.1506794E+04  0.7818609E-02  0.8879947E-01
       -1   -1    0    0    0  501  0.00000000000E+00  0.00000000000E+00  0.68302756764E+03  0.68302756766E+03  0.50400001928E-02 0. -1.
        1   -1    0    0  501    0  0.00000000000E+00  0.00000000000E+00 -0.83101668546E+03  0.83101668548E+03  0.50400001928E-02 0.  1.
    10030    2    1    2    0    0  0.00000000000E+00  0.00000000000E+00 -0.14798911782E+03  0.15140442531E+04  0.15067943527E+04 0.  0.
        2    1    3    3  502    0  0.69861034483E+03  0.16440440625E+03 -0.30427420572E+03  0.77953063761E+03  0.25500000920E-02 0.  1.
       -2    1    3    3    0  502 -0.69861034483E+03 -0.16440440625E+03  0.15628508790E+03  0.73451361553E+03  0.25500000920E-02 0. -1.
</event>
<event>
 5   0  0.4768387E-04  0.1511699E+04  0.7818609E-02  0.8876710E-01
       -2   -1    0    0    0  501  0.00000000000E+00  0.00000000000E+00  0.24526670942E+03  0.24526670944E+03  0.25500000920E-02 0. -1.
        2   -1    0    0  501    0  0.00000000000E+00  0.00000000000E+00 -0.23293360701E+04  0.23293360702E+04  0.25500000920E-02 0.  1.
    10030    2    1    2    0    0  0.00000000000E+00  0.00000000000E+00 -0.20840693607E+04  0.25746027796E+04  0.15116991673E+04 0.  0.
        3    1    3    3  502    0 -0.56987916874E+03 -0.29573747818E+03 -0.36273661634E+03  0.73742849552E+03  0.10100000352E+00 0. -1.
       -3    1    3    3    0  502  0.56987916874E+03  0.29573747818E+03 -0.17213327444E+04  0.18371742841E+04  0.10100000352E+00 0.  1.
</event>
<event>
 5   0  0.2544374E-04  0.1490615E+04  0.7818609E-02  0.8890718E-01
       -1   -1    0    0    0  501  0.00000000000E+00  0.00000000000E+00  0.97851048585E+03  0.97851048587E+03  0.50400001928E-02 0.  1.
        1   -1    0    0  501    0  0.00000000000E+00  0.00000000000E+00 -0.56768237265E+03  0.56768237268E+03  0.50400001928E-02 0. -1.
    10030    2    1    2    0    0  0.00000000000E+00  0.00000000000E+00  0.41082811320E+03  0.15461928585E+04  0.14906148454E+04 0.  0.
        4    1    3    3  502    0 -0.12424285494E+03 -0.25480703504E+03 -0.50957476275E+03  0.58312174016E+03  0.12699999809E+01 0. -1.
       -4    1    3    3    0  502  0.12424285494E+03  0.25480703504E+03  0.92040287595E+03  0.96307111839E+03  0.12699999809E+01 0.  1.
</event>
<event>
 5   0  0.2542737E-04  0.1505965E+04  0.7818609E-02  0.8880496E-01
        1   -1    0    0  501    0  0.00000000000E+00  0.00000000000E+00  0.90137190426E+03  0.90137190427E+03  0.50400001928E-02 0. -1.
       -1   -1    0    0    0  501  0.00000000000E+00  0.00000000000E+00 -0.62902200136E+03  0.62902200138E+03  0.50400001928E-02 0.  1.
    10030    2    1    2    0    0  0.00000000000E+00  0.00000000000E+00  0.27234990289E+03  0.15303939057E+04  0.15059651513E+04 0.  0.
        1    1    3    3  502    0  0.55926172241E+03 -0.48636363219E+03  0.11302542480E+01  0.74116430997E+03  0.50400001928E-02 0.  1.
       -1    1    3    3    0  502 -0.55926172241E+03  0.48636363219E+03  0.27121964864E+03  0.78922959569E+03  0.50400001928E-02 0. -1.
</event>
<event>
 5   0  0.2565416E-04  0.1500788E+04  0.7818609E-02  0.8883929E-01
       -1   -1    0    0    0  501  0.00000000000E+00  0.00000000000E+00  0.29000006338E+03  0.29000006343E+03  0.50400001928E-02 0.  1.
        1   -1    0    0  501    0  0.00000000000E+00  0.00000000000E+00 -0.19416939509E+04  0.19416939509E+04  0.50400001928E-02 0. -1.
    10030    2    1    2    0    0  0.00000000000E+00  0.00000000000E+00 -0.16516938875E+04  0.22316940144E+04  0.15007882847E+04 0.  0.
        5    1    3    3  502    0 -0.19206780518E+03 -0.22043874181E+03 -0.18534869677E+04  0.18764112849E+04  0.46999998093E+01 0. -1.
       -5    1    3    3    0  502  0.19206780518E+03  0.22043874181E+03  0.20179308013E+03  0.35528272948E+03  0.46999998093E+01 0.  1.
</event>
<event>
 5   0  0.4785496E-04  0.1501634E+04  0.7818609E-02  0.8883367E-01
        2   -1    0    0  501    0  0.00000000000E+00  0.00000000000E+00  0.46406039307E+03  0.46406039308E+03  0.25500000920E-02 0.  1.
       -2   -1    0    0    0  501  0.00000000000E+00  0.00000000000E+00 -0.12147695751E+04  0.12147695751E+04  0.25500000920E-02 0. -1.
    10030    2    1    2    0    0  0.00000000000E+00  0.00000000000E+00 -0.75070918207E+03  0.16788299682E+04  0.15016343717E+04 0.  0.
        4    1    3    3  502    0 -0.10018315927E+03 -0.47896182579E+03  0.26130179191E+03  0.55472636075E+03  0.12699999809E+01 0.  1.
       -4    1    3    3    0  502  0.10018315927E+03  0.47896182579E+03 -0.10120109740E+04  0.11241036075E+04  0.12699999809E+01 0. -1.
</event>
<event>
 5   0  0.2603873E-04  0.1501599E+04  0.7818609E-02  0.8883390E-01
        1   -1    0    0  501    0  0.00000000000E+00  0.00000000000E+00  0.53933443895E+03  0.53933443897E+03  0.50400001928E-02 0.  1.
       -1   -1    0    0    0  501  0.00000000000E+00  0.00000000000E+00 -0.10451775418E+04  0.10451775418E+04  0.50400001928E-02 0. -1.
    10030    2    1    2    0    0  0.00000000000E+00  0.00000000000E+00 -0.50584310284E+03  0.15845119808E+04  0.15015994714E+04 0.  0.
        2    1    3    3  502    0 -0.36030436716E+03  0.23829537842E+03  0.39506734930E+03  0.58539058317E+03  0.25500000920E-02 0.  1.
       -2    1    3    3    0  502  0.36030436716E+03 -0.23829537842E+03 -0.90091045214E+03  0.99912139760E+03  0.25500000920E-02 0. -1.
</event>
<event>
 5   0  0.4726600E-04  0.1496446E+04  0.7818609E-02  0.8886820E-01
       -2   -1    0    0    0  501  0.00000000000E+00  0.00000000000E+00  0.67739486586E+03  0.67739486586E+03  0.25500000920E-02 0. -1.
        2   -1    0    0  501    0  0.00000000000E+00  0.00000000000E+00 -0.82645702514E+03  0.82645702514E+03  0.25500000920E-02 0.  1.
    10030    2    1    2    0    0  0.00000000000E+00  0.00000000000E+00 -0.14906215928E+03  0.15038518910E+04  0.14964461176E+04 0.  0.
        2    1    3    3  502    0 -0.36920719680E+03  0.52472049082E+03 -0.46139359588E+03  0.79027185068E+03  0.25500000920E-02 0.  1.
       -2    1    3    3    0  502  0.36920719680E+03 -0.52472049082E+03  0.31233143660E+03  0.71358004032E+03  0.25500000920E-02 0. -1.
</event>
<event>
 5   0  0.4948645E-04  0.1515462E+04  0.7818609E-02  0.8874235E-01
       -2   -1    0    0    0  501  0.00000000000E+00  0.00000000000E+00  0.37777116749E+03  0.37777116749E+03  0.25500000920E-02 0.  1.
        2   -1    0    0  501    0  0.00000000000E+00  0.00000000000E+00 -0.15198523459E+04  0.15198523459E+04  0.25500000920E-02 0. -1.
    10030    2    1    2    0    0  0.00000000000E+00  0.00000000000E+00 -0.11420811784E+04  0.18976235134E+04  0.15154621673E+04 0.  0.
        1    1    3    3  502    0 -0.71042085809E+03 -0.18170774806E+03 -0.81007447106E+03  0.10926738534E+04  0.50400001928E-02 0. -1.
       -1    1    3    3    0  502  0.71042085809E+03  0.18170774806E+03 -0.33200670738E+03  0.80494965997E+03  0.50400001928E-02 0.  1.
</event>
<event>
 5   0  0.4569211E-04  0.1505911E+04  0.7818609E-02  0.8880532E-01
        2   -1    0    0  501    0  0.00000000000E+00  0.00000000000E+00  0.31569606837E+04  0.31569606837E+04  0.25500000920E-02 0. -1.
       -2   -1    0    0    0  501  0.00000000000E+00  0.00000000000E+00 -0.17958476973E+03  0.17958476975E+03  0.25500000920E-02 0.  1.
    10030    2    1    2    0    0  0.00000000000E+00  0.00000000000E+00  0.29773759140E+04  0.33365454534E+04  0.15059110962E+04 0.  0.
        5    1    3    3  502    0 -0.22933373610E+03 -0.47906684355E+03  0.30623549881E+03  0.61310788107E+03  0.46999998093E+01 0.  1.
       -5    1    3    3    0  502  0.22933373610E+03  0.47906684355E+03  0.26711404151E+04  0.27234375724E+04  0.46999998093E+01 0. -1.
</event>
<event>
 5   0  0.2603873E-04  0.1510285E+04  0.7818609E-02  0.8877642E-01
       -1   -1    0    0    0  501  0.00000000000E+00  0.00000000000E+00  0.88954015747E+03  0.88954015748E+03  0.50400001928E-02 0.  1.
        1   -1    0    0  501    0  0.00000000000E+00  0.00000000000E+00 -0.64105073650E+03  0.64105073652E+03  0.50400001928E-02 0. -1.
    10030    2    1    2    0    0  0.00000000000E+00  0.00000000000E+00  0.24848942097E+03  0.15305908940E+04  0.15102852355E+04 0.  0.
        2    1    3    3  502    0 -0.38268131762E+03  0.38822877024E+03 -0.40534576854E+03  0.67931712843E+03  0.25500000920E-02 0. -1.
       -2    1    3    3    0  502  0.38268131762E+03 -0.38822877024E+03  0.65383518951E+03  0.85127376557E+03  0.25500000920E-02 0.  1.
</event>
<event>
 5   0  0.2544374E-04  0.1536394E+04  0.7818609E-02  0.8860606E-01
        1   -1    0    0  501    0  0.00000000000E+00  0.00000000000E+00  0.93599421693E+03  0.93599421695E+03  0.50400001928E-02 0.  1.
       -1   -1    0    0    0  501  0.00000000000E+00  0.00000000000E+00 -0.63048106678E+03  0.63048106680E+03  0.50400001928E-02 0. -1.
    10030    2    1    2    0    0  0.00000000000E+00  0.00000000000E+00  0.30551315015E+03  0.15664752837E+04  0.15363940021E+04 0.  0.
        4    1    3    3  502    0  0.62443130298E+03  0.44048723181E+03  0.72594269658E+02  0.76760340959E+03  0.12699999809E+01 0. -1.
       -4    1    3    3    0  502 -0.62443130298E+03 -0.44048723181E+03  0.23291888050E+03  0.79887187416E+03  0.12699999809E+01 0.  1.
</event>
<event>
 5   0  0.4785496E-04  0.1490430E+04  0.7818609E-02  0.8890842E-01
       -2   -1    0    0    0  501  0.00000000000E+00  0.00000000000E+00  0.22776658042E+03  0.22776658043E+03  0.25500000920E-02 0. -1.
        2   -1    0    0  501    0  0.00000000000E+00  0.00000000000E+00 -0.24382201686E+04  0.24382201686E+04  0.25500000920E-02 0.  1.
    10030    2    1    2    0    0  0.00000000000E+00  0.00000000000E+00 -0.22104535882E+04  0.26659867490E+04  0.14904295624E+04 0.  0.
        4    1    3    3  502    0  0.67841480589E+03  0.20917352578E+03 -0.69991598589E+03  0.99693741676E+03  0.12699999809E+01 0.  1.
       -4    1    3    3    0  502 -0.67841480589E+03 -0.20917352578E+03 -0.15105376023E+04  0.16690493323E+04  0.12699999809E+01 0. -1.
</event>
<event>
 5   0  0.4768387E-04  0.1580522E+04  0.7818609E-02  0.8832604E-01
       -2   -1    0    0    0  501  0.00000000000E+00  0.00000000000E+00  0.42305687084E+03  0.42305687085E+03  0.25500000920E-02 0. -1.
        2   -1    0    0  501    0  0.00000000000E+00  0.00000000000E+00 -0.14761898525E+04  0.14761898525E+04  0.25500000920E-02 0.  1.
    10030    2    1    2    0    0  0.00000000000E+00  0.00000000000E+00 -0.10531329816E+04  0.18992467233E+04  0.15805217617E+04 0.  0.
        3    1    3    3  502    0 -0.58287332270E+02  0.23366127012E+03 -0.14310225532E+04  0.14511445690E+04  0.10100000352E+00 0.  1.
       -3    1    3    3    0  502  0.58287332270E+02 -0.23366127012E+03  0.37788957152E+03  0.44810215434E+03  0.10100000352E+00 0. -1.
</event>
<event>
 5   0  0.2542737E-04  0.1510370E+04  0.7818609E-02  0.8877586E-01
       -1   -1    0    0    0  501  0.00000000000E+00  0.00000000000E+00  0.63084952787E+03  0.63084952789E+03  0.50400001928E-02 0. -1.
        1   -1    0    0  501    0  0.00000000000E+00  0.00000000000E+00 -0.90402620983E+03  0.90402620985E+03  0.50400001928E-02 0.  1.
    10030    2    1    2    0    0  0.00000000000E+00  0.00000000000E+00 -0.27317668196E+03  0.15348757377E+04  0.15103701635E+04 0.  0.
        1    1    3    3  502    0 -0.12014576157E+03 -0.15428312401E+03  0.60467524700E+03  0.63550801784E+03  0.50400001928E-02 0. -1.
       -1    1    3    3    0  502  0.12014576157E+03  0.15428312401E+03 -0.87785192897E+03  0.89936771990E+03  0.50400001928E-02 0.  1.
</event>
<event>
 5   0  0.2542737E-04  0.1584947E+04  0.7818609E-02  0.8829849E-01
       -1   -1    0    0    0  501  0.00000000000E+00  0.00000000000E+00  0.43727209582E+03  0.43727209585E+03  0.50400001928E-02 0.  1.
        1   -1    0    0  501    0  0.00000000000E+00  0.00000000000E+00 -0.14362093831E+04  0.14362093831E+04  0.50400001928E-02 0. -1.
    10030    2    1    2    0    0  0.00000000000E+00  0.00000000000E+00 -0.99893728723E+03  0.18734814789E+04  0.15849470490E+04 0.  0.
        1    1    3    3  502    0 -0.23004350623E+03  0.64022777098E+02 -0.13926732098E+04  0.14129959661E+04  0.50400001928E-02 0. -1.
       -1    1    3    3    0  502  0.23004350623E+03 -0.64022777098E+02  0.39373592261E+03  0.46048551283E+03  0.50400001928E-02 0.  1.
</event>
<event>
 5   0  0.2603873E-04  0.1492842E+04  0.7818609E-02  0.8889227E-01
       -1   -1    0    0    0  501  0.00000000000E+00  0.00000000000E+00  0.48777116893E+03  0.48777116895E+03  0.50400001928E-02 0.  1.
        1   -1    0    0  501    0  0.00000000000E+00  0.00000000000E+00 -0.11422253452E+04  0.11422253452E+04  0.50400001928E-02 0. -1.
    10030    2    1    2    0    0  0.00000000000E+00  0.00000000000E+00 -0.65445417624E+03  0.16299965141E+04  0.14928423786E+04 0.  0.
        2    1    3    3  502    0 -0.42979136485E+03  0.11871419804E+03 -0.98083132512E+03  0.10774245990E+04  0.25500000920E-02 0. -1.
       -2    1    3    3    0  502  0.42979136485E+03 -0.11871419804E+03  0.32637714888E+03  0.55257191517E+03  0.25500000920E-02 0.  1.
</event>
<event>
 5   0  0.2603873E-04  0.1502884E+04  0.7818609E-02  0.8882537E-01
       -1   -1    0    0    0  501  0.00000000000E+00  0.00000000000E+00  0.50872856246E+03  0.50872856249E+03  0.50400001928E-02 0.  1.
        1   -1    0    0  501    0  0.00000000000E+00  0.00000000000E+00 -0.11099537765E+04  0.11099537765E+04  0.50400001928E-02 0. -1.
    10030    2    1    2    0    0  0.00000000000E+00  0.00000000000E+00 -0.60122521400E+03  0.16186823390E+04  0.15028841461E+04 0.  0.
        2    1    3    3  502    0  0.21486970443E+03 -0.61234562189E+02  0.47212640443E+03  0.52232365756E+03  0.25500000920E-02 0.  1.
       -2    1    3    3    0  502 -0.21486970443E+03  0.61234562189E+02 -0.10733516184E+04  0.10963586814E+04  0.25500000920E-02 0. -1.
</event>
<event>
 5   0  0.4569211E-04  0.1502619E+04  0.7818609E-02  0.8882713E-01
       -2   -1    0    0    0  501  0.00000000000E+00  0.00000000000E+00  0.36870075091E+03  0.36870075092E+03  0.25500000920E-02 0. -1.
        2   -1    0    0  501    0  0.00000000000E+00  0.00000000000E+00 -0.15309597316E+04  0.15309597316E+04  0.25500000920E-02 0.  1.
    10030    2    1    2    0    0  0.00000000000E+00  0.00000000000E+00 -0.11622589807E+04  0.18996604825E+04  0.15026190504E+04 0.  0.
        5    1    3    3  502    0 -0.53185481777E+03 -0.51608673763E+03 -0.42511656621E+03  0.85437769915E+03  0.46999998093E+01 0. -1.
       -5    1    3    3    0  502  0.53185481777E+03  0.51608673763E+03 -0.73714241444E+03  0.10452827833E+04  0.46999998093E+01 0.  1.
</event>
<event>
 5   0  0.2565416E-04  0.1490869E+04  0.7818609E-02  0.8890548E-01
        1   -1    0    0  501    0  0.00000000000E+00  0.00000000000E+00  0.91597320435E+03  0.91597320437E+03  0.50400001928E-02 0. -1.
       -1   -1    0    0    0  501  0.00000000000E+00  0.00000000000E+00 -0.60664731461E+03  0.60664731463E+03  0.50400001928E-02 0.  1.
    10030    2    1    2    0    0  0.00000000000E+00  0.00000000000E+00  0.30932588974E+03  0.15226205190E+04  0.14908691220E+04 0.  0.
        5    1    3    3  502    0  0.31269350983E+03 -0.65986350472E+03  0.16266779409E+01  0.73022038593E+03  0.46999998093E+01 0.  1.
       -5    1    3    3    0  502 -0.31269350983E+03  0.65986350472E+03  0.30769921180E+03  0.79240013307E+03  0.46999998093E+01 0. -1.
</event>
<event>
 5   0  0.2605471E-04  0.1488844E+04  0.7818609E-02  0.8891905E-01
       -1   -1    0    0    0  501  0.00000000000E+00  0.00000000000E+00  0.33920770000E+03  0.33920770004E+03  0.50400001928E-02 0.  1.
        1   -1    0    0  501    0  0.00000000000E+00  0.00000000000E+00 -0.16337020540E+04  0.16337020540E+04  0.50400001928E-02 0. -1.
    10030    2    1    2    0    0  0.00000000000E+00  0.00000000000E+00 -0.12944943540E+04  0.19729097540E+04  0.14888442716E+04 0.  0.
        3    1    3    3  502    0 -0.30918112214E+03 -0.22897490579E+03  0.19724728820E+03  0.43235283817E+03  0.10100000352E+00 0.  1.
       -3    1    3    3    0  502  0.30918112214E+03  0.22897490579E+03 -0.14917416422E+04  0.15405569159E+04  0.10100000352E+00 0. -1.
</event>
<event>
 5   0  0.2565416E-04  0.1498165E+04  0.7818609E-02  0.8885674E-01
        1   -1    0    0  501    0  0.00000000000E+00  0.00000000000E+00  0.13578671059E+04  0.13578671059E+04  0.50400001928E-02 0.  1.
       -1   -1    0    0    0  501  0.00000000000E+00  0.00000000000E+00 -0.41323981402E+03  0.41323981405E+03  0.50400001928E-02 0. -1.
    10030    2    1    2    0    0  0.00000000000E+00  0.00000000000E+00  0.94462729184E+03  0.17711069199E+04  0.14981652116E+04 0.  0.
        5    1    3    3  502    0  0.24140737268E+02  0.10886635507E+03 -0.40335517838E+03  0.41851182586E+03  0.46999998093E+01 0. -1.
       -5    1    3    3    0  502 -0.24140737268E+02 -0.10886635507E+03  0.13479824702E+04  0.13525950941E+04  0.46999998093E+01 0.  1.
</event>
<event>
 5   0  0.2544374E-04  0.1477385E+04  0.7818609E-02  0.8899632E-01
       -1   -1    0    0    0  501  0.00000000000E+00  0.00000000000E+00  0.56059014067E+03  0.56059014069E+03  0.50400001928E-02 0.  1.
        1   -1    0    0  501    0  0.00000000000E+00  0.00000000000E+00 -0.97337889085E+03  0.97337889086E+03  0.50400001928E-02 0. -1.
    10030    2    1    2    0    0  0.00000000000E+00  0.00000000000E+00 -0.41278875018E+03  0.15339690316E+04  0.14773849997E+04 0.  0.
        4    1    3    3  502    0 -0.17867370213E+03  0.77840259323E+02  0.53341293437E+03  0.56790348587E+03  0.12699999809E+01 0.  1.
       -4    1    3    3    0  502  0.17867370213E+03 -0.77840259323E+02 -0.94620168455E+03  0.96606554568E+03  0.12699999809E+01 0. -1.
</event>
<event>
 5   0  0.4726600E-04  0.1495336E+04  0.7818609E-02  0.8887561E-01
       -2   -1    0    0    0  501  0.00000000000E+00  0.00000000000E+00  0.41295230436E+03  0.41295230437E+03  0.25500000920E-02 0. -1.
        2   -1    0    0  501    0  0.00000000000E+00  0.00000000000E+00 -0.13536846668E+04  0.13536846668E+04  0.25500000920E-02 0.  1.
    10030    2    1    2    0    0  0.00000000000E+00  0.00000000000E+00 -0.94073236248E+03  0.17666369712E+04  0.14953356848E+04 0.  0.
        2    1    3    3  502    0 -0.32985485875E+02 -0.42484471544E+02  0.41066366573E+03  0.41417100207E+03  0.25500000920E-02 0. -1.
       -2    1    3    3    0  502  0.32985485875E+02  0.42484471544E+02 -0.13513960282E+04  0.13524659691E+04  0.25500000920E-02 0.  1.
</event>
<event>
 5   0  0.4948645E-04  0.1484170E+04  0.7818609E-02  0.8895049E-01
       -2   -1    0    0    0  501  0.00000000000E+00  0.00000000000E+00  0.13348387945E+04  0.13348387945E+04  0.25500000920E-02 0.  1.
        2   -1    0    0  501    0  0.00000000000E+00  0.00000000000E+00 -0.41255171442E+03  0.41255171443E+03  0.25500000920E-02 0. -1.
    10030    2    1    2    0    0  0.00000000000E+00  0.00000000000E+00  0.92228708010E+03  0.17473905090E+04  0.14841698463E+04 0.  0.
        1    1    3    3  502    0  0.60312865382E+02 -0.73667966989E+03  0.53884392199E+03  0.91470615503E+03  0.50400001928E-02 0. -1.
       -1    1    3    3    0  502 -0.60312865382E+02  0.73667966989E+03  0.38344315811E+03  0.83268435393E+03  0.50400001928E-02 0.  1.
</event>
<event>
 5   0  0.2565416E-04  0.1468339E+04  0.7818609E-02  0.8905784E-01
       -1   -1    0    0    0  501  0.00000000000E+00  0.00000000000E+00  0.93353223313E+03  0.93353223315E+03  0.50400001928E-02 0.  1.
        1   -1    0    0  501    0  0.00000000000E+00  0.00000000000E+00 -0.57738231523E+03  0.57738231525E+03  0.50400001928E-02 0. -1.
    10030    2    1    2    0    0  0.00000000000E+00  0.00000000000E+00  0.35614991791E+03  0.15109145484E+04  0.14683392008E+04 0.  0.
        5    1    3    3  502    0 -0.31012786720E+03 -0.60276213230E+03  0.46817403498E+03  0.82383887938E+03  0.46999998093E+01 0.  1.
       -5    1    3    3    0  502  0.31012786720E+03  0.60276213230E+03 -0.11202411708E+03  0.68707566902E+03  0.46999998093E+01 0. -1.
</event>
<event>
 5   0  0.2603873E-04  0.1485700E+04  0.7818609E-02  0.8894019E-01
       -1   -1    0    0    0  501  0.00000000000E+00  0.00000000000E+00  0.42449930174E+03  0.42449930177E+03  0.50400001928E-02 0. -1.
        1   -1    0    0  501    0  0.00000000000E+00  0.00000000000E+00 -0.12999452161E+04  0.12999452161E+04  0.50400001928E-02 0.  1.
    10030    2    1    2    0    0  0.00000000000E+00  0.00000000000E+00 -0.87544591432E+03  0.17244445179E+04  0.14856996151E+04 0.  0.
        2    1    3    3  502    0  0.18231579626E+03  0.61454797455E+03 -0.20096800530E+01  0.64102441561E+03  0.25500000920E-02 0. -1.
       -2    1    3    3    0  502 -0.18231579626E+03 -0.61454797455E+03 -0.87343623427E+03  0.10834201022E+04  0.25500000920E-02 0.  1.
</event>
<event>
 5   0  0.2605471E-04  0.1500820E+04  0.7818609E-02  0.8883908E-01
        1   -1    0    0  501    0  0.00000000000E+00  0.00000000000E+00  0.98375406333E+03  0.98375406335E+03  0.50400001928E-02 0. -1.
       -1   -1    0    0    0  501  0.00000000000E+00  0.00000000000E+00 -0.57241425727E+03  0.57241425729E+03  0.50400001928E-02 0.  1.
    10030    2    1    2    0    0  0.00000000000E+00  0.00000000000E+00  0.41133980606E+03  0.15561683206E+04  0.15008195781E+04 0.  0.
        3    1    3    3  502    0 -0.62206273462E+03  0.12364716229E+03 -0.21020024912E+03  0.66815778188E+03  0.10100000352E+00 0.  1.
       -3    1    3    3    0  502  0.62206273462E+03 -0.12364716229E+03  0.62154005519E+03  0.88801053876E+03  0.10100000352E+00 0. -1.
</event>
<event>
 5   0  0.4726600E-04  0.1490983E+04  0.7818609E-02  0.8890471E-01
       -2   -1    0    0    0  501  0.00000000000E+00  0.00000000000E+00  0.35652950711E+03  0.35652950712E+03  0.25500000920E-02 0. -1.
        2   -1    0    0  501    0  0.00000000000E+00  0.00000000000E+00 -0.15587989447E+04  0.15587989447E+04  0.25500000920E-02 0.  1.
    10030    2    1    2    0    0  0.00000000000E+00  0.00000000000E+00 -0.12022694376E+04  0.19153284518E+04  0.14909833258E+04 0.  0.
        2    1    3    3  502    0 -0.12072854152E+03  0.70573977779E+03 -0.33440055239E+03  0.79023271518E+03  0.25500000920E-02 0.  1.
       -2    1    3    3    0  502  0.12072854152E+03 -0.70573977779E+03 -0.86786888522E+03  0.11250957367E+04  0.25500000920E-02 0. -1.
</event>
<event>
 5   0  0.4948645E-04  0.1497274E+04  0.7818609E-02  0.8886267E-01
       -2   -1    0    0    0  501  0.00000000000E+00  0.00000000000E+00  0.39130723111E+03  0.39130723112E+03  0.25500000920E-02 0.  1.
        2   -1    0    0  501    0  0.00000000000E+00  0.00000000000E+00 -0.14322701468E+04  0.14322701468E+04  0.25500000920E-02 0. -1.
    10030    2    1    2    0    0  0.00000000000E+00  0.00000000000E+00 -0.10409629156E+04  0.18235773779E+04  0.14972744108E+04 0.  0.
        1    1    3    3  502    0  0.40924663044E+03 -0.13020764961E+03 -0.12673234776E+04  0.13381127133E+04  0.50400001928E-02 0. -1.
       -1    1    3    3    0  502 -0.40924663044E+03  0.13020764961E+03  0.22636056195E+03  0.48546466460E+03  0.50400001928E-02 0.  1.
</event>
<event>
 5   0  0.2542737E-04  0.1552083E+04  0.7818609E-02  0.8850538E-01
        1   -1    0    0  501    0  0.00000000000E+00  0.00000000000E+00  0.68343637387E+03  0.68343637389E+03  0.50400001928E-02 0. -1.
       -1   -1    0    0    0  501  0.00000000000E+00  0.00000000000E+00 -0.88119442121E+03  0.88119442123E+03  0.50400001928E-02 0.  1.
    10030    2    1    2    0    0  0.00000000000E+00  0.00000000000E+00 -0.19775804734E+03  0.15646307951E+04  0.15520828843E+04 0.  0.
        1    1    3    3  502    0 -0.50526453911E+03  0.30782784525E+02 -0.69185256881E+03  0.85726297674E+03  0.50400001928E-02 0.  1.
       -1    1    3    3    0  502  0.50526453911E+03 -0.30782784525E+02  0.49409452146E+03  0.70736781837E+03  0.50400001928E-02 0. -1.
</event>
<event>
 5   0  0.4726600E-04  0.1503939E+04  0.7818609E-02  0.8881838E-01
        2   -1    0    0  501    0  0.00000000000E+00  0.00000000000E+00  0.19346791021E+04  0.19346791021E+04  0.25500000920E-02 0. -1.
       -2   -1    0    0    0  501  0.00000000000E+00  0.00000000000E+00 -0.29227474141E+03  0.29227474142E+03  0.25500000920E-02 0.  1.
    10030    2    1    2    0    0  0.00000000000E+00  0.00000000000E+00  0.16424043607E+04  0.22269538436E+04  0.15039386082E+04 0.  0.
        2    1    3    3  502    0  0.16955715692E+03 -0.65823756021E+03  0.34498225882E+03  0.76225919086E+03  0.25500000920E-02 0.  1.
       -2    1    3    3    0  502 -0.16955715692E+03  0.65823756021E+03  0.12974221019E+04  0.14646946527E+04  0.25500000920E-02 0. -1.
</event>
<event>
 5   0  0.2544374E-04  0.1501242E+04  0.7818609E-02  0.8883628E-01
        1   -1    0    0  501    0  0.00000000000E+00  0.00000000000E+00  0.11207912868E+04  0.11207912868E+04  0.50400001928E-02 0. -1.
       -1   -1    0    0    0  501  0.00000000000E+00  0.00000000000E+00 -0.50270886077E+03  0.50270886079E+03  0.50400001928E-02 0.  1.
    10030    2    1    2    0    0  0.00000000000E+00  0.00000000000E+00  0.61808242605E+03  0.16235001476E+04  0.15012417673E+04 0.  0.
        4    1    3    3  502    0 -0.23561096544E+03 -0.63582305077E+03 -0.39119099781E+02  0.67920202871E+03  0.12699999809E+01 0.  1.
       -4    1    3    3    0  502  0.23561096544E+03  0.63582305077E+03  0.65720152583E+03  0.94429811891E+03  0.12699999809E+01 0. -1.
</event>
<event>
 5   0  0.1792000E-04  0.1503803E+04  0.7818609E-02  0.8881928E-01
        3   -1    0    0  501    0  0.00000000000E+00  0.00000000000E+00  0.77742760340E+03  0.77742760997E+03  0.10100000352E+00 0. -1.
       -3   -1    0    0    0  501  0.00000000000E+00  0.00000000000E+00 -0.72721363310E+03  0.72721364011E+03  0.10100000352E+00 0.  1.
    10030    2    1    2    0    0  0.00000000000E+00  0.00000000000E+00  0.50213970308E+02  0.15046412501E+04  0.15038031283E+04 0.  0.
        3    1    3    3  502    0 -0.11714007404E+03  0.48085280996E+02 -0.71646866430E+03  0.72757222894E+03  0.10100000352E+00 0.  1.
       -3    1    3    3    0  502  0.11714007404E+03 -0.48085280996E+02  0.76668263461E+03  0.77706902114E+03  0.10100000352E+00 0. -1.
</event>
<event>
 5   0  0.2605471E-04  0.1500122E+04  0.7818609E-02  0.8884372E-01
       -1   -1    0    0    0  501  0.00000000000E+00  0.00000000000E+00  0.60604778445E+03  0.60604778447E+03  0.50400001928E-02 0.  1.
        1   -1    0    0  501    0  0.00000000000E+00  0.00000000000E+00 -0.92829576360E+03  0.92829576362E+03  0.50400001928E-02 0. -1.
    10030    2    1    2    0    0  0.00000000000E+00  0.00000000000E+00 -0.32224797915E+03  0.15343435481E+04  0.15001221162E+04 0.  0.
        3    1    3    3  502    0  0.24727708378E+03  0.96573960846E+02 -0.87863918966E+03  0.91786672338E+03  0.10100000352E+00 0. -1.
       -3    1    3    3    0  502 -0.24727708378E+03 -0.96573960846E+02  0.55639121051E+03  0.61647682471E+03  0.10100000352E+00 0.  1.
</event>
<event>
 5   0  0.4569211E-04  0.1385851E+04  0.7818609E-02  0.8964125E-01
        2   -1    0    0  501    0  0.00000000000E+00  0.00000000000E+00  0.63527922078E+03  0.63527922079E+03  0.25500000920E-02 0.  1.
       -2   -1    0    0    0  501  0.00000000000E+00  0.00000000000E+00 -0.75580259406E+03  0.75580259406E+03  0.25500000920E-02 0. -1.
    10030    2    1    2    0    0  0.00000000000E+00  0.00000000000E+00 -0.12052337328E+03  0.13910818148E+04  0.13858509054E+04 0.  0.
        5    1    3    3  502    0  0.65103676630E+03 -0.22479852981E+03 -0.13631271358E+03  0.70212997085E+03  0.46999998093E+01 0. -1.
       -5    1    3    3    0  502 -0.65103676630E+03  0.22479852981E+03  0.15789340305E+02  0.68895184400E+03  0.46999998093E+01 0.  1.
</event>
<event>
 5   0  0.4726600E-04  0.1485705E+04  0.7818609E-02  0.8894015E-01
        2   -1    0    0  501    0  0.00000000000E+00  0.00000000000E+00  0.77231982947E+03  0.77231982948E+03  0.25500000920E-02 0.  1.
       -2   -1    0    0    0  501  0.00000000000E+00  0.00000000000E+00 -0.71450994733E+03  0.71450994733E+03  0.25500000920E-02 0. -1.
    10030    2    1    2    0    0  0.00000000000E+00  0.00000000000E+00  0.57809882144E+02  0.14868297768E+04  0.14857054899E+04 0.  0.
        2    1    3    3  502    0 -0.46792523738E+03 -0.38660431634E+02 -0.54718816808E+03  0.72101563648E+03  0.25500000920E-02 0. -1.
       -2    1    3    3    0  502  0.46792523738E+03  0.38660431634E+02  0.60499805023E+03  0.76581414033E+03  0.25500000920E-02 0.  1.
</event>
<event>
 5   0  0.1792000E-04  0.1505213E+04  0.7818609E-02  0.8880994E-01
        3   -1    0    0  501    0  0.00000000000E+00  0.00000000000E+00  0.41937741330E+03  0.41937742546E+03  0.10100000352E+00 0. -1.
       -3   -1    0    0    0  501  0.00000000000E+00  0.00000000000E+00 -0.13506122685E+04  0.13506122722E+04  0.10100000352E+00 0.  1.
    10030    2    1    2    0    0  0.00000000000E+00  0.00000000000E+00 -0.93123485515E+03  0.17699896977E+04  0.15052126675E+04 0.  0.
        2    1    3    3  502    0  0.42617549826E+03  0.22977205668E+03  0.21192890498E+03  0.52852115768E+03  0.25500000920E-02 0. -1.
       -2    1    3    3    0  502 -0.42617549826E+03 -0.22977205668E+03 -0.11431637601E+04  0.12414685400E+04  0.25500000920E-02 0.  1.
</event>
<event>
 5   0  0.2565416E-04  0.1553639E+04  0.7818609E-02  0.8849547E-01
        1   -1    0    0  501    0  0.00000000000E+00  0.00000000000E+00  0.26241132131E+04  0.26241132131E+04  0.50400001928E-02 0.  1.
       -1   -1    0    0    0  501  0.00000000000E+00  0.00000000000E+00 -0.22996271063E+03  0.22996271068E+03  0.50400001928E-02 0. -1.
    10030    2    1    2    0    0  0.00000000000E+00  0.00000000000E+00  0.23941505024E+04  0.28540759237E+04  0.15536385520E+04 0.  0.
        5    1    3    3  502    0 -0.19219209793E+03  0.15305168418E+03  0.25508326108E+04  0.25626415510E+04  0.46999998093E+01 0.  1.
       -5    1    3    3    0  502  0.19219209793E+03 -0.15305168418E+03 -0.15668210837E+03  0.29143437275E+03  0.46999998093E+01 0. -1.
</event>
<event>
 5   0  0.2603873E-04  0.1466341E+04  0.7818609E-02  0.8907149E-01
        1   -1    0    0  501    0  0.00000000000E+00  0.00000000000E+00  0.15483087031E+04  0.15483087031E+04  0.50400001928E-02 0.  1.
       -1   -1    0    0    0  501  0.00000000000E+00  0.00000000000E+00 -0.34717834898E+03  0.34717834902E+03  0.50400001928E-02 0. -1.
    10030    2    1    2    0    0  0.00000000000E+00  0.00000000000E+00  0.12011303541E+04  0.18954870521E+04  0.14663413781E+04 0.  0.
        2    1    3    3  502    0  0.22332090107E+03 -0.56027214216E+03  0.61720822733E+02  0.60628917036E+03  0.25500000920E-02 0. -1.
       -2    1    3    3    0  502 -0.22332090107E+03  0.56027214216E+03  0.11394095314E+04  0.12891978817E+04  0.25500000920E-02 0.  1.
</event>
<event>
 5   0  0.2542737E-04  0.1316177E+04  0.7818609E-02  0.9016834E-01
        1   -1    0    0  501    0  0.00000000000E+00  0.00000000000E+00  0.12614037832E+04  0.12614037832E+04  0.50400001928E-02 0. -1.
       -1   -1    0    0    0  501  0.00000000000E+00  0.00000000000E+00 -0.34333223911E+03  0.34333223915E+03  0.50400001928E-02 0.  1.
    10030    2    1    2    0    0  0.00000000000E+00  0.00000000000E+00  0.91807154404E+03  0.16047360223E+04  0.13161771694E+04 0.  0.
        1    1    3    3  502    0  0.38661486946E+03 -0.42563935183E+03  0.68801459040E+02  0.57911445838E+03  0.50400001928E-02 0.  1.
       -1    1    3    3    0  502 -0.38661486946E+03  0.42563935183E+03  0.84927008500E+03  0.10256215639E+04  0.50400001928E-02 0. -1.
</event>
<event>
 5   0  0.4726600E-04  0.1530758E+04  0.7818609E-02  0.8864253E-01
       -2   -1    0    0    0  501  0.00000000000E+00  0.00000000000E+00  0.43208370748E+03  0.43208370748E+03  0.25500000920E-02 0. -1.
        2   -1    0    0  501    0  0.00000000000E+00  0.00000000000E+00 -0.13557682749E+04  0.13557682749E+04  0.25500000920E-02 0.  1.
    10030    2    1    2    0    0  0.00000000000E+00  0.00000000000E+00 -0.92368456740E+03  0.17878519824E+04  0.15307584822E+04 0.  0.
        2    1    3    3  502    0  0.38593473180E+03 -0.39300215971E+02  0.30875385911E+03  0.49580144181E+03  0.25500000920E-02 0. -1.
       -2    1    3    3    0  502 -0.38593473180E+03  0.39300215971E+02 -0.12324384265E+04  0.12920505405E+04  0.25500000920E-02 0.  1.
</event>
<event>
 5   0  0.2542737E-04  0.1493664E+04  0.7818609E-02  0.8888677E-01
       -1   -1    0    0    0  501  0.00000000000E+00  0.00000000000E+00  0.97167057606E+03  0.97167057608E+03  0.50400001928E-02 0. -1.
        1   -1    0    0  501    0  0.00000000000E+00  0.00000000000E+00 -0.57401959404E+03  0.57401959406E+03  0.50400001928E-02 0.  1.
    10030    2    1    2    0    0  0.00000000000E+00  0.00000000000E+00  0.39765098202E+03  0.15456901701E+04  0.14936638841E+04 0.  0.
        1    1    3    3  502    0 -0.53191824916E+03  0.39900161365E+03  0.55069650267E+03  0.86336895333E+03  0.50400001928E-02 0.  1.
       -1    1    3    3    0  502  0.53191824916E+03 -0.39900161365E+03 -0.15304552065E+03  0.68232121681E+03  0.50400001928E-02 0. -1.
</event>
<event>
 5   0  0.4569211E-04  0.1505001E+04  0.7818609E-02  0.8881134E-01
       -2   -1    0    0    0  501  0.00000000000E+00  0.00000000000E+00  0.65572864046E+03  0.65572864047E+03  0.25500000920E-02 0.  1.
        2   -1    0    0  501    0  0.00000000000E+00  0.00000000000E+00 -0.86355360215E+03  0.86355360215E+03  0.25500000920E-02 0. -1.
    10030    2    1    2    0    0  0.00000000000E+00  0.00000000000E+00 -0.20782496168E+03  0.15192822426E+04  0.15050007701E+04 0.  0.
        5    1    3    3  502    0  0.61098099639E+03 -0.12711819435E+03 -0.52835194456E+03  0.81770085031E+03  0.46999998093E+01 0. -1.
       -5    1    3    3    0  502 -0.61098099639E+03  0.12711819435E+03  0.32052698288E+03  0.70158139231E+03  0.46999998093E+01 0.  1.
</event>
<event>
 5   0  0.2605471E-04  0.1488757E+04  0.7818609E-02  0.8891964E-01
       -1   -1    0    0    0  501  0.00000000000E+00  0.00000000000E+00  0.60489346462E+03  0.60489346464E+03  0.50400001928E-02 0. -1.
        1   -1    0    0  501    0  0.00000000000E+00  0.00000000000E+00 -0.91602828361E+03  0.91602828362E+03  0.50400001928E-02 0.  1.
    10030    2    1    2    0    0  0.00000000000E+00  0.00000000000E+00 -0.31113481899E+03  0.15209217483E+04  0.14887572296E+04 0.  0.
        3    1    3    3  502    0 -0.15075942579E+03 -0.37776361743E+03 -0.79246722949E+03  0.89075141040E+03  0.10100000352E+00 0.  1.
       -3    1    3    3    0  502  0.15075942579E+03  0.37776361743E+03  0.48133241050E+03  0.63017033786E+03  0.10100000352E+00 0. -1.
</event>
<event>
 5   0  0.2565416E-04  0.1504420E+04  0.7818609E-02  0.8881519E-01
        1   -1    0    0  501    0  0.00000000000E+00  0.00000000000E+00  0.12679067400E+04  0.12679067400E+04  0.50400001928E-02 0. -1.
       -1   -1    0    0    0  501  0.00000000000E+00  0.00000000000E+00 -0.44626330511E+03  0.44626330514E+03  0.50400001928E-02 0.  1.
    10030    2    1    2    0    0  0.00000000000E+00  0.00000000000E+00  0.82164343486E+03  0.17141700451E+04  0.15044204896E+04 0.  0.
        5    1    3    3  502    0  0.31335193760E+03 -0.28739666355E+03 -0.29618205154E+03  0.51820090377E+03  0.46999998093E+01 0.  1.
       -5    1    3    3    0  502 -0.31335193760E+03  0.28739666355E+03  0.11178254864E+04  0.11959691413E+04  0.46999998093E+01 0. -1.
</event>
<event>
 5   0  0.2565416E-04  0.1497836E+04  0.7818609E-02  0.8885893E-01
       -1   -1    0    0    0  501  0.00000000000E+00  0.00000000000E+00  0.47985887909E+03  0.47985887911E+03  0.50400001928E-02 0. -1.
        1   -1    0    0  501    0  0.00000000000E+00  0.00000000000E+00 -0.11688398696E+04  0.11688398696E+04  0.50400001928E-02 0.  1.
    10030    2    1    2    0    0  0.00000000000E+00  0.00000000000E+00 -0.68898099054E+03  0.16486987488E+04  0.14978360253E+04 0.  0.
        5    1    3    3  502    0  0.73104943904E+03 -0.52572178375E+02 -0.17518343202E+03  0.75359700180E+03  0.46999998093E+01 0. -1.
       -5    1    3    3    0  502 -0.73104943904E+03  0.52572178375E+02 -0.51379755852E+03  0.89510174696E+03  0.46999998093E+01 0.  1.
</event>
<event>
 5   0  0.4726600E-04  0.1502281E+04  0.7818609E-02  0.8882937E-01
        2   -1    0    0  501    0  0.00000000000E+00  0.00000000000E+00  0.18219129372E+04  0.18219129372E+04  0.25500000920E-02 0.  1.
       -2   -1    0    0    0  501  0.00000000000E+00  0.00000000000E+00 -0.30968121151E+03  0.30968121152E+03  0.25500000920E-02 0. -1.
    10030    2    1    2    0    0  0.00000000000E+00  0.00000000000E+00  0.15122317257E+04  0.21315941487E+04  0.15022812063E+04 0.  0.
        2    1    3    3  502    0 -0.42943508649E+03 -0.10220289049E+03  0.16184462260E+04  0.16775661271E+04  0.25500000920E-02 0.  1.
       -2    1    3    3    0  502  0.42943508649E+03  0.10220289049E+03 -0.10621450031E+03  0.45402802162E+03  0.25500000920E-02 0. -1.
</event>
<event>
 5   0  0.2565416E-04  0.1508875E+04  0.7818609E-02  0.8878572E-01
        1   -1    0    0  501    0  0.00000000000E+00  0.00000000000E+00  0.83602605780E+03  0.83602605781E+03  0.50400001928E-02 0. -1.
       -1   -1    0    0    0  501  0.00000000000E+00  0.00000000000E+00 -0.68081135833E+03  0.68081135835E+03  0.50400001928E-02 0.  1.
    10030    2    1    2    0    0  0.00000000000E+00  0.00000000000E+00  0.15521469947E+03  0.15168374162E+04  0.15088751254E+04 0.  0.
        5    1    3    3  502    0  0.38531606737E+03 -0.34399680901E+03 -0.47515941051E+03  0.70185527837E+03  0.46999998093E+01 0.  1.
       -5    1    3    3    0  502 -0.38531606737E+03  0.34399680901E+03  0.63037410998E+03  0.81498213779E+03  0.46999998093E+01 0. -1.
</event>
<event>
 5   0  0.2542737E-04  0.1501220E+04  0.7818609E-02  0.8883642E-01
        1   -1    0    0  501    0  0.00000000000E+00  0.00000000000E+00  0.18679728821E+04  0.18679728821E+04  0.50400001928E-02 0.  1.
       -1   -1    0    0    0  501  0.00000000000E+00  0.00000000000E+00 -0.30161846014E+03  0.30161846018E+03  0.50400001928E-02 0. -1.
    10030    2    1    2    0    0  0.00000000000E+00  0.00000000000E+00  0.15663544220E+04  0.21695913423E+04  0.15012196433E+04 0.  0.
        1    1    3    3  502    0 -0.87812174202E+02 -0.65947287267E+03  0.28087331056E+03  0.72215321389E+03  0.50400001928E-02 0. -1.
       -1    1    3    3    0  502  0.87812174202E+02  0.65947287267E+03  0.12854811114E+04  0.14474381284E+04  0.50400001928E-02 0.  1.
</event>
<event>
 5   0  0.4726600E-04  0.1515937E+04  0.7818609E-02  0.8873924E-01
       -2   -1    0    0    0  501  0.00000000000E+00  0.00000000000E+00  0.48142794527E+03  0.48142794528E+03  0.25500000920E-02 0. -1.
        2   -1    0    0  501    0  0.00000000000E+00  0.00000000000E+00 -0.11933580354E+04  0.11933580354E+04  0.25500000920E-02 0.  1.
    10030    2    1    2    0    0  0.00000000000E+00  0.00000000000E+00 -0.71193009012E+03  0.16747859807E+04  0.15159365514E+04 0.  0.
        2    1    3    3  502    0  0.67102571457E+03 -0.12973420392E+03 -0.71804085068E+03  0.99130678225E+03  0.25500000920E-02 0. -1.
       -2    1    3    3    0  502 -0.67102571457E+03  0.12973420392E+03  0.61107605620E+01  0.68347919842E+03  0.25500000920E-02 0.  1.
</event>
<event>
 5   0  0.1792000E-04  0.1493997E+04  0.7818609E-02  0.8888455E-01
        4   -1    0    0  501    0  0.00000000000E+00  0.00000000000E+00  0.11633464888E+04  0.11633471820E+04  0.12699999809E+01 0.  1.
       -4   -1    0    0    0  501  0.00000000000E+00  0.00000000000E+00 -0.47965476196E+03  0.47965644327E+03  0.12699999809E+01 0. -1.
    10030    2    1    2    0    0  0.00000000000E+00  0.00000000000E+00  0.68369172686E+03  0.16430036253E+04  0.14939968325E+04 0.  0.
        5    1    3    3  502    0  0.14629694509E+03  0.30422503606E+03  0.10746610343E+04  0.11264431177E+04  0.46999998093E+01 0.  1.
       -5    1    3    3    0  502 -0.14629694509E+03 -0.30422503606E+03 -0.39096930743E+03  0.51656050765E+03  0.46999998093E+01 0. -1.
</event>
<event>
 5   0  0.2603873E-04  0.1498158E+04  0.7818609E-02  0.8885679E-01
       -1   -1    0    0    0  501  0.00000000000E+00  0.00000000000E+00  0.44404825724E+03  0.44404825727E+03  0.50400001928E-02 0.  1.
        1   -1    0    0  501    0  0.00000000000E+00  0.00000000000E+00 -0.12636453623E+04  0.12636453623E+04  0.50400001928E-02 0. -1.
    10030    2    1    2    0    0  0.00000000000E+00  0.00000000000E+00 -0.81959710504E+03  0.17076936196E+04  0.14981582305E+04 0.  0.
        2    1    3    3  502    0 -0.37160516569E+03  0.64992777139E+03 -0.38134732071E+03  0.84019181513E+03  0.25500000920E-02 0. -1.
       -2    1    3    3    0  502  0.37160516569E+03 -0.64992777139E+03 -0.43824978433E+03  0.86750180442E+03  0.25500000920E-02 0.  1.
</event>
<event>
 5   0  0.2544374E-04  0.1491885E+04  0.7818609E-02  0.8889868E-01
        1   -1    0    0  501    0  0.00000000000E+00  0.00000000000E+00  0.82744457878E+03  0.82744457880E+03  0.50400001928E-02 0. -1.
       -1   -1    0    0    0  501  0.00000000000E+00  0.00000000000E+00 -0.67246795765E+03  0.67246795767E+03  0.50400001928E-02 0.  1.
    10030    2    1    2    0    0  0.00000000000E+00  0.00000000000E+00  0.15497662113E+03  0.14999125365E+04  0.14918846685E+04 0.  0.
        4    1    3    3  502    0 -0.60345589518E+03  0.13879782201E+03  0.49566458035E+03  0.79316381784E+03  0.12699999809E+01 0. -1.
       -4    1    3    3    0  502  0.60345589518E+03 -0.13879782201E+03 -0.34068795922E+03  0.70674871863E+03  0.12699999809E+01 0.  1.
</event>
<event>
 5   0  0.2544374E-04  0.1515536E+04  0.7818609E-02  0.8874187E-01
        1   -1    0    0  501    0  0.00000000000E+00  0.00000000000E+00  0.12246846587E+04  0.12246846587E+04  0.50400001928E-02 0.  1.
       -1   -1    0    0    0  501  0.00000000000E+00  0.00000000000E+00 -0.46886573285E+03  0.46886573288E+03  0.50400001928E-02 0. -1.
    10030    2    1    2    0    0  0.00000000000E+00  0.00000000000E+00  0.75581892586E+03  0.16935503916E+04  0.15155364332E+04 0.  0.
        4    1    3    3  502    0 -0.31601143348E+03 -0.64981237996E+03  0.63295399427E+03  0.96059967052E+03  0.12699999809E+01 0.  1.
       -4    1    3    3    0  502  0.31601143348E+03  0.64981237996E+03  0.12286493160E+03  0.73295072109E+03  0.12699999809E+01 0. -1.
</event>
<event>
 5   0  0.2565416E-04  0.1476611E+04  0.7818609E-02  0.8900157E-01
       -1   -1    0    0    0  501  0.00000000000E+00  0.00000000000E+00  0.11825336739E+04  0.11825336739E+04  0.50400001928E-02 0.  1.
        1   -1    0    0  501    0  0.00000000000E+00  0.00000000000E+00 -0.46095488080E+03  0.46095488083E+03  0.50400001928E-02 0. -1.
    10030    2    1    2    0    0  0.00000000000E+00  0.00000000000E+00  0.72157879310E+03  0.16434885547E+04  0.14766105360E+04 0.  0.
        5    1    3    3  502    0 -0.21671255620E+03 -0.30095821825E+03 -0.34973957509E+03  0.50978430883E+03  0.46999998093E+01 0. -1.
       -5    1    3    3    0  502  0.21671255620E+03  0.30095821825E+03  0.10713183682E+04  0.11337042459E+04  0.46999998093E+01 0.  1.
</event>
<event>
 5   0  0.2605471E-04  0.1497084E+04  0.7818609E-02  0.8886394E-01
       -1   -1    0    0    0  501  0.00000000000E+00  0.00000000000E+00  0.10522904526E+04  0.10522904526E+04  0.50400001928E-02 0. -1.
        1   -1    0    0  501    0  0.00000000000E+00  0.00000000000E+00 -0.53247224856E+03  0.53247224859E+03  0.50400001928E-02 0.  1.
    10030    2    1    2    0    0  0.00000000000E+00  0.00000000000E+00  0.51981820399E+03  0.15847627012E+04  0.14970844511E+04 0.  0.
        3    1    3    3  502    0  0.65499712459E+03  0.32488514971E+03  0.90063318448E+02  0.73667021471E+03  0.10100000352E+00 0.  1.
       -3    1    3    3    0  502 -0.65499712459E+03 -0.32488514971E+03  0.42975488554E+03  0.84809248644E+03  0.10100000352E+00 0. -1.
</event>
<event>
 5   0  0.4569211E-04  0.1490053E+04  0.7818609E-02  0.8891094E-01
        2   -1    0    0  501    0  0.00000000000E+00  0.00000000000E+00  0.90927514483E+03  0.90927514483E+03  0.25500000920E-02 0. -1.
       -2   -1    0    0    0  501  0.00000000000E+00  0.00000000000E+00 -0.61044761673E+03  0.61044761674E+03  0.25500000920E-02 0.  1.
    10030    2    1    2    0    0  0.00000000000E+00  0.00000000000E+00  0.29882752810E+03  0.15197227616E+04  0.14900534824E+04 0.  0.
        5    1    3    3  502    0 -0.16863012680E+03  0.14682085173E+03 -0.57540564859E+03  0.61733802135E+03  0.46999998093E+01 0.  1.
       -5    1    3    3    0  502  0.16863012680E+03 -0.14682085173E+03  0.87423317669E+03  0.90238474023E+03  0.46999998093E+01 0. -1.
</event>
<event>
 5   0  0.2565416E-04  0.1542987E+04  0.7818609E-02  0.8856360E-01
        1   -1    0    0  501    0  0.00000000000E+00  0.00000000000E+00  0.12994074672E+04  0.12994074672E+04  0.50400001928E-02 0. -1.
       -1   -1    0    0    0  501  0.00000000000E+00  0.00000000000E+00 -0.45805677698E+03  0.45805677701E+03  0.50400001928E-02 0.  1.
    10030    2    1    2    0    0  0.00000000000E+00  0.00000000000E+00  0.84135069025E+03  0.17574642443E+04  0.15429872280E+04 0.  0.
        5    1    3    3  502    0  0.21683585036E+03  0.28287648714E+03 -0.35864071370E+03  0.50565021951E+03  0.46999998093E+01 0.  1.
       -5    1    3    3    0  502 -0.21683585036E+03 -0.28287648714E+03  0.11999914040E+04  0.12518140247E+04  0.46999998093E+01 0. -1.
</event>
<event>
 5   0  0.4948645E-04  0.1499063E+04  0.7818609E-02  0.8885076E-01
       -2   -1    0    0    0  501  0.00000000000E+00  0.00000000000E+00  0.42394857384E+03  0.42394857385E+03  0.25500000920E-02 0. -1.
        2   -1    0    0  501    0  0.00000000000E+00  0.00000000000E+00 -0.13251544689E+04  0.13251544689E+04  0.25500000920E-02 0.  1.
    10030    2    1    2    0    0  0.00000000000E+00  0.00000000000E+00 -0.90120589507E+03  0.17491030428E+04  0.14990628369E+04 0.  0.
        1    1    3    3  502    0  0.41330383364E+03 -0.41706406157E+03 -0.99417898342E+03  0.11546230300E+04  0.50400001928E-02 0.  1.
       -1    1    3    3    0  502 -0.41330383364E+03  0.41706406157E+03  0.92973088354E+02  0.59448001274E+03  0.50400001928E-02 0. -1.
</event>
<event>
 5   0  0.2605471E-04  0.1480449E+04  0.7818609E-02  0.8897559E-01
        1   -1    0    0  501    0  0.00000000000E+00  0.00000000000E+00  0.61786333294E+03  0.61786333296E+03  0.50400001928E-02 0. -1.
       -1   -1    0    0    0  501  0.00000000000E+00  0.00000000000E+00 -0.88681789522E+03  0.88681789524E+03  0.50400001928E-02 0.  1.
    10030    2    1    2    0    0  0.00000000000E+00  0.00000000000E+00 -0.26895456229E+03  0.15046812282E+04  0.14804489326E+04 0.  0.
        3    1    3    3  502    0 -0.66541628287E+03 -0.16412057861E+03 -0.41872960685E+03  0.80314935578E+03  0.10100000352E+00 0.  1.
       -3    1    3    3    0  502  0.66541628287E+03  0.16412057861E+03  0.14977504457E+03  0.70153187241E+03  0.10100000352E+00 0. -1.
</event>
<event>
 5   0  0.2603873E-04  0.1510820E+04  0.7818609E-02  0.8877290E-01
        1   -1    0    0  501    0  0.00000000000E+00  0.00000000000E+00  0.17236938433E+04  0.17236938433E+04  0.50400001928E-02 0.  1.
       -1   -1    0    0    0  501  0.00000000000E+00  0.00000000000E+00 -0.33105888331E+03  0.33105888335E+03  0.50400001928E-02 0. -1.
    10030    2    1    2    0    0  0.00000000000E+00  0.00000000000E+00  0.13926349600E+04  0.20547527266E+04  0.15108198555E+04 0.  0.
        2    1    3    3  502    0  0.39552431968E+03 -0.55249957758E+03  0.11452264497E+04  0.13316301633E+04  0.25500000920E-02 0.  1.
       -2    1    3    3    0  502 -0.39552431968E+03  0.55249957758E+03  0.24740851031E+03  0.72312256338E+03  0.25500000920E-02 0. -1.
</event>
<event>
 5   0  0.1792000E-04  0.1501036E+04  0.7818609E-02  0.8883764E-01
       -3   -1    0    0    0  501  0.00000000000E+00  0.00000000000E+00  0.57503502066E+03  0.57503502953E+03  0.10100000352E+00 0. -1.
        3   -1    0    0  501    0  0.00000000000E+00  0.00000000000E+00 -0.97955283515E+03  0.97955284035E+03  0.10100000352E+00 0.  1.
    10030    2    1    2    0    0  0.00000000000E+00  0.00000000000E+00 -0.40451781448E+03  0.15545878699E+04  0.15010359033E+04 0.  0.
        5    1    3    3  502    0 -0.24240574520E+03 -0.23700764850E+03 -0.89571535158E+03  0.95773756939E+03  0.46999998093E+01 0.  1.
       -5    1    3    3    0  502  0.24240574520E+03  0.23700764850E+03  0.49119753710E+03  0.59685030050E+03  0.46999998093E+01 0. -1.
</event>
<event>
 5   0  0.4948645E-04  0.1499882E+04  0.7818609E-02  0.8884532E-01
       -2   -1    0    0    0  501  0.00000000000E+00  0.00000000000E+00  0.29152069163E+03  0.29152069165E+03  0.25500000920E-02 0. -1.
        2   -1    0    0  501    0  0.00000000000E+00  0.00000000000E+00 -0.19292331461E+04  0.19292331461E+04  0.25500000920E-02 0.  1.
    10030    2    1    2    0    0  0.00000000000E+00  0.00000000000E+00 -0.16377124544E+04  0.22207538377E+04  0.14998818368E+04 0.  0.
        1    1    3    3  502    0  0.26089048162E+03 -0.44245993180E+03 -0.98136718675E+01  0.51374209758E+03  0.50400001928E-02 0. -1.
       -1    1    3    3    0  502 -0.26089048162E+03  0.44245993180E+03 -0.16278987826E+04  0.17070117401E+04  0.50400001928E-02 0.  1.
</event>
<event>
 5   0  0.4768387E-04  0.1491315E+04  0.7818609E-02  0.8890249E-01
       -2   -1    0    0    0  501  0.00000000000E+00  0.00000000000E+00  0.48169468914E+03  0.48169468915E+03  0.25500000920E-02 0. -1.
        2   -1    0    0  501    0  0.00000000000E+00  0.00000000000E+00 -0.11542692180E+04  0.11542692180E+04  0.25500000920E-02 0.  1.
    10030    2    1    2    0    0  0.00000000000E+00  0.00000000000E+00 -0.67257452887E+03  0.16359639072E+04  0.14913153284E+04 0.  0.
        3    1    3    3  502    0 -0.48309447576E+03 -0.35918421491E+03 -0.81897927778E+03  0.10164254229E+04  0.10100000352E+00 0.  1.
       -3    1    3    3    0  502  0.48309447576E+03  0.35918421491E+03  0.14640474891E+03  0.61953848424E+03  0.10100000352E+00 0. -1.
</event>
<event>
 5   0  0.4948645E-04  0.1480622E+04  0.7818609E-02  0.8897442E-01
       -2   -1    0    0    0  501  0.00000000000E+00  0.00000000000E+00  0.51707577482E+03  0.51707577482E+03  0.25500000920E-02 0.  1.
        2   -1    0    0  501    0  0.00000000000E+00  0.00000000000E+00 -0.10599227422E+04  0.10599227423E+04  0.25500000920E-02 0. -1.
    10030    2    1    2    0    0  0.00000000000E+00  0.00000000000E+00 -0.54284696743E+03  0.15769985171E+04  0.14806219952E+04 0.  0.
        1    1    3    3  502    0 -0.62502656646E+03 -0.39536791614E+03 -0.30652913424E+03  0.80058360467E+03  0.50400001928E-02 0.  1.
       -1    1    3    3    0  502  0.62502656646E+03  0.39536791614E+03 -0.23631783319E+03  0.77641491241E+03  0.50400001928E-02 0. -1.
</event>
<event>
 5   0  0.4768387E-04  0.1504182E+04  0.7818609E-02  0.8881677E-01
       -2   -1    0    0    0  501  0.00000000000E+00  0.00000000000E+00  0.80319845400E+03  0.80319845400E+03  0.25500000920E-02 0. -1.
        2   -1    0    0  501    0  0.00000000000E+00  0.00000000000E+00 -0.70423540539E+03  0.70423540539E+03  0.25500000920E-02 0.  1.
    10030    2    1    2    0    0  0.00000000000E+00  0.00000000000E+00  0.98963048610E+02  0.15074338594E+04  0.15041818891E+04 0.  0.
        3    1    3    3  502    0 -0.15970220364E+03 -0.44271142125E+03 -0.53842342628E+03  0.71512096355E+03  0.10100000352E+00 0.  1.
       -3    1    3    3    0  502  0.15970220364E+03  0.44271142125E+03  0.63738647489E+03  0.79231289584E+03  0.10100000352E+00 0. -1.
</event>
<event>
 5   0  0.4726600E-04  0.1499893E+04  0.7818609E-02  0.8884524E-01
       -2   -1    0    0    0  501  0.00000000000E+00  0.00000000000E+00  0.63742144973E+03  0.63742144974E+03  0.25500000920E-02 0.  1.
        2   -1    0    0  501    0  0.00000000000E+00  0.00000000000E+00 -0.88233608193E+03  0.88233608194E+03  0.25500000920E-02 0. -1.
    10030    2    1    2    0    0  0.00000000000E+00  0.00000000000E+00 -0.24491463220E+03  0.15197575317E+04  0.14998932555E+04 0.  0.
        2    1    3    3  502    0  0.44753278784E+03 -0.52596826270E+03  0.17380472964E+03  0.71213502484E+03  0.25500000920E-02 0.  1.
       -2    1    3    3    0  502 -0.44753278784E+03  0.52596826270E+03 -0.41871936184E+03  0.80762250683E+03  0.25500000920E-02 0. -1.
</event>
<event>
 5   0  0.4948645E-04  0.1499848E+04  0.7818609E-02  0.8884554E-01
       -2   -1    0    0    0  501  0.00000000000E+00  0.00000000000E+00  0.22463887782E+03  0.22463887784E+03  0.25500000920E-02 0.  1.
        2   -1    0    0  501    0  0.00000000000E+00  0.00000000000E+00 -0.25035104315E+04  0.25035104315E+04  0.25500000920E-02 0. -1.
    10030    2    1    2    0    0  0.00000000000E+00  0.00000000000E+00 -0.22788715536E+04  0.27281493093E+04  0.14998476909E+04 0.  0.
        1    1    3    3  502    0  0.57485992820E+03 -0.14981142467E+03 -0.19719479132E+04  0.20594868226E+04  0.50400001928E-02 0. -1.
       -1    1    3    3    0  502 -0.57485992820E+03  0.14981142467E+03 -0.30692364038E+03  0.66866248666E+03  0.50400001928E-02 0.  1.
</event>
<event>
 5   0  0.2565416E-04  0.1494562E+04  0.7818609E-02  0.8888077E-01
        1   -1    0    0  501    0  0.00000000000E+00  0.00000000000E+00  0.71205129282E+03  0.71205129283E+03  0.50400001928E-02 0. -1.
       -1   -1    0    0    0  501  0.00000000000E+00  0.00000000000E+00 -0.78425416609E+03  0.78425416611E+03  0.50400001928E-02 0.  1.
    10030    2    1    2    0    0  0.00000000000E+00  0.00000000000E+00 -0.72202873276E+02  0.14963054589E+04  0.14945624014E+04 0.  0.
        5    1    3    3  502    0 -0.74443015783E+03 -0.60491029449E+02 -0.60039118043E+02  0.74930782074E+03  0.46999998093E+01 0. -1.
       -5    1    3    3    0  502  0.74443015783E+03  0.60491029449E+02 -0.12163755233E+02  0.74699763820E+03  0.46999998093E+01 0.  1.
</event>
<event>
 5   0  0.2565416E-04  0.1512058E+04  0.7818609E-02  0.8876474E-01
       -1   -1    0    0    0  501  0.00000000000E+00  0.00000000000E+00  0.35564024123E+03  0.35564024126E+03  0.50400001928E-02 0.  1.
        1   -1    0    0  501    0  0.00000000000E+00  0.00000000000E+00 -0.16071857044E+04  0.16071857044E+04  0.50400001928E-02 0. -1.
    10030    2    1    2    0    0  0.00000000000E+00  0.00000000000E+00 -0.12515454632E+04  0.19628259457E+04  0.15120580831E+04 0.  0.
        5    1    3    3  502    0  0.20522913182E+03  0.68966387833E+03 -0.32466993700E+03  0.78942252287E+03  0.46999998093E+01 0. -1.
       -5    1    3    3    0  502 -0.20522913182E+03 -0.68966387833E+03 -0.92687552616E+03  0.11734034228E+04  0.46999998093E+01 0.  1.
</event>
<event>
 5   0  0.4726600E-04  0.1492564E+04  0.7818609E-02  0.8889413E-01
        2   -1    0    0  501    0  0.00000000000E+00  0.00000000000E+00  0.78593066575E+03  0.78593066575E+03  0.25500000920E-02 0.  1.
       -2   -1    0    0    0  501  0.00000000000E+00  0.00000000000E+00 -0.70863394864E+03  0.70863394864E+03  0.25500000920E-02 0. -1.
    10030    2    1    2    0    0  0.00000000000E+00  0.00000000000E+00  0.77296717111E+02  0.14945646144E+04  0.14925644389E+04 0.  0.
        2    1    3    3  502    0  0.94921480097E+02 -0.66380153959E+03 -0.28934911377E+03  0.73031875301E+03  0.25500000920E-02 0. -1.
       -2    1    3    3    0  502 -0.94921480097E+02  0.66380153959E+03  0.36664583088E+03  0.76424586139E+03  0.25500000920E-02 0.  1.
</event>
<event>
 5   0  0.2605471E-04  0.1527541E+04  0.7818609E-02  0.8866342E-01
       -1   -1    0    0    0  501  0.00000000000E+00  0.00000000000E+00  0.10985280548E+04  0.10985280548E+04  0.50400001928E-02 0. -1.
        1   -1    0    0  501    0  0.00000000000E+00  0.00000000000E+00 -0.53102446815E+03  0.53102446818E+03  0.50400001928E-02 0.  1.
    10030    2    1    2    0    0  0.00000000000E+00  0.00000000000E+00  0.56750358663E+03  0.16295525230E+04  0.15275408683E+04 0.  0.
        3    1    3    3  502    0 -0.69639866817E+03  0.27814439741E+03  0.12912418001E+03  0.76092606402E+03  0.10100000352E+00 0. -1.
       -3    1    3    3    0  502  0.69639866817E+03 -0.27814439741E+03  0.43837940662E+03  0.86862645895E+03  0.10100000352E+00 0.  1.
</event>
<event>
 5   0  0.2565416E-04  0.1501753E+04  0.7818609E-02  0.8883288E-01
       -1   -1    0    0    0  501  0.00000000000E+00  0.00000000000E+00  0.34533310996E+03  0.34533311000E+03  0.50400001928E-02 0. -1.
        1   -1    0    0  501    0  0.00000000000E+00  0.00000000000E+00 -0.16326713999E+04  0.16326713999E+04  0.50400001928E-02 0.  1.
    10030    2    1    2    0    0  0.00000000000E+00  0.00000000000E+00 -0.12873382899E+04  0.19780045099E+04  0.15017529652E+04 0.  0.
        5    1    3    3  502    0  0.54615471513E+03 -0.12615935650E+03 -0.13016970693E+04  0.14172644447E+04  0.46999998093E+01 0.  1.
       -5    1    3    3    0  502 -0.54615471513E+03  0.12615935650E+03  0.14358779412E+02  0.56074006512E+03  0.46999998093E+01 0. -1.
</event>
<event>
 5   0  0.4569211E-04  0.1503671E+04  0.7818609E-02  0.8882016E-01
        2   -1    0    0  501    0  0.00000000000E+00  0.00000000000E+00  0.15868499680E+04  0.15868499680E+04  0.25500000920E-02 0. -1.
       -2   -1    0    0    0  501  0.00000000000E+00  0.00000000000E+00 -0.35621288753E+03  0.35621288754E+03  0.25500000920E-02 0.  1.
    10030    2    1    2    0    0  0.00000000000E+00  0.00000000000E+00  0.12306370805E+04  0.19430628555E+04  0.15036707208E+04 0.  0.
        5    1    3    3  502    0 -0.14244336735E+03  0.15143666232E+03  0.15489468100E+04  0.15628440376E+04  0.46999998093E+01 0. -1.
       -5    1    3    3    0  502  0.14244336735E+03 -0.15143666232E+03 -0.31830972955E+03  0.38021881794E+03  0.46999998093E+01 0.  1.
</event>
<event>
 5   0  0.4768387E-04  0.1413369E+04  0.7818609E-02  0.8944198E-01
       -2   -1    0    0    0  501  0.00000000000E+00  0.00000000000E+00  0.69970433798E+03  0.69970433798E+03  0.25500000920E-02 0. -1.
        2   -1    0    0  501    0  0.00000000000E+00  0.00000000000E+00 -0.71373451226E+03  0.71373451226E+03  0.25500000920E-02 0.  1.
    10030    2    1    2    0    0  0.00000000000E+00  0.00000000000E+00 -0.14030174280E+02  0.14134388502E+04  0.14133692149E+04 0.  0.
        3    1    3    3  502    0 -0.57131998580E+03  0.19302839926E+03  0.36142759588E+03  0.70306216393E+03  0.10100000352E+00 0. -1.
       -3    1    3    3    0  502  0.57131998580E+03 -0.19302839926E+03 -0.37545777016E+03  0.71037668632E+03  0.10100000352E+00 0.  1.
</event>
<event>
 5   0  0.2565416E-04  0.1499464E+04  0.7818609E-02  0.8884809E-01
        1   -1    0    0  501    0  0.00000000000E+00  0.00000000000E+00  0.12443012161E+04  0.12443012162E+04  0.50400001928E-02 0.  1.
       -1   -1    0    0    0  501  0.00000000000E+00  0.00000000000E+00 -0.45173824394E+03  0.45173824397E+03  0.50400001928E-02 0. -1.
    10030    2    1    2    0    0  0.00000000000E+00  0.00000000000E+00  0.79256297220E+03  0.16960394601E+04  0.14994644995E+04 0.  0.
        5    1    3    3  502    0  0.11547545255E+03 -0.39190737682E+03 -0.31473712476E+03  0.51575916846E+03  0.46999998093E+01 0. -1.
       -5    1    3    3    0  502 -0.11547545255E+03  0.39190737682E+03  0.11073000970E+04  0.11802802917E+04  0.46999998093E+01 0.  1.
</event>
<event>
 5   0  0.4726600E-04  0.1492751E+04  0.7818609E-02  0.8889288E-01
        2   -1    0    0  501    0  0.00000000000E+00  0.00000000000E+00  0.95757031570E+03  0.95757031570E+03  0.25500000920E-02 0. -1.
       -2   -1    0    0    0  501  0.00000000000E+00  0.00000000000E+00 -0.58176055748E+03  0.58176055749E+03  0.25500000920E-02 0.  1.
    10030    2    1    2    0    0  0.00000000000E+00  0.00000000000E+00  0.37580975821E+03  0.15393308732E+04  0.14927513399E+04 0.  0.
        2    1    3    3  502    0  0.37539946588E+03  0.72803880663E+02  0.84888277493E+03  0.93103551468E+03  0.25500000920E-02 0. -1.
       -2    1    3    3    0  502 -0.37539946588E+03 -0.72803880663E+02 -0.47307301672E+03  0.60829535850E+03  0.25500000920E-02 0.  1.
</event>
<event>
 5   0  0.2542737E-04  0.1511476E+04  0.7818609E-02  0.8876857E-01
        1   -1    0    0  501    0  0.00000000000E+00  0.00000000000E+00  0.83936175336E+03  0.83936175337E+03  0.50400001928E-02 0.  1.
       -1   -1    0    0    0  501  0.00000000000E+00  0.00000000000E+00 -0.68044537188E+03  0.68044537189E+03  0.50400001928E-02 0. -1.
    10030    2    1    2    0    0  0.00000000000E+00  0.00000000000E+00  0.15891638148E+03  0.15198071253E+04  0.15114758621E+04 0.  0.
        1    1    3    3  502    0 -0.70382538230E+03  0.25039247318E+03  0.19442678631E+03  0.77192508358E+03  0.50400001928E-02 0. -1.
       -1    1    3    3    0  502  0.70382538230E+03 -0.25039247318E+03 -0.35510404826E+02  0.74788204169E+03  0.50400001928E-02 0.  1.
</event>
<event>
 5   0  0.1792000E-04  0.1522753E+04  0.7818609E-02  0.8869462E-01
       -3   -1    0    0    0  501  0.00000000000E+00  0.00000000000E+00  0.54363188799E+03  0.54363189737E+03  0.10100000352E+00 0.  1.
        3   -1    0    0  501    0  0.00000000000E+00  0.00000000000E+00 -0.10663359805E+04  0.10663359853E+04  0.10100000352E+00 0. -1.
    10030    2    1    2    0    0  0.00000000000E+00  0.00000000000E+00 -0.52270409256E+03  0.16099678827E+04  0.15227531037E+04 0.  0.
        1    1    3    3  502    0  0.40133380535E+03  0.21407864036E+03 -0.90689211584E+03  0.10145697597E+04  0.50400001928E-02 0. -1.
       -1    1    3    3    0  502 -0.40133380535E+03 -0.21407864036E+03  0.38418802328E+03  0.59539812297E+03  0.50400001928E-02 0.  1.
</event>
<event>
 5   0  0.4768387E-04  0.1500584E+04  0.7818609E-02  0.8884065E-01
       -2   -1    0    0    0  501  0.00000000000E+00  0.00000000000E+00  0.36667600603E+03  0.36667600603E+03  0.25500000920E-02 0. -1.
        2   -1    0    0  501    0  0.00000000000E+00  0.00000000000E+00 -0.15352455708E+04  0.15352455708E+04  0.25500000920E-02 0.  1.
    10030    2    1    2    0    0  0.00000000000E+00  0.00000000000E+00 -0.11685695648E+04  0.19019215768E+04  0.15005835054E+04 0.  0.
        3    1    3    3  502    0  0.17284557966E+03 -0.54327028737E+03 -0.12025110595E+04  0.13308084227E+04  0.10100000352E+00 0.  1.
       -3    1    3    3    0  502 -0.17284557966E+03  0.54327028737E+03  0.33941494719E+02  0.57111315413E+03  0.10100000352E+00 0. -1.
</event>
<event>
 5   0  0.2603873E-04  0.1509656E+04  0.7818609E-02  0.8878057E-01
       -1   -1    0    0    0  501  0.00000000000E+00  0.00000000000E+00  0.17936317466E+04  0.17936317466E+04  0.50400001928E-02 0.  1.
        1   -1    0    0  501    0  0.00000000000E+00  0.00000000000E+00 -0.31766030641E+03  0.31766030645E+03  0.50400001928E-02 0. -1.
    10030    2    1    2    0    0  0.00000000000E+00  0.00000000000E+00  0.14759714402E+04  0.21112920530E+04  0.15096563983E+04 0.  0.
        2    1    3    3  502    0 -0.20566924964E+02 -0.57685279836E+03  0.14182260729E+04  0.15311914783E+04  0.25500000920E-02 0.  1.
       -2    1    3    3    0  502  0.20566924964E+02  0.57685279836E+03  0.57745367279E+02  0.58010057475E+03  0.25500000920E-02 0. -1.
</event>
<event>
 5   0  0.2605471E-04  0.1455283E+04  0.7818609E-02  0.8914746E-01
       -1   -1    0    0    0  501  0.00000000000E+00  0.00000000000E+00  0.18565046433E+03  0.18565046440E+03  0.50400001928E-02 0. -1.
        1   -1    0    0  501    0  0.00000000000E+00  0.00000000000E+00 -0.28519302424E+04  0.28519302424E+04  0.50400001928E-02 0.  1.
    10030    2    1    2    0    0  0.00000000000E+00  0.00000000000E+00 -0.26662797780E+04  0.30375807068E+04  0.14552830293E+04 0.  0.
        3    1    3    3  502    0 -0.49140091927E+03  0.38266256292E+03 -0.54782194825E+03  0.82946633308E+03  0.10100000352E+00 0. -1.
       -3    1    3    3    0  502  0.49140091927E+03 -0.38266256292E+03 -0.21184578298E+04  0.22081143737E+04  0.10100000352E+00 0.  1.
</event>
<event>
 5   0  0.2565416E-04  0.1504802E+04  0.7818609E-02  0.8881266E-01
       -1   -1    0    0    0  501  0.00000000000E+00  0.00000000000E+00  0.57077961856E+03  0.57077961858E+03  0.50400001928E-02 0. -1.
        1   -1    0    0  501    0  0.00000000000E+00  0.00000000000E+00 -0.99181412375E+03  0.99181412376E+03  0.50400001928E-02 0.  1.
    10030    2    1    2    0    0  0.00000000000E+00  0.00000000000E+00 -0.42103450519E+03  0.15625937423E+04  0.15048020299E+04 0.  0.
        5    1    3    3  502    0  0.59942696722E+02  0.13139283496E+03 -0.97727078445E+03  0.98789548036E+03  0.46999998093E+01 0.  1.
       -5    1    3    3    0  502 -0.59942696722E+02 -0.13139283496E+03  0.55623627926E+03  0.57469826199E+03  0.46999998093E+01 0. -1.
</event>
<event>
 5   0  0.2603873E-04  0.1498730E+04  0.7818609E-02  0.8885298E-01
        1   -1    0    0  501    0  0.00000000000E+00  0.00000000000E+00  0.12043229343E+04  0.12043229343E+04  0.50400001928E-02 0. -1.
       -1   -1    0    0    0  501  0.00000000000E+00  0.00000000000E+00 -0.46627674044E+03  0.46627674047E+03  0.50400001928E-02 0.  1.
    10030    2    1    2    0    0  0.00000000000E+00  0.00000000000E+00  0.73804619386E+03  0.16705996748E+04  0.14987298253E+04 0.  0.
        2    1    3    3  502    0  0.25702628691E+03 -0.36600248038E+03 -0.30120044435E+03  0.53920500322E+03  0.25500000920E-02 0.  1.
       -2    1    3    3    0  502 -0.25702628691E+03  0.36600248038E+03  0.10392466382E+04  0.11313946716E+04  0.25500000920E-02 0. -1.
</event>
<event>
 5   0  0.4785496E-04  0.1460141E+04  0.7818609E-02  0.8911400E-01
        2   -1    0    0  501    0  0.00000000000E+00  0.00000000000E+00  0.13900122801E+04  0.13900122801E+04  0.25500000920E-02 0.  1.
       -2   -1    0    0    0  501  0.00000000000E+00  0.00000000000E+00 -0.38345183790E+03  0.38345183791E+03  0.25500000920E-02 0. -1.
    10030    2    1    2    0    0  0.00000000000E+00  0.00000000000E+00  0.10065604422E+04  0.17734641180E+04  0.14601407652E+04 0.  0.
        4    1    3    3  502    0 -0.86903534347E+02  0.55481705284E+03  0.10698899560E+04  0.12083212806E+04  0.12699999809E+01 0.  1.
       -4    1    3    3    0  502  0.86903534347E+02 -0.55481705284E+03 -0.63329513809E+02  0.56514283737E+03  0.12699999809E+01 0. -1.
</event>
<event>
 5   0  0.2544374E-04  0.1506030E+04  0.7818609E-02  0.8880453E-01
        1   -1    0    0  501    0  0.00000000000E+00  0.00000000000E+00  0.52383045434E+03  0.52383045436E+03  0.50400001928E-02 0.  1.
       -1   -1    0    0    0  501  0.00000000000E+00  0.00000000000E+00 -0.10824714533E+04  0.10824714533E+04  0.50400001928E-02 0. -1.
    10030    2    1    2    0    0  0.00000000000E+00  0.00000000000E+00 -0.55864099899E+03  0.16063019077E+04  0.15060298978E+04 0.  0.
        4    1    3    3  502    0  0.69074698951E+02 -0.64610367676E+03  0.12655309407E+03  0.66199590156E+03  0.12699999809E+01 0.  1.
       -4    1    3    3    0  502 -0.69074698951E+02  0.64610367676E+03 -0.68519409307E+03  0.94430600614E+03  0.12699999809E+01 0. -1.
</event>
<event>
 5   0  0.2605471E-04  0.1506509E+04  0.7818609E-02  0.8880136E-01
        1   -1    0    0  501    0  0.00000000000E+00  0.00000000000E+00  0.42143321497E+03  0.42143321500E+03  0.50400001928E-02 0. -1.
       -1   -1    0    0    0  501  0.00000000000E+00  0.00000000000E+00 -0.13463403163E+04  0.13463403163E+04  0.50400001928E-02 0.  1.
    10030    2    1    2    0    0  0.00000000000E+00  0.00000000000E+00 -0.92490710131E+03  0.17677735313E+04  0.15065092472E+04 0.  0.
        3    1    3    3  502    0  0.43896096065E+03 -0.43639417176E+03  0.41252693603E+02  0.62034538207E+03  0.10100000352E+00 0. -1.
       -3    1    3    3    0  502 -0.43896096065E+03  0.43639417176E+03 -0.96615979491E+03  0.11474281492E+04  0.10100000352E+00 0.  1.
</event>
<event>
 5   0  0.1792000E-04  0.1496088E+04  0.7818609E-02  0.8887058E-01
       -4   -1    0    0    0  501  0.00000000000E+00  0.00000000000E+00  0.58890946525E+03  0.58891083464E+03  0.12699999809E+01 0.  1.
        4   -1    0    0  501    0  0.00000000000E+00  0.00000000000E+00 -0.95017702283E+03  0.95017787156E+03  0.12699999809E+01 0. -1.
    10030    2    1    2    0    0  0.00000000000E+00  0.00000000000E+00 -0.36126755758E+03  0.15390887062E+04  0.14960881650E+04 0.  0.
        4    1    3    3  502    0 -0.72183607054E+03 -0.18686241756E+03 -0.24238795807E+03  0.78403980189E+03  0.12699999809E+01 0.  1.
       -4    1    3    3    0  502  0.72183607054E+03  0.18686241756E+03 -0.11887959951E+03  0.75504890432E+03  0.12699999809E+01 0. -1.
</event>
<event>
 5   0  0.4948645E-04  0.1457137E+04  0.7818609E-02  0.8913468E-01
        2   -1    0    0  501    0  0.00000000000E+00  0.00000000000E+00  0.90462290295E+03  0.90462290295E+03  0.25500000920E-02 0.  1.
       -2   -1    0    0    0  501  0.00000000000E+00  0.00000000000E+00 -0.58677677276E+03  0.58677677276E+03  0.25500000920E-02 0. -1.
    10030    2    1    2    0    0  0.00000000000E+00  0.00000000000E+00  0.31784613019E+03  0.14913996757E+04  0.14571365174E+04 0.  0.
        1    1    3    3  502    0 -0.40884832950E+03  0.25017107751E+03  0.72052287759E+03  0.86538762513E+03  0.50400001928E-02 0.  1.
       -1    1    3    3    0  502  0.40884832950E+03 -0.25017107751E+03 -0.40267674740E+03  0.62601205059E+03  0.50400001928E-02 0. -1.
</event>
<event>
 5   0  0.4768387E-04  0.1500295E+04  0.7818609E-02  0.8884257E-01
        2   -1    0    0  501    0  0.00000000000E+00  0.00000000000E+00  0.14676253941E+04  0.14676253941E+04  0.25500000920E-02 0.  1.
       -2   -1    0    0    0  501  0.00000000000E+00  0.00000000000E+00 -0.38342293388E+03  0.38342293389E+03  0.25500000920E-02 0. -1.
    10030    2    1    2    0    0  0.00000000000E+00  0.00000000000E+00  0.10842024602E+04  0.18510483280E+04  0.15002949503E+04 0.  0.
        3    1    3    3  502    0 -0.38779014803E+03  0.33766720816E+03  0.12159818043E+04  0.13202318361E+04  0.10100000352E+00 0.  1.
       -3    1    3    3    0  502  0.38779014803E+03 -0.33766720816E+03 -0.13177934409E+03  0.53081649193E+03  0.10100000352E+00 0. -1.
</event>
<event>
 5   0  0.4768387E-04  0.1492271E+04  0.7818609E-02  0.8889609E-01
       -2   -1    0    0    0  501  0.00000000000E+00  0.00000000000E+00  0.29959503395E+03  0.29959503396E+03  0.25500000920E-02 0.  1.
        2   -1    0    0  501    0  0.00000000000E+00  0.00000000000E+00 -0.18582366371E+04  0.18582366371E+04  0.25500000920E-02 0. -1.
    10030    2    1    2    0    0  0.00000000000E+00  0.00000000000E+00 -0.15586416031E+04  0.21578316711E+04  0.14922713807E+04 0.  0.
        3    1    3    3  502    0 -0.30625817736E+03  0.14449149403E+03 -0.17407200492E+04  0.17733522389E+04  0.10100000352E+00 0. -1.
       -3    1    3    3    0  502  0.30625817736E+03 -0.14449149403E+03  0.18207844611E+03  0.38447943219E+03  0.10100000352E+00 0.  1.
</event>
<event>
 5   0  0.2544374E-04  0.1504392E+04  0.7818609E-02  0.8881538E-01
        1   -1    0    0  501    0  0.00000000000E+00  0.00000000000E+00  0.40442855813E+03  0.40442855816E+03  0.50400001928E-02 0. -1.
       -1   -1    0    0    0  501  0.00000000000E+00  0.00000000000E+00 -0.13990072737E+04  0.13990072737E+04  0.50400001928E-02 0.  1.
    10030    2    1    2    0    0  0.00000000000E+00  0.00000000000E+00 -0.99457871559E+03  0.18034358319E+04  0.15043915641E+04 0.  0.
        4    1    3    3  502    0 -0.15569974333E+03  0.65610962953E+03 -0.89681736944E+03  0.11220540375E+04  0.12699999809E+01 0.  1.
       -4    1    3    3    0  502  0.15569974333E+03 -0.65610962953E+03 -0.97761346158E+02  0.68138179440E+03  0.12699999809E+01 0. -1.
</event>
<event>
 5   0  0.4948645E-04  0.1619519E+04  0.7818609E-02  0.8808646E-01
        2   -1    0    0  501    0  0.00000000000E+00  0.00000000000E+00  0.93442075604E+03  0.93442075604E+03  0.25500000920E-02 0. -1.
       -2   -1    0    0    0  501  0.00000000000E+00  0.00000000000E+00 -0.70172953729E+03  0.70172953729E+03  0.25500000920E-02 0.  1.
    10030    2    1    2    0    0  0.00000000000E+00  0.00000000000E+00  0.23269121875E+03  0.16361502933E+04  0.16195192432E+04 0.  0.
        1    1    3    3  502    0  0.65067464331E+03 -0.25396922973E+03 -0.29753538207E+03  0.75921351720E+03  0.50400001928E-02 0.  1.
       -1    1    3    3    0  502 -0.65067464331E+03  0.25396922973E+03  0.53022660081E+03  0.87693677613E+03  0.50400001928E-02 0. -1.
</event>
<event>
 5   0  0.2603873E-04  0.1512428E+04  0.7818609E-02  0.8876230E-01
       -1   -1    0    0    0  501  0.00000000000E+00  0.00000000000E+00  0.77444587219E+03  0.77444587220E+03  0.50400001928E-02 0. -1.
        1   -1    0    0  501    0  0.00000000000E+00  0.00000000000E+00 -0.73841146074E+03  0.73841146075E+03  0.50400001928E-02 0.  1.
    10030    2    1    2    0    0  0.00000000000E+00  0.00000000000E+00  0.36034411451E+02  0.15128573330E+04  0.15124281243E+04 0.  0.
        2    1    3    3  502    0  0.20759904753E+03 -0.30243567985E+03 -0.64345330457E+03  0.74067324790E+03  0.25500000920E-02 0.  1.
       -2    1    3    3    0  502 -0.20759904753E+03  0.30243567985E+03  0.67948771603E+03  0.77218408506E+03  0.25500000920E-02 0. -1.
</event>
<event>
 5   0  0.2542737E-04  0.1499952E+04  0.7818609E-02  0.8884485E-01
       -1   -1    0    0    0  501  0.00000000000E+00  0.00000000000E+00  0.90566815794E+03  0.90566815795E+03  0.50400001928E-02 0. -1.
        1   -1    0    0  501    0  0.00000000000E+00  0.00000000000E+00 -0.62104831962E+03  0.62104831964E+03  0.50400001928E-02 0.  1.
    10030    2    1    2    0    0  0.00000000000E+00  0.00000000000E+00  0.28461983832E+03  0.15267164776E+04  0.14999515827E+04 0.  0.
        1    1    3    3  502    0  0.29894497790E+03 -0.56819676317E+03 -0.25222508401E+03  0.68980660661E+03  0.50400001928E-02 0.  1.
       -1    1    3    3    0  502 -0.29894497790E+03  0.56819676317E+03  0.53684492232E+03  0.83690987098E+03  0.50400001928E-02 0. -1.
</event>
<event>
 5   0  0.2565416E-04  0.1494177E+04  0.7818609E-02  0.8888334E-01
       -1   -1    0    0    0  501  0.00000000000E+00  0.00000000000E+00  0.10349597554E+04  0.10349597554E+04  0.50400001928E-02 0.  1.
        1   -1    0    0  501    0  0.00000000000E+00  0.00000000000E+00 -0.53928815709E+03  0.53928815711E+03  0.50400001928E-02 0. -1.
    10030    2    1    2    0    0  0.00000000000E+00  0.00000000000E+00  0.49567159829E+03  0.15742479125E+04  0.14941774181E+04 0.  0.
        5    1    3    3  502    0  0.73199027482E+02  0.53342444457E+03  0.79348849435E+03  0.95892951584E+03  0.46999998093E+01 0.  1.
       -5    1    3    3    0  502 -0.73199027482E+02 -0.53342444457E+03 -0.29781689606E+03  0.61531839666E+03  0.46999998093E+01 0. -1.
</event>
<event>
 5   0  0.4726600E-04  0.1497707E+04  0.7818609E-02  0.8885979E-01
       -2   -1    0    0    0  501  0.00000000000E+00  0.00000000000E+00  0.13551596972E+04  0.13551596972E+04  0.25500000920E-02 0. -1.
        2   -1    0    0  501    0  0.00000000000E+00  0.00000000000E+00 -0.41381211910E+03  0.41381211911E+03  0.25500000920E-02 0.  1.
    10030    2    1    2    0    0  0.00000000000E+00  0.00000000000E+00  0.94134757810E+03  0.17689718163E+04  0.14977069220E+04 0.  0.
        2    1    3    3  502    0  0.55557841038E+03 -0.75195356470E+01 -0.12231156723E+03  0.56893236240E+03  0.25500000920E-02 0.  1.
       -2    1    3    3    0  502 -0.55557841038E+03  0.75195356470E+01  0.10636591453E+04  0.12000394539E+04  0.25500000920E-02 0. -1.
</event>
<event>
 5   0  0.4948645E-04  0.1504905E+04  0.7818609E-02  0.8881198E-01
       -2   -1    0    0    0  501  0.00000000000E+00  0.00000000000E+00  0.27865251690E+03  0.27865251691E+03  0.25500000920E-02 0. -1.
        2   -1    0    0  501    0  0.00000000000E+00  0.00000000000E+00 -0.20318660351E+04  0.20318660351E+04  0.25500000920E-02 0.  1.
    10030    2    1    2    0    0  0.00000000000E+00  0.00000000000E+00 -0.17532135182E+04  0.23105185520E+04  0.15049047607E+04 0.  0.
        1    1    3    3  502    0 -0.43967468166E+02 -0.68723615041E+03 -0.13421875069E+04  0.15085403436E+04  0.50400001928E-02 0. -1.
       -1    1    3    3    0  502  0.43967468166E+02  0.68723615041E+03 -0.41102601126E+03  0.80197820833E+03  0.50400001928E-02 0.  1.
</event>
<event>
 5   0  0.4569211E-04  0.1486976E+04  0.7818609E-02  0.8893160E-01
       -2   -1    0    0    0  501  0.00000000000E+00  0.00000000000E+00  0.88280844678E+03  0.88280844679E+03  0.25500000920E-02 0. -1.
        2   -1    0    0  501    0  0.00000000000E+00  0.00000000000E+00 -0.62615483304E+03  0.62615483305E+03  0.25500000920E-02 0.  1.
    10030    2    1    2    0    0  0.00000000000E+00  0.00000000000E+00  0.25665361374E+03  0.15089632798E+04  0.14869764969E+04 0.  0.
        5    1    3    3  502    0  0.59778271500E+03 -0.43486852182E+03  0.20885941373E+03  0.76817911344E+03  0.46999998093E+01 0.  1.
       -5    1    3    3    0  502 -0.59778271500E+03  0.43486852182E+03  0.47794200010E+02  0.74078416639E+03  0.46999998093E+01 0. -1.
</event>
<event>
 5   0  0.1792000E-04  0.1501884E+04  0.7818609E-02  0.8883201E-01
        3   -1    0    0  501    0  0.00000000000E+00  0.00000000000E+00  0.13121700311E+04  0.13121700350E+04  0.10100000352E+00 0.  1.
       -3   -1    0    0    0  501  0.00000000000E+00  0.00000000000E+00 -0.42975687422E+03  0.42975688608E+03  0.10100000352E+00 0. -1.
    10030    2    1    2    0    0  0.00000000000E+00  0.00000000000E+00  0.88241315693E+03  0.17419269211E+04  0.15018842895E+04 0.  0.
        2    1    3    3  502    0 -0.66868638256E+03 -0.34019386965E+03  0.40378964037E+03  0.85200904974E+03  0.25500000920E-02 0. -1.
       -2    1    3    3    0  502  0.66868638256E+03  0.34019386965E+03  0.47862351656E+03  0.88991787137E+03  0.25500000920E-02 0.  1.
</event>
<event>
 5   0  0.1792000E-04  0.1548761E+04  0.7818609E-02  0.8852659E-01
        4   -1    0    0  501    0  0.00000000000E+00  0.00000000000E+00  0.72866511311E+03  0.72866621986E+03  0.12699999809E+01 0.  1.
       -4   -1    0    0    0  501  0.00000000000E+00  0.00000000000E+00 -0.82296199659E+03  0.82296297652E+03  0.12699999809E+01 0. -1.
    10030    2    1    2    0    0  0.00000000000E+00  0.00000000000E+00 -0.94296883479E+02  0.15516291964E+04  0.15487612020E+04 0.  0.
        2    1    3    3  502    0  0.84962773709E+02 -0.76902179802E+03 -0.79644851924E+02  0.77778949671E+03  0.25500000920E-02 0.  1.
       -2    1    3    3    0  502 -0.84962773709E+02  0.76902179802E+03 -0.14652031554E+02  0.77383969967E+03  0.25500000920E-02 0. -1.
</event>
<event>
 5   0  0.4785496E-04  0.1443490E+04  0.7818609E-02  0.8922926E-01
        2   -1    0    0  501    0  0.00000000000E+00  0.00000000000E+00  0.58043914523E+03  0.58043914524E+03  0.25500000920E-02 0. -1.
       -2   -1    0    0    0  501  0.00000000000E+00  0.00000000000E+00 -0.89745160576E+03  0.89745160576E+03  0.25500000920E-02 0.  1.
    10030    2    1    2    0    0  0.00000000000E+00  0.00000000000E+00 -0.31701246053E+03  0.14778907510E+04  0.14434902742E+04 0.  0.
        4    1    3    3  502    0  0.58363333488E+03 -0.33822068978E+03 -0.42132064529E+03  0.79531993790E+03  0.12699999809E+01 0.  1.
       -4    1    3    3    0  502 -0.58363333488E+03  0.33822068978E+03  0.10430818476E+03  0.68257081310E+03  0.12699999809E+01 0. -1.
</event>
<event>
 5   0  0.4948645E-04  0.1489199E+04  0.7818609E-02  0.8891667E-01
        2   -1    0    0  501    0  0.00000000000E+00  0.00000000000E+00  0.93773673726E+03  0.93773673726E+03  0.25500000920E-02 0. -1.
       -2   -1    0    0    0  501  0.00000000000E+00  0.00000000000E+00 -0.59124105376E+03  0.59124105376E+03  0.25500000920E-02 0.  1.
    10030    2    1    2    0    0  0.00000000000E+00  0.00000000000E+00  0.34649568350E+03  0.15289777910E+04  0.14891990554E+04 0.  0.
        1    1    3    3  502    0  0.13668083193E+03 -0.66678515262E+03 -0.13671764646E+03  0.69424477272E+03  0.50400001928E-02 0.  1.
       -1    1    3    3    0  502 -0.13668083193E+03  0.66678515262E+03  0.48321332996E+03  0.83473301830E+03  0.50400001928E-02 0. -1.
</event>
<event>
 5   0  0.2542737E-04  0.1506395E+04  0.7818609E-02  0.8880211E-01
       -1   -1    0    0    0  501  0.00000000000E+00  0.00000000000E+00  0.61890960989E+03  0.61890960991E+03  0.50400001928E-02 0.  1.
        1   -1    0    0  501    0  0.00000000000E+00  0.00000000000E+00 -0.91662300179E+03  0.91662300181E+03  0.50400001928E-02 0. -1.
    10030    2    1    2    0    0  0.00000000000E+00  0.00000000000E+00 -0.29771339190E+03  0.15355326117E+04  0.15063954122E+04 0.  0.
        1    1    3    3  502    0  0.45023470775E+03  0.59233663445E+03 -0.26831041322E+03  0.79092632934E+03  0.50400001928E-02 0. -1.
       -1    1    3    3    0  502 -0.45023470775E+03 -0.59233663445E+03 -0.29402978682E+02  0.74460628238E+03  0.50400001928E-02 0.  1.
</event>
<event>
 5   0  0.2565416E-04  0.1481455E+04  0.7818609E-02  0.8896880E-01
        1   -1    0    0  501    0  0.00000000000E+00  0.00000000000E+00  0.95278752852E+03  0.95278752854E+03  0.50400001928E-02 0.  1.
       -1   -1    0    0    0  501  0.00000000000E+00  0.00000000000E+00 -0.57586497792E+03  0.57586497794E+03  0.50400001928E-02 0. -1.
    10030    2    1    2    0    0  0.00000000000E+00  0.00000000000E+00  0.37692255061E+03  0.15286525065E+04  0.14814546488E+04 0.  0.
        5    1    3    3  502    0 -0.64403951959E+03 -0.14688551337E+03 -0.15731566216E+03  0.67906742257E+03  0.46999998093E+01 0. -1.
       -5    1    3    3    0  502  0.64403951959E+03  0.14688551337E+03  0.53423821277E+03  0.84958508391E+03  0.46999998093E+01 0.  1.
</event>
<event>
 5   0  0.4569211E-04  0.1471433E+04  0.7818609E-02  0.8903675E-01
        2   -1    0    0  501    0  0.00000000000E+00  0.00000000000E+00  0.11269707824E+04  0.11269707824E+04  0.25500000920E-02 0. -1.
       -2   -1    0    0    0  501  0.00000000000E+00  0.00000000000E+00 -0.48029523058E+03  0.48029523059E+03  0.25500000920E-02 0.  1.
    10030    2    1    2    0    0  0.00000000000E+00  0.00000000000E+00  0.64667555181E+03  0.16072660130E+04  0.14714328959E+04 0.  0.
        5    1    3    3  502    0 -0.56594145787E+03  0.25984262780E+02 -0.18934219826E+03  0.59735874790E+03  0.46999998093E+01 0.  1.
       -5    1    3    3    0  502  0.56594145787E+03 -0.25984262780E+02  0.83601775007E+03  0.10099072651E+04  0.46999998093E+01 0. -1.
</event>
<event>
 5   0  0.4569211E-04  0.1481784E+04  0.7818609E-02  0.8896657E-01
       -2   -1    0    0    0  501  0.00000000000E+00  0.00000000000E+00  0.55335028516E+03  0.55335028517E+03  0.25500000920E-02 0. -1.
        2   -1    0    0  501    0  0.00000000000E+00  0.00000000000E+00 -0.99199547631E+03  0.99199547631E+03  0.25500000920E-02 0.  1.
    10030    2    1    2    0    0  0.00000000000E+00  0.00000000000E+00 -0.43864519114E+03  0.15453457615E+04  0.14817840324E+04 0.  0.
        5    1    3    3  502    0  0.40528438256E+03  0.60188404050E+03 -0.63309274321E+02  0.72838862098E+03  0.46999998093E+01 0. -1.
       -5    1    3    3    0  502 -0.40528438256E+03 -0.60188404050E+03 -0.37533591682E+03  0.81695714050E+03  0.46999998093E+01 0.  1.
</event>
<event>
 5   0  0.4569211E-04  0.1500771E+04  0.7818609E-02  0.8883941E-01
        2   -1    0    0  501    0  0.00000000000E+00  0.00000000000E+00  0.14010413573E+04  0.14010413573E+04  0.25500000920E-02 0.  1.
       -2   -1    0    0    0  501  0.00000000000E+00  0.00000000000E+00 -0.40189967796E+03  0.40189967797E+03  0.25500000920E-02 0. -1.
    10030    2    1    2    0    0  0.00000000000E+00  0.00000000000E+00  0.99914167935E+03  0.18029410353E+04  0.15007705625E+04 0.  0.
        5    1    3    3  502    0 -0.44016031765E+03 -0.51808815900E+03  0.11796782015E+03  0.68999633501E+03  0.46999998093E+01 0. -1.
       -5    1    3    3    0  502  0.44016031765E+03  0.51808815900E+03  0.88117385919E+03  0.11129447003E+04  0.46999998093E+01 0.  1.
</event>
<event>
 5   0  0.4785496E-04  0.1495530E+04  0.7818609E-02  0.8887431E-01
       -2   -1    0    0    0  501  0.00000000000E+00  0.00000000000E+00  0.70640260260E+03  0.70640260261E+03  0.25500000920E-02 0. -1.
        2   -1    0    0  501    0  0.00000000000E+00  0.00000000000E+00 -0.79154886281E+03  0.79154886282E+03  0.25500000920E-02 0.  1.
    10030    2    1    2    0    0  0.00000000000E+00  0.00000000000E+00 -0.85146260212E+02  0.14979514654E+04  0.14955295741E+04 0.  0.
        4    1    3    3  502    0 -0.24883634722E+03  0.61923877846E+03  0.29527767559E+03  0.72977168420E+03  0.12699999809E+01 0. -1.
       -4    1    3    3    0  502  0.24883634722E+03 -0.61923877846E+03 -0.38042393580E+03  0.76817978123E+03  0.12699999809E+01 0.  1.
</event>
<event>
 5   0  0.4785496E-04  0.1507648E+04  0.7818609E-02  0.8879383E-01
       -2   -1    0    0    0  501  0.00000000000E+00  0.00000000000E+00  0.97686203728E+03  0.97686203729E+03  0.25500000920E-02 0.  1.
        2   -1    0    0  501    0  0.00000000000E+00  0.00000000000E+00 -0.58171036077E+03  0.58171036077E+03  0.25500000920E-02 0. -1.
    10030    2    1    2    0    0  0.00000000000E+00  0.00000000000E+00  0.39515167652E+03  0.15585723981E+04  0.15076481926E+04 0.  0.
        4    1    3    3  502    0  0.44066856686E+03 -0.50199145734E+03 -0.16360312854E+03  0.68771491596E+03  0.12699999809E+01 0. -1.
       -4    1    3    3    0  502 -0.44066856686E+03  0.50199145734E+03  0.55875480506E+03  0.87085748210E+03  0.12699999809E+01 0.  1.
</event>
<event>
 5   0  0.2565416E-04  0.1488492E+04  0.7818609E-02  0.8892142E-01
       -1   -1    0    0    0  501  0.00000000000E+00  0.00000000000E+00  0.47839129236E+03  0.47839129239E+03  0.50400001928E-02 0.  1.
        1   -1    0    0  501    0  0.00000000000E+00  0.00000000000E+00 -0.11578428083E+04  0.11578428083E+04  0.50400001928E-02 0. -1.
    10030    2    1    2    0    0  0.00000000000E+00  0.00000000000E+00 -0.67945151593E+03  0.16362341007E+04  0.14884917433E+04 0.  0.
        5    1    3    3  502    0  0.16532802513E+03 -0.33934489907E+03  0.36533520943E+03  0.52533819742E+03  0.46999998093E+01 0.  1.
       -5    1    3    3    0  502 -0.16532802513E+03  0.33934489907E+03 -0.10447867254E+04  0.11108959033E+04  0.46999998093E+01 0. -1.
</event>
<event>
 5   0  0.4768387E-04  0.1499344E+04  0.7818609E-02  0.8884889E-01
       -2   -1    0    0    0  501  0.00000000000E+00  0.00000000000E+00  0.73101440769E+03  0.73101440770E+03  0.25500000920E-02 0.  1.
        2   -1    0    0  501    0  0.00000000000E+00  0.00000000000E+00 -0.76880579828E+03  0.76880579828E+03  0.25500000920E-02 0. -1.
    10030    2    1    2    0    0  0.00000000000E+00  0.00000000000E+00 -0.37791390582E+02  0.14998202060E+04  0.14993440102E+04 0.  0.
        3    1    3    3  502    0 -0.15475874250E+03  0.30940198912E+03  0.64639315907E+03  0.73314663305E+03  0.10100000352E+00 0.  1.
       -3    1    3    3    0  502  0.15475874250E+03 -0.30940198912E+03 -0.68418454965E+03  0.76667357293E+03  0.10100000352E+00 0. -1.
</event>
<event>
 5   0  0.4726600E-04  0.1493258E+04  0.7818609E-02  0.8888948E-01
        2   -1    0    0  501    0  0.00000000000E+00  0.00000000000E+00  0.85474744252E+03  0.85474744252E+03  0.25500000920E-02 0. -1.
       -2   -1    0    0    0  501  0.00000000000E+00  0.00000000000E+00 -0.65218691076E+03  0.65218691077E+03  0.25500000920E-02 0.  1.
    10030    2    1    2    0    0  0.00000000000E+00  0.00000000000E+00  0.20256053175E+03  0.15069343533E+04  0.14932583086E+04 0.  0.
        2    1    3    3  502    0 -0.65283384506E+03  0.50350318731E+01 -0.26430503089E+03  0.70432558534E+03  0.25500000920E-02 0. -1.
       -2    1    3    3    0  502  0.65283384506E+03 -0.50350318731E+01  0.46686556264E+03  0.80260876795E+03  0.25500000920E-02 0.  1.
</event>
<event>
 5   0  0.2542737E-04  0.1500609E+04  0.7818609E-02  0.8884048E-01
        1   -1    0    0  501    0  0.00000000000E+00  0.00000000000E+00  0.21793506099E+04  0.21793506099E+04  0.50400001928E-02 0. -1.
       -1   -1    0    0    0  501  0.00000000000E+00  0.00000000000E+00 -0.25831417561E+03  0.25831417565E+03  0.50400001928E-02 0.  1.
    10030    2    1    2    0    0  0.00000000000E+00  0.00000000000E+00  0.19210364343E+04  0.24376647855E+04  0.15006094178E+04 0.  0.
        1    1    3    3  502    0 -0.10176773666E+03 -0.72679258647E+03  0.70691136115E+03  0.10189738998E+04  0.50400001928E-02 0.  1.
       -1    1    3    3    0  502  0.10176773666E+03  0.72679258647E+03  0.12141250731E+04  0.14186908857E+04  0.50400001928E-02 0. -1.
</event>
<event>
 5   0  0.4569211E-04  0.1604366E+04  0.7818609E-02  0.8817870E-01
       -2   -1    0    0    0  501  0.00000000000E+00  0.00000000000E+00  0.15119758414E+04  0.15119758414E+04  0.25500000920E-02 0. -1.
        2   -1    0    0  501    0  0.00000000000E+00  0.00000000000E+00 -0.42560036823E+03  0.42560036824E+03  0.25500000920E-02 0.  1.
    10030    2    1    2    0    0  0.00000000000E+00  0.00000000000E+00  0.10863754731E+04  0.19375762096E+04  0.16043658870E+04 0.  0.
        5    1    3    3  502    0  0.42079327413E+01 -0.47267504215E+03  0.13258936632E+04  0.14076418217E+04  0.46999998093E+01 0. -1.
       -5    1    3    3    0  502 -0.42079327413E+01  0.47267504215E+03 -0.23951819001E+03  0.52993438793E+03  0.46999998093E+01 0.  1.
</event>
<event>
 5   0  0.4726600E-04  0.1517054E+04  0.7818609E-02  0.8873191E-01
        2   -1    0    0  501    0  0.00000000000E+00  0.00000000000E+00  0.14185523423E+04  0.14185523423E+04  0.25500000920E-02 0. -1.
       -2   -1    0    0    0  501  0.00000000000E+00  0.00000000000E+00 -0.40559898978E+03  0.40559898979E+03  0.25500000920E-02 0.  1.
    10030    2    1    2    0    0  0.00000000000E+00  0.00000000000E+00  0.10129533525E+04  0.18241513321E+04  0.15170542469E+04 0.  0.
        2    1    3    3  502    0  0.93124954382E+02  0.23154186081E+03 -0.35481864549E+03  0.43379737393E+03  0.25500000920E-02 0.  1.
       -2    1    3    3    0  502 -0.93124954382E+02 -0.23154186081E+03  0.13677719980E+04  0.13903539581E+04  0.25500000920E-02 0. -1.
</event>
<event>
 5   0  0.2542737E-04  0.1517257E+04  0.7818609E-02  0.8873058E-01
       -1   -1    0    0    0  501  0.00000000000E+00  0.00000000000E+00  0.77233803002E+03  0.77233803003E+03  0.50400001928E-02 0.  1.
        1   -1    0    0  501    0  0.00000000000E+00  0.00000000000E+00 -0.74516243322E+03  0.74516243323E+03  0.50400001928E-02 0. -1.
    10030    2    1    2    0    0  0.00000000000E+00  0.00000000000E+00  0.27175596800E+02  0.15175004633E+04  0.15172571117E+04 0.  0.
        1    1    3    3  502    0  0.18879680531E+02  0.21749655129E+03 -0.71306578613E+03  0.74573722419E+03  0.50400001928E-02 0. -1.
       -1    1    3    3    0  502 -0.18879680531E+02 -0.21749655129E+03  0.74024138293E+03  0.77176323908E+03  0.50400001928E-02 0.  1.
</event>
<event>
 5   0  0.4569211E-04  0.1474908E+04  0.7818609E-02  0.8901312E-01
        2   -1    0    0  501    0  0.00000000000E+00  0.00000000000E+00  0.10394056290E+04  0.10394056290E+04  0.25500000920E-02 0. -1.
       -2   -1    0    0    0  501  0.00000000000E+00  0.00000000000E+00 -0.52322089154E+03  0.52322089155E+03  0.25500000920E-02 0.  1.
    10030    2    1    2    0    0  0.00000000000E+00  0.00000000000E+00  0.51618473742E+03  0.15626265205E+04  0.14749084580E+04 0.  0.
        5    1    3    3  502    0 -0.16343142316E+03 -0.66877363649E+03  0.53809951213E+03  0.87380843547E+03  0.46999998093E+01 0. -1.
       -5    1    3    3    0  502  0.16343142316E+03  0.66877363649E+03 -0.21914774714E+02  0.68881808505E+03  0.46999998093E+01 0.  1.
</event>
<event>
 5   0  0.4569211E-04  0.1509696E+04  0.7818609E-02  0.8878030E-01
       -2   -1    0    0    0  501  0.00000000000E+00  0.00000000000E+00  0.28406549970E+03  0.28406549971E+03  0.25500000920E-02 0.  1.
        2   -1    0    0  501    0  0.00000000000E+00  0.00000000000E+00 -0.20058604683E+04  0.20058604683E+04  0.25500000920E-02 0. -1.
    10030    2    1    2    0    0  0.00000000000E+00  0.00000000000E+00 -0.17217949686E+04  0.22899259680E+04  0.15096963354E+04 0.  0.
        5    1    3    3  502    0  0.82508510480E+02  0.41582696975E+03 -0.18082119685E+04  0.18572485929E+04  0.46999998093E+01 0. -1.
       -5    1    3    3    0  502 -0.82508510480E+02 -0.41582696975E+03  0.86416999834E+02  0.43267737511E+03  0.46999998093E+01 0.  1.
</event>
<event>
 5   0  0.4768387E-04  0.1501106E+04  0.7818609E-02  0.8883718E-01
        2   -1    0    0  501    0  0.00000000000E+00  0.00000000000E+00  0.20126320284E+04  0.20126320284E+04  0.25500000920E-02 0.  1.
       -2   -1    0    0    0  501  0.00000000000E+00  0.00000000000E+00 -0.27989691399E+03  0.27989691401E+03  0.25500000920E-02 0. -1.
    10030    2    1    2    0    0  0.00000000000E+00  0.00000000000E+00  0.17327351144E+04  0.22925289424E+04  0.15011055842E+04 0.  0.
        3    1    3    3  502    0 -0.23107895469E+03 -0.28880155855E+03 -0.13104807035E+03  0.39239958010E+03  0.10100000352E+00 0. -1.
       -3    1    3    3    0  502  0.23107895469E+03  0.28880155855E+03  0.18637831847E+04  0.19001293623E+04  0.10100000352E+00 0.  1.
</event>
<event>
 5   0  0.1792000E-04  0.1510828E+04  0.7818609E-02  0.8877284E-01
       -4   -1    0    0    0  501  0.00000000000E+00  0.00000000000E+00  0.45590446305E+03  0.45590623194E+03  0.12699999809E+01 0. -1.
        4   -1    0    0  501    0  0.00000000000E+00  0.00000000000E+00 -0.12516838937E+04  0.12516845380E+04  0.12699999809E+01 0.  1.
    10030    2    1    2    0    0  0.00000000000E+00  0.00000000000E+00 -0.79577943067E+03  0.17075907699E+04  0.15108280297E+04 0.  0.
        5    1    3    3  502    0  0.36961432867E+03 -0.50787544970E+03 -0.87215230779E+03  0.10748134547E+04  0.46999998093E+01 0.  1.
       -5    1    3    3    0  502 -0.36961432867E+03  0.50787544970E+03  0.76372877127E+02  0.63277731527E+03  0.46999998093E+01 0. -1.
</event>
<event>
 5   0  0.2565416E-04  0.1502284E+04  0.7818609E-02  0.8882936E-01
       -1   -1    0    0    0  501  0.00000000000E+00  0.00000000000E+00  0.29522737527E+03  0.29522737532E+03  0.50400001928E-02 0. -1.
        1   -1    0    0  501    0  0.00000000000E+00  0.00000000000E+00 -0.19111166489E+04  0.19111166489E+04  0.50400001928E-02 0.  1.
    10030    2    1    2    0    0  0.00000000000E+00  0.00000000000E+00 -0.16158892736E+04  0.22063440242E+04  0.15022835314E+04 0.  0.
        5    1    3    3  502    0 -0.57701196800E+03  0.48070252137E+03 -0.82732521430E+03  0.11173660213E+04  0.46999998093E+01 0. -1.
       -5    1    3    3    0  502  0.57701196800E+03 -0.48070252137E+03 -0.78856405932E+03  0.10889780030E+04  0.46999998093E+01 0.  1.
</event>
<event>
 5   0  0.4726600E-04  0.1505384E+04  0.7818609E-02  0.8880880E-01
        2   -1    0    0  501    0  0.00000000000E+00  0.00000000000E+00  0.12828256488E+04  0.12828256488E+04  0.25500000920E-02 0.  1.
       -2   -1    0    0    0  501  0.00000000000E+00  0.00000000000E+00 -0.44163873314E+03  0.44163873315E+03  0.25500000920E-02 0. -1.
    10030    2    1    2    0    0  0.00000000000E+00  0.00000000000E+00  0.84118691571E+03  0.17244643820E+04  0.15053843289E+04 0.  0.
        2    1    3    3  502    0 -0.58266862819E+03  0.38386366421E+03  0.97213793239E+02  0.70448886761E+03  0.25500000920E-02 0. -1.
       -2    1    3    3    0  502  0.58266862819E+03 -0.38386366421E+03  0.74397312247E+03  0.10199755144E+04  0.25500000920E-02 0.  1.
</event>
<event>
 5   0  0.4948645E-04  0.1503864E+04  0.7818609E-02  0.8881888E-01
        2   -1    0    0  501    0  0.00000000000E+00  0.00000000000E+00  0.70180910149E+03  0.70180910149E+03  0.25500000920E-02 0. -1.
       -2   -1    0    0    0  501  0.00000000000E+00  0.00000000000E+00 -0.80563414251E+03  0.80563414251E+03  0.25500000920E-02 0.  1.
    10030    2    1    2    0    0  0.00000000000E+00  0.00000000000E+00 -0.10382504102E+03  0.15074432440E+04  0.15038635226E+04 0.  0.
        1    1    3    3  502    0 -0.39246616594E+03 -0.49583613170E+03 -0.45972023636E+03  0.78180934802E+03  0.50400001928E-02 0.  1.
       -1    1    3    3    0  502  0.39246616594E+03  0.49583613170E+03  0.35589519534E+03  0.72563389598E+03  0.50400001928E-02 0. -1.
</event>
<event>
 5   0  0.2603873E-04  0.1520095E+04  0.7818609E-02  0.8871199E-01
       -1   -1    0    0    0  501  0.00000000000E+00  0.00000000000E+00  0.41930150715E+03  0.41930150718E+03  0.50400001928E-02 0. -1.
        1   -1    0    0  501    0  0.00000000000E+00  0.00000000000E+00 -0.13777005569E+04  0.13777005569E+04  0.50400001928E-02 0.  1.
    10030    2    1    2    0    0  0.00000000000E+00  0.00000000000E+00 -0.95839904972E+03  0.17970020641E+04  0.15200946285E+04 0.  0.
        2    1    3    3  502    0  0.67228403271E+03  0.19831425147E+03 -0.82663839962E+03  0.10838013687E+04  0.25500000920E-02 0.  1.
       -2    1    3    3    0  502 -0.67228403271E+03 -0.19831425147E+03 -0.13176065010E+03  0.71320069539E+03  0.25500000920E-02 0. -1.
</event>
<event>
 5   0  0.2605471E-04  0.1495171E+04  0.7818609E-02  0.8887670E-01
        1   -1    0    0  501    0  0.00000000000E+00  0.00000000000E+00  0.73994115615E+03  0.73994115616E+03  0.50400001928E-02 0.  1.
       -1   -1    0    0    0  501  0.00000000000E+00  0.00000000000E+00 -0.75530918510E+03  0.75530918511E+03  0.50400001928E-02 0. -1.
    10030    2    1    2    0    0  0.00000000000E+00  0.00000000000E+00 -0.15368028952E+02  0.14952503413E+04  0.14951713637E+04 0.  0.
        3    1    3    3  502    0  0.52920765536E+03 -0.44135049041E+03 -0.29758437914E+03  0.75060473672E+03  0.10100000352E+00 0. -1.
       -3    1    3    3    0  502 -0.52920765536E+03  0.44135049041E+03  0.28221635019E+03  0.74464560456E+03  0.10100000352E+00 0.  1.
</event>
<event>
 5   0  0.4726600E-04  0.1508982E+04  0.7818609E-02  0.8878502E-01
        2   -1    0    0  501    0  0.00000000000E+00  0.00000000000E+00  0.23272569070E+04  0.23272569070E+04  0.25500000920E-02 0.  1.
       -2   -1    0    0    0  501  0.00000000000E+00  0.00000000000E+00 -0.24460403292E+03  0.24460403294E+03  0.25500000920E-02 0. -1.
    10030    2    1    2    0    0  0.00000000000E+00  0.00000000000E+00  0.20826528741E+04  0.25718609400E+04  0.15089816767E+04 0.  0.
        2    1    3    3  502    0  0.61987140738E+03 -0.41019378632E+03  0.82069843672E+03  0.11072693566E+04  0.25500000920E-02 0. -1.
       -2    1    3    3    0  502 -0.61987140738E+03  0.41019378632E+03  0.12619544374E+04  0.14645915834E+04  0.25500000920E-02 0.  1.
</event>
<event>
 5   0  0.2542737E-04  0.1526411E+04  0.7818609E-02  0.8867078E-01
        1   -1    0    0  501    0  0.00000000000E+00  0.00000000000E+00  0.16569718460E+04  0.16569718461E+04  0.50400001928E-02 0.  1.
       -1   -1    0    0    0  501  0.00000000000E+00  0.00000000000E+00 -0.35153429829E+03  0.35153429832E+03  0.50400001928E-02 0. -1.
    10030    2    1    2    0    0  0.00000000000E+00  0.00000000000E+00  0.13054375478E+04  0.20085061444E+04  0.15264107379E+04 0.  0.
        1    1    3    3  502    0 -0.37792206278E+02  0.45686324536E+03  0.14556269127E+04  0.15261068065E+04  0.50400001928E-02 0.  1.
       -1    1    3    3    0  502  0.37792206278E+02 -0.45686324536E+03 -0.15018936495E+03  0.48239933788E+03  0.50400001928E-02 0. -1.
</event>
<event>
 5   0  0.2542737E-04  0.1494007E+04  0.7818609E-02  0.8888448E-01
        1   -1    0    0  501    0  0.00000000000E+00  0.00000000000E+00  0.91321023389E+03  0.91321023390E+03  0.50400001928E-02 0. -1.
       -1   -1    0    0    0  501  0.00000000000E+00  0.00000000000E+00 -0.61104694504E+03  0.61104694506E+03  0.50400001928E-02 0.  1.
    10030    2    1    2    0    0  0.00000000000E+00  0.00000000000E+00  0.30216328885E+03  0.15242571790E+04  0.14940071267E+04 0.  0.
        1    1    3    3  502    0  0.11288543674E+03 -0.66836679113E+03  0.47137607959E+03  0.82562261219E+03  0.50400001928E-02 0. -1.
       -1    1    3    3    0  502 -0.11288543674E+03  0.66836679113E+03 -0.16921279074E+03  0.69863456677E+03  0.50400001928E-02 0.  1.
</event>
<event>
 5   0  0.2603873E-04  0.1469210E+04  0.7818609E-02  0.8905190E-01
        1   -1    0    0  501    0  0.00000000000E+00  0.00000000000E+00  0.89322687958E+03  0.89322687959E+03  0.50400001928E-02 0.  1.
       -1   -1    0    0    0  501  0.00000000000E+00  0.00000000000E+00 -0.60415144359E+03  0.60415144362E+03  0.50400001928E-02 0. -1.
    10030    2    1    2    0    0  0.00000000000E+00  0.00000000000E+00  0.28907543598E+03  0.14973783232E+04  0.14692097315E+04 0.  0.
        2    1    3    3  502    0 -0.49670009748E+03 -0.27815010736E+03  0.61773006877E+03  0.84004101503E+03  0.25500000920E-02 0.  1.
       -2    1    3    3    0  502  0.49670009748E+03  0.27815010736E+03 -0.32865463279E+03  0.65733730818E+03  0.25500000920E-02 0. -1.
</event>
<event>
 5   0  0.4785496E-04  0.1498401E+04  0.7818609E-02  0.8885517E-01
       -2   -1    0    0    0  501  0.00000000000E+00  0.00000000000E+00  0.57036019772E+03  0.57036019772E+03  0.25500000920E-02 0. -1.
        2   -1    0    0  501    0  0.00000000000E+00  0.00000000000E+00 -0.98411687832E+03  0.98411687832E+03  0.25500000920E-02 0.  1.
    10030    2    1    2    0    0  0.00000000000E+00  0.00000000000E+00 -0.41375668060E+03  0.15544770760E+04  0.14984006104E+04 0.  0.
        4    1    3    3  502    0 -0.92568439889E+02  0.50610494569E+03 -0.77185879812E+03  0.92761993794E+03  0.12699999809E+01 0.  1.
       -4    1    3    3    0  502  0.92568439889E+02 -0.50610494569E+03  0.35810211752E+03  0.62685713810E+03  0.12699999809E+01 0. -1.
</event>
<event>
 5   0  0.4569211E-04  0.1508746E+04  0.7818609E-02  0.8878658E-01
       -2   -1    0    0    0  501  0.00000000000E+00  0.00000000000E+00  0.94561793477E+03  0.94561793477E+03  0.25500000920E-02 0.  1.
        2   -1    0    0  501    0  0.00000000000E+00  0.00000000000E+00 -0.60180578251E+03  0.60180578252E+03  0.25500000920E-02 0. -1.
    10030    2    1    2    0    0  0.00000000000E+00  0.00000000000E+00  0.34381215226E+03  0.15474237173E+04  0.15087456263E+04 0.  0.
        5    1    3    3  502    0  0.53950723265E+03 -0.52716468307E+03  0.16241719519E+03  0.77160358504E+03  0.46999998093E+01 0. -1.
       -5    1    3    3    0  502 -0.53950723265E+03  0.52716468307E+03  0.18139495707E+03  0.77582013225E+03  0.46999998093E+01 0.  1.
</event>
<event>
 5   0  0.4785496E-04  0.1628411E+04  0.7818609E-02  0.8803282E-01
       -2   -1    0    0    0  501  0.00000000000E+00  0.00000000000E+00  0.47480978487E+03  0.47480978487E+03  0.25500000920E-02 0.  1.
        2   -1    0    0  501    0  0.00000000000E+00  0.00000000000E+00 -0.13962019516E+04  0.13962019516E+04  0.25500000920E-02 0. -1.
    10030    2    1    2    0    0  0.00000000000E+00  0.00000000000E+00 -0.92139216671E+03  0.18710117365E+04  0.16284106955E+04 0.  0.
        4    1    3    3  502    0  0.17246937410E+03 -0.12444251010E+03 -0.13637222835E+04  0.13802071231E+04  0.12699999809E+01 0. -1.
       -4    1    3    3    0  502 -0.17246937410E+03  0.12444251010E+03  0.44233011680E+03  0.49080461331E+03  0.12699999809E+01 0.  1.
</event>
<event>
 5   0  0.4948645E-04  0.1500951E+04  0.7818609E-02  0.8883821E-01
       -2   -1    0    0    0  501  0.00000000000E+00  0.00000000000E+00  0.15099579654E+04  0.15099579654E+04  0.25500000920E-02 0. -1.
        2   -1    0    0  501    0  0.00000000000E+00  0.00000000000E+00 -0.37299955497E+03  0.37299955498E+03  0.25500000920E-02 0.  1.
    10030    2    1    2    0    0  0.00000000000E+00  0.00000000000E+00  0.11369584104E+04  0.18829575204E+04  0.15009512306E+04 0.  0.
        1    1    3    3  502    0 -0.16758017599E+03  0.71078549019E+03  0.78545683730E+03  0.10724931570E+04  0.50400001928E-02 0.  1.
       -1    1    3    3    0  502  0.16758017599E+03 -0.71078549019E+03  0.35150157314E+03  0.81046436343E+03  0.50400001928E-02 0. -1.
</event>
<event>
 5   0  0.4569211E-04  0.1493070E+04  0.7818609E-02  0.8889074E-01
        2   -1    0    0  501    0  0.00000000000E+00  0.00000000000E+00  0.74030832305E+03  0.74030832305E+03  0.25500000920E-02 0. -1.
       -2   -1    0    0    0  501  0.00000000000E+00  0.00000000000E+00 -0.75281423704E+03  0.75281423705E+03  0.25500000920E-02 0.  1.
    10030    2    1    2    0    0  0.00000000000E+00  0.00000000000E+00 -0.12505913994E+02  0.14931225601E+04  0.14930701864E+04 0.  0.
        5    1    3    3  502    0  0.56804162585E+03 -0.44956608176E+03  0.17406311480E+03  0.74505101067E+03  0.46999998093E+01 0. -1.
       -5    1    3    3    0  502 -0.56804162585E+03  0.44956608176E+03 -0.18656902880E+03  0.74807154943E+03  0.46999998093E+01 0.  1.
</event>
<event>
 5   0  0.4768387E-04  0.1444312E+04  0.7818609E-02  0.8922354E-01
       -2   -1    0    0    0  501  0.00000000000E+00  0.00000000000E+00  0.60129796518E+03  0.60129796518E+03  0.25500000920E-02 0.  1.
        2   -1    0    0  501    0  0.00000000000E+00  0.00000000000E+00 -0.86730533032E+03  0.86730533033E+03  0.25500000920E-02 0. -1.
    10030    2    1    2    0    0  0.00000000000E+00  0.00000000000E+00 -0.26600736515E+03  0.14686032955E+04  0.14443115042E+04 0.  0.
        3    1    3    3  502    0 -0.40998121804E+03 -0.10251732664E+03 -0.72844170622E+03  0.84215303299E+03  0.10100000352E+00 0. -1.
       -3    1    3    3    0  502  0.40998121804E+03  0.10251732664E+03  0.46243434108E+03  0.62645026252E+03  0.10100000352E+00 0.  1.
</event>
<event>
 5   0  0.4785496E-04  0.1508043E+04  0.7818609E-02  0.8879122E-01
       -2   -1    0    0    0  501  0.00000000000E+00  0.00000000000E+00  0.39105481219E+03  0.39105481219E+03  0.25500000920E-02 0. -1.
        2   -1    0    0  501    0  0.00000000000E+00  0.00000000000E+00 -0.14538846268E+04  0.14538846268E+04  0.25500000920E-02 0.  1.
    10030    2    1    2    0    0  0.00000000000E+00  0.00000000000E+00 -0.10628298146E+04  0.18449394390E+04  0.15080432085E+04 0.  0.
        4    1    3    3  502    0  0.41272302750E+03  0.71218823779E+02  0.23566204704E+03  0.48057323230E+03  0.12699999809E+01 0. -1.
       -4    1    3    3    0  502 -0.41272302750E+03 -0.71218823779E+02 -0.12984918617E+04  0.13643662067E+04  0.12699999809E+01 0.  1.
</event>
<event>
 5   0  0.2605471E-04  0.1507169E+04  0.7818609E-02  0.8879699E-01
        1   -1    0    0  501    0  0.00000000000E+00  0.00000000000E+00  0.56838921372E+03  0.56838921374E+03  0.50400001928E-02 0.  1.
       -1   -1    0    0    0  501  0.00000000000E+00  0.00000000000E+00 -0.99912133803E+03  0.99912133805E+03  0.50400001928E-02 0. -1.
    10030    2    1    2    0    0  0.00000000000E+00  0.00000000000E+00 -0.43073212431E+03  0.15675105518E+04  0.15071692563E+04 0.  0.
        3    1    3    3  502    0 -0.61544370922E+03 -0.11536010341E+03 -0.65145122076E+03  0.90358597594E+03  0.10100000352E+00 0. -1.
       -3    1    3    3    0  502  0.61544370922E+03  0.11536010341E+03  0.22071909644E+03  0.66392457585E+03  0.10100000352E+00 0.  1.
</event>
<event>
 5   0  0.2603873E-04  0.1498047E+04  0.7818609E-02  0.8885753E-01
        1   -1    0    0  501    0  0.00000000000E+00  0.00000000000E+00  0.10487549425E+04  0.10487549425E+04  0.50400001928E-02 0. -1.
       -1   -1    0    0    0  501  0.00000000000E+00  0.00000000000E+00 -0.53495453280E+03  0.53495453283E+03  0.50400001928E-02 0.  1.
    10030    2    1    2    0    0  0.00000000000E+00  0.00000000000E+00  0.51380040966E+03  0.15837094753E+04  0.14980470090E+04 0.  0.
        2    1    3    3  502    0 -0.29996763979E+03  0.50535191292E+03 -0.23406424510E+03  0.63257190236E+03  0.25500000920E-02 0.  1.
       -2    1    3    3    0  502  0.29996763979E+03 -0.50535191292E+03  0.74786465477E+03  0.95113757294E+03  0.25500000920E-02 0. -1.
</event>
<event>
 5   0  0.2605471E-04  0.1509575E+04  0.7818609E-02  0.8878111E-01
        1   -1    0    0  501    0  0.00000000000E+00  0.00000000000E+00  0.16927958880E+04  0.16927958880E+04  0.50400001928E-02 0.  1.
       -1   -1    0    0    0  501  0.00000000000E+00  0.00000000000E+00 -0.33654608955E+03  0.33654608959E+03  0.50400001928E-02 0. -1.
    10030    2    1    2    0    0  0.00000000000E+00  0.00000000000E+00  0.13562497984E+04  0.20293419776E+04  0.15095745580E+04 0.  0.
        3    1    3    3  502    0  0.61270705606E+03  0.39741650415E+03  0.93444156476E+03  0.11859725387E+04  0.10100000352E+00 0.  1.
       -3    1    3    3    0  502 -0.61270705606E+03 -0.39741650415E+03  0.42180823367E+03  0.84336943892E+03  0.10100000352E+00 0. -1.
</event>
<event>
 5   0  0.4785496E-04  0.1499352E+04  0.7818609E-02  0.8884884E-01
       -2   -1    0    0    0  501  0.00000000000E+00  0.00000000000E+00  0.11522953518E+04  0.11522953518E+04  0.25500000920E-02 0. -1.
        2   -1    0    0  501    0  0.00000000000E+00  0.00000000000E+00 -0.48773422925E+03  0.48773422926E+03  0.25500000920E-02 0.  1.
    10030    2    1    2    0    0  0.00000000000E+00  0.00000000000E+00  0.66456112252E+03  0.16400295810E+04  0.14993517069E+04 0.  0.
        4    1    3    3  502    0  0.12580208647E+03  0.57252532504E+03 -0.17890118201E+03  0.61287736016E+03  0.12699999809E+01 0.  1.
       -4    1    3    3    0  502 -0.12580208647E+03 -0.57252532504E+03  0.84346230454E+03  0.10271522209E+04  0.12699999809E+01 0. -1.
</event>
<event>
 5   0  0.2542737E-04  0.1508916E+04  0.7818609E-02  0.8878545E-01
        1   -1    0    0  501    0  0.00000000000E+00  0.00000000000E+00  0.10190726884E+04  0.10190726884E+04  0.50400001928E-02 0. -1.
       -1   -1    0    0    0  501  0.00000000000E+00  0.00000000000E+00 -0.55855397081E+03  0.55855397084E+03  0.50400001928E-02 0.  1.
    10030    2    1    2    0    0  0.00000000000E+00  0.00000000000E+00  0.46051871758E+03  0.15776266592E+04  0.15089162955E+04 0.  0.
        1    1    3    3  502    0 -0.44117770871E+03  0.30819841149E+03  0.78309307095E+03  0.95018881771E+03  0.50400001928E-02 0. -1.
       -1    1    3    3    0  502  0.44117770871E+03 -0.30819841149E+03 -0.32257435337E+03  0.62743784153E+03  0.50400001928E-02 0.  1.
</event>
<event>
 5   0  0.2565416E-04  0.1580786E+04  0.7818609E-02  0.8832440E-01
        1   -1    0    0  501    0  0.00000000000E+00  0.00000000000E+00  0.65167814089E+03  0.65167814091E+03  0.50400001928E-02 0.  1.
       -1   -1    0    0    0  501  0.00000000000E+00  0.00000000000E+00 -0.95863422793E+03  0.95863422794E+03  0.50400001928E-02 0. -1.
    10030    2    1    2    0    0  0.00000000000E+00  0.00000000000E+00 -0.30695608704E+03  0.16103123689E+04  0.15807858444E+04 0.  0.
        5    1    3    3  502    0 -0.62348376383E+02 -0.26521072964E+03  0.60232010494E+03  0.66108671894E+03  0.46999998093E+01 0.  1.
       -5    1    3    3    0  502  0.62348376383E+02  0.26521072964E+03 -0.90927619198E+03  0.94922564991E+03  0.46999998093E+01 0. -1.
</event>
<event>
 5   0  0.2542737E-04  0.1488187E+04  0.7818609E-02  0.8892346E-01
       -1   -1    0    0    0  501  0.00000000000E+00  0.00000000000E+00  0.91754578165E+03  0.91754578167E+03  0.50400001928E-02 0. -1.
        1   -1    0    0  501    0  0.00000000000E+00  0.00000000000E+00 -0.60343078041E+03  0.60343078043E+03  0.50400001928E-02 0.  1.
    10030    2    1    2    0    0  0.00000000000E+00  0.00000000000E+00  0.31411500124E+03  0.15209765621E+04  0.14881873096E+04 0.  0.
        1    1    3    3  502    0 -0.68909841557E+03  0.27150129029E+03  0.23008667724E+03  0.77557040689E+03  0.50400001928E-02 0. -1.
       -1    1    3    3    0  502  0.68909841557E+03 -0.27150129029E+03  0.84028324003E+02  0.74540615521E+03  0.50400001928E-02 0.  1.
</event>
<event>
 5   0  0.2603873E-04  0.1488674E+04  0.7818609E-02  0.8892019E-01
       -1   -1    0    0    0  501  0.00000000000E+00  0.00000000000E+00  0.31491226321E+03  0.31491226325E+03  0.50400001928E-02 0. -1.
        1   -1    0    0  501    0  0.00000000000E+00  0.00000000000E+00 -0.17593401751E+04  0.17593401751E+04  0.50400001928E-02 0.  1.
    10030    2    1    2    0    0  0.00000000000E+00  0.00000000000E+00 -0.14444279119E+04  0.20742524384E+04  0.14886743047E+04 0.  0.
        2    1    3    3  502    0  0.53960295448E+03  0.10190203712E+03 -0.14223420282E+04  0.15246679044E+04  0.25500000920E-02 0.  1.
       -2    1    3    3    0  502 -0.53960295448E+03 -0.10190203712E+03 -0.22085883691E+02  0.54958453392E+03  0.25500000920E-02 0. -1.
</event>
<event>
 5   0  0.4569211E-04  0.1471701E+04  0.7818609E-02  0.8903493E-01
       -2   -1    0    0    0  501  0.00000000000E+00  0.00000000000E+00  0.36848179298E+03  0.36848179299E+03  0.25500000920E-02 0. -1.
        2   -1    0    0  501    0  0.00000000000E+00  0.00000000000E+00 -0.14694776379E+04  0.14694776379E+04  0.25500000920E-02 0.  1.
    10030    2    1    2    0    0  0.00000000000E+00  0.00000000000E+00 -0.11009958449E+04  0.18379594309E+04  0.14717007233E+04 0.  0.
        5    1    3    3  502    0  0.65779784019E+03  0.22907940732E+03 -0.84676737118E+03  0.10964544880E+04  0.46999998093E+01 0.  1.
       -5    1    3    3    0  502 -0.65779784019E+03 -0.22907940732E+03 -0.25422847372E+03  0.74150494284E+03  0.46999998093E+01 0. -1.
</event>
<event>
 5   0  0.4785496E-04  0.1534234E+04  0.7818609E-02  0.8862001E-01
        2   -1    0    0  501    0  0.00000000000E+00  0.00000000000E+00  0.66401962466E+03  0.66401962466E+03  0.25500000920E-02 0. -1.
       -2   -1    0    0    0  501  0.00000000000E+00  0.00000000000E+00 -0.88622199572E+03  0.88622199573E+03  0.25500000920E-02 0.  1.
    10030    2    1    2    0    0  0.00000000000E+00  0.00000000000E+00 -0.22220237107E+03  0.15502416204E+04  0.15342343980E+04 0.  0.
        4    1    3    3  502    0 -0.50423585081E+03  0.12950596386E+03 -0.68039910162E+03  0.85672057189E+03  0.12699999809E+01 0.  1.
       -4    1    3    3    0  502  0.50423585081E+03 -0.12950596386E+03  0.45819673055E+03  0.69352104850E+03  0.12699999809E+01 0. -1.
</event>
<event>
 5   0  0.2605471E-04  0.1499847E+04  0.7818609E-02  0.8884555E-01
        1   -1    0    0  501    0  0.00000000000E+00  0.00000000000E+00  0.75057194826E+03  0.75057194827E+03  0.50400001928E-02 0. -1.
       -1   -1    0    0    0  501  0.00000000000E+00  0.00000000000E+00 -0.74927535044E+03  0.74927535046E+03  0.50400001928E-02 0.  1.
    10030    2    1    2    0    0  0.00000000000E+00  0.00000000000E+00  0.12965978124E+01  0.14998472987E+04  0.14998467383E+04 0.  0.
        3    1    3    3  502    0 -0.54142157890E+03 -0.32488555131E+03 -0.40394683722E+03  0.74957388232E+03  0.10100000352E+00 0.  1.
       -3    1    3    3    0  502  0.54142157890E+03  0.32488555131E+03  0.40524343503E+03  0.75027341642E+03  0.10100000352E+00 0. -1.
</event>
<event>
 5   0  0.2603873E-04  0.1502597E+04  0.7818609E-02  0.8882728E-01
        1   -1    0    0  501    0  0.00000000000E+00  0.00000000000E+00  0.67592229202E+03  0.67592229204E+03  0.50400001928E-02 0. -1.
       -1   -1    0    0    0  501  0.00000000000E+00  0.00000000000E+00 -0.83508056682E+03  0.83508056683E+03  0.50400001928E-02 0.  1.
    10030    2    1    2    0    0  0.00000000000E+00  0.00000000000E+00 -0.15915827479E+03  0.15110028589E+04  0.15025971792E+04 0.  0.
        2    1    3    3  502    0 -0.27266521570E+03  0.69973573228E+03 -0.57705307234E+02  0.75319739603E+03  0.25500000920E-02 0. -1.
       -2    1    3    3    0  502  0.27266521570E+03 -0.69973573228E+03 -0.10145296756E+03  0.75780546285E+03  0.25500000920E-02 0.  1.
</event>
<event>
 5   0  0.4785496E-04  0.1495822E+04  0.7818609E-02  0.8887236E-01
        2   -1    0    0  501    0  0.00000000000E+00  0.00000000000E+00  0.11483958415E+04  0.11483958415E+04  0.25500000920E-02 0.  1.
       -2   -1    0    0    0  501  0.00000000000E+00  0.00000000000E+00 -0.48708873036E+03  0.48708873037E+03  0.25500000920E-02 0. -1.
    10030    2    1    2    0    0  0.00000000000E+00  0.00000000000E+00  0.66130711112E+03  0.16354845719E+04  0.14958217439E+04 0.  0.
        4    1    3    3  502    0  0.45655484476E+03  0.58520614777E+03  0.23008445438E+03  0.77707723600E+03  0.12699999809E+01 0.  1.
       -4    1    3    3    0  502 -0.45655484476E+03 -0.58520614777E+03  0.43122265673E+03  0.85840733585E+03  0.12699999809E+01 0. -1.
</event>
<event>
 5   0  0.2542737E-04  0.1512638E+04  0.7818609E-02  0.8876092E-01
        1   -1    0    0  501    0  0.00000000000E+00  0.00000000000E+00  0.56017464074E+03  0.56017464077E+03  0.50400001928E-02 0.  1.
       -1   -1    0    0    0  501  0.00000000000E+00  0.00000000000E+00 -0.10211428235E+04  0.10211428235E+04  0.50400001928E-02 0. -1.
    10030    2    1    2    0    0  0.00000000000E+00  0.00000000000E+00 -0.46096818271E+03  0.15813174642E+04  0.15126378473E+04 0.  0.
        1    1    3    3  502    0 -0.25072028150E+03 -0.19131667861E+03  0.48815453101E+03  0.58116914684E+03  0.50400001928E-02 0.  1.
       -1    1    3    3    0  502  0.25072028150E+03  0.19131667861E+03 -0.94912271371E+03  0.10001483174E+04  0.50400001928E-02 0. -1.
</event>
<event>
 5   0  0.4948645E-04  0.1499955E+04  0.7818609E-02  0.8884483E-01
       -2   -1    0    0    0  501  0.00000000000E+00  0.00000000000E+00  0.20850503161E+03  0.20850503162E+03  0.25500000920E-02 0.  1.
        2   -1    0    0  501    0  0.00000000000E+00  0.00000000000E+00 -0.26976159666E+04  0.26976159666E+04  0.25500000920E-02 0. -1.
    10030    2    1    2    0    0  0.00000000000E+00  0.00000000000E+00 -0.24891109350E+04  0.29061209983E+04  0.14999553359E+04 0.  0.
        1    1    3    3  502    0  0.10428140835E+03 -0.61373046958E+03 -0.43422243642E+03  0.75900515528E+03  0.50400001928E-02 0.  1.
       -1    1    3    3    0  502 -0.10428140835E+03  0.61373046958E+03 -0.20548884986E+04  0.21471158430E+04  0.50400001928E-02 0. -1.
</event>
<event>
 5   0  0.2542737E-04  0.1500219E+04  0.7818609E-02  0.8884307E-01
       -1   -1    0    0    0  501  0.00000000000E+00  0.00000000000E+00  0.11511744506E+04  0.11511744507E+04  0.50400001928E-02 0. -1.
        1   -1    0    0  501    0  0.00000000000E+00  0.00000000000E+00 -0.48877403038E+03  0.48877403041E+03  0.50400001928E-02 0.  1.
    10030    2    1    2    0    0  0.00000000000E+00  0.00000000000E+00  0.66240042027E+03  0.16399484811E+04  0.15002188853E+04 0.  0.
        1    1    3    3  502    0  0.13934012730E+03 -0.73563257257E+03  0.38121325863E+03  0.84017528022E+03  0.50400001928E-02 0. -1.
       -1    1    3    3    0  502 -0.13934012730E+03  0.73563257257E+03  0.28118716163E+03  0.79977320085E+03  0.50400001928E-02 0.  1.
</event>
<event>
 5   0  0.2542737E-04  0.1492174E+04  0.7818609E-02  0.8889674E-01
       -1   -1    0    0    0  501  0.00000000000E+00  0.00000000000E+00  0.23161908560E+03  0.23161908565E+03  0.50400001928E-02 0. -1.
        1   -1    0    0  501    0  0.00000000000E+00  0.00000000000E+00 -0.24032802095E+04  0.24032802095E+04  0.50400001928E-02 0.  1.
    10030    2    1    2    0    0  0.00000000000E+00  0.00000000000E+00 -0.21716611239E+04  0.26348992951E+04  0.14921736690E+04 0.  0.
        1    1    3    3  502    0  0.20574032745E+03 -0.69264140275E+03 -0.14141215556E+04  0.15880242345E+04  0.50400001928E-02 0.  1.
       -1    1    3    3    0  502 -0.20574032745E+03  0.69264140275E+03 -0.75753956823E+03  0.10468750606E+04  0.50400001928E-02 0. -1.
</event>
<event>
 5   0  0.4768387E-04  0.1497575E+04  0.7818609E-02  0.8886067E-01
       -2   -1    0    0    0  501  0.00000000000E+00  0.00000000000E+00  0.26214230872E+03  0.26214230873E+03  0.25500000920E-02 0. -1.
        2   -1    0    0  501    0  0.00000000000E+00  0.00000000000E+00 -0.21388473018E+04  0.21388473018E+04  0.25500000920E-02 0.  1.
    10030    2    1    2    0    0  0.00000000000E+00  0.00000000000E+00 -0.18767049931E+04  0.24009896106E+04  0.14975745320E+04 0.  0.
        3    1    3    3  502    0 -0.33412945515E+03  0.65194068147E+03 -0.68990937023E+03  0.10063021884E+04  0.10100000352E+00 0. -1.
       -3    1    3    3    0  502  0.33412945515E+03 -0.65194068147E+03 -0.11867956229E+04  0.13946874222E+04  0.10100000352E+00 0.  1.
</event>
<event>
 5   0  0.2565416E-04  0.1493900E+04  0.7818609E-02  0.8888519E-01
        1   -1    0    0  501    0  0.00000000000E+00  0.00000000000E+00  0.12286338937E+04  0.12286338937E+04  0.50400001928E-02 0. -1.
       -1   -1    0    0    0  501  0.00000000000E+00  0.00000000000E+00 -0.45410977967E+03  0.45410977970E+03  0.50400001928E-02 0.  1.
    10030    2    1    2    0    0  0.00000000000E+00  0.00000000000E+00  0.77452411398E+03  0.16827436734E+04  0.14939004877E+04 0.  0.
        5    1    3    3  502    0 -0.40266927158E+03  0.33578820910E+02 -0.32035488553E+03  0.51567375556E+03  0.46999998093E+01 0.  1.
       -5    1    3    3    0  502  0.40266927158E+03 -0.33578820910E+02  0.10948789995E+04  0.11670699178E+04  0.46999998093E+01 0. -1.
</event>
<event>
 5   0  0.4768387E-04  0.1484157E+04  0.7818609E-02  0.8895057E-01
       -2   -1    0    0    0  501  0.00000000000E+00  0.00000000000E+00  0.14264311527E+04  0.14264311527E+04  0.25500000920E-02 0. -1.
        2   -1    0    0  501    0  0.00000000000E+00  0.00000000000E+00 -0.38605476140E+03  0.38605476140E+03  0.25500000920E-02 0.  1.
    10030    2    1    2    0    0  0.00000000000E+00  0.00000000000E+00  0.10403763913E+04  0.18124859141E+04  0.14841570514E+04 0.  0.
        3    1    3    3  502    0 -0.13005526702E+03 -0.41139898650E+03 -0.21712786075E+03  0.48301968561E+03  0.10100000352E+00 0.  1.
       -3    1    3    3    0  502  0.13005526702E+03  0.41139898650E+03  0.12575042521E+04  0.13294662285E+04  0.10100000352E+00 0. -1.
</event>
<event>
 5   0  0.4785496E-04  0.1500111E+04  0.7818609E-02  0.8884379E-01
       -2   -1    0    0    0  501  0.00000000000E+00  0.00000000000E+00  0.26187802816E+03  0.26187802817E+03  0.25500000920E-02 0. -1.
        2   -1    0    0  501    0  0.00000000000E+00  0.00000000000E+00 -0.21482631607E+04  0.21482631607E+04  0.25500000920E-02 0.  1.
    10030    2    1    2    0    0  0.00000000000E+00  0.00000000000E+00 -0.18863851325E+04  0.24101411889E+04  0.15001105566E+04 0.  0.
        4    1    3    3  502    0 -0.36642142013E+03  0.21801607015E+03 -0.19346167323E+04  0.19810449711E+04  0.12699999809E+01 0.  1.
       -4    1    3    3    0  502  0.36642142013E+03 -0.21801607015E+03  0.48231599718E+02  0.42909621775E+03  0.12699999809E+01 0. -1.
</event>
<event>
 5   0  0.4768387E-04  0.1498933E+04  0.7818609E-02  0.8885163E-01
       -2   -1    0    0    0  501  0.00000000000E+00  0.00000000000E+00  0.48192903105E+03  0.48192903105E+03  0.25500000920E-02 0.  1.
        2   -1    0    0  501    0  0.00000000000E+00  0.00000000000E+00 -0.11655237474E+04  0.11655237474E+04  0.25500000920E-02 0. -1.
    10030    2    1    2    0    0  0.00000000000E+00  0.00000000000E+00 -0.68359471631E+03  0.16474527784E+04  0.14989325939E+04 0.  0.
        3    1    3    3  502    0  0.48899628109E+03 -0.52397270424E+03 -0.10091244589E+03  0.72377350714E+03  0.10100000352E+00 0.  1.
       -3    1    3    3    0  502 -0.48899628109E+03  0.52397270424E+03 -0.58268227042E+03  0.92367927127E+03  0.10100000352E+00 0. -1.
</event>
<event>
 5   0  0.4948645E-04  0.1512820E+04  0.7818609E-02  0.8875972E-01
        2   -1    0    0  501    0  0.00000000000E+00  0.00000000000E+00  0.18362789653E+04  0.18362789653E+04  0.25500000920E-02 0. -1.
       -2   -1    0    0    0  501  0.00000000000E+00  0.00000000000E+00 -0.31158454493E+03  0.31158454494E+03  0.25500000920E-02 0.  1.
    10030    2    1    2    0    0  0.00000000000E+00  0.00000000000E+00  0.15246944204E+04  0.21478635103E+04  0.15128200763E+04 0.  0.
        1    1    3    3  502    0 -0.46436701198E+03 -0.53523668009E+03  0.38659984633E+03  0.80720162706E+03  0.50400001928E-02 0.  1.
       -1    1    3    3    0  502  0.46436701198E+03  0.53523668009E+03  0.11380945741E+04  0.13406618832E+04  0.50400001928E-02 0. -1.
</event>
<event>
 5   0  0.2603873E-04  0.1489057E+04  0.7818609E-02  0.8891762E-01
       -1   -1    0    0    0  501  0.00000000000E+00  0.00000000000E+00  0.52512579040E+03  0.52512579042E+03  0.50400001928E-02 0. -1.
        1   -1    0    0  501    0  0.00000000000E+00  0.00000000000E+00 -0.10556004467E+04  0.10556004467E+04  0.50400001928E-02 0.  1.
    10030    2    1    2    0    0  0.00000000000E+00  0.00000000000E+00 -0.53047465631E+03  0.15807262371E+04  0.14890574454E+04 0.  0.
        2    1    3    3  502    0 -0.47729838346E+02 -0.35443797299E+03 -0.95844487442E+03  0.10229960858E+04  0.25500000920E-02 0.  1.
       -2    1    3    3    0  502  0.47729838346E+02  0.35443797299E+03  0.42797021811E+03  0.55773015138E+03  0.25500000920E-02 0. -1.
</event>
<event>
 5   0  0.2544374E-04  0.1496198E+04  0.7818609E-02  0.8886985E-01
        1   -1    0    0  501    0  0.00000000000E+00  0.00000000000E+00  0.83223847548E+03  0.83223847550E+03  0.50400001928E-02 0. -1.
       -1   -1    0    0    0  501  0.00000000000E+00  0.00000000000E+00 -0.67246570256E+03  0.67246570258E+03  0.50400001928E-02 0.  1.
    10030    2    1    2    0    0  0.00000000000E+00  0.00000000000E+00  0.15977277292E+03  0.15047041781E+04  0.14961976222E+04 0.  0.
        4    1    3    3  502    0  0.17815723865E+03 -0.57348142246E+03 -0.36877701731E+03  0.70471202983E+03  0.12699999809E+01 0.  1.
       -4    1    3    3    0  502 -0.17815723865E+03  0.57348142246E+03  0.52854979024E+03  0.79999214824E+03  0.12699999809E+01 0. -1.
</event>
<event>
 5   0  0.4569211E-04  0.1481295E+04  0.7818609E-02  0.8896988E-01
       -2   -1    0    0    0  501  0.00000000000E+00  0.00000000000E+00  0.23318487235E+03  0.23318487237E+03  0.25500000920E-02 0. -1.
        2   -1    0    0  501    0  0.00000000000E+00  0.00000000000E+00 -0.23524625837E+04  0.23524625837E+04  0.25500000920E-02 0.  1.
    10030    2    1    2    0    0  0.00000000000E+00  0.00000000000E+00 -0.21192777113E+04  0.25856474560E+04  0.14812949569E+04 0.  0.
        5    1    3    3  502    0 -0.69795582676E+03  0.23509655649E+03 -0.92304198222E+03  0.11808646484E+04  0.46999998093E+01 0.  1.
       -5    1    3    3    0  502  0.69795582676E+03 -0.23509655649E+03 -0.11962357291E+04  0.14047828076E+04  0.46999998093E+01 0. -1.
</event>
<event>
 5   0  0.2542737E-04  0.1488867E+04  0.7818609E-02  0.8891890E-01
       -1   -1    0    0    0  501  0.00000000000E+00  0.00000000000E+00  0.46788216538E+03  0.46788216541E+03  0.50400001928E-02 0.  1.
        1   -1    0    0  501    0  0.00000000000E+00  0.00000000000E+00 -0.11844469098E+04  0.11844469099E+04  0.50400001928E-02 0. -1.
    10030    2    1    2    0    0  0.00000000000E+00  0.00000000000E+00 -0.71656474446E+03  0.16523290753E+04  0.14888674689E+04 0.  0.
        1    1    3    3  502    0 -0.15531236539E+03  0.57420062829E+02 -0.11637497700E+04  0.11754711913E+04  0.50400001928E-02 0. -1.
       -1    1    3    3    0  502  0.15531236539E+03 -0.57420062829E+02  0.44718502549E+03  0.47685788397E+03  0.50400001928E-02 0.  1.
</event>
<event>
 5   0  0.2544374E-04  0.1497635E+04  0.7818609E-02  0.8886027E-01
        1   -1    0    0  501    0  0.00000000000E+00  0.00000000000E+00  0.80387626177E+03  0.80387626178E+03  0.50400001928E-02 0. -1.
       -1   -1    0    0    0  501  0.00000000000E+00  0.00000000000E+00 -0.69752998671E+03  0.69752998673E+03  0.50400001928E-02 0.  1.
    10030    2    1    2    0    0  0.00000000000E+00  0.00000000000E+00  0.10634627505E+03  0.15014062485E+04  0.14976352002E+04 0.  0.
        4    1    3    3  502    0  0.23328158412E+03 -0.55693601342E+03  0.49715186505E+03  0.78215063150E+03  0.12699999809E+01 0. -1.
       -4    1    3    3    0  502 -0.23328158412E+03  0.55693601342E+03 -0.39080559000E+03  0.71925561701E+03  0.12699999809E+01 0.  1.
</event>
<event>
 5   0  0.2565416E-04  0.1498471E+04  0.7818609E-02  0.8885470E-01
       -1   -1    0    0    0  501  0.00000000000E+00  0.00000000000E+00  0.77296631880E+03  0.77296631882E+03  0.50400001928E-02 0. -1.
        1   -1    0    0  501    0  0.00000000000E+00  0.00000000000E+00 -0.72623323661E+03  0.72623323662E+03  0.50400001928E-02 0.  1.
    10030    2    1    2    0    0  0.00000000000E+00  0.00000000000E+00  0.46733082195E+02  0.14991995554E+04  0.14984709961E+04 0.  0.
        5    1    3    3  502    0  0.57486565419E+03 -0.11392827735E+03 -0.44363826521E+03  0.73504229342E+03  0.46999998093E+01 0.  1.
       -5    1    3    3    0  502 -0.57486565419E+03  0.11392827735E+03  0.49037134741E+03  0.76415726203E+03  0.46999998093E+01 0. -1.
</event>
<event>
 5   0  0.4785496E-04  0.1504399E+04  0.7818609E-02  0.8881533E-01
        2   -1    0    0  501    0  0.00000000000E+00  0.00000000000E+00  0.84623358112E+03  0.84623358113E+03  0.25500000920E-02 0.  1.
       -2   -1    0    0    0  501  0.00000000000E+00  0.00000000000E+00 -0.66861463159E+03  0.66861463159E+03  0.25500000920E-02 0. -1.
    10030    2    1    2    0    0  0.00000000000E+00  0.00000000000E+00  0.17761894954E+03  0.15148482127E+04  0.15043990881E+04 0.  0.
        4    1    3    3  502    0  0.27882174649E+03 -0.15964620475E+03  0.77366142495E+03  0.83772435226E+03  0.12699999809E+01 0.  1.
       -4    1    3    3    0  502 -0.27882174649E+03  0.15964620475E+03 -0.59604247541E+03  0.67712386046E+03  0.12699999809E+01 0. -1.
</event>
<event>
 5   0  0.2542737E-04  0.1500954E+04  0.7818609E-02  0.8883819E-01
        1   -1    0    0  501    0  0.00000000000E+00  0.00000000000E+00  0.53104800492E+03  0.53104800494E+03  0.50400001928E-02 0. -1.
       -1   -1    0    0    0  501  0.00000000000E+00  0.00000000000E+00 -0.10605733667E+04  0.10605733667E+04  0.50400001928E-02 0.  1.
    10030    2    1    2    0    0  0.00000000000E+00  0.00000000000E+00 -0.52952536180E+03  0.15916213717E+04  0.15009535243E+04 0.  0.
        1    1    3    3  502    0 -0.22498062190E+03  0.51919978483E+03  0.25799817761E+03  0.62189046984E+03  0.50400001928E-02 0. -1.
       -1    1    3    3    0  502  0.22498062190E+03 -0.51919978483E+03 -0.78752353942E+03  0.96973090183E+03  0.50400001928E-02 0.  1.
</event>
<event>
 5   0  0.4726600E-04  0.1477587E+04  0.7818609E-02  0.8899495E-01
        2   -1    0    0  501    0  0.00000000000E+00  0.00000000000E+00  0.12524618654E+04  0.12524618654E+04  0.25500000920E-02 0. -1.
       -2   -1    0    0    0  501  0.00000000000E+00  0.00000000000E+00 -0.43579454904E+03  0.43579454904E+03  0.25500000920E-02 0.  1.
    10030    2    1    2    0    0  0.00000000000E+00  0.00000000000E+00  0.81666731637E+03  0.16882564145E+04  0.14775872953E+04 0.  0.
        2    1    3    3  502    0 -0.10741312292E+03  0.65736731158E+02 -0.42344091671E+03  0.44177042313E+03  0.25500000920E-02 0.  1.
       -2    1    3    3    0  502  0.10741312292E+03 -0.65736731158E+02  0.12401082331E+04  0.12464859913E+04  0.25500000920E-02 0. -1.
</event>
<event>
 5   0  0.4569211E-04  0.1494476E+04  0.7818609E-02  0.8888134E-01
        2   -1    0    0  501    0  0.00000000000E+00  0.00000000000E+00  0.27380658166E+04  0.27380658166E+04  0.25500000920E-02 0. -1.
       -2   -1    0    0    0  501  0.00000000000E+00  0.00000000000E+00 -0.20392677767E+03  0.20392677768E+03  0.25500000920E-02 0.  1.
    10030    2    1    2    0    0  0.00000000000E+00  0.00000000000E+00  0.25341390389E+04  0.29419925943E+04  0.14944764154E+04 0.  0.
        5    1    3    3  502    0  0.53030555332E+03 -0.71454753728E+02  0.22937786146E+04  0.23553709229E+04  0.46999998093E+01 0. -1.
       -5    1    3    3    0  502 -0.53030555332E+03  0.71454753728E+02  0.24036042430E+03  0.58662167134E+03  0.46999998093E+01 0.  1.
</event>
<event>
 5   0  0.2605471E-04  0.1495168E+04  0.7818609E-02  0.8887673E-01
       -1   -1    0    0    0  501  0.00000000000E+00  0.00000000000E+00  0.29069701638E+03  0.29069701643E+03  0.50400001928E-02 0.  1.
        1   -1    0    0  501    0  0.00000000000E+00  0.00000000000E+00 -0.19225578176E+04  0.19225578176E+04  0.50400001928E-02 0. -1.
    10030    2    1    2    0    0  0.00000000000E+00  0.00000000000E+00 -0.16318608012E+04  0.22132548340E+04  0.14951679791E+04 0.  0.
        3    1    3    3  502    0  0.49151032616E+03  0.50563737946E+03 -0.44844642828E+03  0.83567683316E+03  0.10100000352E+00 0. -1.
       -3    1    3    3    0  502 -0.49151032616E+03 -0.50563737946E+03 -0.11834143729E+04  0.13775780009E+04  0.10100000352E+00 0.  1.
</event>
<event>
 5   0  0.1792000E-04  0.1510320E+04  0.7818609E-02  0.8877619E-01
       -3   -1    0    0    0  501  0.00000000000E+00  0.00000000000E+00  0.56155226877E+03  0.56155227785E+03  0.10100000352E+00 0.  1.
        3   -1    0    0  501    0  0.00000000000E+00  0.00000000000E+00 -0.10155179294E+04  0.10155179344E+04  0.10100000352E+00 0. -1.
    10030    2    1    2    0    0  0.00000000000E+00  0.00000000000E+00 -0.45396566059E+03  0.15770702122E+04  0.15103197123E+04 0.  0.
        5    1    3    3  502    0  0.22065556632E+03  0.49118815936E+03 -0.77980525876E+03  0.94766714538E+03  0.46999998093E+01 0. -1.
       -5    1    3    3    0  502 -0.22065556632E+03 -0.49118815936E+03  0.32583959816E+03  0.62940306686E+03  0.46999998093E+01 0.  1.
</event>
<event>
 5   0  0.2565416E-04  0.1496638E+04  0.7818609E-02  0.8886692E-01
        1   -1    0    0  501    0  0.00000000000E+00  0.00000000000E+00  0.78828588050E+03  0.78828588051E+03  0.50400001928E-02 0.  1.
       -1   -1    0    0    0  501  0.00000000000E+00  0.00000000000E+00 -0.71037844143E+03  0.71037844144E+03  0.50400001928E-02 0. -1.
    10030    2    1    2    0    0  0.00000000000E+00  0.00000000000E+00  0.77907439070E+02  0.14986643220E+04  0.14966379592E+04 0.  0.
        5    1    3    3  502    0  0.56409097485E+02  0.33117974374E+03 -0.63060486960E+03  0.71452543727E+03  0.46999998093E+01 0. -1.
       -5    1    3    3    0  502 -0.56409097485E+02 -0.33117974374E+03  0.70851230867E+03  0.78413888469E+03  0.46999998093E+01 0.  1.
</event>
<event>
 5   0  0.4726600E-04  0.1498353E+04  0.7818609E-02  0.8885549E-01
        2   -1    0    0  501    0  0.00000000000E+00  0.00000000000E+00  0.13616359942E+04  0.13616359942E+04  0.25500000920E-02 0. -1.
       -2   -1    0    0    0  501  0.00000000000E+00  0.00000000000E+00 -0.41219917507E+03  0.41219917507E+03  0.25500000920E-02 0.  1.
    10030    2    1    2    0    0  0.00000000000E+00  0.00000000000E+00  0.94943681916E+03  0.17738351693E+04  0.14983527403E+04 0.  0.
        2    1    3    3  502    0  0.62070363721E+03 -0.41949874500E+03  0.47044482269E+03  0.88463016764E+03  0.25500000920E-02 0.  1.
       -2    1    3    3    0  502 -0.62070363721E+03  0.41949874500E+03  0.47899199646E+03  0.88920500166E+03  0.25500000920E-02 0. -1.
</event>
<event>
 5   0  0.2544374E-04  0.1502266E+04  0.7818609E-02  0.8882947E-01
       -1   -1    0    0    0  501  0.00000000000E+00  0.00000000000E+00  0.82873637479E+03  0.82873637480E+03  0.50400001928E-02 0.  1.
        1   -1    0    0  501    0  0.00000000000E+00  0.00000000000E+00 -0.68079682924E+03  0.68079682926E+03  0.50400001928E-02 0. -1.
    10030    2    1    2    0    0  0.00000000000E+00  0.00000000000E+00  0.14793954555E+03  0.15095332041E+04  0.15022664161E+04 0.  0.
        4    1    3    3  502    0 -0.30726865322E+03 -0.68492754603E+03  0.48160615602E+02  0.75223721416E+03  0.12699999809E+01 0. -1.
       -4    1    3    3    0  502  0.30726865322E+03  0.68492754603E+03  0.99778929946E+02  0.75729598991E+03  0.12699999809E+01 0.  1.
</event>
<event>
 5   0  0.4768387E-04  0.1493626E+04  0.7818609E-02  0.8888702E-01
       -2   -1    0    0    0  501  0.00000000000E+00  0.00000000000E+00  0.13105959216E+04  0.13105959216E+04  0.25500000920E-02 0.  1.
        2   -1    0    0  501    0  0.00000000000E+00  0.00000000000E+00 -0.42555441283E+03  0.42555441284E+03  0.25500000920E-02 0. -1.
    10030    2    1    2    0    0  0.00000000000E+00  0.00000000000E+00  0.88504150874E+03  0.17361503344E+04  0.14936262958E+04 0.  0.
        3    1    3    3  502    0 -0.71522661870E+03  0.19094124258E+03  0.32790943634E+03  0.80964948147E+03  0.10100000352E+00 0.  1.
       -3    1    3    3    0  502  0.71522661870E+03 -0.19094124258E+03  0.55713207240E+03  0.92650085294E+03  0.10100000352E+00 0. -1.
</event>
<event>
 5   0  0.4569211E-04  0.1491027E+04  0.7818609E-02  0.8890442E-01
        2   -1    0    0  501    0  0.00000000000E+00  0.00000000000E+00  0.44202117363E+03  0.44202117363E+03  0.25500000920E-02 0. -1.
       -2   -1    0    0    0  501  0.00000000000E+00  0.00000000000E+00 -0.12573845476E+04  0.12573845476E+04  0.25500000920E-02 0.  1.
    10030    2    1    2    0    0  0.00000000000E+00  0.00000000000E+00 -0.81536337402E+03  0.16994057213E+04  0.14910272881E+04 0.  0.
        5    1    3    3  502    0 -0.16587524848E+03  0.13367969823E+03  0.40657223345E+03  0.45902933543E+03  0.46999998093E+01 0. -1.
       -5    1    3    3    0  502  0.16587524848E+03 -0.13367969823E+03 -0.12219356075E+04  0.12403763858E+04  0.46999998093E+01 0.  1.
</event>
<event>
 5   0  0.4785496E-04  0.1480327E+04  0.7818609E-02  0.8897642E-01
        2   -1    0    0  501    0  0.00000000000E+00  0.00000000000E+00  0.15284959541E+04  0.15284959541E+04  0.25500000920E-02 0.  1.
       -2   -1    0    0    0  501  0.00000000000E+00  0.00000000000E+00 -0.35841889955E+03  0.35841889956E+03  0.25500000920E-02 0. -1.
    10030    2    1    2    0    0  0.00000000000E+00  0.00000000000E+00  0.11700770545E+04  0.18869148537E+04  0.14803267718E+04 0.  0.
        4    1    3    3  502    0 -0.38251969806E+03  0.39642467298E+03  0.12151471767E+04  0.13341881856E+04  0.12699999809E+01 0.  1.
       -4    1    3    3    0  502  0.38251969806E+03 -0.39642467298E+03 -0.45070122142E+02  0.55272666803E+03  0.12699999809E+01 0. -1.
</event>
<event>
 5   0  0.2544374E-04  0.1470223E+04  0.7818609E-02  0.8904499E-01
       -1   -1    0    0    0  501  0.00000000000E+00  0.00000000000E+00  0.74048903165E+03  0.74048903167E+03  0.50400001928E-02 0. -1.
        1   -1    0    0  501    0  0.00000000000E+00  0.00000000000E+00 -0.72977293797E+03  0.72977293798E+03  0.50400001928E-02 0.  1.
    10030    2    1    2    0    0  0.00000000000E+00  0.00000000000E+00  0.10716093687E+02  0.14702619697E+04  0.14702229167E+04 0.  0.
        4    1    3    3  502    0  0.32259935164E+03 -0.18708405276E+03 -0.62815420965E+03  0.73051359226E+03  0.12699999809E+01 0.  1.
       -4    1    3    3    0  502 -0.32259935164E+03  0.18708405276E+03  0.63887030334E+03  0.73974837740E+03  0.12699999809E+01 0. -1.
</event>
<event>
 5   0  0.4948645E-04  0.1482012E+04  0.7818609E-02  0.8896504E-01
       -2   -1    0    0    0  501  0.00000000000E+00  0.00000000000E+00  0.96445486582E+03  0.96445486582E+03  0.25500000920E-02 0.  1.
        2   -1    0    0  501    0  0.00000000000E+00  0.00000000000E+00 -0.56932660257E+03  0.56932660258E+03  0.25500000920E-02 0. -1.
    10030    2    1    2    0    0  0.00000000000E+00  0.00000000000E+00  0.39512826324E+03  0.15337814684E+04  0.14820118921E+04 0.  0.
        1    1    3    3  502    0 -0.52748964728E+03 -0.51920198906E+03  0.16062737326E+03  0.75737519533E+03  0.50400001928E-02 0.  1.
       -1    1    3    3    0  502  0.52748964728E+03  0.51920198906E+03  0.23450088998E+03  0.77640627307E+03  0.50400001928E-02 0. -1.
</event>
<event>
 5   0  0.2544374E-04  0.1509347E+04  0.7818609E-02  0.8878261E-01
       -1   -1    0    0    0  501  0.00000000000E+00  0.00000000000E+00  0.45098942236E+03  0.45098942239E+03  0.50400001928E-02 0. -1.
        1   -1    0    0  501    0  0.00000000000E+00  0.00000000000E+00 -0.12628506997E+04  0.12628506997E+04  0.50400001928E-02 0.  1.
    10030    2    1    2    0    0  0.00000000000E+00  0.00000000000E+00 -0.81186127734E+03  0.17138401221E+04  0.15093472862E+04 0.  0.
        4    1    3    3  502    0  0.24226059133E+03  0.42539762752E+03  0.24623420273E+03  0.54798378727E+03  0.12699999809E+01 0. -1.
       -4    1    3    3    0  502 -0.24226059133E+03 -0.42539762752E+03 -0.10580954801E+04  0.11658563348E+04  0.12699999809E+01 0.  1.
</event>
<event>
 5   0  0.4785496E-04  0.1504037E+04  0.7818609E-02  0.8881773E-01
       -2   -1    0    0    0  501  0.00000000000E+00  0.00000000000E+00  0.10377902328E+04  0.10377902328E+04  0.25500000920E-02 0. -1.
        2   -1    0    0  501    0  0.00000000000E+00  0.00000000000E+00 -0.54493851829E+03  0.54493851830E+03  0.25500000920E-02 0.  1.
    10030    2    1    2    0    0  0.00000000000E+00  0.00000000000E+00  0.49285171449E+03  0.15827287511E+04  0.15040370631E+04 0.  0.
        4    1    3    3  502    0  0.37577437539E+03 -0.40168257624E+03 -0.29321543449E+03  0.62332349320E+03  0.12699999809E+01 0.  1.
       -4    1    3    3    0  502 -0.37577437539E+03  0.40168257624E+03  0.78606714898E+03  0.95940525789E+03  0.12699999809E+01 0. -1.
</event>
<event>
 5   0  0.2542737E-04  0.1497944E+04  0.7818609E-02  0.8885821E-01
       -1   -1    0    0    0  501  0.00000000000E+00  0.00000000000E+00  0.97533261931E+03  0.97533261933E+03  0.50400001928E-02 0.  1.
        1   -1    0    0  501    0  0.00000000000E+00  0.00000000000E+00 -0.57514639737E+03  0.57514639739E+03  0.50400001928E-02 0. -1.
    10030    2    1    2    0    0  0.00000000000E+00  0.00000000000E+00  0.40018622195E+03  0.15504790167E+04  0.14979439806E+04 0.  0.
        1    1    3    3  502    0  0.87738058389E+02  0.40755826785E+03 -0.44394870530E+03  0.60900916376E+03  0.50400001928E-02 0. -1.
       -1    1    3    3    0  502 -0.87738058389E+02 -0.40755826785E+03  0.84413492725E+03  0.94146985295E+03  0.50400001928E-02 0.  1.
</event>
<event>
 5   0  0.4569211E-04  0.1507458E+04  0.7818609E-02  0.8879509E-01
        2   -1    0    0  501    0  0.00000000000E+00  0.00000000000E+00  0.82958597113E+03  0.82958597114E+03  0.25500000920E-02 0. -1.
       -2   -1    0    0    0  501  0.00000000000E+00  0.00000000000E+00 -0.68480827821E+03  0.68480827821E+03  0.25500000920E-02 0.  1.
    10030    2    1    2    0    0  0.00000000000E+00  0.00000000000E+00  0.14477769293E+03  0.15143942493E+04  0.15074579139E+04 0.  0.
        5    1    3    3  502    0  0.50961287384E+01 -0.68782936594E+03 -0.23716865979E+03  0.72760309947E+03  0.46999998093E+01 0. -1.
       -5    1    3    3    0  502 -0.50961287384E+01  0.68782936594E+03  0.38194635272E+03  0.78679114988E+03  0.46999998093E+01 0.  1.
</event>
<event>
 5   0  0.4569211E-04  0.1500479E+04  0.7818609E-02  0.8884135E-01
       -2   -1    0    0    0  501  0.00000000000E+00  0.00000000000E+00  0.27245727892E+03  0.27245727894E+03  0.25500000920E-02 0.  1.
        2   -1    0    0  501    0  0.00000000000E+00  0.00000000000E+00 -0.20658621212E+04  0.20658621212E+04  0.25500000920E-02 0. -1.
    10030    2    1    2    0    0  0.00000000000E+00  0.00000000000E+00 -0.17934048423E+04  0.23383194002E+04  0.15004788198E+04 0.  0.
        5    1    3    3  502    0 -0.58387434496E+03 -0.32216348076E+03 -0.14323383890E+04  0.15799727560E+04  0.46999998093E+01 0.  1.
       -5    1    3    3    0  502  0.58387434496E+03  0.32216348076E+03 -0.36106645330E+03  0.75834664418E+03  0.46999998093E+01 0. -1.
</event>
<event>
 5   0  0.4726600E-04  0.1557183E+04  0.7818609E-02  0.8847293E-01
       -2   -1    0    0    0  501  0.00000000000E+00  0.00000000000E+00  0.28690779389E+03  0.28690779390E+03  0.25500000920E-02 0. -1.
        2   -1    0    0  501    0  0.00000000000E+00  0.00000000000E+00 -0.21128909687E+04  0.21128909687E+04  0.25500000920E-02 0.  1.
    10030    2    1    2    0    0  0.00000000000E+00  0.00000000000E+00 -0.18259831748E+04  0.23997987626E+04  0.15571832090E+04 0.  0.
        2    1    3    3  502    0  0.50983221952E+03  0.58673600713E+03 -0.98220211744E+03  0.12525609900E+04  0.25500000920E-02 0. -1.
       -2    1    3    3    0  502 -0.50983221952E+03 -0.58673600713E+03 -0.84378105735E+03  0.11472377726E+04  0.25500000920E-02 0.  1.
</event>
<event>
 5   0  0.4726600E-04  0.1391984E+04  0.7818609E-02  0.8959642E-01
        2   -1    0    0  501    0  0.00000000000E+00  0.00000000000E+00  0.78448221811E+03  0.78448221812E+03  0.25500000920E-02 0.  1.
       -2   -1    0    0    0  501  0.00000000000E+00  0.00000000000E+00 -0.61748323829E+03  0.61748323829E+03  0.25500000920E-02 0. -1.
    10030    2    1    2    0    0  0.00000000000E+00  0.00000000000E+00  0.16699897983E+03  0.14019654564E+04  0.13919836499E+04 0.  0.
        2    1    3    3  502    0  0.57317511931E+02 -0.54431669566E+03 -0.34951216136E+03  0.64940335178E+03  0.25500000920E-02 0. -1.
       -2    1    3    3    0  502 -0.57317511931E+02  0.54431669566E+03  0.51651114119E+03  0.75256210463E+03  0.25500000920E-02 0.  1.
</event>
<event>
 5   0  0.4948645E-04  0.1501550E+04  0.7818609E-02  0.8883423E-01
       -2   -1    0    0    0  501  0.00000000000E+00  0.00000000000E+00  0.10339268292E+04  0.10339268292E+04  0.25500000920E-02 0. -1.
        2   -1    0    0  501    0  0.00000000000E+00  0.00000000000E+00 -0.54516735799E+03  0.54516735800E+03  0.25500000920E-02 0.  1.
    10030    2    1    2    0    0  0.00000000000E+00  0.00000000000E+00  0.48875947122E+03  0.15790941872E+04  0.15015500762E+04 0.  0.
        1    1    3    3  502    0  0.57501939567E+03 -0.46537026569E+03  0.37924596620E+03  0.83129073884E+03  0.50400001928E-02 0. -1.
       -1    1    3    3    0  502 -0.57501939567E+03  0.46537026569E+03  0.10951350502E+03  0.74780344837E+03  0.50400001928E-02 0.  1.
</event>
<event>
 5   0  0.2605471E-04  0.1502424E+04  0.7818609E-02  0.8882842E-01
        1   -1    0    0  501    0  0.00000000000E+00  0.00000000000E+00  0.76782295543E+03  0.76782295544E+03  0.50400001928E-02 0.  1.
       -1   -1    0    0    0  501  0.00000000000E+00  0.00000000000E+00 -0.73496087427E+03  0.73496087428E+03  0.50400001928E-02 0. -1.
    10030    2    1    2    0    0  0.00000000000E+00  0.00000000000E+00  0.32862081162E+02  0.15027838297E+04  0.15024244815E+04 0.  0.
        3    1    3    3  502    0 -0.61610332459E+03  0.42338446449E+03  0.90490015806E+02  0.75301139732E+03  0.10100000352E+00 0. -1.
       -3    1    3    3    0  502  0.61610332459E+03 -0.42338446449E+03 -0.57627934645E+02  0.74977243240E+03  0.10100000352E+00 0.  1.
</event>
<event>
 5   0  0.2605471E-04  0.1490190E+04  0.7818609E-02  0.8891003E-01
        1   -1    0    0  501    0  0.00000000000E+00  0.00000000000E+00  0.99027963057E+03  0.99027963059E+03  0.50400001928E-02 0. -1.
       -1   -1    0    0    0  501  0.00000000000E+00  0.00000000000E+00 -0.56061574486E+03  0.56061574489E+03  0.50400001928E-02 0.  1.
    10030    2    1    2    0    0  0.00000000000E+00  0.00000000000E+00  0.42966388571E+03  0.15508953755E+04  0.14901897232E+04 0.  0.
        3    1    3    3  502    0 -0.51460536228E+03 -0.50537705428E+03  0.40937374362E+03  0.82934402876E+03  0.10100000352E+00 0. -1.
       -3    1    3    3    0  502  0.51460536228E+03  0.50537705428E+03  0.20290142089E+02  0.72155134671E+03  0.10100000352E+00 0.  1.
</event>
<event>
 5   0  0.1792000E-04  0.1507139E+04  0.7818609E-02  0.8879719E-01
       -3   -1    0    0    0  501  0.00000000000E+00  0.00000000000E+00  0.11046883041E+04  0.11046883087E+04  0.10100000352E+00 0.  1.
        3   -1    0    0  501    0  0.00000000000E+00  0.00000000000E+00 -0.51405195461E+03  0.51405196453E+03  0.10100000352E+00 0. -1.
    10030    2    1    2    0    0  0.00000000000E+00  0.00000000000E+00  0.59063634950E+03  0.16187402732E+04  0.15071392686E+04 0.  0.
        1    1    3    3  502    0  0.28581274743E+02 -0.50025862136E+03 -0.30920175898E+03  0.58879648886E+03  0.50400001928E-02 0. -1.
       -1    1    3    3    0  502 -0.28581274743E+02  0.50025862136E+03  0.89983810848E+03  0.10299437844E+04  0.50400001928E-02 0.  1.
</event>
<event>
 5   0  0.4768387E-04  0.1580088E+04  0.7818609E-02  0.8832875E-01
       -2   -1    0    0    0  501  0.00000000000E+00  0.00000000000E+00  0.23823334120E+03  0.23823334121E+03  0.25500000920E-02 0.  1.
        2   -1    0    0  501    0  0.00000000000E+00  0.00000000000E+00 -0.26199914997E+04  0.26199914997E+04  0.25500000920E-02 0. -1.
    10030    2    1    2    0    0  0.00000000000E+00  0.00000000000E+00 -0.23817581585E+04  0.28582248409E+04  0.15800877557E+04 0.  0.
        3    1    3    3  502    0 -0.65916399868E+03 -0.25434937711E+03 -0.55139034495E+03  0.89622659272E+03  0.10100000352E+00 0.  1.
       -3    1    3    3    0  502  0.65916399868E+03  0.25434937711E+03 -0.18303678135E+04  0.19619982482E+04  0.10100000352E+00 0. -1.
</event>
<event>
 5   0  0.2542737E-04  0.1492049E+04  0.7818609E-02  0.8889757E-01
       -1   -1    0    0    0  501  0.00000000000E+00  0.00000000000E+00  0.51097892802E+03  0.51097892804E+03  0.50400001928E-02 0. -1.
        1   -1    0    0  501    0  0.00000000000E+00  0.00000000000E+00 -0.10891888995E+04  0.10891888995E+04  0.50400001928E-02 0.  1.
    10030    2    1    2    0    0  0.00000000000E+00  0.00000000000E+00 -0.57820997144E+03  0.16001678275E+04  0.14920490291E+04 0.  0.
        1    1    3    3  502    0 -0.58326923269E+02  0.17198840247E+03 -0.10651198483E+04  0.10804917084E+04  0.50400001928E-02 0.  1.
       -1    1    3    3    0  502  0.58326923269E+02 -0.17198840247E+03  0.48690987688E+03  0.51967611913E+03  0.50400001928E-02 0. -1.
</event>
<event>
 5   0  0.4726600E-04  0.1533563E+04  0.7818609E-02  0.8862436E-01
       -2   -1    0    0    0  501  0.00000000000E+00  0.00000000000E+00  0.47564844524E+03  0.47564844525E+03  0.25500000920E-02 0. -1.
        2   -1    0    0  501    0  0.00000000000E+00  0.00000000000E+00 -0.12361095320E+04  0.12361095320E+04  0.25500000920E-02 0.  1.
    10030    2    1    2    0    0  0.00000000000E+00  0.00000000000E+00 -0.76046108679E+03  0.17117579773E+04  0.15335626196E+04 0.  0.
        2    1    3    3  502    0  0.31138353854E+03 -0.60801978465E+03 -0.76899061033E+03  0.10285885112E+04  0.25500000920E-02 0.  1.
       -2    1    3    3    0  502 -0.31138353854E+03  0.60801978465E+03  0.85295235370E+01  0.68316946608E+03  0.25500000920E-02 0. -1.
</event>
<event>
 5   0  0.2544374E-04  0.1511600E+04  0.7818609E-02  0.8876776E-01
        1   -1    0    0  501    0  0.00000000000E+00  0.00000000000E+00  0.13139702676E+04  0.13139702676E+04  0.50400001928E-02 0. -1.
       -1   -1    0    0    0  501  0.00000000000E+00  0.00000000000E+00 -0.43473861021E+03  0.43473861024E+03  0.50400001928E-02 0.  1.
    10030    2    1    2    0    0  0.00000000000E+00  0.00000000000E+00  0.87923165736E+03  0.17487088778E+04  0.15115999577E+04 0.  0.
        4    1    3    3  502    0 -0.12683928702E+03  0.33564380437E+03 -0.32992366806E+03  0.48743841435E+03  0.12699999809E+01 0.  1.
       -4    1    3    3    0  502  0.12683928702E+03 -0.33564380437E+03  0.12091553254E+04  0.12612704635E+04  0.12699999809E+01 0. -1.
</event>
<event>
 5   0  0.2542737E-04  0.1502351E+04  0.7818609E-02  0.8882891E-01
       -1   -1    0    0    0  501  0.00000000000E+00  0.00000000000E+00  0.57002703894E+03  0.57002703896E+03  0.50400001928E-02 0.  1.
        1   -1    0    0  501    0  0.00000000000E+00  0.00000000000E+00 -0.98989129656E+03  0.98989129657E+03  0.50400001928E-02 0. -1.
    10030    2    1    2    0    0  0.00000000000E+00  0.00000000000E+00 -0.41986425762E+03  0.15599183355E+04  0.15023512301E+04 0.  0.
        1    1    3    3  502    0 -0.10573679231E+03  0.50050065475E+03  0.36122171023E+03  0.62622863127E+03  0.50400001928E-02 0.  1.
       -1    1    3    3    0  502  0.10573679231E+03 -0.50050065475E+03 -0.78108596785E+03  0.93368970427E+03  0.50400001928E-02 0. -1.
</event>
<event>
 5   0  0.2603873E-04  0.1560207E+04  0.7818609E-02  0.8845374E-01
        1   -1    0    0  501    0  0.00000000000E+00  0.00000000000E+00  0.10225516504E+04  0.10225516504E+04  0.50400001928E-02 0.  1.
       -1   -1    0    0    0  501  0.00000000000E+00  0.00000000000E+00 -0.59514027440E+03  0.59514027442E+03  0.50400001928E-02 0. -1.
    10030    2    1    2    0    0  0.00000000000E+00  0.00000000000E+00  0.42741137600E+03  0.16176919248E+04  0.15602072553E+04 0.  0.
        2    1    3    3  502    0 -0.40605488293E+02 -0.58835470770E+01  0.10214321485E+04  0.10222558661E+04  0.25500000920E-02 0.  1.
       -2    1    3    3    0  502  0.40605488293E+02  0.58835470770E+01 -0.59402077252E+03  0.59543605870E+03  0.25500000920E-02 0. -1.
</event>
<event>
 5   0  0.2605471E-04  0.1513573E+04  0.7818609E-02  0.8875477E-01
       -1   -1    0    0    0  501  0.00000000000E+00  0.00000000000E+00  0.54866038443E+03  0.54866038445E+03  0.50400001928E-02 0. -1.
        1   -1    0    0  501    0  0.00000000000E+00  0.00000000000E+00 -0.10438624600E+04  0.10438624600E+04  0.50400001928E-02 0.  1.
    10030    2    1    2    0    0  0.00000000000E+00  0.00000000000E+00 -0.49520207553E+03  0.15925228444E+04  0.15135732273E+04 0.  0.
        3    1    3    3  502    0 -0.43515939556E+02  0.22662093061E+03  0.51074021010E+03  0.56045183165E+03  0.10100000352E+00 0. -1.
       -3    1    3    3    0  502  0.43515939556E+02 -0.22662093061E+03 -0.10059422856E+04  0.10320710128E+04  0.10100000352E+00 0.  1.
</event>
<event>
 5   0  0.4785496E-04  0.1547675E+04  0.7818609E-02  0.8853354E-01
        2   -1    0    0  501    0  0.00000000000E+00  0.00000000000E+00  0.11025333724E+04  0.11025333724E+04  0.25500000920E-02 0. -1.
       -2   -1    0    0    0  501  0.00000000000E+00  0.00000000000E+00 -0.54313514431E+03  0.54313514432E+03  0.25500000920E-02 0.  1.
    10030    2    1    2    0    0  0.00000000000E+00  0.00000000000E+00  0.55939822808E+03  0.16456685167E+04  0.15476751886E+04 0.  0.
        4    1    3    3  502    0 -0.10459367899E+03 -0.54832472822E+02  0.10928940267E+04  0.10992567509E+04  0.12699999809E+01 0. -1.
       -4    1    3    3    0  502  0.10459367899E+03  0.54832472822E+02 -0.53349579866E+03  0.54641176584E+03  0.12699999809E+01 0.  1.
</event>
<event>
 5   0  0.4785496E-04  0.1505270E+04  0.7818609E-02  0.8880956E-01
        2   -1    0    0  501    0  0.00000000000E+00  0.00000000000E+00  0.12448886263E+04  0.12448886263E+04  0.25500000920E-02 0.  1.
       -2   -1    0    0    0  501  0.00000000000E+00  0.00000000000E+00 -0.45502809617E+03  0.45502809618E+03  0.25500000920E-02 0. -1.
    10030    2    1    2    0    0  0.00000000000E+00  0.00000000000E+00  0.78986053014E+03  0.16999167225E+04  0.15052698118E+04 0.  0.
        4    1    3    3  502    0  0.28441409313E+03 -0.64200633877E+03  0.70087577632E+03  0.99211490369E+03  0.12699999809E+01 0. -1.
       -4    1    3    3    0  502 -0.28441409313E+03  0.64200633877E+03  0.88984753821E+02  0.70780181880E+03  0.12699999809E+01 0.  1.
</event>
<event>
 5   0  0.2603873E-04  0.1499203E+04  0.7818609E-02  0.8884983E-01
        1   -1    0    0  501    0  0.00000000000E+00  0.00000000000E+00  0.15687730608E+04  0.15687730608E+04  0.50400001928E-02 0. -1.
       -1   -1    0    0    0  501  0.00000000000E+00  0.00000000000E+00 -0.35817951417E+03  0.35817951421E+03  0.50400001928E-02 0.  1.
    10030    2    1    2    0    0  0.00000000000E+00  0.00000000000E+00  0.12105935466E+04  0.19269525750E+04  0.14992029520E+04 0.  0.
        2    1    3    3  502    0 -0.42080884996E+03  0.40253585309E+03 -0.13776520442E+01  0.58233761613E+03  0.25500000920E-02 0.  1.
       -2    1    3    3    0  502  0.42080884996E+03 -0.40253585309E+03  0.12119711986E+04  0.13446149588E+04  0.25500000920E-02 0. -1.
</event>
<event>
 5   0  0.4785496E-04  0.1509901E+04  0.7818609E-02  0.8877895E-01
       -2   -1    0    0    0  501  0.00000000000E+00  0.00000000000E+00  0.82290090101E+03  0.82290090101E+03  0.25500000920E-02 0. -1.
        2   -1    0    0  501    0  0.00000000000E+00  0.00000000000E+00 -0.69261108604E+03  0.69261108605E+03  0.25500000920E-02 0.  1.
    10030    2    1    2    0    0  0.00000000000E+00  0.00000000000E+00  0.13028981496E+03  0.15155119871E+04  0.15099010388E+04 0.  0.
        4    1    3    3  502    0 -0.29401972937E+03 -0.57309208494E+03  0.46039313668E+03  0.79173580965E+03  0.12699999809E+01 0. -1.
       -4    1    3    3    0  502  0.29401972937E+03  0.57309208494E+03 -0.33010332172E+03  0.72377617741E+03  0.12699999809E+01 0.  1.
</event>
<event>
 5   0  0.4948645E-04  0.1496439E+04  0.7818609E-02  0.8886825E-01
        2   -1    0    0  501    0  0.00000000000E+00  0.00000000000E+00  0.88298192792E+03  0.88298192792E+03  0.25500000920E-02 0. -1.
       -2   -1    0    0    0  501  0.00000000000E+00  0.00000000000E+00 -0.63402447550E+03  0.63402447550E+03  0.25500000920E-02 0.  1.
    10030    2    1    2    0    0  0.00000000000E+00  0.00000000000E+00  0.24895745242E+03  0.15170064034E+04  0.14964386439E+04 0.  0.
        1    1    3    3  502    0 -0.32757684038E+03  0.65284077496E+03  0.28895697803E+03  0.78549589368E+03  0.50400001928E-02 0.  1.
       -1    1    3    3    0  502  0.32757684038E+03 -0.65284077496E+03 -0.39999525607E+02  0.73151050975E+03  0.50400001928E-02 0. -1.
</event>
<event>
 5   0  0.4785496E-04  0.1504348E+04  0.7818609E-02  0.8881567E-01
       -2   -1    0    0    0  501  0.00000000000E+00  0.00000000000E+00  0.28569252573E+03  0.28569252574E+03  0.25500000920E-02 0.  1.
        2   -1    0    0  501    0  0.00000000000E+00  0.00000000000E+00 -0.19803312184E+04  0.19803312185E+04  0.25500000920E-02 0. -1.
    10030    2    1    2    0    0  0.00000000000E+00  0.00000000000E+00 -0.16946386927E+04  0.22660237442E+04  0.15043481347E+04 0.  0.
        4    1    3    3  502    0 -0.39591238177E+03 -0.50877950715E+03 -0.14310260757E+04  0.15695351042E+04  0.12699999809E+01 0. -1.
       -4    1    3    3    0  502  0.39591238177E+03  0.50877950715E+03 -0.26361261699E+03  0.69648864001E+03  0.12699999809E+01 0.  1.
</event>
<event>
 5   0  0.2605471E-04  0.1502964E+04  0.7818609E-02  0.8882484E-01
        1   -1    0    0  501    0  0.00000000000E+00  0.00000000000E+00  0.15443858245E+04  0.15443858246E+04  0.50400001928E-02 0. -1.
       -1   -1    0    0    0  501  0.00000000000E+00  0.00000000000E+00 -0.36566320316E+03  0.36566320319E+03  0.50400001928E-02 0.  1.
    10030    2    1    2    0    0  0.00000000000E+00  0.00000000000E+00  0.11787226214E+04  0.19100490277E+04  0.15029638286E+04 0.  0.
        3    1    3    3  502    0 -0.58665187016E+03 -0.46945460699E+03  0.60626953626E+03  0.96545885753E+03  0.10100000352E+00 0.  1.
       -3    1    3    3    0  502  0.58665187016E+03  0.46945460699E+03  0.57245308514E+03  0.94459017022E+03  0.10100000352E+00 0. -1.
</event>
<event>
 5   0  0.4569211E-04  0.1466809E+04  0.7818609E-02  0.8906829E-01
       -2   -1    0    0    0  501  0.00000000000E+00  0.00000000000E+00  0.48085077599E+03  0.48085077600E+03  0.25500000920E-02 0. -1.
        2   -1    0    0  501    0  0.00000000000E+00  0.00000000000E+00 -0.11186053774E+04  0.11186053774E+04  0.25500000920E-02 0.  1.
    10030    2    1    2    0    0  0.00000000000E+00  0.00000000000E+00 -0.63775460142E+03  0.15994561534E+04  0.14668091406E+04 0.  0.
        5    1    3    3  502    0 -0.45704989278E+03 -0.37228039397E+03 -0.79465191805E+03  0.98943471593E+03  0.46999998093E+01 0. -1.
       -5    1    3    3    0  502  0.45704989278E+03  0.37228039397E+03  0.15689731663E+03  0.61002143748E+03  0.46999998093E+01 0.  1.
</event>
<event>
 5   0  0.2605471E-04  0.1495470E+04  0.7818609E-02  0.8887471E-01
       -1   -1    0    0    0  501  0.00000000000E+00  0.00000000000E+00  0.86513104113E+03  0.86513104114E+03  0.50400001928E-02 0.  1.
        1   -1    0    0  501    0  0.00000000000E+00  0.00000000000E+00 -0.64626895907E+03  0.64626895909E+03  0.50400001928E-02 0. -1.
    10030    2    1    2    0    0  0.00000000000E+00  0.00000000000E+00  0.21886208206E+03  0.15114000002E+04  0.14954696084E+04 0.  0.
        3    1    3    3  502    0  0.23397635601E+03 -0.54063040335E+03 -0.35599734879E+03  0.68830247039E+03  0.10100000352E+00 0. -1.
       -3    1    3    3    0  502 -0.23397635601E+03  0.54063040335E+03  0.57485943085E+03  0.82309752984E+03  0.10100000352E+00 0.  1.
</event>
<event>
 5   0  0.2605471E-04  0.1498599E+04  0.7818609E-02  0.8885385E-01
        1   -1    0    0  501    0  0.00000000000E+00  0.00000000000E+00  0.11476999142E+04  0.11476999142E+04  0.50400001928E-02 0.  1.
       -1   -1    0    0    0  501  0.00000000000E+00  0.00000000000E+00 -0.48919574993E+03  0.48919574995E+03  0.50400001928E-02 0. -1.
    10030    2    1    2    0    0  0.00000000000E+00  0.00000000000E+00  0.65850416424E+03  0.16368956641E+04  0.14985992396E+04 0.  0.
        3    1    3    3  502    0  0.60939169910E+02 -0.71628657331E+03  0.56010897539E+03  0.91131888603E+03  0.10100000352E+00 0.  1.
       -3    1    3    3    0  502 -0.60939169910E+02  0.71628657331E+03  0.98395188847E+02  0.72557677810E+03  0.10100000352E+00 0. -1.
</event>
<event>
 5   0  0.4768387E-04  0.1452904E+04  0.7818609E-02  0.8916390E-01
        2   -1    0    0  501    0  0.00000000000E+00  0.00000000000E+00  0.13840420079E+04  0.13840420079E+04  0.25500000920E-02 0.  1.
       -2   -1    0    0    0  501  0.00000000000E+00  0.00000000000E+00 -0.38129808549E+03  0.38129808550E+03  0.25500000920E-02 0. -1.
    10030    2    1    2    0    0  0.00000000000E+00  0.00000000000E+00  0.10027439224E+04  0.17653400934E+04  0.14529040820E+04 0.  0.
        3    1    3    3  502    0  0.18511941022E+03  0.29900468561E+02  0.13541286242E+04  0.13670506850E+04  0.10100000352E+00 0.  1.
       -3    1    3    3    0  502 -0.18511941022E+03 -0.29900468561E+02 -0.35138470179E+03  0.39828940848E+03  0.10100000352E+00 0. -1.
</event>
<event>
 5   0  0.2542737E-04  0.1454782E+04  0.7818609E-02  0.8915092E-01
       -1   -1    0    0    0  501  0.00000000000E+00  0.00000000000E+00  0.12793106771E+04  0.12793106771E+04  0.50400001928E-02 0. -1.
        1   -1    0    0  501    0  0.00000000000E+00  0.00000000000E+00 -0.41358040846E+03  0.41358040849E+03  0.50400001928E-02 0.  1.
    10030    2    1    2    0    0  0.00000000000E+00  0.00000000000E+00  0.86573026860E+03  0.16928910855E+04  0.14547822275E+04 0.  0.
        1    1    3    3  502    0 -0.39679446253E+03 -0.46324780447E+03  0.89402848239E+03  0.10822806019E+04  0.50400001928E-02 0. -1.
       -1    1    3    3    0  502  0.39679446253E+03  0.46324780447E+03 -0.28298213791E+02  0.61061048367E+03  0.50400001928E-02 0.  1.
</event>
<event>
 5   0  0.2544374E-04  0.1492063E+04  0.7818609E-02  0.8889748E-01
       -1   -1    0    0    0  501  0.00000000000E+00  0.00000000000E+00  0.41143874345E+03  0.41143874348E+03  0.50400001928E-02 0. -1.
        1   -1    0    0  501    0  0.00000000000E+00  0.00000000000E+00 -0.13527239459E+04  0.13527239459E+04  0.50400001928E-02 0.  1.
    10030    2    1    2    0    0  0.00000000000E+00  0.00000000000E+00 -0.94128520243E+03  0.17641626894E+04  0.14920630557E+04 0.  0.
        4    1    3    3  502    0 -0.40609991689E+03  0.45906124613E+03 -0.97353979308E+03  0.11504067593E+04  0.12699999809E+01 0.  1.
       -4    1    3    3    0  502  0.40609991689E+03 -0.45906124613E+03  0.32254590649E+02  0.61375593008E+03  0.12699999809E+01 0. -1.
</event>
<event>
 5   0  0.2565416E-04  0.1506655E+04  0.7818609E-02  0.8880040E-01
        1   -1    0    0  501    0  0.00000000000E+00  0.00000000000E+00  0.64972537231E+03  0.64972537233E+03  0.50400001928E-02 0.  1.
       -1   -1    0    0    0  501  0.00000000000E+00  0.00000000000E+00 -0.87344905661E+03  0.87344905662E+03  0.50400001928E-02 0. -1.
    10030    2    1    2    0    0  0.00000000000E+00  0.00000000000E+00 -0.22372368429E+03  0.15231744290E+04  0.15066545902E+04 0.  0.
        5    1    3    3  502    0  0.42708732847E+03  0.60238217439E+03 -0.26253305885E+03  0.78371778539E+03  0.46999998093E+01 0. -1.
       -5    1    3    3    0  502 -0.42708732847E+03 -0.60238217439E+03  0.38809374557E+02  0.73945664356E+03  0.46999998093E+01 0.  1.
</event>
<event>
 5   0  0.2544374E-04  0.1498940E+04  0.7818609E-02  0.8885158E-01
       -1   -1    0    0    0  501  0.00000000000E+00  0.00000000000E+00  0.15396253768E+04  0.15396253768E+04  0.50400001928E-02 0. -1.
        1   -1    0    0  501    0  0.00000000000E+00  0.00000000000E+00 -0.36483254751E+03  0.36483254755E+03  0.50400001928E-02 0.  1.
    10030    2    1    2    0    0  0.00000000000E+00  0.00000000000E+00  0.11747928293E+04  0.19044579243E+04  0.14989402236E+04 0.  0.
        4    1    3    3  502    0  0.39864731251E+03  0.61759247010E+03  0.77310212987E+03  0.10667842589E+04  0.12699999809E+01 0. -1.
       -4    1    3    3    0  502 -0.39864731251E+03 -0.61759247010E+03  0.40169069938E+03  0.83767366544E+03  0.12699999809E+01 0.  1.
</event>
<event>
 5   0  0.2542737E-04  0.1434756E+04  0.7818609E-02  0.8929038E-01
        1   -1    0    0  501    0  0.00000000000E+00  0.00000000000E+00  0.11193468311E+04  0.11193468311E+04  0.50400001928E-02 0. -1.
       -1   -1    0    0    0  501  0.00000000000E+00  0.00000000000E+00 -0.45976011067E+03  0.45976011070E+03  0.50400001928E-02 0.  1.
    10030    2    1    2    0    0  0.00000000000E+00  0.00000000000E+00  0.65958672040E+03  0.15791069418E+04  0.14347557604E+04 0.  0.
        1    1    3    3  502    0 -0.37761048384E+03 -0.43273191182E+03  0.80290786432E+03  0.98717152695E+03  0.50400001928E-02 0.  1.
       -1    1    3    3    0  502  0.37761048384E+03  0.43273191182E+03 -0.14332114392E+03  0.59193541483E+03  0.50400001928E-02 0. -1.
</event>
<event>
 5   0  0.4785496E-04  0.1496929E+04  0.7818609E-02  0.8886497E-01
       -2   -1    0    0    0  501  0.00000000000E+00  0.00000000000E+00  0.37237653217E+03  0.37237653218E+03  0.25500000920E-02 0. -1.
        2   -1    0    0  501    0  0.00000000000E+00  0.00000000000E+00 -0.15043897151E+04  0.15043897151E+04  0.25500000920E-02 0.  1.
    10030    2    1    2    0    0  0.00000000000E+00  0.00000000000E+00 -0.11320131829E+04  0.18767662473E+04  0.14969294240E+04 0.  0.
        4    1    3    3  502    0 -0.36467988296E+03 -0.28935586186E+03 -0.13007899656E+04  0.13815840110E+04  0.12699999809E+01 0.  1.
       -4    1    3    3    0  502  0.36467988296E+03  0.28935586186E+03  0.16877678273E+03  0.49518223626E+03  0.12699999809E+01 0. -1.
</event>
<event>
 5   0  0.2544374E-04  0.1492105E+04  0.7818609E-02  0.8889720E-01
       -1   -1    0    0    0  501  0.00000000000E+00  0.00000000000E+00  0.92355122603E+03  0.92355122604E+03  0.50400001928E-02 0. -1.
        1   -1    0    0  501    0  0.00000000000E+00  0.00000000000E+00 -0.60266746767E+03  0.60266746769E+03  0.50400001928E-02 0.  1.
    10030    2    1    2    0    0  0.00000000000E+00  0.00000000000E+00  0.32088375836E+03  0.15262186937E+04  0.14921049275E+04 0.  0.
        4    1    3    3  502    0  0.42546537437E+03 -0.53146548288E+02  0.78493070532E+03  0.89440659962E+03  0.12699999809E+01 0. -1.
       -4    1    3    3    0  502 -0.42546537437E+03  0.53146548288E+02 -0.46404694696E+03  0.63181209412E+03  0.12699999809E+01 0.  1.
</event>
<event>
 5   0  0.2544374E-04  0.1532652E+04  0.7818609E-02  0.8863026E-01
       -1   -1    0    0    0  501  0.00000000000E+00  0.00000000000E+00  0.74645625798E+03  0.74645625800E+03  0.50400001928E-02 0.  1.
        1   -1    0    0  501    0  0.00000000000E+00  0.00000000000E+00 -0.78672431324E+03  0.78672431325E+03  0.50400001928E-02 0. -1.
    10030    2    1    2    0    0  0.00000000000E+00  0.00000000000E+00 -0.40268055254E+02  0.15331805712E+04  0.15326516720E+04 0.  0.
        4    1    3    3  502    0 -0.75219107173E+03 -0.11638009411E+03 -0.10914753822E+03  0.76892817134E+03  0.12699999809E+01 0. -1.
       -4    1    3    3    0  502  0.75219107173E+03  0.11638009411E+03  0.68879482964E+02  0.76425239991E+03  0.12699999809E+01 0.  1.
</event>
<event>
 5   0  0.2605471E-04  0.1473939E+04  0.7818609E-02  0.8901970E-01
        1   -1    0    0  501    0  0.00000000000E+00  0.00000000000E+00  0.53507188512E+03  0.53507188515E+03  0.50400001928E-02 0. -1.
       -1   -1    0    0    0  501  0.00000000000E+00  0.00000000000E+00 -0.10150492466E+04  0.10150492467E+04  0.50400001928E-02 0.  1.
    10030    2    1    2    0    0  0.00000000000E+00  0.00000000000E+00 -0.47997736152E+03  0.15501211318E+04  0.14739393664E+04 0.  0.
        3    1    3    3  502    0  0.60927091231E+03 -0.34159006699E+03  0.71675232138E+01  0.69853146102E+03  0.10100000352E+00 0. -1.
       -3    1    3    3    0  502 -0.60927091231E+03  0.34159006699E+03 -0.48714488474E+03  0.85158967078E+03  0.10100000352E+00 0.  1.
</event>
<event>
 5   0  0.2605471E-04  0.1503021E+04  0.7818609E-02  0.8882446E-01
        1   -1    0    0  501    0  0.00000000000E+00  0.00000000000E+00  0.17788261450E+04  0.17788261450E+04  0.50400001928E-02 0.  1.
       -1   -1    0    0    0  501  0.00000000000E+00  0.00000000000E+00 -0.31749487653E+03  0.31749487657E+03  0.50400001928E-02 0. -1.
    10030    2    1    2    0    0  0.00000000000E+00  0.00000000000E+00  0.14613312685E+04  0.20963210216E+04  0.15030212072E+04 0.  0.
        3    1    3    3  502    0 -0.58068724826E+03  0.20072747745E+02  0.65904135459E+02  0.58475974619E+03  0.10100000352E+00 0. -1.
       -3    1    3    3    0  502  0.58068724826E+03 -0.20072747745E+02  0.13954271330E+04  0.15115612754E+04  0.10100000352E+00 0.  1.
</event>
<event>
 5   0  0.4785496E-04  0.1495059E+04  0.7818609E-02  0.8887745E-01
        2   -1    0    0  501    0  0.00000000000E+00  0.00000000000E+00  0.23929483129E+04  0.23929483129E+04  0.25500000920E-02 0. -1.
       -2   -1    0    0    0  501  0.00000000000E+00  0.00000000000E+00 -0.23351974127E+03  0.23351974128E+03  0.25500000920E-02 0.  1.
    10030    2    1    2    0    0  0.00000000000E+00  0.00000000000E+00  0.21594285716E+04  0.26264680542E+04  0.14950594248E+04 0.  0.
        4    1    3    3  502    0  0.37626661140E+03  0.56796716675E+03  0.53928188353E+03  0.86890150659E+03  0.12699999809E+01 0.  1.
       -4    1    3    3    0  502 -0.37626661140E+03 -0.56796716675E+03  0.16201466881E+04  0.17575665476E+04  0.12699999809E+01 0. -1.
</event>
<event>
 5   0  0.2603873E-04  0.1498190E+04  0.7818609E-02  0.8885657E-01
        1   -1    0    0  501    0  0.00000000000E+00  0.00000000000E+00  0.14014289300E+04  0.14014289300E+04  0.50400001928E-02 0.  1.
       -1   -1    0    0    0  501  0.00000000000E+00  0.00000000000E+00 -0.40040807329E+03  0.40040807332E+03  0.50400001928E-02 0. -1.
    10030    2    1    2    0    0  0.00000000000E+00  0.00000000000E+00  0.10010208567E+04  0.18018370033E+04  0.14981901852E+04 0.  0.
        2    1    3    3  502    0 -0.37824410792E+03  0.12161605072E+03  0.12642657675E+04  0.13252271503E+04  0.25500000920E-02 0.  1.
       -2    1    3    3    0  502  0.37824410792E+03 -0.12161605072E+03 -0.26324491078E+03  0.47660985305E+03  0.25500000920E-02 0. -1.
</event>
<event>
 5   0  0.2544374E-04  0.1508014E+04  0.7818609E-02  0.8879141E-01
       -1   -1    0    0    0  501  0.00000000000E+00  0.00000000000E+00  0.46345106331E+03  0.46345106334E+03  0.50400001928E-02 0.  1.
        1   -1    0    0  501    0  0.00000000000E+00  0.00000000000E+00 -0.12267232690E+04  0.12267232690E+04  0.50400001928E-02 0. -1.
    10030    2    1    2    0    0  0.00000000000E+00  0.00000000000E+00 -0.76327220571E+03  0.16901743324E+04  0.15080135324E+04 0.  0.
        4    1    3    3  502    0 -0.69683917513E+03  0.18422804948E+02 -0.59516451969E+02  0.69961993732E+03  0.12699999809E+01 0.  1.
       -4    1    3    3    0  502  0.69683917513E+03 -0.18422804948E+02 -0.70375575374E+03  0.99055439506E+03  0.12699999809E+01 0. -1.
</event>
<event>
 5   0  0.4785496E-04  0.1502219E+04  0.7818609E-02  0.8882979E-01
       -2   -1    0    0    0  501  0.00000000000E+00  0.00000000000E+00  0.58644641801E+03  0.58644641802E+03  0.25500000920E-02 0. -1.
        2   -1    0    0  501    0  0.00000000000E+00  0.00000000000E+00 -0.96200681447E+03  0.96200681447E+03  0.25500000920E-02 0.  1.
    10030    2    1    2    0    0  0.00000000000E+00  0.00000000000E+00 -0.37556039646E+03  0.15484532325E+04  0.15022189593E+04 0.  0.
        4    1    3    3  502    0 -0.62750857383E+02  0.68826819693E+03 -0.49096378199E+03  0.84776047863E+03  0.12699999809E+01 0.  1.
       -4    1    3    3    0  502  0.62750857383E+02 -0.68826819693E+03  0.11540338554E+03  0.70069275385E+03  0.12699999809E+01 0. -1.
</event>
<event>
 5   0  0.4569211E-04  0.1498255E+04  0.7818609E-02  0.8885614E-01
        2   -1    0    0  501    0  0.00000000000E+00  0.00000000000E+00  0.18282133967E+04  0.18282133967E+04  0.25500000920E-02 0. -1.
       -2   -1    0    0    0  501  0.00000000000E+00  0.00000000000E+00 -0.30696178518E+03  0.30696178519E+03  0.25500000920E-02 0.  1.
    10030    2    1    2    0    0  0.00000000000E+00  0.00000000000E+00  0.15212516115E+04  0.21351751819E+04  0.14982545150E+04 0.  0.
        5    1    3    3  502    0 -0.17743329668E+03 -0.11843270438E+03  0.17839893108E+04  0.17967049928E+04  0.46999998093E+01 0. -1.
       -5    1    3    3    0  502  0.17743329668E+03  0.11843270438E+03 -0.26273769929E+03  0.33847018903E+03  0.46999998093E+01 0.  1.
</event>
<event>
 5   0  0.2544374E-04  0.1508547E+04  0.7818609E-02  0.8878789E-01
       -1   -1    0    0    0  501  0.00000000000E+00  0.00000000000E+00  0.52139103849E+03  0.52139103851E+03  0.50400001928E-02 0. -1.
        1   -1    0    0  501    0  0.00000000000E+00  0.00000000000E+00 -0.10911743013E+04  0.10911743013E+04  0.50400001928E-02 0.  1.
    10030    2    1    2    0    0  0.00000000000E+00  0.00000000000E+00 -0.56978326278E+03  0.16125653398E+04  0.15085469859E+04 0.  0.
        4    1    3    3  502    0  0.13818902699E+02  0.28791071763E+03 -0.10299779844E+04  0.10695512165E+04  0.12699999809E+01 0.  1.
       -4    1    3    3    0  502 -0.13818902699E+02 -0.28791071763E+03  0.46019472164E+03  0.54301412331E+03  0.12699999809E+01 0. -1.
</event>
<event>
 5   0  0.4785496E-04  0.1501588E+04  0.7818609E-02  0.8883398E-01
        2   -1    0    0  501    0  0.00000000000E+00  0.00000000000E+00  0.79926930818E+03  0.79926930818E+03  0.25500000920E-02 0.  1.
       -2   -1    0    0    0  501  0.00000000000E+00  0.00000000000E+00 -0.70525826156E+03  0.70525826157E+03  0.25500000920E-02 0. -1.
    10030    2    1    2    0    0  0.00000000000E+00  0.00000000000E+00  0.94011046619E+02  0.15045275697E+04  0.15015875370E+04 0.  0.
        4    1    3    3  502    0 -0.62170653944E+03 -0.38574744948E+03 -0.12175689854E+03  0.74171859300E+03  0.12699999809E+01 0.  1.
       -4    1    3    3    0  502  0.62170653944E+03  0.38574744948E+03  0.21576794515E+03  0.76280897675E+03  0.12699999809E+01 0. -1.
</event>
<event>
 5   0  0.4768387E-04  0.1515547E+04  0.7818609E-02  0.8874180E-01
        2   -1    0    0  501    0  0.00000000000E+00  0.00000000000E+00  0.90269049407E+03  0.90269049407E+03  0.25500000920E-02 0.  1.
       -2   -1    0    0    0  501  0.00000000000E+00  0.00000000000E+00 -0.63612110335E+03  0.63612110336E+03  0.25500000920E-02 0. -1.
    10030    2    1    2    0    0  0.00000000000E+00  0.00000000000E+00  0.26656939072E+03  0.15388115974E+04  0.15155467305E+04 0.  0.
        3    1    3    3  502    0  0.96149673659E+02 -0.30790761207E+03 -0.56292959317E+03  0.64880011898E+03  0.10100000352E+00 0. -1.
       -3    1    3    3    0  502 -0.96149673659E+02  0.30790761207E+03  0.82949898388E+03  0.89001147846E+03  0.10100000352E+00 0.  1.
</event>
<event>
 5   0  0.2565416E-04  0.1485990E+04  0.7818609E-02  0.8893823E-01
        1   -1    0    0  501    0  0.00000000000E+00  0.00000000000E+00  0.13359309903E+04  0.13359309903E+04  0.50400001928E-02 0. -1.
       -1   -1    0    0    0  501  0.00000000000E+00  0.00000000000E+00 -0.41322612217E+03  0.41322612220E+03  0.50400001928E-02 0.  1.
    10030    2    1    2    0    0  0.00000000000E+00  0.00000000000E+00  0.92270486813E+03  0.17491571125E+04  0.14859900170E+04 0.  0.
        5    1    3    3  502    0 -0.50683363825E+03  0.52182773428E+02  0.10978746693E+04  0.12103529478E+04  0.46999998093E+01 0. -1.
       -5    1    3    3    0  502  0.50683363825E+03 -0.52182773428E+02 -0.17516980116E+03  0.53880416474E+03  0.46999998093E+01 0.  1.
</event>
<event>
 5   0  0.4726600E-04  0.1496367E+04  0.7818609E-02  0.8886873E-01
       -2   -1    0    0    0  501  0.00000000000E+00  0.00000000000E+00  0.31578243990E+03  0.31578243991E+03  0.25500000920E-02 0. -1.
        2   -1    0    0  501    0  0.00000000000E+00  0.00000000000E+00 -0.17726706235E+04  0.17726706235E+04  0.25500000920E-02 0.  1.
    10030    2    1    2    0    0  0.00000000000E+00  0.00000000000E+00 -0.14568881836E+04  0.20884530634E+04  0.14963666057E+04 0.  0.
        2    1    3    3  502    0  0.20458103261E+03 -0.71958519304E+03 -0.74386027169E+03  0.10549807357E+04  0.25500000920E-02 0. -1.
       -2    1    3    3    0  502 -0.20458103261E+03  0.71958519304E+03 -0.71302791193E+03  0.10334723277E+04  0.25500000920E-02 0.  1.
</event>
<event>
 5   0  0.2565416E-04  0.1503552E+04  0.7818609E-02  0.8882094E-01
        1   -1    0    0  501    0  0.00000000000E+00  0.00000000000E+00  0.10322171335E+04  0.10322171335E+04  0.50400001928E-02 0.  1.
       -1   -1    0    0    0  501  0.00000000000E+00  0.00000000000E+00 -0.54752730229E+03  0.54752730231E+03  0.50400001928E-02 0. -1.
    10030    2    1    2    0    0  0.00000000000E+00  0.00000000000E+00  0.48468983123E+03  0.15797444358E+04  0.15035518781E+04 0.  0.
        5    1    3    3  502    0 -0.13026152514E+03  0.70733810176E+03  0.47217565038E+03  0.86038781368E+03  0.46999998093E+01 0.  1.
       -5    1    3    3    0  502  0.13026152514E+03 -0.70733810176E+03  0.12514180857E+02  0.71935662216E+03  0.46999998093E+01 0. -1.
</event>
<event>
 5   0  0.4726600E-04  0.1512609E+04  0.7818609E-02  0.8876111E-01
        2   -1    0    0  501    0  0.00000000000E+00  0.00000000000E+00  0.11653346432E+04  0.11653346432E+04  0.25500000920E-02 0. -1.
       -2   -1    0    0    0  501  0.00000000000E+00  0.00000000000E+00 -0.49084309136E+03  0.49084309137E+03  0.25500000920E-02 0.  1.
    10030    2    1    2    0    0  0.00000000000E+00  0.00000000000E+00  0.67449155179E+03  0.16561777345E+04  0.15126089498E+04 0.  0.
        2    1    3    3  502    0  0.34262881900E+03 -0.60023379681E+03  0.97799512979E+00  0.69114113965E+03  0.25500000920E-02 0. -1.
       -2    1    3    3    0  502 -0.34262881900E+03  0.60023379681E+03  0.67351355666E+03  0.96503659488E+03  0.25500000920E-02 0.  1.
</event>
<event>
 5   0  0.2605471E-04  0.1467966E+04  0.7818609E-02  0.8906039E-01
       -1   -1    0    0    0  501  0.00000000000E+00  0.00000000000E+00  0.15096517540E+04  0.15096517540E+04  0.50400001928E-02 0.  1.
        1   -1    0    0  501    0  0.00000000000E+00  0.00000000000E+00 -0.35685804154E+03  0.35685804157E+03  0.50400001928E-02 0. -1.
    10030    2    1    2    0    0  0.00000000000E+00  0.00000000000E+00  0.11527937125E+04  0.18665097956E+04  0.14679664416E+04 0.  0.
        3    1    3    3  502    0  0.54442507397E+03  0.34475490445E+03  0.10231902531E+04  0.12092034194E+04  0.10100000352E+00 0.  1.
       -3    1    3    3    0  502 -0.54442507397E+03 -0.34475490445E+03  0.12960345940E+03  0.65730637620E+03  0.10100000352E+00 0. -1.
</event>
<event>
 5   0  0.4768387E-04  0.1494018E+04  0.7818609E-02  0.8888441E-01
        2   -1    0    0  501    0  0.00000000000E+00  0.00000000000E+00  0.45925385434E+03  0.45925385435E+03  0.25500000920E-02 0.  1.
       -2   -1    0    0    0  501  0.00000000000E+00  0.00000000000E+00 -0.12150624167E+04  0.12150624167E+04  0.25500000920E-02 0. -1.
    10030    2    1    2    0    0  0.00000000000E+00  0.00000000000E+00 -0.75580856234E+03  0.16743162710E+04  0.14940175342E+04 0.  0.
        3    1    3    3  502    0 -0.84950652302E+02  0.26807254379E+03  0.39767023495E+03  0.48705351660E+03  0.10100000352E+00 0.  1.
       -3    1    3    3    0  502  0.84950652302E+02 -0.26807254379E+03 -0.11534787973E+04  0.11872627544E+04  0.10100000352E+00 0. -1.
</event>
<event>
 5   0  0.2603873E-04  0.1514206E+04  0.7818609E-02  0.8875060E-01
        1   -1    0    0  501    0  0.00000000000E+00  0.00000000000E+00  0.11145807221E+04  0.11145807221E+04  0.50400001928E-02 0. -1.
       -1   -1    0    0    0  501  0.00000000000E+00  0.00000000000E+00 -0.51427875930E+03  0.51427875933E+03  0.50400001928E-02 0.  1.
    10030    2    1    2    0    0  0.00000000000E+00  0.00000000000E+00  0.60030196280E+03  0.16288594814E+04  0.15142063148E+04 0.  0.
        2    1    3    3  502    0 -0.55233081286E+03 -0.36431161481E+03  0.69599911807E+03  0.96031612081E+03  0.25500000920E-02 0. -1.
       -2    1    3    3    0  502  0.55233081286E+03  0.36431161481E+03 -0.95697155265E+02  0.66854336064E+03  0.25500000920E-02 0.  1.
</event>
<event>
 5   0  0.2542737E-04  0.1497372E+04  0.7818609E-02  0.8886203E-01
       -1   -1    0    0    0  501  0.00000000000E+00  0.00000000000E+00  0.70566498781E+03  0.70566498783E+03  0.50400001928E-02 0.  1.
        1   -1    0    0  501    0  0.00000000000E+00  0.00000000000E+00 -0.79432950673E+03  0.79432950674E+03  0.50400001928E-02 0. -1.
    10030    2    1    2    0    0  0.00000000000E+00  0.00000000000E+00 -0.88664518914E+02  0.14999944946E+04  0.14973717263E+04 0.  0.
        1    1    3    3  502    0 -0.46854050301E+03  0.36934329364E+03 -0.49743619380E+03  0.77678017383E+03  0.50400001928E-02 0. -1.
       -1    1    3    3    0  502  0.46854050301E+03 -0.36934329364E+03  0.40877167489E+03  0.72321432075E+03  0.50400001928E-02 0.  1.
</event>
<event>
 5   0  0.4726600E-04  0.1505530E+04  0.7818609E-02  0.8880784E-01
       -2   -1    0    0    0  501  0.00000000000E+00  0.00000000000E+00  0.63910118158E+03  0.63910118159E+03  0.25500000920E-02 0.  1.
        2   -1    0    0  501    0  0.00000000000E+00  0.00000000000E+00 -0.88664353589E+03  0.88664353590E+03  0.25500000920E-02 0. -1.
    10030    2    1    2    0    0  0.00000000000E+00  0.00000000000E+00 -0.24754235431E+03  0.15257447175E+04  0.15055297160E+04 0.  0.
        2    1    3    3  502    0  0.64560442902E+03  0.22441093138E+03 -0.44342606970E+03  0.81473432737E+03  0.25500000920E-02 0.  1.
       -2    1    3    3    0  502 -0.64560442902E+03 -0.22441093138E+03  0.19588371539E+03  0.71101039012E+03  0.25500000920E-02 0. -1.
</event>
<event>
 5   0  0.2605471E-04  0.1482259E+04  0.7818609E-02  0.8896337E-01
        1   -1    0    0  501    0  0.00000000000E+00  0.00000000000E+00  0.25127658547E+04  0.25127658547E+04  0.50400001928E-02 0.  1.
       -1   -1    0    0    0  501  0.00000000000E+00  0.00000000000E+00 -0.21859289554E+03  0.21859289560E+03  0.50400001928E-02 0. -1.
    10030    2    1    2    0    0  0.00000000000E+00  0.00000000000E+00  0.22941729592E+04  0.27313587503E+04  0.14822587684E+04 0.  0.
        3    1    3    3  502    0  0.73686688271E+03 -0.78366926696E+02  0.11702910348E+04  0.13851697709E+04  0.10100000352E+00 0.  1.
       -3    1    3    3    0  502 -0.73686688271E+03  0.78366926696E+02  0.11238819244E+04  0.13461889794E+04  0.10100000352E+00 0. -1.
</event>
<event>
 5   0  0.4785496E-04  0.1534732E+04  0.7818609E-02  0.8861679E-01
        2   -1    0    0  501    0  0.00000000000E+00  0.00000000000E+00  0.11848621238E+04  0.11848621238E+04  0.25500000920E-02 0.  1.
       -2   -1    0    0    0  501  0.00000000000E+00  0.00000000000E+00 -0.49697815419E+03  0.49697815420E+03  0.25500000920E-02 0. -1.
    10030    2    1    2    0    0  0.00000000000E+00  0.00000000000E+00  0.68788396961E+03  0.16818402780E+04  0.15347320173E+04 0.  0.
        4    1    3    3  502    0 -0.70267231207E+03 -0.20087675594E+03  0.87528534007E+02  0.73604531545E+03  0.12699999809E+01 0. -1.
       -4    1    3    3    0  502  0.70267231207E+03  0.20087675594E+03  0.60035543560E+03  0.94579496255E+03  0.12699999809E+01 0.  1.
</event>
<event>
 5   0  0.4768387E-04  0.1493467E+04  0.7818609E-02  0.8888809E-01
        2   -1    0    0  501    0  0.00000000000E+00  0.00000000000E+00  0.10051330534E+04  0.10051330534E+04  0.25500000920E-02 0.  1.
       -2   -1    0    0    0  501  0.00000000000E+00  0.00000000000E+00 -0.55476302927E+03  0.55476302928E+03  0.25500000920E-02 0. -1.
    10030    2    1    2    0    0  0.00000000000E+00  0.00000000000E+00  0.45037002416E+03  0.15598960827E+04  0.14934666485E+04 0.  0.
        3    1    3    3  502    0 -0.17346629401E+03 -0.67791305598E+03 -0.47089877259E+02  0.70133738912E+03  0.10100000352E+00 0. -1.
       -3    1    3    3    0  502  0.17346629401E+03  0.67791305598E+03  0.49745990142E+03  0.85855869360E+03  0.10100000352E+00 0.  1.
</event>
<event>
 5   0  0.4569211E-04  0.1495296E+04  0.7818609E-02  0.8887587E-01
        2   -1    0    0  501    0  0.00000000000E+00  0.00000000000E+00  0.13677152256E+04  0.13677152256E+04  0.25500000920E-02 0. -1.
       -2   -1    0    0    0  501  0.00000000000E+00  0.00000000000E+00 -0.40869455003E+03  0.40869455004E+03  0.25500000920E-02 0.  1.
    10030    2    1    2    0    0  0.00000000000E+00  0.00000000000E+00  0.95902067559E+03  0.17764097757E+04  0.14952963034E+04 0.  0.
        5    1    3    3  502    0 -0.15418512938E+02  0.73758971264E+03  0.62344631694E+03  0.96591082137E+03  0.46999998093E+01 0. -1.
       -5    1    3    3    0  502  0.15418512938E+02 -0.73758971264E+03  0.33557435864E+03  0.81049895429E+03  0.46999998093E+01 0.  1.
</event>
<event>
 5   0  0.2544374E-04  0.1515608E+04  0.7818609E-02  0.8874139E-01
       -1   -1    0    0    0  501  0.00000000000E+00  0.00000000000E+00  0.75337407587E+03  0.75337407589E+03  0.50400001928E-02 0.  1.
        1   -1    0    0  501    0  0.00000000000E+00  0.00000000000E+00 -0.76226038563E+03  0.76226038565E+03  0.50400001928E-02 0. -1.
    10030    2    1    2    0    0  0.00000000000E+00  0.00000000000E+00 -0.88863097594E+01  0.15156344615E+04  0.15156084107E+04 0.  0.
        4    1    3    3  502    0  0.24556082157E+03 -0.50932787974E+02 -0.71955777100E+03  0.76201001613E+03  0.12699999809E+01 0. -1.
       -4    1    3    3    0  502 -0.24556082157E+03  0.50932787974E+02  0.71067146124E+03  0.75362444540E+03  0.12699999809E+01 0.  1.
</event>
<event>
 5   0  0.2605471E-04  0.1489446E+04  0.7818609E-02  0.8891502E-01
        1   -1    0    0  501    0  0.00000000000E+00  0.00000000000E+00  0.48346909027E+03  0.48346909030E+03  0.50400001928E-02 0.  1.
       -1   -1    0    0    0  501  0.00000000000E+00  0.00000000000E+00 -0.11471508716E+04  0.11471508716E+04  0.50400001928E-02 0. -1.
    10030    2    1    2    0    0  0.00000000000E+00  0.00000000000E+00 -0.66368178136E+03  0.16306199619E+04  0.14894455188E+04 0.  0.
        3    1    3    3  502    0 -0.13105377056E+03  0.60349674785E+03 -0.78749771968E+03  0.10007677474E+04  0.10100000352E+00 0. -1.
       -3    1    3    3    0  502  0.13105377056E+03 -0.60349674785E+03  0.12381593832E+03  0.62985221459E+03  0.10100000352E+00 0.  1.
</event>
<event>
 5   0  0.2565416E-04  0.1513030E+04  0.7818609E-02  0.8875834E-01
       -1   -1    0    0    0  501  0.00000000000E+00  0.00000000000E+00  0.39847388408E+03  0.39847388411E+03  0.50400001928E-02 0. -1.
        1   -1    0    0  501    0  0.00000000000E+00  0.00000000000E+00 -0.14362671494E+04  0.14362671494E+04  0.50400001928E-02 0.  1.
    10030    2    1    2    0    0  0.00000000000E+00  0.00000000000E+00 -0.10377932653E+04  0.18347410335E+04  0.15130300058E+04 0.  0.
        5    1    3    3  502    0 -0.24708453578E+03 -0.78418386145E+02 -0.13807090689E+04  0.14048415691E+04  0.46999998093E+01 0.  1.
       -5    1    3    3    0  502  0.24708453578E+03  0.78418386145E+02  0.34291580366E+03  0.42989946442E+03  0.46999998093E+01 0. -1.
</event>
<event>
 5   0  0.4785496E-04  0.1502090E+04  0.7818609E-02  0.8883064E-01
       -2   -1    0    0    0  501  0.00000000000E+00  0.00000000000E+00  0.25718372615E+03  0.25718372616E+03  0.25500000920E-02 0. -1.
        2   -1    0    0  501    0  0.00000000000E+00  0.00000000000E+00 -0.21932522300E+04  0.21932522300E+04  0.25500000920E-02 0.  1.
    10030    2    1    2    0    0  0.00000000000E+00  0.00000000000E+00 -0.19360685039E+04  0.24504359562E+04  0.15020902515E+04 0.  0.
        4    1    3    3  502    0  0.53073739093E+03 -0.35842451726E+03 -0.16080496455E+04  0.17308886700E+04  0.12699999809E+01 0.  1.
       -4    1    3    3    0  502 -0.53073739093E+03  0.35842451726E+03 -0.32801885841E+03  0.71954728620E+03  0.12699999809E+01 0. -1.
</event>
<event>
 5   0  0.4948645E-04  0.1471714E+04  0.7818609E-02  0.8903484E-01
        2   -1    0    0  501    0  0.00000000000E+00  0.00000000000E+00  0.65787710775E+03  0.65787710775E+03  0.25500000920E-02 0.  1.
       -2   -1    0    0    0  501  0.00000000000E+00  0.00000000000E+00 -0.82307970225E+03  0.82307970226E+03  0.25500000920E-02 0. -1.
    10030    2    1    2    0    0  0.00000000000E+00  0.00000000000E+00 -0.16520259450E+03  0.14809568100E+04  0.14717136868E+04 0.  0.
        1    1    3    3  502    0 -0.44638498792E+03  0.70044678051E+02  0.50183849156E+03  0.67528341161E+03  0.50400001928E-02 0.  1.
       -1    1    3    3    0  502  0.44638498792E+03 -0.70044678051E+02 -0.66704108606E+03  0.80567339840E+03  0.50400001928E-02 0. -1.
</event>
<event>
 5   0  0.4569211E-04  0.1503537E+04  0.7818609E-02  0.8882104E-01
       -2   -1    0    0    0  501  0.00000000000E+00  0.00000000000E+00  0.59556237061E+03  0.59556237062E+03  0.25500000920E-02 0. -1.
        2   -1    0    0  501    0  0.00000000000E+00  0.00000000000E+00 -0.94894506475E+03  0.94894506476E+03  0.25500000920E-02 0.  1.
    10030    2    1    2    0    0  0.00000000000E+00  0.00000000000E+00 -0.35338269414E+03  0.15445074354E+04  0.15035371260E+04 0.  0.
        5    1    3    3  502    0  0.22640954010E+03  0.53721739414E+03  0.31086812463E+03  0.66070030220E+03  0.46999998093E+01 0. -1.
       -5    1    3    3    0  502 -0.22640954010E+03 -0.53721739414E+03 -0.66425081877E+03  0.88380713318E+03  0.46999998093E+01 0.  1.
</event>
<event>
 5   0  0.4785496E-04  0.1508903E+04  0.7818609E-02  0.8878554E-01
       -2   -1    0    0    0  501  0.00000000000E+00  0.00000000000E+00  0.37129460285E+03  0.37129460286E+03  0.25500000920E-02 0.  1.
        2   -1    0    0  501    0  0.00000000000E+00  0.00000000000E+00 -0.15330069880E+04  0.15330069880E+04  0.25500000920E-02 0. -1.
    10030    2    1    2    0    0  0.00000000000E+00  0.00000000000E+00 -0.11617123852E+04  0.19043015909E+04  0.15089032054E+04 0.  0.
        4    1    3    3  502    0  0.80205405157E+02 -0.16802960709E+03 -0.15035548410E+04  0.15150398109E+04  0.12699999809E+01 0. -1.
       -4    1    3    3    0  502 -0.80205405157E+02  0.16802960709E+03  0.34184245581E+03  0.38926178000E+03  0.12699999809E+01 0.  1.
</event>
<event>
 5   0  0.4726600E-04  0.1498103E+04  0.7818609E-02  0.8885715E-01
        2   -1    0    0  501    0  0.00000000000E+00  0.00000000000E+00  0.20850716542E+04  0.20850716542E+04  0.25500000920E-02 0. -1.
       -2   -1    0    0    0  501  0.00000000000E+00  0.00000000000E+00 -0.26909309381E+03  0.26909309383E+03  0.25500000920E-02 0.  1.
    10030    2    1    2    0    0  0.00000000000E+00  0.00000000000E+00  0.18159785604E+04  0.23541647480E+04  0.14981033105E+04 0.  0.
        2    1    3    3  502    0  0.70213008088E+03  0.11038440369E+02  0.13176773852E+04  0.14931115796E+04  0.25500000920E-02 0. -1.
       -2    1    3    3    0  502 -0.70213008088E+03 -0.11038440369E+02  0.49830117514E+03  0.86105316839E+03  0.25500000920E-02 0.  1.
</event>
<event>
 5   0  0.4569211E-04  0.1500144E+04  0.7818609E-02  0.8884357E-01
       -2   -1    0    0    0  501  0.00000000000E+00  0.00000000000E+00  0.83935286990E+03  0.83935286990E+03  0.25500000920E-02 0.  1.
        2   -1    0    0  501    0  0.00000000000E+00  0.00000000000E+00 -0.67028767207E+03  0.67028767207E+03  0.25500000920E-02 0. -1.
    10030    2    1    2    0    0  0.00000000000E+00  0.00000000000E+00  0.16906519783E+03  0.15096405420E+04  0.15001438347E+04 0.  0.
        5    1    3    3  502    0 -0.31863209184E+02  0.35281101773E+03 -0.58078425466E+03  0.68031119261E+03  0.46999998093E+01 0. -1.
       -5    1    3    3    0  502  0.31863209184E+02 -0.35281101773E+03  0.74984945249E+03  0.82932934937E+03  0.46999998093E+01 0.  1.
</event>
<event>
 5   0  0.4569211E-04  0.1502747E+04  0.7818609E-02  0.8882628E-01
        2   -1    0    0  501    0  0.00000000000E+00  0.00000000000E+00  0.80214258939E+03  0.80214258939E+03  0.25500000920E-02 0. -1.
       -2   -1    0    0    0  501  0.00000000000E+00  0.00000000000E+00 -0.70381776038E+03  0.70381776038E+03  0.25500000920E-02 0.  1.
    10030    2    1    2    0    0  0.00000000000E+00  0.00000000000E+00  0.98324829012E+02  0.15059603498E+04  0.15027470855E+04 0.  0.
        5    1    3    3  502    0  0.54282890636E+03  0.22136313277E+03 -0.42181618377E+03  0.72222977024E+03  0.46999998093E+01 0.  1.
       -5    1    3    3    0  502 -0.54282890636E+03 -0.22136313277E+03  0.52014101278E+03  0.78373057954E+03  0.46999998093E+01 0. -1.
</event>
<event>
 5   0  0.2603873E-04  0.1496978E+04  0.7818609E-02  0.8886465E-01
       -1   -1    0    0    0  501  0.00000000000E+00  0.00000000000E+00  0.52562560590E+03  0.52562560593E+03  0.50400001928E-02 0.  1.
        1   -1    0    0  501    0  0.00000000000E+00  0.00000000000E+00 -0.10658453784E+04  0.10658453785E+04  0.50400001928E-02 0. -1.
    10030    2    1    2    0    0  0.00000000000E+00  0.00000000000E+00 -0.54021977254E+03  0.15914709844E+04  0.14969777859E+04 0.  0.
        2    1    3    3  502    0 -0.22886671945E+03 -0.86098132123E+02 -0.10221838850E+04  0.10510246232E+04  0.25500000920E-02 0. -1.
       -2    1    3    3    0  502  0.22886671945E+03  0.86098132123E+02  0.48196411250E+03  0.54044636123E+03  0.25500000920E-02 0.  1.
</event>
<event>
 5   0  0.2603873E-04  0.1499224E+04  0.7818609E-02  0.8884969E-01
       -1   -1    0    0    0  501  0.00000000000E+00  0.00000000000E+00  0.72127725537E+03  0.72127725539E+03  0.50400001928E-02 0.  1.
        1   -1    0    0  501    0  0.00000000000E+00  0.00000000000E+00 -0.77906001323E+03  0.77906001325E+03  0.50400001928E-02 0. -1.
    10030    2    1    2    0    0  0.00000000000E+00  0.00000000000E+00 -0.57782757855E+02  0.15003372686E+04  0.14992241569E+04 0.  0.
        2    1    3    3  502    0  0.37019760850E+03  0.13931465633E+03  0.60834148933E+03  0.72562677077E+03  0.25500000920E-02 0.  1.
       -2    1    3    3    0  502 -0.37019760850E+03 -0.13931465633E+03 -0.66612424719E+03  0.77471049787E+03  0.25500000920E-02 0. -1.
</event>
<event>
 5   0  0.1792000E-04  0.1495813E+04  0.7818609E-02  0.8887242E-01
       -4   -1    0    0    0  501  0.00000000000E+00  0.00000000000E+00  0.10454403388E+04  0.10454411102E+04  0.12699999809E+01 0. -1.
        4   -1    0    0  501    0  0.00000000000E+00  0.00000000000E+00 -0.53504955377E+03  0.53505106101E+03  0.12699999809E+01 0.  1.
    10030    2    1    2    0    0  0.00000000000E+00  0.00000000000E+00  0.51039078502E+03  0.15804921712E+04  0.14958130731E+04 0.  0.
        4    1    3    3  502    0 -0.22142124377E+03 -0.29817155460E+03  0.94112128630E+03  0.10117531970E+04  0.12699999809E+01 0. -1.
       -4    1    3    3    0  502  0.22142124377E+03  0.29817155460E+03 -0.43073050127E+03  0.56873897422E+03  0.12699999809E+01 0.  1.
</event>
<event>
 5   0  0.2565416E-04  0.1508015E+04  0.7818609E-02  0.8879140E-01
        1   -1    0    0  501    0  0.00000000000E+00  0.00000000000E+00  0.69509907400E+03  0.69509907402E+03  0.50400001928E-02 0.  1.
       -1   -1    0    0    0  501  0.00000000000E+00  0.00000000000E+00 -0.81790855595E+03  0.81790855596E+03  0.50400001928E-02 0. -1.
    10030    2    1    2    0    0  0.00000000000E+00  0.00000000000E+00 -0.12280948195E+03  0.15130076300E+04  0.15080152252E+04 0.  0.
        5    1    3    3  502    0  0.57805531854E+03 -0.37128128206E+03  0.25028051444E+03  0.73120460037E+03  0.46999998093E+01 0.  1.
       -5    1    3    3    0  502 -0.57805531854E+03  0.37128128206E+03 -0.37308999639E+03  0.78180302961E+03  0.46999998093E+01 0. -1.
</event>
<event>
 5   0  0.4768387E-04  0.1499892E+04  0.7818609E-02  0.8884525E-01
       -2   -1    0    0    0  501  0.00000000000E+00  0.00000000000E+00  0.84628386696E+03  0.84628386696E+03  0.25500000920E-02 0. -1.
        2   -1    0    0  501    0  0.00000000000E+00  0.00000000000E+00 -0.66457500204E+03  0.66457500205E+03  0.25500000920E-02 0.  1.
    10030    2    1    2    0    0  0.00000000000E+00  0.00000000000E+00  0.18170886492E+03  0.15108588690E+04  0.14998921330E+04 0.  0.
        3    1    3    3  502    0 -0.51001554202E+03  0.28716165228E+03 -0.38144631850E+03  0.69862648943E+03  0.10100000352E+00 0.  1.
       -3    1    3    3    0  502  0.51001554202E+03 -0.28716165228E+03  0.56315518342E+03  0.81223237958E+03  0.10100000352E+00 0. -1.
</event>
<event>
 5   0  0.2542737E-04  0.1441636E+04  0.7818609E-02  0.8924220E-01
        1   -1    0    0  501    0  0.00000000000E+00  0.00000000000E+00  0.21884992785E+04  0.21884992785E+04  0.50400001928E-02 0. -1.
       -1   -1    0    0    0  501  0.00000000000E+00  0.00000000000E+00 -0.23741327170E+03  0.23741327176E+03  0.50400001928E-02 0.  1.
    10030    2    1    2    0    0  0.00000000000E+00  0.00000000000E+00  0.19510860068E+04  0.24259125502E+04  0.14416362563E+04 0.  0.
        1    1    3    3  502    0 -0.58842240474E+03  0.40819981043E+02  0.16727610875E+04  0.17737070934E+04  0.50400001928E-02 0. -1.
       -1    1    3    3    0  502  0.58842240474E+03 -0.40819981043E+02  0.27832491931E+03  0.65220545689E+03  0.50400001928E-02 0.  1.
</event>
<event>
 5   0  0.2603873E-04  0.1502800E+04  0.7818609E-02  0.8882593E-01
       -1   -1    0    0    0  501  0.00000000000E+00  0.00000000000E+00  0.64223840594E+03  0.64223840596E+03  0.50400001928E-02 0.  1.
        1   -1    0    0  501    0  0.00000000000E+00  0.00000000000E+00 -0.87911539227E+03  0.87911539228E+03  0.50400001928E-02 0. -1.
    10030    2    1    2    0    0  0.00000000000E+00  0.00000000000E+00 -0.23687698633E+03  0.15213537982E+04  0.15027996117E+04 0.  0.
        2    1    3    3  502    0  0.14552588126E+03 -0.69460988310E+03  0.13147167355E+03  0.72176552479E+03  0.25500000920E-02 0.  1.
       -2    1    3    3    0  502 -0.14552588126E+03  0.69460988310E+03 -0.36834865988E+03  0.79958827346E+03  0.25500000920E-02 0. -1.
</event>
<event>
 5   0  0.2565416E-04  0.1507567E+04  0.7818609E-02  0.8879437E-01
        1   -1    0    0  501    0  0.00000000000E+00  0.00000000000E+00  0.77929609471E+03  0.77929609472E+03  0.50400001928E-02 0.  1.
       -1   -1    0    0    0  501  0.00000000000E+00  0.00000000000E+00 -0.72910568315E+03  0.72910568317E+03  0.50400001928E-02 0. -1.
    10030    2    1    2    0    0  0.00000000000E+00  0.00000000000E+00  0.50190411558E+02  0.15084017779E+04  0.15075665312E+04 0.  0.
        5    1    3    3  502    0  0.20359875812E+03  0.32725095696E+02 -0.70031939853E+03  0.73006351515E+03  0.46999998093E+01 0. -1.
       -5    1    3    3    0  502 -0.20359875812E+03 -0.32725095696E+02  0.75050981009E+03  0.77833826274E+03  0.46999998093E+01 0.  1.
</event>
<event>
 5   0  0.4726600E-04  0.1481830E+04  0.7818609E-02  0.8896627E-01
       -2   -1    0    0    0  501  0.00000000000E+00  0.00000000000E+00  0.51411770593E+03  0.51411770593E+03  0.25500000920E-02 0. -1.
        2   -1    0    0  501    0  0.00000000000E+00  0.00000000000E+00 -0.10677611606E+04  0.10677611606E+04  0.25500000920E-02 0.  1.
    10030    2    1    2    0    0  0.00000000000E+00  0.00000000000E+00 -0.55364345468E+03  0.15818788665E+04  0.14818298396E+04 0.  0.
        2    1    3    3  502    0  0.11318631673E+03 -0.43335662256E+03 -0.90687922788E+03  0.10114539231E+04  0.25500000920E-02 0.  1.
       -2    1    3    3    0  502 -0.11318631673E+03  0.43335662256E+03  0.35323577320E+03  0.57042494343E+03  0.25500000920E-02 0. -1.
</event>
<event>
 5   0  0.4785496E-04  0.1485651E+04  0.7818609E-02  0.8894052E-01
       -2   -1    0    0    0  501  0.00000000000E+00  0.00000000000E+00  0.10383368493E+04  0.10383368493E+04  0.25500000920E-02 0. -1.
        2   -1    0    0  501    0  0.00000000000E+00  0.00000000000E+00 -0.53141655540E+03  0.53141655540E+03  0.25500000920E-02 0.  1.
    10030    2    1    2    0    0  0.00000000000E+00  0.00000000000E+00  0.50692029386E+03  0.15697534047E+04  0.14856505535E+04 0.  0.
        4    1    3    3  502    0  0.39591038717E+02  0.26813513605E+03  0.98422187651E+03  0.10208615071E+04  0.12699999809E+01 0. -1.
       -4    1    3    3    0  502 -0.39591038717E+02 -0.26813513605E+03 -0.47730158266E+03  0.54889189758E+03  0.12699999809E+01 0.  1.
</event>
<event>
 5   0  0.2605471E-04  0.1448106E+04  0.7818609E-02  0.8919715E-01
       -1   -1    0    0    0  501  0.00000000000E+00  0.00000000000E+00  0.91291405044E+03  0.91291405046E+03  0.50400001928E-02 0. -1.
        1   -1    0    0  501    0  0.00000000000E+00  0.00000000000E+00 -0.57426280567E+03  0.57426280570E+03  0.50400001928E-02 0.  1.
    10030    2    1    2    0    0  0.00000000000E+00  0.00000000000E+00  0.33865124477E+03  0.14871768562E+04  0.14481057751E+04 0.  0.
        3    1    3    3  502    0  0.56541086227E+03  0.60129306271E+01  0.63377419286E+03  0.84934994923E+03  0.10100000352E+00 0. -1.
       -3    1    3    3    0  502 -0.56541086227E+03 -0.60129306271E+01 -0.29512294809E+03  0.63782690693E+03  0.10100000352E+00 0.  1.
</event>
<event>
 5   0  0.4726600E-04  0.1502286E+04  0.7818609E-02  0.8882934E-01
        2   -1    0    0  501    0  0.00000000000E+00  0.00000000000E+00  0.13347762451E+04  0.13347762451E+04  0.25500000920E-02 0.  1.
       -2   -1    0    0    0  501  0.00000000000E+00  0.00000000000E+00 -0.42270435039E+03  0.42270435040E+03  0.25500000920E-02 0. -1.
    10030    2    1    2    0    0  0.00000000000E+00  0.00000000000E+00  0.91207189474E+03  0.17574805955E+04  0.15022858924E+04 0.  0.
        2    1    3    3  502    0 -0.70769168720E+03 -0.77905042304E+02  0.73611928591E+03  0.10240939033E+04  0.25500000920E-02 0.  1.
       -2    1    3    3    0  502  0.70769168720E+03  0.77905042304E+02  0.17595260883E+03  0.73338669221E+03  0.25500000920E-02 0. -1.
</event>
<event>
 5   0  0.2565416E-04  0.1530085E+04  0.7818609E-02  0.8864690E-01
       -1   -1    0    0    0  501  0.00000000000E+00  0.00000000000E+00  0.10036606265E+04  0.10036606265E+04  0.50400001928E-02 0. -1.
        1   -1    0    0  501    0  0.00000000000E+00  0.00000000000E+00 -0.58315500781E+03  0.58315500783E+03  0.50400001928E-02 0.  1.
    10030    2    1    2    0    0  0.00000000000E+00  0.00000000000E+00  0.42050561870E+03  0.15868156344E+04  0.15300845996E+04 0.  0.
        5    1    3    3  502    0  0.14171376105E+03  0.61872539989E+03  0.65312687401E+03  0.91076929795E+03  0.46999998093E+01 0. -1.
       -5    1    3    3    0  502 -0.14171376105E+03 -0.61872539989E+03 -0.23262125531E+03  0.67604633640E+03  0.46999998093E+01 0.  1.
</event>
<event>
 5   0  0.1792000E-04  0.1524049E+04  0.7818609E-02  0.8868616E-01
       -3   -1    0    0    0  501  0.00000000000E+00  0.00000000000E+00  0.88494741260E+03  0.88494741837E+03  0.10100000352E+00 0. -1.
        3   -1    0    0  501    0  0.00000000000E+00  0.00000000000E+00 -0.65617629535E+03  0.65617630312E+03  0.10100000352E+00 0.  1.
    10030    2    1    2    0    0  0.00000000000E+00  0.00000000000E+00  0.22877111725E+03  0.15411237215E+04  0.15240492449E+04 0.  0.
        1    1    3    3  502    0 -0.69705826395E+03 -0.27210510644E+03  0.26004838653E+03  0.79218468532E+03  0.50400001928E-02 0. -1.
       -1    1    3    3    0  502  0.69705826395E+03  0.27210510644E+03 -0.31277269274E+02  0.74893903617E+03  0.50400001928E-02 0.  1.
</event>
<event>
 5   0  0.2544374E-04  0.1511597E+04  0.7818609E-02  0.8876777E-01
       -1   -1    0    0    0  501  0.00000000000E+00  0.00000000000E+00  0.79412468631E+03  0.79412468633E+03  0.50400001928E-02 0.  1.
        1   -1    0    0  501    0  0.00000000000E+00  0.00000000000E+00 -0.71932234065E+03  0.71932234067E+03  0.50400001928E-02 0. -1.
    10030    2    1    2    0    0  0.00000000000E+00  0.00000000000E+00  0.74802345660E+02  0.15134470270E+04  0.15115973381E+04 0.  0.
        4    1    3    3  502    0 -0.30473218763E+03  0.11456844724E+03 -0.64552025626E+03  0.72297001973E+03  0.12699999809E+01 0. -1.
       -4    1    3    3    0  502  0.30473218763E+03 -0.11456844724E+03  0.72032260192E+03  0.79047700727E+03  0.12699999809E+01 0.  1.
</event>
<event>
 5   0  0.2603873E-04  0.1517732E+04  0.7818609E-02  0.8872746E-01
        1   -1    0    0  501    0  0.00000000000E+00  0.00000000000E+00  0.10796906017E+04  0.10796906017E+04  0.50400001928E-02 0.  1.
       -1   -1    0    0    0  501  0.00000000000E+00  0.00000000000E+00 -0.53337312225E+03  0.53337312228E+03  0.50400001928E-02 0. -1.
    10030    2    1    2    0    0  0.00000000000E+00  0.00000000000E+00  0.54631747947E+03  0.16130637240E+04  0.15177324499E+04 0.  0.
        2    1    3    3  502    0  0.67233851518E+03  0.37116794966E+02  0.64508391924E+03  0.93249664789E+03  0.25500000920E-02 0.  1.
       -2    1    3    3    0  502 -0.67233851518E+03 -0.37116794966E+02 -0.98766439768E+02  0.68056707612E+03  0.25500000920E-02 0. -1.
</event>
<event>
 5   0  0.2565416E-04  0.1489970E+04  0.7818609E-02  0.8891150E-01
        1   -1    0    0  501    0  0.00000000000E+00  0.00000000000E+00  0.13607947382E+04  0.13607947382E+04  0.50400001928E-02 0.  1.
       -1   -1    0    0    0  501  0.00000000000E+00  0.00000000000E+00 -0.40785190968E+03  0.40785190971E+03  0.50400001928E-02 0. -1.
    10030    2    1    2    0    0  0.00000000000E+00  0.00000000000E+00  0.95294282848E+03  0.17686466479E+04  0.14899701107E+04 0.  0.
        5    1    3    3  502    0 -0.74394420410E+03 -0.35427347271E+02  0.49606888834E+03  0.89488239882E+03  0.46999998093E+01 0.  1.
       -5    1    3    3    0  502  0.74394420410E+03  0.35427347271E+02  0.45687394014E+03  0.87376424905E+03  0.46999998093E+01 0. -1.
</event>
<event>
 5   0  0.2542737E-04  0.1484212E+04  0.7818609E-02  0.8895020E-01
        1   -1    0    0  501    0  0.00000000000E+00  0.00000000000E+00  0.13353561243E+04  0.13353561243E+04  0.50400001928E-02 0. -1.
       -1   -1    0    0    0  501  0.00000000000E+00  0.00000000000E+00 -0.41241526147E+03  0.41241526151E+03  0.50400001928E-02 0.  1.
    10030    2    1    2    0    0  0.00000000000E+00  0.00000000000E+00  0.92294086286E+03  0.17477713858E+04  0.14842119056E+04 0.  0.
        1    1    3    3  502    0  0.62577436548E+03 -0.48238915693E+02  0.92776752290E+03  0.11201219246E+04  0.50400001928E-02 0. -1.
       -1    1    3    3    0  502 -0.62577436548E+03  0.48238915693E+02 -0.48266600461E+01  0.62764946121E+03  0.50400001928E-02 0.  1.
</event>
<event>
 5   0  0.4768387E-04  0.1480650E+04  0.7818609E-02  0.8897423E-01
       -2   -1    0    0    0  501  0.00000000000E+00  0.00000000000E+00  0.78697033689E+03  0.78697033689E+03  0.25500000920E-02 0. -1.
        2   -1    0    0  501    0  0.00000000000E+00  0.00000000000E+00 -0.69644459355E+03  0.69644459355E+03  0.25500000920E-02 0.  1.
    10030    2    1    2    0    0  0.00000000000E+00  0.00000000000E+00  0.90525743338E+02  0.14834149304E+04  0.14806501767E+04 0.  0.
        3    1    3    3  502    0 -0.49190609799E+03  0.54359329695E+03  0.14848896763E+03  0.74800686189E+03  0.10100000352E+00 0. -1.
       -3    1    3    3    0  502  0.49190609799E+03 -0.54359329695E+03 -0.57963224294E+02  0.73540806856E+03  0.10100000352E+00 0.  1.
</event>
<event>
 5   0  0.4768387E-04  0.1508627E+04  0.7818609E-02  0.8878736E-01
       -2   -1    0    0    0  501  0.00000000000E+00  0.00000000000E+00  0.37153595532E+03  0.37153595533E+03  0.25500000920E-02 0.  1.
        2   -1    0    0  501    0  0.00000000000E+00  0.00000000000E+00 -0.15314506399E+04  0.15314506399E+04  0.25500000920E-02 0. -1.
    10030    2    1    2    0    0  0.00000000000E+00  0.00000000000E+00 -0.11599146846E+04  0.19029865952E+04  0.15086271594E+04 0.  0.
        3    1    3    3  502    0  0.36961105272E+03  0.59438251613E+03 -0.93469212850E+03  0.11677124180E+04  0.10100000352E+00 0. -1.
       -3    1    3    3    0  502 -0.36961105272E+03 -0.59438251613E+03 -0.22522255605E+03  0.73527417725E+03  0.10100000352E+00 0.  1.
</event>
<event>
 5   0  0.2565416E-04  0.1496063E+04  0.7818609E-02  0.8887075E-01
        1   -1    0    0  501    0  0.00000000000E+00  0.00000000000E+00  0.11274078706E+04  0.11274078706E+04  0.50400001928E-02 0. -1.
       -1   -1    0    0    0  501  0.00000000000E+00  0.00000000000E+00 -0.49631640166E+03  0.49631640168E+03  0.50400001928E-02 0.  1.
    10030    2    1    2    0    0  0.00000000000E+00  0.00000000000E+00  0.63109146892E+03  0.16237242723E+04  0.14960628564E+04 0.  0.
        5    1    3    3  502    0  0.35385859538E+02  0.47516999333E+03 -0.31027780834E+03  0.56862385631E+03  0.46999998093E+01 0.  1.
       -5    1    3    3    0  502 -0.35385859538E+02 -0.47516999333E+03  0.94136927726E+03  0.10551004160E+04  0.46999998093E+01 0. -1.
</event>
<event>
 5   0  0.2605471E-04  0.1501154E+04  0.7818609E-02  0.8883686E-01
       -1   -1    0    0    0  501  0.00000000000E+00  0.00000000000E+00  0.89461447160E+03  0.89461447162E+03  0.50400001928E-02 0. -1.
        1   -1    0    0  501    0  0.00000000000E+00  0.00000000000E+00 -0.62973020123E+03  0.62973020125E+03  0.50400001928E-02 0.  1.
    10030    2    1    2    0    0  0.00000000000E+00  0.00000000000E+00  0.26488427038E+03  0.15243446729E+04  0.15011538912E+04 0.  0.
        3    1    3    3  502    0  0.61060582568E+03 -0.16220956172E+03  0.54393610994E+03  0.83367734656E+03  0.10100000352E+00 0. -1.
       -3    1    3    3    0  502 -0.61060582568E+03  0.16220956172E+03 -0.27905183956E+03  0.69066732631E+03  0.10100000352E+00 0.  1.
</event>
<event>
 5   0  0.2605471E-04  0.1493611E+04  0.7818609E-02  0.8888713E-01
        1   -1    0    0  501    0  0.00000000000E+00  0.00000000000E+00  0.80370393279E+03  0.80370393280E+03  0.50400001928E-02 0.  1.
       -1   -1    0    0    0  501  0.00000000000E+00  0.00000000000E+00 -0.69393532935E+03  0.69393532937E+03  0.50400001928E-02 0. -1.
    10030    2    1    2    0    0  0.00000000000E+00  0.00000000000E+00  0.10976860344E+03  0.14976392622E+04  0.14936111319E+04 0.  0.
        3    1    3    3  502    0 -0.20440678865E+03 -0.54032169024E+03  0.52943531311E+03  0.78360157297E+03  0.10100000352E+00 0.  1.
       -3    1    3    3    0  502  0.20440678865E+03  0.54032169024E+03 -0.41966670967E+03  0.71403768920E+03  0.10100000352E+00 0. -1.
</event>
<event>
 5   0  0.4726600E-04  0.1493995E+04  0.7818609E-02  0.8888456E-01
       -2   -1    0    0    0  501  0.00000000000E+00  0.00000000000E+00  0.47853622777E+03  0.47853622778E+03  0.25500000920E-02 0.  1.
        2   -1    0    0  501    0  0.00000000000E+00  0.00000000000E+00 -0.11660673157E+04  0.11660673157E+04  0.25500000920E-02 0. -1.
    10030    2    1    2    0    0  0.00000000000E+00  0.00000000000E+00 -0.68753108791E+03  0.16446035435E+04  0.14939952538E+04 0.  0.
        2    1    3    3  502    0 -0.69443666187E+03  0.23030472610E+03 -0.50970282948E+03  0.89167231571E+03  0.25500000920E-02 0. -1.
       -2    1    3    3    0  502  0.69443666187E+03 -0.23030472610E+03 -0.17782825843E+03  0.75293122775E+03  0.25500000920E-02 0.  1.
</event>
<event>
 5   0  0.4726600E-04  0.1495175E+04  0.7818609E-02  0.8887668E-01
       -2   -1    0    0    0  501  0.00000000000E+00  0.00000000000E+00  0.37383016368E+03  0.37383016369E+03  0.25500000920E-02 0. -1.
        2   -1    0    0  501    0  0.00000000000E+00  0.00000000000E+00 -0.14950298128E+04  0.14950298128E+04  0.25500000920E-02 0.  1.
    10030    2    1    2    0    0  0.00000000000E+00  0.00000000000E+00 -0.11211996491E+04  0.18688599765E+04  0.14951752267E+04 0.  0.
        2    1    3    3  502    0 -0.62979853130E+03 -0.21916314901E+03 -0.13819000493E+03  0.68101039153E+03  0.25500000920E-02 0.  1.
       -2    1    3    3    0  502  0.62979853130E+03  0.21916314901E+03 -0.98300964421E+03  0.11878495850E+04  0.25500000920E-02 0. -1.
</event>
<event>
 5   0  0.2544374E-04  0.1505065E+04  0.7818609E-02  0.8881092E-01
        1   -1    0    0  501    0  0.00000000000E+00  0.00000000000E+00  0.13752593839E+04  0.13752593839E+04  0.50400001928E-02 0.  1.
       -1   -1    0    0    0  501  0.00000000000E+00  0.00000000000E+00 -0.41178041404E+03  0.41178041407E+03  0.50400001928E-02 0. -1.
    10030    2    1    2    0    0  0.00000000000E+00  0.00000000000E+00  0.96347896983E+03  0.17870397980E+04  0.15050646213E+04 0.  0.
        4    1    3    3  502    0  0.39435632397E+02  0.51773731260E+03  0.11284874168E+04  0.12422127663E+04  0.12699999809E+01 0.  1.
       -4    1    3    3    0  502 -0.39435632397E+02 -0.51773731260E+03 -0.16500844697E+03  0.54482703167E+03  0.12699999809E+01 0. -1.
</event>
<event>
 5   0  0.4948645E-04  0.1475858E+04  0.7818609E-02  0.8900668E-01
        2   -1    0    0  501    0  0.00000000000E+00  0.00000000000E+00  0.15377996971E+04  0.15377996971E+04  0.25500000920E-02 0.  1.
       -2   -1    0    0    0  501  0.00000000000E+00  0.00000000000E+00 -0.35410285061E+03  0.35410285062E+03  0.25500000920E-02 0. -1.
    10030    2    1    2    0    0  0.00000000000E+00  0.00000000000E+00  0.11836968465E+04  0.18919025477E+04  0.14758580642E+04 0.  0.
        1    1    3    3  502    0  0.45237229967E+02 -0.27953897113E+02 -0.35164346063E+03  0.35564160438E+03  0.50400001928E-02 0. -1.
       -1    1    3    3    0  502 -0.45237229967E+02  0.27953897113E+02  0.15353403071E+04  0.15362609433E+04  0.50400001928E-02 0.  1.
</event>
<event>
 5   0  0.1792000E-04  0.1492096E+04  0.7818609E-02  0.8889726E-01
        3   -1    0    0  501    0  0.00000000000E+00  0.00000000000E+00  0.97110618364E+03  0.97110618889E+03  0.10100000352E+00 0. -1.
       -3   -1    0    0    0  501  0.00000000000E+00  0.00000000000E+00 -0.57314793188E+03  0.57314794078E+03  0.10100000352E+00 0.  1.
    10030    2    1    2    0    0  0.00000000000E+00  0.00000000000E+00  0.39795825176E+03  0.15442541297E+04  0.14920958571E+04 0.  0.
        1    1    3    3  502    0 -0.10321451432E+03  0.99689224436E+02  0.95668901713E+03  0.96739084809E+03  0.50400001928E-02 0. -1.
       -1    1    3    3    0  502  0.10321451432E+03 -0.99689224436E+02 -0.55873076537E+03  0.57686328158E+03  0.50400001928E-02 0.  1.
</event>
<event>
 5   0  0.4569211E-04  0.1499647E+04  0.7818609E-02  0.8884688E-01
       -2   -1    0    0    0  501  0.00000000000E+00  0.00000000000E+00  0.46833659739E+03  0.46833659740E+03  0.25500000920E-02 0. -1.
        2   -1    0    0  501    0  0.00000000000E+00  0.00000000000E+00 -0.12004944634E+04  0.12004944634E+04  0.25500000920E-02 0.  1.
    10030    2    1    2    0    0  0.00000000000E+00  0.00000000000E+00 -0.73215786604E+03  0.16688310608E+04  0.14996472815E+04 0.  0.
        5    1    3    3  502    0 -0.66133371466E+03 -0.97708330238E+02 -0.74395189471E+03  0.10001978362E+04  0.46999998093E+01 0.  1.
       -5    1    3    3    0  502  0.66133371466E+03  0.97708330238E+02  0.11794028670E+02  0.66863322461E+03  0.46999998093E+01 0. -1.
</event>
<event>
 5   0  0.4569211E-04  0.1496763E+04  0.7818609E-02  0.8886608E-01
       -2   -1    0    0    0  501  0.00000000000E+00  0.00000000000E+00  0.27645006798E+03  0.27645006800E+03  0.25500000920E-02 0. -1.
        2   -1    0    0  501    0  0.00000000000E+00  0.00000000000E+00 -0.20259541552E+04  0.20259541552E+04  0.25500000920E-02 0.  1.
    10030    2    1    2    0    0  0.00000000000E+00  0.00000000000E+00 -0.17495040872E+04  0.23024042232E+04  0.14967633934E+04 0.  0.
        5    1    3    3  502    0  0.83114446694E+02  0.32716287646E+03 -0.19021747590E+04  0.19318991854E+04  0.46999998093E+01 0.  1.
       -5    1    3    3    0  502 -0.83114446694E+02 -0.32716287646E+03  0.15267067177E+03  0.37050503776E+03  0.46999998093E+01 0. -1.
</event>
<event>
 5   0  0.4726600E-04  0.1499174E+04  0.7818609E-02  0.8885003E-01
       -2   -1    0    0    0  501  0.00000000000E+00  0.00000000000E+00  0.12532087788E+04  0.12532087788E+04  0.25500000920E-02 0.  1.
        2   -1    0    0  501    0  0.00000000000E+00  0.00000000000E+00 -0.44835343753E+03  0.44835343754E+03  0.25500000920E-02 0. -1.
    10030    2    1    2    0    0  0.00000000000E+00  0.00000000000E+00  0.80485534127E+03  0.17015622163E+04  0.14991737243E+04 0.  0.
        2    1    3    3  502    0 -0.20323778829E+03 -0.60175852052E+02  0.12184869530E+04  0.12367850203E+04  0.25500000920E-02 0.  1.
       -2    1    3    3    0  502  0.20323778829E+03  0.60175852052E+02 -0.41363161172E+03  0.46477719607E+03  0.25500000920E-02 0. -1.
</event>
<event>
 5   0  0.2565416E-04  0.1507096E+04  0.7818609E-02  0.8879748E-01
        1   -1    0    0  501    0  0.00000000000E+00  0.00000000000E+00  0.81112938407E+03  0.81112938409E+03  0.50400001928E-02 0. -1.
       -1   -1    0    0    0  501  0.00000000000E+00  0.00000000000E+00 -0.70005462177E+03  0.70005462179E+03  0.50400001928E-02 0.  1.
    10030    2    1    2    0    0  0.00000000000E+00  0.00000000000E+00  0.11107476230E+03  0.15111840059E+04  0.15070963794E+04 0.  0.
        5    1    3    3  502    0  0.41352829837E+03  0.25395003752E+03 -0.52249514954E+03  0.71310556469E+03  0.46999998093E+01 0.  1.
       -5    1    3    3    0  502 -0.41352829837E+03 -0.25395003752E+03  0.63356991184E+03  0.79807844119E+03  0.46999998093E+01 0. -1.
</event>
<event>
 5   0  0.4768387E-04  0.1485448E+04  0.7818609E-02  0.8894188E-01
        2   -1    0    0  501    0  0.00000000000E+00  0.00000000000E+00  0.12894318865E+04  0.12894318865E+04  0.25500000920E-02 0. -1.
       -2   -1    0    0    0  501  0.00000000000E+00  0.00000000000E+00 -0.42781570740E+03  0.42781570741E+03  0.25500000920E-02 0.  1.
    10030    2    1    2    0    0  0.00000000000E+00  0.00000000000E+00  0.86161617905E+03  0.17172475939E+04  0.14854483696E+04 0.  0.
        3    1    3    3  502    0 -0.14123053191E+02 -0.64386133977E+03  0.30984560208E+01  0.64402367667E+03  0.10100000352E+00 0.  1.
       -3    1    3    3    0  502  0.14123053191E+02  0.64386133977E+03  0.85851772303E+03  0.10732239172E+04  0.10100000352E+00 0. -1.
</event>
<event>
 5   0  0.2605471E-04  0.1496105E+04  0.7818609E-02  0.8887047E-01
        1   -1    0    0  501    0  0.00000000000E+00  0.00000000000E+00  0.11301664174E+04  0.11301664174E+04  0.50400001928E-02 0.  1.
       -1   -1    0    0    0  501  0.00000000000E+00  0.00000000000E+00 -0.49513280150E+03  0.49513280152E+03  0.50400001928E-02 0. -1.
    10030    2    1    2    0    0  0.00000000000E+00  0.00000000000E+00  0.63503361588E+03  0.16252992189E+04  0.14961048953E+04 0.  0.
        3    1    3    3  502    0  0.37173059858E+03 -0.45587647157E+03 -0.18453317521E+03  0.61648965783E+03  0.10100000352E+00 0. -1.
       -3    1    3    3    0  502 -0.37173059858E+03  0.45587647157E+03  0.81956679109E+03  0.10088095611E+04  0.10100000352E+00 0.  1.
</event>
<event>
 5   0  0.4785496E-04  0.1511086E+04  0.7818609E-02  0.8877114E-01
        2   -1    0    0  501    0  0.00000000000E+00  0.00000000000E+00  0.13474794654E+04  0.13474794654E+04  0.25500000920E-02 0.  1.
       -2   -1    0    0    0  501  0.00000000000E+00  0.00000000000E+00 -0.42363905990E+03  0.42363905991E+03  0.25500000920E-02 0. -1.
    10030    2    1    2    0    0  0.00000000000E+00  0.00000000000E+00  0.92384040545E+03  0.17711185253E+04  0.15110856150E+04 0.  0.
        4    1    3    3  502    0  0.48601662049E+03  0.15481390792E+03  0.11152070178E+04  0.12263228804E+04  0.12699999809E+01 0.  1.
       -4    1    3    3    0  502 -0.48601662049E+03 -0.15481390792E+03 -0.19136661235E+03  0.54479564489E+03  0.12699999809E+01 0. -1.
</event>
<event>
 5   0  0.2603873E-04  0.1499682E+04  0.7818609E-02  0.8884665E-01
       -1   -1    0    0    0  501  0.00000000000E+00  0.00000000000E+00  0.10142277652E+04  0.10142277652E+04  0.50400001928E-02 0.  1.
        1   -1    0    0  501    0  0.00000000000E+00  0.00000000000E+00 -0.55437369281E+03  0.55437369284E+03  0.50400001928E-02 0. -1.
    10030    2    1    2    0    0  0.00000000000E+00  0.00000000000E+00  0.45985407236E+03  0.15686014580E+04  0.14996815549E+04 0.  0.
        2    1    3    3  502    0  0.51988415335E+03  0.49306184005E+03 -0.13019105800E+01  0.71651322807E+03  0.25500000920E-02 0. -1.
       -2    1    3    3    0  502 -0.51988415335E+03 -0.49306184005E+03  0.46115598294E+03  0.85208822995E+03  0.25500000920E-02 0.  1.
</event>
<event>
 5   0  0.2542737E-04  0.1509979E+04  0.7818609E-02  0.8877844E-01
        1   -1    0    0  501    0  0.00000000000E+00  0.00000000000E+00  0.14000283591E+04  0.14000283591E+04  0.50400001928E-02 0.  1.
       -1   -1    0    0    0  501  0.00000000000E+00  0.00000000000E+00 -0.40714124123E+03  0.40714124126E+03  0.50400001928E-02 0. -1.
    10030    2    1    2    0    0  0.00000000000E+00  0.00000000000E+00  0.99288711787E+03  0.18071696004E+04  0.15099791839E+04 0.  0.
        1    1    3    3  502    0 -0.33584998873E+03  0.54616278770E+03  0.97355256068E+03  0.11657159148E+04  0.50400001928E-02 0.  1.
       -1    1    3    3    0  502  0.33584998873E+03 -0.54616278770E+03  0.19334557186E+02  0.64145368557E+03  0.50400001928E-02 0. -1.
</event>
<event>
 5   0  0.4569211E-04  0.1495522E+04  0.7818609E-02  0.8887436E-01
       -2   -1    0    0    0  501  0.00000000000E+00  0.00000000000E+00  0.61079808887E+03  0.61079808888E+03  0.25500000920E-02 0. -1.
        2   -1    0    0  501    0  0.00000000000E+00  0.00000000000E+00 -0.91543546608E+03  0.91543546609E+03  0.25500000920E-02 0.  1.
    10030    2    1    2    0    0  0.00000000000E+00  0.00000000000E+00 -0.30463737721E+03  0.15262335550E+04  0.14955216256E+04 0.  0.
        5    1    3    3  502    0  0.42919173770E+02  0.22211753025E+03  0.57502056338E+03  0.61793931015E+03  0.46999998093E+01 0. -1.
       -5    1    3    3    0  502 -0.42919173770E+02 -0.22211753025E+03 -0.87965794059E+03  0.90829424482E+03  0.46999998093E+01 0.  1.
</event>
<event>
 5   0  0.2565416E-04  0.1506883E+04  0.7818609E-02  0.8879889E-01
       -1   -1    0    0    0  501  0.00000000000E+00  0.00000000000E+00  0.66420451903E+03  0.66420451905E+03  0.50400001928E-02 0.  1.
        1   -1    0    0  501    0  0.00000000000E+00  0.00000000000E+00 -0.85466723118E+03  0.85466723119E+03  0.50400001928E-02 0. -1.
    10030    2    1    2    0    0  0.00000000000E+00  0.00000000000E+00 -0.19046271215E+03  0.15188717502E+04  0.15068826593E+04 0.  0.
        5    1    3    3  502    0 -0.49576202899E+03  0.20820036065E+03  0.43672165061E+03  0.69273030082E+03  0.46999998093E+01 0.  1.
       -5    1    3    3    0  502  0.49576202899E+03 -0.20820036065E+03 -0.62718436276E+03  0.82614144942E+03  0.46999998093E+01 0. -1.
</event>
<event>
 5   0  0.4768387E-04  0.1510678E+04  0.7818609E-02  0.8877383E-01
        2   -1    0    0  501    0  0.00000000000E+00  0.00000000000E+00  0.15469804925E+04  0.15469804925E+04  0.25500000920E-02 0.  1.
       -2   -1    0    0    0  501  0.00000000000E+00  0.00000000000E+00 -0.36880664541E+03  0.36880664542E+03  0.25500000920E-02 0. -1.
    10030    2    1    2    0    0  0.00000000000E+00  0.00000000000E+00  0.11781738471E+04  0.19157871379E+04  0.15106775777E+04 0.  0.
        3    1    3    3  502    0 -0.12242758461E+03 -0.25499530188E+03  0.14772777644E+04  0.15041145969E+04  0.10100000352E+00 0.  1.
       -3    1    3    3    0  502  0.12242758461E+03  0.25499530188E+03 -0.29910391728E+03  0.41167254097E+03  0.10100000352E+00 0. -1.
</event>
<event>
 5   0  0.4948645E-04  0.1478938E+04  0.7818609E-02  0.8898581E-01
        2   -1    0    0  501    0  0.00000000000E+00  0.00000000000E+00  0.34467909102E+03  0.34467909103E+03  0.25500000920E-02 0.  1.
       -2   -1    0    0    0  501  0.00000000000E+00  0.00000000000E+00 -0.15864454747E+04  0.15864454747E+04  0.25500000920E-02 0. -1.
    10030    2    1    2    0    0  0.00000000000E+00  0.00000000000E+00 -0.12417663836E+04  0.19311245657E+04  0.14789382464E+04 0.  0.
        1    1    3    3  502    0 -0.71107802452E+03 -0.19658251955E+03 -0.55510212068E+03  0.92326323893E+03  0.50400001928E-02 0. -1.
       -1    1    3    3    0  502  0.71107802452E+03  0.19658251955E+03 -0.68666426296E+03  0.10078613268E+04  0.50400001928E-02 0.  1.
</event>
<event>
 5   0  0.2603873E-04  0.1476179E+04  0.7818609E-02  0.8900450E-01
        1   -1    0    0  501    0  0.00000000000E+00  0.00000000000E+00  0.26469592904E+03  0.26469592909E+03  0.50400001928E-02 0. -1.
       -1   -1    0    0    0  501  0.00000000000E+00  0.00000000000E+00 -0.20581199628E+04  0.20581199628E+04  0.50400001928E-02 0.  1.
    10030    2    1    2    0    0  0.00000000000E+00  0.00000000000E+00 -0.17934240337E+04  0.23228158919E+04  0.14761788180E+04 0.  0.
        2    1    3    3  502    0 -0.59533629783E+03  0.82569789310E+02 -0.15708251382E+04  0.16818842684E+04  0.25500000920E-02 0.  1.
       -2    1    3    3    0  502  0.59533629783E+03 -0.82569789310E+02 -0.22259889553E+03  0.64093162344E+03  0.25500000920E-02 0. -1.
</event>
<event>
 5   0  0.2603873E-04  0.1504338E+04  0.7818609E-02  0.8881573E-01
        1   -1    0    0  501    0  0.00000000000E+00  0.00000000000E+00  0.18725330553E+04  0.18725330553E+04  0.50400001928E-02 0.  1.
       -1   -1    0    0    0  501  0.00000000000E+00  0.00000000000E+00 -0.30213528521E+03  0.30213528525E+03  0.50400001928E-02 0. -1.
    10030    2    1    2    0    0  0.00000000000E+00  0.00000000000E+00  0.15703977701E+04  0.21746683405E+04  0.15043381385E+04 0.  0.
        2    1    3    3  502    0 -0.19894034092E+03 -0.72227582514E+03  0.68823942008E+03  0.10173166303E+04  0.25500000920E-02 0. -1.
       -2    1    3    3    0  502  0.19894034092E+03  0.72227582514E+03  0.88215835001E+03  0.11573517103E+04  0.25500000920E-02 0.  1.
</event>
<event>
 5   0  0.4768387E-04  0.1499864E+04  0.7818609E-02  0.8884544E-01
       -2   -1    0    0    0  501  0.00000000000E+00  0.00000000000E+00  0.47363881398E+03  0.47363881399E+03  0.25500000920E-02 0.  1.
        2   -1    0    0  501    0  0.00000000000E+00  0.00000000000E+00 -0.11873977415E+04  0.11873977415E+04  0.25500000920E-02 0. -1.
    10030    2    1    2    0    0  0.00000000000E+00  0.00000000000E+00 -0.71375892753E+03  0.16610365555E+04  0.14998635378E+04 0.  0.
        3    1    3    3  502    0  0.13298212938E+03  0.69214624848E+03 -0.73130168408E+02  0.70858923768E+03  0.10100000352E+00 0.  1.
       -3    1    3    3    0  502 -0.13298212938E+03 -0.69214624848E+03 -0.64062875912E+03  0.95244731782E+03  0.10100000352E+00 0. -1.
</event>
<event>
 5   0  0.4768387E-04  0.1506690E+04  0.7818609E-02  0.8880016E-01
       -2   -1    0    0    0  501  0.00000000000E+00  0.00000000000E+00  0.67654707423E+03  0.67654707424E+03  0.25500000920E-02 0. -1.
        2   -1    0    0  501    0  0.00000000000E+00  0.00000000000E+00 -0.83886074444E+03  0.83886074444E+03  0.25500000920E-02 0.  1.
    10030    2    1    2    0    0  0.00000000000E+00  0.00000000000E+00 -0.16231367021E+03  0.15154078187E+04  0.15066901239E+04 0.  0.
        3    1    3    3  502    0 -0.32507275779E+03 -0.63655825262E+03 -0.32054671648E+03  0.78334469710E+03  0.10100000352E+00 0. -1.
       -3    1    3    3    0  502  0.32507275779E+03  0.63655825262E+03  0.15823304627E+03  0.73206312157E+03  0.10100000352E+00 0.  1.
</event>
<event>
 5   0  0.2544374E-04  0.1506297E+04  0.7818609E-02  0.8880276E-01
       -1   -1    0    0    0  501  0.00000000000E+00  0.00000000000E+00  0.58052037877E+03  0.58052037880E+03  0.50400001928E-02 0.  1.
        1   -1    0    0  501    0  0.00000000000E+00  0.00000000000E+00 -0.97711097571E+03  0.97711097572E+03  0.50400001928E-02 0. -1.
    10030    2    1    2    0    0  0.00000000000E+00  0.00000000000E+00 -0.39659059693E+03  0.15576313545E+04  0.15062972266E+04 0.  0.
        4    1    3    3  502    0  0.34840175261E+03 -0.43523241166E+03  0.32534144221E+03  0.64549182822E+03  0.12699999809E+01 0.  1.
       -4    1    3    3    0  502 -0.34840175261E+03  0.43523241166E+03 -0.72193203914E+03  0.91213952629E+03  0.12699999809E+01 0. -1.
</event>
<event>
 5   0  0.2544374E-04  0.1488991E+04  0.7818609E-02  0.8891807E-01
       -1   -1    0    0    0  501  0.00000000000E+00  0.00000000000E+00  0.10070820001E+04  0.10070820001E+04  0.50400001928E-02 0.  1.
        1   -1    0    0  501    0  0.00000000000E+00  0.00000000000E+00 -0.55037572469E+03  0.55037572471E+03  0.50400001928E-02 0. -1.
    10030    2    1    2    0    0  0.00000000000E+00  0.00000000000E+00  0.45670627544E+03  0.15574577248E+04  0.14889909142E+04 0.  0.
        4    1    3    3  502    0 -0.66972019181E+03 -0.32484372763E+03  0.21272313968E+03  0.77414554817E+03  0.12699999809E+01 0. -1.
       -4    1    3    3    0  502  0.66972019181E+03  0.32484372763E+03  0.24398313576E+03  0.78331217668E+03  0.12699999809E+01 0.  1.
</event>
<event>
 5   0  0.2542737E-04  0.1485624E+04  0.7818609E-02  0.8894069E-01
        1   -1    0    0  501    0  0.00000000000E+00  0.00000000000E+00  0.54213115987E+03  0.54213115989E+03  0.50400001928E-02 0.  1.
       -1   -1    0    0    0  501  0.00000000000E+00  0.00000000000E+00 -0.10177793279E+04  0.10177793280E+04  0.50400001928E-02 0. -1.
    10030    2    1    2    0    0  0.00000000000E+00  0.00000000000E+00 -0.47564816808E+03  0.15599104878E+04  0.14856242965E+04 0.  0.
        1    1    3    3  502    0 -0.34966417552E+03 -0.38634628995E+03  0.31802491581E+03  0.61046567349E+03  0.50400001928E-02 0.  1.
       -1    1    3    3    0  502  0.34966417552E+03  0.38634628995E+03 -0.79367308389E+03  0.94944481436E+03  0.50400001928E-02 0. -1.
</event>
<event>
 5   0  0.2542737E-04  0.1507049E+04  0.7818609E-02  0.8879779E-01
        1   -1    0    0  501    0  0.00000000000E+00  0.00000000000E+00  0.39023867351E+03  0.39023867355E+03  0.50400001928E-02 0.  1.
       -1   -1    0    0    0  501  0.00000000000E+00  0.00000000000E+00 -0.14550051976E+04  0.14550051976E+04  0.50400001928E-02 0. -1.
    10030    2    1    2    0    0  0.00000000000E+00  0.00000000000E+00 -0.10647665241E+04  0.18452438712E+04  0.15070491675E+04 0.  0.
        1    1    3    3  502    0 -0.22968528047E+03  0.71148450971E+03 -0.64746309251E+03  0.98902679024E+03  0.50400001928E-02 0. -1.
       -1    1    3    3    0  502  0.22968528047E+03 -0.71148450971E+03 -0.41730343159E+03  0.85621708092E+03  0.50400001928E-02 0.  1.
</event>
<event>
 5   0  0.2603873E-04  0.1439869E+04  0.7818609E-02  0.8925454E-01
       -1   -1    0    0    0  501  0.00000000000E+00  0.00000000000E+00  0.46424258514E+03  0.46424258517E+03  0.50400001928E-02 0. -1.
        1   -1    0    0  501    0  0.00000000000E+00  0.00000000000E+00 -0.11164548548E+04  0.11164548548E+04  0.50400001928E-02 0.  1.
    10030    2    1    2    0    0  0.00000000000E+00  0.00000000000E+00 -0.65221226963E+03  0.15806974400E+04  0.14398692830E+04 0.  0.
        2    1    3    3  502    0  0.30388782064E+03  0.13623444899E+03 -0.10268112138E+04  0.10794669524E+04  0.25500000920E-02 0.  1.
       -2    1    3    3    0  502 -0.30388782064E+03 -0.13623444899E+03  0.37459894417E+03  0.50123048751E+03  0.25500000920E-02 0. -1.
</event>
<event>
 5   0  0.2565416E-04  0.1466176E+04  0.7818609E-02  0.8907262E-01
       -1   -1    0    0    0  501  0.00000000000E+00  0.00000000000E+00  0.38593029394E+03  0.38593029397E+03  0.50400001928E-02 0.  1.
        1   -1    0    0  501    0  0.00000000000E+00  0.00000000000E+00 -0.13925260681E+04  0.13925260681E+04  0.50400001928E-02 0. -1.
    10030    2    1    2    0    0  0.00000000000E+00  0.00000000000E+00 -0.10065957742E+04  0.17784563621E+04  0.14661759715E+04 0.  0.
        5    1    3    3  502    0  0.60432179732E+03  0.12817678516E+02 -0.10063988427E+04  0.11739803441E+04  0.46999998093E+01 0. -1.
       -5    1    3    3    0  502 -0.60432179732E+03 -0.12817678516E+02 -0.19693144678E+00  0.60447601804E+03  0.46999998093E+01 0.  1.
</event>
<event>
 5   0  0.2603873E-04  0.1487781E+04  0.7818609E-02  0.8892619E-01
        1   -1    0    0  501    0  0.00000000000E+00  0.00000000000E+00  0.15121473530E+04  0.15121473530E+04  0.50400001928E-02 0. -1.
       -1   -1    0    0    0  501  0.00000000000E+00  0.00000000000E+00 -0.36595175938E+03  0.36595175941E+03  0.50400001928E-02 0.  1.
    10030    2    1    2    0    0  0.00000000000E+00  0.00000000000E+00  0.11461955936E+04  0.18780991124E+04  0.14877808768E+04 0.  0.
        2    1    3    3  502    0 -0.35794909176E+03 -0.36404868785E+03  0.12560672368E+04  0.13558627891E+04  0.25500000920E-02 0. -1.
       -2    1    3    3    0  502  0.35794909176E+03  0.36404868785E+03 -0.10987164320E+03  0.52223632333E+03  0.25500000920E-02 0.  1.
</event>
<event>
 5   0  0.4948645E-04  0.1494622E+04  0.7818609E-02  0.8888037E-01
       -2   -1    0    0    0  501  0.00000000000E+00  0.00000000000E+00  0.21260445757E+03  0.21260445758E+03  0.25500000920E-02 0. -1.
        2   -1    0    0  501    0  0.00000000000E+00  0.00000000000E+00 -0.26268210724E+04  0.26268210724E+04  0.25500000920E-02 0.  1.
    10030    2    1    2    0    0  0.00000000000E+00  0.00000000000E+00 -0.24142166148E+04  0.28394255300E+04  0.14946221854E+04 0.  0.
        1    1    3    3  502    0 -0.73444562954E+03  0.12015725105E+03 -0.10779004875E+04  0.13098540410E+04  0.50400001928E-02 0.  1.
       -1    1    3    3    0  502  0.73444562954E+03 -0.12015725105E+03 -0.13363161274E+04  0.15295714890E+04  0.50400001928E-02 0. -1.
</event>
<event>
 5   0  0.4948645E-04  0.1462816E+04  0.7818609E-02  0.8909563E-01
       -2   -1    0    0    0  501  0.00000000000E+00  0.00000000000E+00  0.85810110706E+03  0.85810110707E+03  0.25500000920E-02 0.  1.
        2   -1    0    0  501    0  0.00000000000E+00  0.00000000000E+00 -0.62342022249E+03  0.62342022250E+03  0.25500000920E-02 0. -1.
    10030    2    1    2    0    0  0.00000000000E+00  0.00000000000E+00  0.23468088457E+03  0.14815213296E+04  0.14628158915E+04 0.  0.
        1    1    3    3  502    0  0.14793782719E+03 -0.26229404679E+03 -0.55772145783E+03  0.63382725741E+03  0.50400001928E-02 0. -1.
       -1    1    3    3    0  502 -0.14793782719E+03  0.26229404679E+03  0.79240234240E+03  0.84769407215E+03  0.50400001928E-02 0.  1.
</event>
<event>
 5   0  0.4726600E-04  0.1499884E+04  0.7818609E-02  0.8884530E-01
       -2   -1    0    0    0  501  0.00000000000E+00  0.00000000000E+00  0.70656322571E+03  0.70656322571E+03  0.25500000920E-02 0. -1.
        2   -1    0    0  501    0  0.00000000000E+00  0.00000000000E+00 -0.79598366682E+03  0.79598366682E+03  0.25500000920E-02 0.  1.
    10030    2    1    2    0    0  0.00000000000E+00  0.00000000000E+00 -0.89420441108E+02  0.15025468925E+04  0.14998837118E+04 0.  0.
        2    1    3    3  502    0 -0.45967634245E+03  0.57174801588E+03  0.11117666398E+03  0.74199621569E+03  0.25500000920E-02 0. -1.
       -2    1    3    3    0  502  0.45967634245E+03 -0.57174801588E+03 -0.20059710509E+03  0.76055067685E+03  0.25500000920E-02 0.  1.
</event>
<event>
 5   0  0.2544374E-04  0.1506183E+04  0.7818609E-02  0.8880352E-01
       -1   -1    0    0    0  501  0.00000000000E+00  0.00000000000E+00  0.30894422655E+03  0.30894422659E+03  0.50400001928E-02 0. -1.
        1   -1    0    0  501    0  0.00000000000E+00  0.00000000000E+00 -0.18357579033E+04  0.18357579033E+04  0.50400001928E-02 0.  1.
    10030    2    1    2    0    0  0.00000000000E+00  0.00000000000E+00 -0.15268136767E+04  0.21447021299E+04  0.15061829977E+04 0.  0.
        4    1    3    3  502    0 -0.69727405382E+03  0.11844496355E+02 -0.11681989044E+04  0.13605225803E+04  0.12699999809E+01 0.  1.
       -4    1    3    3    0  502  0.69727405382E+03 -0.11844496355E+02 -0.35861477233E+03  0.78417954963E+03  0.12699999809E+01 0. -1.
</event>
<event>
 5   0  0.2544374E-04  0.1497259E+04  0.7818609E-02  0.8886278E-01
        1   -1    0    0  501    0  0.00000000000E+00  0.00000000000E+00  0.15100162373E+04  0.15100162373E+04  0.50400001928E-02 0. -1.
       -1   -1    0    0    0  501  0.00000000000E+00  0.00000000000E+00 -0.37115249446E+03  0.37115249450E+03  0.50400001928E-02 0.  1.
    10030    2    1    2    0    0  0.00000000000E+00  0.00000000000E+00  0.11388637429E+04  0.18811687318E+04  0.14972592203E+04 0.  0.
        4    1    3    3  502    0 -0.73028634473E+03 -0.97434534485E+02  0.73626966269E+03  0.10415883366E+04  0.12699999809E+01 0.  1.
       -4    1    3    3    0  502  0.73028634473E+03  0.97434534485E+02  0.40259408018E+03  0.83958039526E+03  0.12699999809E+01 0. -1.
</event>
<event>
 5   0  0.2542737E-04  0.1506389E+04  0.7818609E-02  0.8880215E-01
       -1   -1    0    0    0  501  0.00000000000E+00  0.00000000000E+00  0.25800233411E+03  0.25800233416E+03  0.50400001928E-02 0. -1.
        1   -1    0    0  501    0  0.00000000000E+00  0.00000000000E+00 -0.21988261588E+04  0.21988261588E+04  0.50400001928E-02 0.  1.
    10030    2    1    2    0    0  0.00000000000E+00  0.00000000000E+00 -0.19408238246E+04  0.24568284929E+04  0.15063894335E+04 0.  0.
        1    1    3    3  502    0  0.54168754813E+03 -0.19344750462E+03 -0.17734144190E+03  0.60191139205E+03  0.50400001928E-02 0.  1.
       -1    1    3    3    0  502 -0.54168754813E+03  0.19344750462E+03 -0.17634823827E+04  0.18549171009E+04  0.50400001928E-02 0. -1.
</event>
<event>
 5   0  0.2603873E-04  0.1505180E+04  0.7818609E-02  0.8881015E-01
       -1   -1    0    0    0  501  0.00000000000E+00  0.00000000000E+00  0.30829970943E+03  0.30829970947E+03  0.50400001928E-02 0.  1.
        1   -1    0    0  501    0  0.00000000000E+00  0.00000000000E+00 -0.18371469031E+04  0.18371469031E+04  0.50400001928E-02 0. -1.
    10030    2    1    2    0    0  0.00000000000E+00  0.00000000000E+00 -0.15288471936E+04  0.21454466126E+04  0.15051801971E+04 0.  0.
        2    1    3    3  502    0  0.24694174038E+03  0.56677728157E+03 -0.15271479727E+03  0.63681906328E+03  0.25500000920E-02 0.  1.
       -2    1    3    3    0  502 -0.24694174038E+03 -0.56677728157E+03 -0.13761323964E+04  0.15086275493E+04  0.25500000920E-02 0. -1.
</event>
<event>
 5   0  0.2603873E-04  0.1502473E+04  0.7818609E-02  0.8882810E-01
       -1   -1    0    0    0  501  0.00000000000E+00  0.00000000000E+00  0.99173317234E+03  0.99173317235E+03  0.50400001928E-02 0.  1.
        1   -1    0    0  501    0  0.00000000000E+00  0.00000000000E+00 -0.56906057654E+03  0.56906057656E+03  0.50400001928E-02 0. -1.
    10030    2    1    2    0    0  0.00000000000E+00  0.00000000000E+00  0.42267259580E+03  0.15607937489E+04  0.15024729626E+04 0.  0.
        2    1    3    3  502    0  0.48871276750E+03 -0.52153069313E+03 -0.28991650643E+02  0.71531458032E+03  0.25500000920E-02 0. -1.
       -2    1    3    3    0  502 -0.48871276750E+03  0.52153069313E+03  0.45166424645E+03  0.84547916859E+03  0.25500000920E-02 0.  1.
</event>
<event>
 5   0  0.4768387E-04  0.1480189E+04  0.7818609E-02  0.8897735E-01
       -2   -1    0    0    0  501  0.00000000000E+00  0.00000000000E+00  0.51689194592E+03  0.51689194593E+03  0.25500000920E-02 0. -1.
        2   -1    0    0  501    0  0.00000000000E+00  0.00000000000E+00 -0.10596800015E+04  0.10596800015E+04  0.25500000920E-02 0.  1.
    10030    2    1    2    0    0  0.00000000000E+00  0.00000000000E+00 -0.54278805557E+03  0.15765719474E+04  0.14801892555E+04 0.  0.
        3    1    3    3  502    0  0.27850070546E+03 -0.58155749479E+03 -0.65832307504E+03  0.92149934564E+03  0.10100000352E+00 0.  1.
       -3    1    3    3    0  502 -0.27850070546E+03  0.58155749479E+03  0.11553501946E+03  0.65507260179E+03  0.10100000352E+00 0. -1.
</event>
<event>
 5   0  0.4948645E-04  0.1494912E+04  0.7818609E-02  0.8887843E-01
        2   -1    0    0  501    0  0.00000000000E+00  0.00000000000E+00  0.51334534292E+03  0.51334534293E+03  0.25500000920E-02 0. -1.
       -2   -1    0    0    0  501  0.00000000000E+00  0.00000000000E+00 -0.10883326919E+04  0.10883326919E+04  0.25500000920E-02 0.  1.
    10030    2    1    2    0    0  0.00000000000E+00  0.00000000000E+00 -0.57498734899E+03  0.16016780348E+04  0.14949120629E+04 0.  0.
        1    1    3    3  502    0  0.15755170700E+03  0.11510578935E+03 -0.10605647570E+04  0.10783642645E+04  0.50400001928E-02 0.  1.
       -1    1    3    3    0  502 -0.15755170700E+03 -0.11510578935E+03  0.48557740797E+03  0.52331377039E+03  0.50400001928E-02 0. -1.
</event>
<event>
 5   0  0.4768387E-04  0.1489164E+04  0.7818609E-02  0.8891691E-01
        2   -1    0    0  501    0  0.00000000000E+00  0.00000000000E+00  0.77791265534E+03  0.77791265534E+03  0.25500000920E-02 0. -1.
       -2   -1    0    0    0  501  0.00000000000E+00  0.00000000000E+00 -0.71267990205E+03  0.71267990205E+03  0.25500000920E-02 0.  1.
    10030    2    1    2    0    0  0.00000000000E+00  0.00000000000E+00  0.65232753286E+02  0.14905925574E+04  0.14891644839E+04 0.  0.
        3    1    3    3  502    0 -0.39128790810E+03 -0.60163922128E+03  0.23111622088E+03  0.75398322088E+03  0.10100000352E+00 0. -1.
       -3    1    3    3    0  502  0.39128790810E+03  0.60163922128E+03 -0.16588346760E+03  0.73660933651E+03  0.10100000352E+00 0.  1.
</event>
<event>
 5   0  0.2542737E-04  0.1513455E+04  0.7818609E-02  0.8875555E-01
       -1   -1    0    0    0  501  0.00000000000E+00  0.00000000000E+00  0.58129130958E+03  0.58129130960E+03  0.50400001928E-02 0.  1.
        1   -1    0    0  501    0  0.00000000000E+00  0.00000000000E+00 -0.98511093917E+03  0.98511093918E+03  0.50400001928E-02 0. -1.
    10030    2    1    2    0    0  0.00000000000E+00  0.00000000000E+00 -0.40381962959E+03  0.15664022488E+04  0.15134548925E+04 0.  0.
        1    1    3    3  502    0 -0.19868266665E+03 -0.31042703246E+03  0.48211755971E+03  0.60685837385E+03  0.50400001928E-02 0.  1.
       -1    1    3    3    0  502  0.19868266665E+03  0.31042703246E+03 -0.88593718930E+03  0.95954387493E+03  0.50400001928E-02 0. -1.
</event>
<event>
 5   0  0.4726600E-04  0.1505035E+04  0.7818609E-02  0.8881111E-01
       -2   -1    0    0    0  501  0.00000000000E+00  0.00000000000E+00  0.72293080296E+03  0.72293080296E+03  0.25500000920E-02 0.  1.
        2   -1    0    0  501    0  0.00000000000E+00  0.00000000000E+00 -0.78331533903E+03  0.78331533903E+03  0.25500000920E-02 0. -1.
    10030    2    1    2    0    0  0.00000000000E+00  0.00000000000E+00 -0.60384536074E+02  0.15062461420E+04  0.15050352647E+04 0.  0.
        2    1    3    3  502    0 -0.50372460340E+03 -0.14352808985E+03 -0.57094540475E+03  0.77480155128E+03  0.25500000920E-02 0. -1.
       -2    1    3    3    0  502  0.50372460340E+03  0.14352808985E+03  0.51056086868E+03  0.73144459071E+03  0.25500000920E-02 0.  1.
</event>
<event>
 5   0  0.4726600E-04  0.1503475E+04  0.7818609E-02  0.8882145E-01
       -2   -1    0    0    0  501  0.00000000000E+00  0.00000000000E+00  0.66994335816E+03  0.66994335817E+03  0.25500000920E-02 0. -1.
        2   -1    0    0  501    0  0.00000000000E+00  0.00000000000E+00 -0.84351792916E+03  0.84351792917E+03  0.25500000920E-02 0.  1.
    10030    2    1    2    0    0  0.00000000000E+00  0.00000000000E+00 -0.17357457100E+03  0.15134612873E+04  0.15034749538E+04 0.  0.
        2    1    3    3  502    0  0.72557984271E+03 -0.79313299681E+02  0.94275509312E+02  0.73596506665E+03  0.25500000920E-02 0. -1.
       -2    1    3    3    0  502 -0.72557984271E+03  0.79313299681E+02 -0.26785008031E+03  0.77749622069E+03  0.25500000920E-02 0.  1.
</event>
<event>
 5   0  0.2544374E-04  0.1498453E+04  0.7818609E-02  0.8885482E-01
       -1   -1    0    0    0  501  0.00000000000E+00  0.00000000000E+00  0.30560504356E+03  0.30560504360E+03  0.50400001928E-02 0.  1.
        1   -1    0    0  501    0  0.00000000000E+00  0.00000000000E+00 -0.18368174467E+04  0.18368174467E+04  0.50400001928E-02 0. -1.
    10030    2    1    2    0    0  0.00000000000E+00  0.00000000000E+00 -0.15312124031E+04  0.21424224903E+04  0.14984534372E+04 0.  0.
        4    1    3    3  502    0  0.55132799986E+03 -0.15958888667E+03 -0.77081341360E+02  0.57911512004E+03  0.12699999809E+01 0.  1.
       -4    1    3    3    0  502 -0.55132799986E+03  0.15958888667E+03 -0.14541310617E+04  0.15633073702E+04  0.12699999809E+01 0. -1.
</event>
<event>
 5   0  0.2603873E-04  0.1414686E+04  0.7818609E-02  0.8943256E-01
        1   -1    0    0  501    0  0.00000000000E+00  0.00000000000E+00  0.55695630798E+03  0.55695630801E+03  0.50400001928E-02 0. -1.
       -1   -1    0    0    0  501  0.00000000000E+00  0.00000000000E+00 -0.89833606171E+03  0.89833606172E+03  0.50400001928E-02 0.  1.
    10030    2    1    2    0    0  0.00000000000E+00  0.00000000000E+00 -0.34137975372E+03  0.14552923697E+04  0.14146857408E+04 0.  0.
        2    1    3    3  502    0  0.22850734590E+03 -0.45120759280E+03 -0.67938360522E+03  0.84697460527E+03  0.25500000920E-02 0.  1.
       -2    1    3    3    0  502 -0.22850734590E+03  0.45120759280E+03  0.33800385149E+03  0.60831776446E+03  0.25500000920E-02 0. -1.
</event>
<event>
 5   0  0.2565416E-04  0.1478117E+04  0.7818609E-02  0.8899136E-01
       -1   -1    0    0    0  501  0.00000000000E+00  0.00000000000E+00  0.68603645363E+03  0.68603645365E+03  0.50400001928E-02 0. -1.
        1   -1    0    0  501    0  0.00000000000E+00  0.00000000000E+00 -0.79617888022E+03  0.79617888024E+03  0.50400001928E-02 0.  1.
    10030    2    1    2    0    0  0.00000000000E+00  0.00000000000E+00 -0.11014242659E+03  0.14822153339E+04  0.14781173640E+04 0.  0.
        5    1    3    3  502    0  0.49008303874E+03 -0.23609943821E+00  0.49963889519E+03  0.69988753110E+03  0.46999998093E+01 0. -1.
       -5    1    3    3    0  502 -0.49008303874E+03  0.23609943821E+00 -0.60978132179E+03  0.78232780278E+03  0.46999998093E+01 0.  1.
</event>
<event>
 5   0  0.4785496E-04  0.1493166E+04  0.7818609E-02  0.8889010E-01
        2   -1    0    0  501    0  0.00000000000E+00  0.00000000000E+00  0.14677637646E+04  0.14677637647E+04  0.25500000920E-02 0.  1.
       -2   -1    0    0    0  501  0.00000000000E+00  0.00000000000E+00 -0.37975184176E+03  0.37975184177E+03  0.25500000920E-02 0. -1.
    10030    2    1    2    0    0  0.00000000000E+00  0.00000000000E+00  0.10880119229E+04  0.18475156064E+04  0.14931657549E+04 0.  0.
        4    1    3    3  502    0 -0.16102777758E+03  0.92325023854E+02 -0.35074483037E+03  0.39683422750E+03  0.12699999809E+01 0. -1.
       -4    1    3    3    0  502  0.16102777758E+03 -0.92325023854E+02  0.14387567533E+04  0.14506813789E+04  0.12699999809E+01 0.  1.
</event>
<event>
 5   0  0.2565416E-04  0.1515808E+04  0.7818609E-02  0.8874009E-01
        1   -1    0    0  501    0  0.00000000000E+00  0.00000000000E+00  0.12270418502E+04  0.12270418502E+04  0.50400001928E-02 0.  1.
       -1   -1    0    0    0  501  0.00000000000E+00  0.00000000000E+00 -0.46813250582E+03  0.46813250585E+03  0.50400001928E-02 0. -1.
    10030    2    1    2    0    0  0.00000000000E+00  0.00000000000E+00  0.75890934437E+03  0.16951743560E+04  0.15158076080E+04 0.  0.
        5    1    3    3  502    0 -0.14315854883E+03 -0.46648552218E+03 -0.26907400988E+03  0.55724862072E+03  0.46999998093E+01 0. -1.
       -5    1    3    3    0  502  0.14315854883E+03  0.46648552218E+03  0.10279833542E+04  0.11379257353E+04  0.46999998093E+01 0.  1.
</event>
<event>
 5   0  0.4948645E-04  0.1503646E+04  0.7818609E-02  0.8882032E-01
        2   -1    0    0  501    0  0.00000000000E+00  0.00000000000E+00  0.96719051268E+03  0.96719051269E+03  0.25500000920E-02 0. -1.
       -2   -1    0    0    0  501  0.00000000000E+00  0.00000000000E+00 -0.58441173934E+03  0.58441173935E+03  0.25500000920E-02 0.  1.
    10030    2    1    2    0    0  0.00000000000E+00  0.00000000000E+00  0.38277877334E+03  0.15516022520E+04  0.15036455564E+04 0.  0.
        1    1    3    3  502    0 -0.21798001383E+03 -0.71800088626E+03  0.23975571302E+03  0.78773305190E+03  0.50400001928E-02 0. -1.
       -1    1    3    3    0  502  0.21798001383E+03  0.71800088626E+03  0.14302306032E+03  0.76386920013E+03  0.50400001928E-02 0.  1.
</event>
<event>
 5   0  0.2565416E-04  0.1498682E+04  0.7818609E-02  0.8885330E-01
        1   -1    0    0  501    0  0.00000000000E+00  0.00000000000E+00  0.24430482702E+04  0.24430482702E+04  0.50400001928E-02 0. -1.
       -1   -1    0    0    0  501  0.00000000000E+00  0.00000000000E+00 -0.22984061246E+03  0.22984061251E+03  0.50400001928E-02 0.  1.
    10030    2    1    2    0    0  0.00000000000E+00  0.00000000000E+00  0.22132076577E+04  0.26728888827E+04  0.14986817017E+04 0.  0.
        5    1    3    3  502    0  0.15053206428E+03  0.72755261835E+03  0.12804089496E+04  0.14803587008E+04  0.46999998093E+01 0.  1.
       -5    1    3    3    0  502 -0.15053206428E+03 -0.72755261835E+03  0.93279870810E+03  0.11925301819E+04  0.46999998093E+01 0. -1.
</event>
<event>
 5   0  0.2542737E-04  0.1470573E+04  0.7818609E-02  0.8904261E-01
        1   -1    0    0  501    0  0.00000000000E+00  0.00000000000E+00  0.40491397847E+03  0.40491397850E+03  0.50400001928E-02 0.  1.
       -1   -1    0    0    0  501  0.00000000000E+00  0.00000000000E+00 -0.13352120769E+04  0.13352120769E+04  0.50400001928E-02 0. -1.
    10030    2    1    2    0    0  0.00000000000E+00  0.00000000000E+00 -0.93029809844E+03  0.17401260554E+04  0.14705727241E+04 0.  0.
        1    1    3    3  502    0 -0.22159023938E+03  0.69526205788E+03 -0.35829472649E+03  0.81293706667E+03  0.50400001928E-02 0.  1.
       -1    1    3    3    0  502  0.22159023938E+03 -0.69526205788E+03 -0.57200337195E+03  0.92718898875E+03  0.50400001928E-02 0. -1.
</event>
<event>
 5   0  0.2605471E-04  0.1492405E+04  0.7818609E-02  0.8889519E-01
        1   -1    0    0  501    0  0.00000000000E+00  0.00000000000E+00  0.58633918345E+03  0.58633918347E+03  0.50400001928E-02 0.  1.
       -1   -1    0    0    0  501  0.00000000000E+00  0.00000000000E+00 -0.94965253353E+03  0.94965253354E+03  0.50400001928E-02 0. -1.
    10030    2    1    2    0    0  0.00000000000E+00  0.00000000000E+00 -0.36331335008E+03  0.15359917170E+04  0.14924054290E+04 0.  0.
        3    1    3    3  502    0  0.62445183882E+03 -0.86348415616E+02  0.22928163794E+03  0.67079522030E+03  0.10100000352E+00 0.  1.
       -3    1    3    3    0  502 -0.62445183882E+03  0.86348415616E+02 -0.59259498802E+03  0.86519649670E+03  0.10100000352E+00 0. -1.
</event>
<event>
 5   0  0.2565416E-04  0.1500514E+04  0.7818609E-02  0.8884111E-01
        1   -1    0    0  501    0  0.00000000000E+00  0.00000000000E+00  0.17615111351E+04  0.17615111351E+04  0.50400001928E-02 0.  1.
       -1   -1    0    0    0  501  0.00000000000E+00  0.00000000000E+00 -0.31954679161E+03  0.31954679165E+03  0.50400001928E-02 0. -1.
    10030    2    1    2    0    0  0.00000000000E+00  0.00000000000E+00  0.14419643434E+04  0.20810579267E+04  0.15005135543E+04 0.  0.
        5    1    3    3  502    0  0.51969679622E+03 -0.50519871761E+03  0.45222227349E+03  0.85430531949E+03  0.46999998093E+01 0. -1.
       -5    1    3    3    0  502 -0.51969679622E+03  0.50519871761E+03  0.98974206996E+03  0.12267526072E+04  0.46999998093E+01 0.  1.
</event>
<event>
 5   0  0.4785496E-04  0.1467237E+04  0.7818609E-02  0.8906537E-01
       -2   -1    0    0    0  501  0.00000000000E+00  0.00000000000E+00  0.63399470704E+03  0.63399470704E+03  0.25500000920E-02 0. -1.
        2   -1    0    0  501    0  0.00000000000E+00  0.00000000000E+00 -0.84889695075E+03  0.84889695075E+03  0.25500000920E-02 0.  1.
    10030    2    1    2    0    0  0.00000000000E+00  0.00000000000E+00 -0.21490224371E+03  0.14828916578E+04  0.14672370955E+04 0.  0.
        4    1    3    3  502    0  0.41591289158E+02  0.34056270910E+03  0.54791306856E+03  0.64646975008E+03  0.12699999809E+01 0. -1.
       -4    1    3    3    0  502 -0.41591289158E+02 -0.34056270910E+03 -0.76281531228E+03  0.83642190772E+03  0.12699999809E+01 0.  1.
</event>
<event>
 5   0  0.4768387E-04  0.1509256E+04  0.7818609E-02  0.8878321E-01
       -2   -1    0    0    0  501  0.00000000000E+00  0.00000000000E+00  0.78236554518E+03  0.78236554518E+03  0.25500000920E-02 0. -1.
        2   -1    0    0  501    0  0.00000000000E+00  0.00000000000E+00 -0.72787413767E+03  0.72787413768E+03  0.25500000920E-02 0.  1.
    10030    2    1    2    0    0  0.00000000000E+00  0.00000000000E+00  0.54491407502E+02  0.15102396829E+04  0.15092563024E+04 0.  0.
        3    1    3    3  502    0 -0.10929347017E+03  0.63861920927E+03  0.41438805614E+03  0.76908843987E+03  0.10100000352E+00 0. -1.
       -3    1    3    3    0  502  0.10929347017E+03 -0.63861920927E+03 -0.35989664864E+03  0.74115124298E+03  0.10100000352E+00 0.  1.
</event>
<event>
 5   0  0.4726600E-04  0.1514033E+04  0.7818609E-02  0.8875174E-01
        2   -1    0    0  501    0  0.00000000000E+00  0.00000000000E+00  0.51112689503E+03  0.51112689504E+03  0.25500000920E-02 0. -1.
       -2   -1    0    0    0  501  0.00000000000E+00  0.00000000000E+00 -0.11211972338E+04  0.11211972338E+04  0.25500000920E-02 0.  1.
    10030    2    1    2    0    0  0.00000000000E+00  0.00000000000E+00 -0.61007033880E+03  0.16323241289E+04  0.15140331051E+04 0.  0.
        2    1    3    3  502    0 -0.28953216548E+02  0.60046792192E+03  0.19099128075E+03  0.63077546190E+03  0.25500000920E-02 0. -1.
       -2    1    3    3    0  502  0.28953216548E+02 -0.60046792192E+03 -0.80106161955E+03  0.10015486670E+04  0.25500000920E-02 0.  1.
</event>
<event>
 5   0  0.4948645E-04  0.1495969E+04  0.7818609E-02  0.8887138E-01
        2   -1    0    0  501    0  0.00000000000E+00  0.00000000000E+00  0.50839212483E+03  0.50839212484E+03  0.25500000920E-02 0. -1.
       -2   -1    0    0    0  501  0.00000000000E+00  0.00000000000E+00 -0.11004911619E+04  0.11004911619E+04  0.25500000920E-02 0.  1.
    10030    2    1    2    0    0  0.00000000000E+00  0.00000000000E+00 -0.59209903710E+03  0.16088832868E+04  0.14959693047E+04 0.  0.
        1    1    3    3  502    0 -0.24890833432E+03  0.63195612585E+03 -0.63299745220E+03  0.92844476325E+03  0.50400001928E-02 0.  1.
       -1    1    3    3    0  502  0.24890833432E+03 -0.63195612585E+03  0.40898415103E+02  0.68043852351E+03  0.50400001928E-02 0. -1.
</event>
<event>
 5   0  0.4569211E-04  0.1500925E+04  0.7818609E-02  0.8883838E-01
        2   -1    0    0  501    0  0.00000000000E+00  0.00000000000E+00  0.15454119085E+04  0.15454119085E+04  0.25500000920E-02 0. -1.
       -2   -1    0    0    0  501  0.00000000000E+00  0.00000000000E+00 -0.36442962801E+03  0.36442962802E+03  0.25500000920E-02 0.  1.
    10030    2    1    2    0    0  0.00000000000E+00  0.00000000000E+00  0.11809822805E+04  0.19098415366E+04  0.15009248975E+04 0.  0.
        5    1    3    3  502    0  0.27925825252E+03 -0.44503744594E+03  0.12723215553E+04  0.13765419463E+04  0.46999998093E+01 0. -1.
       -5    1    3    3    0  502 -0.27925825252E+03  0.44503744594E+03 -0.91339274723E+02  0.53329959028E+03  0.46999998093E+01 0.  1.
</event>
<event>
 5   0  0.4768387E-04  0.1522088E+04  0.7818609E-02  0.8869896E-01
        2   -1    0    0  501    0  0.00000000000E+00  0.00000000000E+00  0.18370312660E+04  0.18370312660E+04  0.25500000920E-02 0.  1.
       -2   -1    0    0    0  501  0.00000000000E+00  0.00000000000E+00 -0.31528491773E+03  0.31528491774E+03  0.25500000920E-02 0. -1.
    10030    2    1    2    0    0  0.00000000000E+00  0.00000000000E+00  0.15217463483E+04  0.21523161837E+04  0.15220883701E+04 0.  0.
        3    1    3    3  502    0  0.13720401626E+03 -0.74767674575E+03  0.70905654608E+03  0.10395223201E+04  0.10100000352E+00 0. -1.
       -3    1    3    3    0  502 -0.13720401626E+03  0.74767674575E+03  0.81268980218E+03  0.11127938637E+04  0.10100000352E+00 0.  1.
</event>
<event>
 5   0  0.2542737E-04  0.1501247E+04  0.7818609E-02  0.8883624E-01
        1   -1    0    0  501    0  0.00000000000E+00  0.00000000000E+00  0.14061020491E+04  0.14061020491E+04  0.50400001928E-02 0.  1.
       -1   -1    0    0    0  501  0.00000000000E+00  0.00000000000E+00 -0.40070738603E+03  0.40070738607E+03  0.50400001928E-02 0. -1.
    10030    2    1    2    0    0  0.00000000000E+00  0.00000000000E+00  0.10053946630E+04  0.18068094351E+04  0.15012467840E+04 0.  0.
        1    1    3    3  502    0  0.14024739274E+03  0.69922305728E+03  0.22081913271E+03  0.74655428764E+03  0.50400001928E-02 0. -1.
       -1    1    3    3    0  502 -0.14024739274E+03 -0.69922305728E+03  0.78457553031E+03  0.10602551475E+04  0.50400001928E-02 0.  1.
</event>
<event>
 5   0  0.2605471E-04  0.1495391E+04  0.7818609E-02  0.8887524E-01
        1   -1    0    0  501    0  0.00000000000E+00  0.00000000000E+00  0.85357319179E+03  0.85357319180E+03  0.50400001928E-02 0. -1.
       -1   -1    0    0    0  501  0.00000000000E+00  0.00000000000E+00 -0.65495095809E+03  0.65495095811E+03  0.50400001928E-02 0.  1.
    10030    2    1    2    0    0  0.00000000000E+00  0.00000000000E+00  0.19862223369E+03  0.15085241499E+04  0.14953910255E+04 0.  0.
        3    1    3    3  502    0  0.23817105216E+03 -0.69850936974E+03  0.22039770150E+03  0.77020513289E+03  0.10100000352E+00 0. -1.
       -3    1    3    3    0  502 -0.23817105216E+03  0.69850936974E+03 -0.21775467807E+02  0.73831901702E+03  0.10100000352E+00 0.  1.
</event>
<event>
 5   0  0.2565416E-04  0.1509146E+04  0.7818609E-02  0.8878394E-01
        1   -1    0    0  501    0  0.00000000000E+00  0.00000000000E+00  0.12248224112E+04  0.12248224112E+04  0.50400001928E-02 0. -1.
       -1   -1    0    0    0  501  0.00000000000E+00  0.00000000000E+00 -0.46486775920E+03  0.46486775922E+03  0.50400001928E-02 0.  1.
    10030    2    1    2    0    0  0.00000000000E+00  0.00000000000E+00  0.75995465203E+03  0.16896901705E+04  0.15091460496E+04 0.  0.
        5    1    3    3  502    0 -0.50226518722E+03  0.24528147815E+03 -0.18753986437E+03  0.58959868771E+03  0.46999998093E+01 0.  1.
       -5    1    3    3    0  502  0.50226518722E+03 -0.24528147815E+03  0.94749451639E+03  0.11000914827E+04  0.46999998093E+01 0. -1.
</event>
<event>
 5   0  0.2605471E-04  0.1500622E+04  0.7818609E-02  0.8884039E-01
       -1   -1    0    0    0  501  0.00000000000E+00  0.00000000000E+00  0.54611702479E+03  0.54611702481E+03  0.50400001928E-02 0. -1.
        1   -1    0    0  501    0  0.00000000000E+00  0.00000000000E+00 -0.10308538160E+04  0.10308538160E+04  0.50400001928E-02 0.  1.
    10030    2    1    2    0    0  0.00000000000E+00  0.00000000000E+00 -0.48473679125E+03  0.15769708409E+04  0.15006222963E+04 0.  0.
        3    1    3    3  502    0 -0.39814554064E+03  0.29893096770E+03  0.34751701910E+03  0.60716363836E+03  0.10100000352E+00 0. -1.
       -3    1    3    3    0  502  0.39814554064E+03 -0.29893096770E+03 -0.83225381035E+03  0.96980720250E+03  0.10100000352E+00 0.  1.
</event>
<event>
 5   0  0.4726600E-04  0.1500929E+04  0.7818609E-02  0.8883835E-01
        2   -1    0    0  501    0  0.00000000000E+00  0.00000000000E+00  0.10279929595E+04  0.10279929596E+04  0.25500000920E-02 0.  1.
       -2   -1    0    0    0  501  0.00000000000E+00  0.00000000000E+00 -0.54786084763E+03  0.54786084764E+03  0.25500000920E-02 0. -1.
    10030    2    1    2    0    0  0.00000000000E+00  0.00000000000E+00  0.48013211192E+03  0.15758538072E+04  0.15009291711E+04 0.  0.
        2    1    3    3  502    0  0.40325574588E+03  0.50731883597E+03 -0.15725504983E+03  0.66687086352E+03  0.25500000920E-02 0. -1.
       -2    1    3    3    0  502 -0.40325574588E+03 -0.50731883597E+03  0.63738716175E+03  0.90898294367E+03  0.25500000920E-02 0.  1.
</event>
<event>
 5   0  0.4768387E-04  0.1496550E+04  0.7818609E-02  0.8886750E-01
       -2   -1    0    0    0  501  0.00000000000E+00  0.00000000000E+00  0.81828488464E+03  0.81828488464E+03  0.25500000920E-02 0.  1.
        2   -1    0    0  501    0  0.00000000000E+00  0.00000000000E+00 -0.68425532833E+03  0.68425532833E+03  0.25500000920E-02 0. -1.
    10030    2    1    2    0    0  0.00000000000E+00  0.00000000000E+00  0.13402955631E+03  0.15025402130E+04  0.14965504234E+04 0.  0.
        3    1    3    3  502    0 -0.61674378253E+02 -0.26248014393E+03 -0.63378768910E+03  0.68875714149E+03  0.10100000352E+00 0. -1.
       -3    1    3    3    0  502  0.61674378253E+02  0.26248014393E+03  0.76781724541E+03  0.81378307149E+03  0.10100000352E+00 0.  1.
</event>
<event>
 5   0  0.2605471E-04  0.1504265E+04  0.7818609E-02  0.8881622E-01
        1   -1    0    0  501    0  0.00000000000E+00  0.00000000000E+00  0.16684100460E+04  0.16684100460E+04  0.50400001928E-02 0. -1.
       -1   -1    0    0    0  501  0.00000000000E+00  0.00000000000E+00 -0.33906729672E+03  0.33906729676E+03  0.50400001928E-02 0.  1.
    10030    2    1    2    0    0  0.00000000000E+00  0.00000000000E+00  0.13293427493E+04  0.20074773428E+04  0.15042649822E+04 0.  0.
        3    1    3    3  502    0  0.12064038949E+03  0.44588237852E+03  0.14568189463E+04  0.15282953418E+04  0.10100000352E+00 0. -1.
       -3    1    3    3    0  502 -0.12064038949E+03 -0.44588237852E+03 -0.12747619706E+03  0.47918200099E+03  0.10100000352E+00 0.  1.
</event>
<event>
 5   0  0.2603873E-04  0.1511973E+04  0.7818609E-02  0.8876530E-01
       -1   -1    0    0    0  501  0.00000000000E+00  0.00000000000E+00  0.47223916056E+03  0.47223916059E+03  0.50400001928E-02 0.  1.
        1   -1    0    0  501    0  0.00000000000E+00  0.00000000000E+00 -0.12102243814E+04  0.12102243814E+04  0.50400001928E-02 0. -1.
    10030    2    1    2    0    0  0.00000000000E+00  0.00000000000E+00 -0.73798522085E+03  0.16824635420E+04  0.15119726797E+04 0.  0.
        2    1    3    3  502    0 -0.21865921047E+03 -0.17955022316E+03 -0.11490887159E+04  0.11834082178E+04  0.25500000920E-02 0. -1.
       -2    1    3    3    0  502  0.21865921047E+03  0.17955022316E+03  0.41110349505E+03  0.49905532420E+03  0.25500000920E-02 0.  1.
</event>
<event>
 5   0  0.4726600E-04  0.1495138E+04  0.7818609E-02  0.8887692E-01
       -2   -1    0    0    0  501  0.00000000000E+00  0.00000000000E+00  0.41527782860E+03  0.41527782861E+03  0.25500000920E-02 0. -1.
        2   -1    0    0  501    0  0.00000000000E+00  0.00000000000E+00 -0.13457487869E+04  0.13457487869E+04  0.25500000920E-02 0.  1.
    10030    2    1    2    0    0  0.00000000000E+00  0.00000000000E+00 -0.93047095826E+03  0.17610266155E+04  0.14951383000E+04 0.  0.
        2    1    3    3  502    0 -0.18609799563E+03 -0.61325590355E+02  0.38449437682E+03  0.43154283428E+03  0.25500000920E-02 0. -1.
       -2    1    3    3    0  502  0.18609799563E+03  0.61325590355E+02 -0.13149653351E+04  0.13294837812E+04  0.25500000920E-02 0.  1.
</event>
<event>
 5   0  0.2544374E-04  0.1467176E+04  0.7818609E-02  0.8906578E-01
       -1   -1    0    0    0  501  0.00000000000E+00  0.00000000000E+00  0.70730279832E+03  0.70730279833E+03  0.50400001928E-02 0.  1.
        1   -1    0    0  501    0  0.00000000000E+00  0.00000000000E+00 -0.76085046407E+03  0.76085046408E+03  0.50400001928E-02 0. -1.
    10030    2    1    2    0    0  0.00000000000E+00  0.00000000000E+00 -0.53547665752E+02  0.14681532624E+04  0.14671764207E+04 0.  0.
        4    1    3    3  502    0 -0.54880998783E+02 -0.51839564158E+03 -0.54326095220E+03  0.75291436453E+03  0.12699999809E+01 0. -1.
       -4    1    3    3    0  502  0.54880998783E+02  0.51839564158E+03  0.48971328644E+03  0.71523889789E+03  0.12699999809E+01 0.  1.
</event>
<event>
 5   0  0.1792000E-04  0.1504693E+04  0.7818609E-02  0.8881338E-01
       -3   -1    0    0    0  501  0.00000000000E+00  0.00000000000E+00  0.40246497432E+03  0.40246498700E+03  0.10100000352E+00 0. -1.
        3   -1    0    0  501    0  0.00000000000E+00  0.00000000000E+00 -0.14063968906E+04  0.14063968943E+04  0.10100000352E+00 0.  1.
    10030    2    1    2    0    0  0.00000000000E+00  0.00000000000E+00 -0.10039319163E+04  0.18088618813E+04  0.15046933285E+04 0.  0.
        3    1    3    3  502    0 -0.94074387696E+02  0.72692167082E+03 -0.29809527655E+03  0.79128118266E+03  0.10100000352E+00 0.  1.
       -3    1    3    3    0  502  0.94074387696E+02 -0.72692167082E+03 -0.70583663976E+03  0.10175806986E+04  0.10100000352E+00 0. -1.
</event>
<event>
 5   0  0.4948645E-04  0.1490378E+04  0.7818609E-02  0.8890877E-01
        2   -1    0    0  501    0  0.00000000000E+00  0.00000000000E+00  0.44572543464E+03  0.44572543465E+03  0.25500000920E-02 0. -1.
       -2   -1    0    0    0  501  0.00000000000E+00  0.00000000000E+00 -0.12458483685E+04  0.12458483685E+04  0.25500000920E-02 0.  1.
    10030    2    1    2    0    0  0.00000000000E+00  0.00000000000E+00 -0.80012293387E+03  0.16915738032E+04  0.14903775435E+04 0.  0.
        1    1    3    3  502    0 -0.78090156003E+02  0.54806466356E+03  0.16611126954E+03  0.57798434391E+03  0.50400001928E-02 0.  1.
       -1    1    3    3    0  502  0.78090156003E+02 -0.54806466356E+03 -0.96623420341E+03  0.11135894593E+04  0.50400001928E-02 0. -1.
</event>
<event>
 5   0  0.2544374E-04  0.1551762E+04  0.7818609E-02  0.8850743E-01
       -1   -1    0    0    0  501  0.00000000000E+00  0.00000000000E+00  0.58438836803E+03  0.58438836805E+03  0.50400001928E-02 0. -1.
        1   -1    0    0  501    0  0.00000000000E+00  0.00000000000E+00 -0.10301215384E+04  0.10301215384E+04  0.50400001928E-02 0.  1.
    10030    2    1    2    0    0  0.00000000000E+00  0.00000000000E+00 -0.44573317041E+03  0.16145099065E+04  0.15517616373E+04 0.  0.
        4    1    3    3  502    0  0.27616401642E+03  0.20278889194E+03 -0.94714776251E+03  0.10072141756E+04  0.12699999809E+01 0.  1.
       -4    1    3    3    0  502 -0.27616401642E+03 -0.20278889194E+03  0.50141459210E+03  0.60729573087E+03  0.12699999809E+01 0. -1.
</event>
<event>
 5   0  0.2542737E-04  0.1501961E+04  0.7818609E-02  0.8883150E-01
        1   -1    0    0  501    0  0.00000000000E+00  0.00000000000E+00  0.44930435530E+03  0.44930435532E+03  0.50400001928E-02 0.  1.
       -1   -1    0    0    0  501  0.00000000000E+00  0.00000000000E+00 -0.12552115697E+04  0.12552115698E+04  0.50400001928E-02 0. -1.
    10030    2    1    2    0    0  0.00000000000E+00  0.00000000000E+00 -0.80590721445E+03  0.17045159251E+04  0.15019614178E+04 0.  0.
        1    1    3    3  502    0  0.26897059382E+03 -0.27953166239E+03 -0.11327037881E+04  0.11972890220E+04  0.50400001928E-02 0. -1.
       -1    1    3    3    0  502 -0.26897059382E+03  0.27953166239E+03  0.32679657366E+03  0.50722690307E+03  0.50400001928E-02 0.  1.
</event>
<event>
 5   0  0.2603873E-04  0.1469258E+04  0.7818609E-02  0.8905157E-01
        1   -1    0    0  501    0  0.00000000000E+00  0.00000000000E+00  0.21015331019E+04  0.21015331019E+04  0.50400001928E-02 0. -1.
       -1   -1    0    0    0  501  0.00000000000E+00  0.00000000000E+00 -0.25680290378E+03  0.25680290382E+03  0.50400001928E-02 0.  1.
    10030    2    1    2    0    0  0.00000000000E+00  0.00000000000E+00  0.18447301981E+04  0.23583360057E+04  0.14692580481E+04 0.  0.
        2    1    3    3  502    0 -0.43868642307E+03  0.18265339009E+03  0.23108305199E+02  0.47575417232E+03  0.25500000920E-02 0.  1.
       -2    1    3    3    0  502  0.43868642307E+03 -0.18265339009E+03  0.18216218929E+04  0.18825818334E+04  0.25500000920E-02 0. -1.
</event>
<event>
 5   0  0.4948645E-04  0.1498054E+04  0.7818609E-02  0.8885748E-01
        2   -1    0    0  501    0  0.00000000000E+00  0.00000000000E+00  0.52073468941E+03  0.52073468942E+03  0.25500000920E-02 0. -1.
       -2   -1    0    0    0  501  0.00000000000E+00  0.00000000000E+00 -0.10774029497E+04  0.10774029497E+04  0.25500000920E-02 0.  1.
    10030    2    1    2    0    0  0.00000000000E+00  0.00000000000E+00 -0.55666826032E+03  0.15981376391E+04  0.14980535243E+04 0.  0.
        1    1    3    3  502    0  0.57204493411E+03  0.48257261502E+03 -0.31085616137E+03  0.81039699438E+03  0.50400001928E-02 0. -1.
       -1    1    3    3    0  502 -0.57204493411E+03 -0.48257261502E+03 -0.24581209895E+03  0.78774064477E+03  0.50400001928E-02 0.  1.
</event>
<event>
 5   0  0.4569211E-04  0.1530089E+04  0.7818609E-02  0.8864687E-01
        2   -1    0    0  501    0  0.00000000000E+00  0.00000000000E+00  0.22721539232E+04  0.22721539232E+04  0.25500000920E-02 0.  1.
       -2   -1    0    0    0  501  0.00000000000E+00  0.00000000000E+00 -0.25759377688E+03  0.25759377689E+03  0.25500000920E-02 0. -1.
    10030    2    1    2    0    0  0.00000000000E+00  0.00000000000E+00  0.20145601463E+04  0.25297477001E+04  0.15300885082E+04 0.  0.
        5    1    3    3  502    0  0.43901575186E+03  0.62201437054E+03  0.11313783446E+04  0.13636992909E+04  0.46999998093E+01 0.  1.
       -5    1    3    3    0  502 -0.43901575186E+03 -0.62201437054E+03  0.88318180170E+03  0.11660484091E+04  0.46999998093E+01 0. -1.
</event>
<event>
 5   0  0.2605471E-04  0.1479040E+04  0.7818609E-02  0.8898512E-01
       -1   -1    0    0    0  501  0.00000000000E+00  0.00000000000E+00  0.70115724252E+03  0.70115724254E+03  0.50400001928E-02 0.  1.
        1   -1    0    0  501    0  0.00000000000E+00  0.00000000000E+00 -0.77998134166E+03  0.77998134168E+03  0.50400001928E-02 0. -1.
    10030    2    1    2    0    0  0.00000000000E+00  0.00000000000E+00 -0.78824099140E+02  0.14811385842E+04  0.14790396435E+04 0.  0.
        3    1    3    3  502    0 -0.10359403897E+03 -0.25752406985E+03 -0.72583294922E+03  0.77709964087E+03  0.10100000352E+00 0. -1.
       -3    1    3    3    0  502  0.10359403897E+03  0.25752406985E+03  0.64700885008E+03  0.70403894335E+03  0.10100000352E+00 0.  1.
</event>
<event>
 5   0  0.4785496E-04  0.1506358E+04  0.7818609E-02  0.8880236E-01
       -2   -1    0    0    0  501  0.00000000000E+00  0.00000000000E+00  0.96282417723E+03  0.96282417723E+03  0.25500000920E-02 0.  1.
        2   -1    0    0  501    0  0.00000000000E+00  0.00000000000E+00 -0.58918224609E+03  0.58918224609E+03  0.25500000920E-02 0. -1.
    10030    2    1    2    0    0  0.00000000000E+00  0.00000000000E+00  0.37364193114E+03  0.15520064233E+04  0.15063584053E+04 0.  0.
        4    1    3    3  502    0 -0.19320264568E+03 -0.72695339501E+03  0.22657516686E+03  0.78557394302E+03  0.12699999809E+01 0.  1.
       -4    1    3    3    0  502  0.19320264568E+03  0.72695339501E+03  0.14706676428E+03  0.76643248031E+03  0.12699999809E+01 0. -1.
</event>
<event>
 5   0  0.2544374E-04  0.1494644E+04  0.7818609E-02  0.8888023E-01
       -1   -1    0    0    0  501  0.00000000000E+00  0.00000000000E+00  0.61979885821E+03  0.61979885823E+03  0.50400001928E-02 0. -1.
        1   -1    0    0  501    0  0.00000000000E+00  0.00000000000E+00 -0.90108253795E+03  0.90108253796E+03  0.50400001928E-02 0.  1.
    10030    2    1    2    0    0  0.00000000000E+00  0.00000000000E+00 -0.28128367974E+03  0.15208813962E+04  0.14946436742E+04 0.  0.
        4    1    3    3  502    0 -0.47146647137E+03  0.32052199067E+03  0.35103111812E+03  0.66950686249E+03  0.12699999809E+01 0. -1.
       -4    1    3    3    0  502  0.47146647137E+03 -0.32052199067E+03 -0.63231479786E+03  0.85137453370E+03  0.12699999809E+01 0.  1.
</event>
<event>
 5   0  0.2565416E-04  0.1499917E+04  0.7818609E-02  0.8884508E-01
       -1   -1    0    0    0  501  0.00000000000E+00  0.00000000000E+00  0.79583214913E+03  0.79583214914E+03  0.50400001928E-02 0.  1.
        1   -1    0    0  501    0  0.00000000000E+00  0.00000000000E+00 -0.70672893903E+03  0.70672893904E+03  0.50400001928E-02 0. -1.
    10030    2    1    2    0    0  0.00000000000E+00  0.00000000000E+00  0.89103210101E+02  0.15025610882E+04  0.14999168116E+04 0.  0.
        5    1    3    3  502    0  0.21424499347E+03  0.20158763621E+03 -0.64650295202E+03  0.71030039369E+03  0.46999998093E+01 0. -1.
       -5    1    3    3    0  502 -0.21424499347E+03 -0.20158763621E+03  0.73560616212E+03  0.79226069450E+03  0.46999998093E+01 0.  1.
</event>
<event>
 5   0  0.2603873E-04  0.1511064E+04  0.7818609E-02  0.8877128E-01
       -1   -1    0    0    0  501  0.00000000000E+00  0.00000000000E+00  0.36343889227E+03  0.36343889231E+03  0.50400001928E-02 0.  1.
        1   -1    0    0  501    0  0.00000000000E+00  0.00000000000E+00 -0.15706323413E+04  0.15706323413E+04  0.50400001928E-02 0. -1.
    10030    2    1    2    0    0  0.00000000000E+00  0.00000000000E+00 -0.12071934490E+04  0.19340712336E+04  0.15110643644E+04 0.  0.
        2    1    3    3  502    0 -0.43952788911E+03  0.27038166355E+03  0.10273734408E+03  0.52616154474E+03  0.25500000920E-02 0.  1.
       -2    1    3    3    0  502  0.43952788911E+03 -0.27038166355E+03 -0.13099307931E+04  0.14079096888E+04  0.25500000920E-02 0. -1.
</event>
<event>
 5   0  0.2603873E-04  0.1503206E+04  0.7818609E-02  0.8882324E-01
        1   -1    0    0  501    0  0.00000000000E+00  0.00000000000E+00  0.49284663045E+03  0.49284663047E+03  0.50400001928E-02 0.  1.
       -1   -1    0    0    0  501  0.00000000000E+00  0.00000000000E+00 -0.11462122479E+04  0.11462122479E+04  0.50400001928E-02 0. -1.
    10030    2    1    2    0    0  0.00000000000E+00  0.00000000000E+00 -0.65336561743E+03  0.16390588784E+04  0.15032057001E+04 0.  0.
        2    1    3    3  502    0  0.47553160501E+03  0.87477745339E+02 -0.95412192333E+03  0.10696407378E+04  0.25500000920E-02 0. -1.
       -2    1    3    3    0  502 -0.47553160501E+03 -0.87477745339E+02  0.30075630590E+03  0.56941814060E+03  0.25500000920E-02 0.  1.
</event>
<event>
 5   0  0.2565416E-04  0.1497869E+04  0.7818609E-02  0.8885872E-01
        1   -1    0    0  501    0  0.00000000000E+00  0.00000000000E+00  0.18594040821E+04  0.18594040821E+04  0.50400001928E-02 0.  1.
       -1   -1    0    0    0  501  0.00000000000E+00  0.00000000000E+00 -0.30165718270E+03  0.30165718274E+03  0.50400001928E-02 0. -1.
    10030    2    1    2    0    0  0.00000000000E+00  0.00000000000E+00  0.15577468994E+04  0.21610612649E+04  0.14978686150E+04 0.  0.
        5    1    3    3  502    0 -0.45167814189E+03 -0.14529598927E+03 -0.57125116937E+02  0.47792199922E+03  0.46999998093E+01 0. -1.
       -5    1    3    3    0  502  0.45167814189E+03  0.14529598927E+03  0.16148720163E+04  0.16831392656E+04  0.46999998093E+01 0.  1.
</event>
<event>
 5   0  0.2565416E-04  0.1495259E+04  0.7818609E-02  0.8887612E-01
       -1   -1    0    0    0  501  0.00000000000E+00  0.00000000000E+00  0.60097478203E+03  0.60097478205E+03  0.50400001928E-02 0.  1.
        1   -1    0    0  501    0  0.00000000000E+00  0.00000000000E+00 -0.93007244258E+03  0.93007244260E+03  0.50400001928E-02 0. -1.
    10030    2    1    2    0    0  0.00000000000E+00  0.00000000000E+00 -0.32909766055E+03  0.15310472247E+04  0.14952592865E+04 0.  0.
        5    1    3    3  502    0  0.43645425927E+03  0.31647163434E+03 -0.69490465410E+03  0.87952327091E+03  0.46999998093E+01 0. -1.
       -5    1    3    3    0  502 -0.43645425927E+03 -0.31647163434E+03  0.36580699355E+03  0.65152395375E+03  0.46999998093E+01 0.  1.
</event>
<event>
 5   0  0.2603873E-04  0.1520862E+04  0.7818609E-02  0.8870697E-01
        1   -1    0    0  501    0  0.00000000000E+00  0.00000000000E+00  0.12177515212E+04  0.12177515212E+04  0.50400001928E-02 0. -1.
       -1   -1    0    0    0  501  0.00000000000E+00  0.00000000000E+00 -0.47485511316E+03  0.47485511318E+03  0.50400001928E-02 0.  1.
    10030    2    1    2    0    0  0.00000000000E+00  0.00000000000E+00  0.74289640802E+03  0.16926066344E+04  0.15208623033E+04 0.  0.
        2    1    3    3  502    0  0.36459596897E+03 -0.57564741580E+03 -0.42451723221E+01  0.68140897368E+03  0.25500000920E-02 0.  1.
       -2    1    3    3    0  502 -0.36459596897E+03  0.57564741580E+03  0.74714158034E+03  0.10111976607E+04  0.25500000920E-02 0. -1.
</event>
<event>
 5   0  0.2603873E-04  0.1505236E+04  0.7818609E-02  0.8880978E-01
        1   -1    0    0  501    0  0.00000000000E+00  0.00000000000E+00  0.10833658100E+04  0.10833658100E+04  0.50400001928E-02 0.  1.
       -1   -1    0    0    0  501  0.00000000000E+00  0.00000000000E+00 -0.52284636996E+03  0.52284636999E+03  0.50400001928E-02 0. -1.
    10030    2    1    2    0    0  0.00000000000E+00  0.00000000000E+00  0.56051944005E+03  0.16062121800E+04  0.15052360362E+04 0.  0.
        2    1    3    3  502    0 -0.47745302466E+03 -0.35808390861E+03  0.76954783030E+03  0.97385283257E+03  0.25500000920E-02 0.  1.
       -2    1    3    3    0  502  0.47745302466E+03  0.35808390861E+03 -0.20902839025E+03  0.63235934745E+03  0.25500000920E-02 0. -1.
</event>
<event>
 5   0  0.1792000E-04  0.1497542E+04  0.7818609E-02  0.8886089E-01
       -4   -1    0    0    0  501  0.00000000000E+00  0.00000000000E+00  0.83353688958E+03  0.83353785709E+03  0.12699999809E+01 0. -1.
        4   -1    0    0  501    0  0.00000000000E+00  0.00000000000E+00 -0.67262331435E+03  0.67262451331E+03  0.12699999809E+01 0.  1.
    10030    2    1    2    0    0  0.00000000000E+00  0.00000000000E+00  0.16091357523E+03  0.15061623704E+04  0.14975419551E+04 0.  0.
        4    1    3    3  502    0 -0.63337390093E+02 -0.15775554959E+03 -0.65295819955E+03  0.67472547134E+03  0.12699999809E+01 0.  1.
       -4    1    3    3    0  502  0.63337390093E+02  0.15775554959E+03  0.81387177479E+03  0.83143689905E+03  0.12699999809E+01 0. -1.
</event>
<event>
 5   0  0.4948645E-04  0.1511452E+04  0.7818609E-02  0.8876873E-01
       -2   -1    0    0    0  501  0.00000000000E+00  0.00000000000E+00  0.78112886885E+03  0.78112886886E+03  0.25500000920E-02 0.  1.
        2   -1    0    0  501    0  0.00000000000E+00  0.00000000000E+00 -0.73114893100E+03  0.73114893100E+03  0.25500000920E-02 0. -1.
    10030    2    1    2    0    0  0.00000000000E+00  0.00000000000E+00  0.49979937854E+02  0.15122777999E+04  0.15114516697E+04 0.  0.
        1    1    3    3  502    0 -0.13416216576E+03 -0.72986874240E+03 -0.11796453814E+03  0.75141433320E+03  0.50400001928E-02 0.  1.
       -1    1    3    3    0  502  0.13416216576E+03  0.72986874240E+03  0.16794447599E+03  0.76086346666E+03  0.50400001928E-02 0. -1.
</event>
<event>
 5   0  0.2565416E-04  0.1505746E+04  0.7818609E-02  0.8880641E-01
       -1   -1    0    0    0  501  0.00000000000E+00  0.00000000000E+00  0.77565671353E+03  0.77565671355E+03  0.50400001928E-02 0. -1.
        1   -1    0    0  501    0  0.00000000000E+00  0.00000000000E+00 -0.73075886680E+03  0.73075886682E+03  0.50400001928E-02 0.  1.
    10030    2    1    2    0    0  0.00000000000E+00  0.00000000000E+00  0.44897846729E+02  0.15064155804E+04  0.15057463545E+04 0.  0.
        5    1    3    3  502    0  0.69301091385E+03 -0.13975256139E+03 -0.23651168381E+03  0.74548961878E+03  0.46999998093E+01 0. -1.
       -5    1    3    3    0  502 -0.69301091385E+03  0.13975256139E+03  0.28140953054E+03  0.76092596158E+03  0.46999998093E+01 0.  1.
</event>
<event>
 5   0  0.2603873E-04  0.1514572E+04  0.7818609E-02  0.8874820E-01
       -1   -1    0    0    0  501  0.00000000000E+00  0.00000000000E+00  0.81901154251E+03  0.81901154253E+03  0.50400001928E-02 0.  1.
        1   -1    0    0  501    0  0.00000000000E+00  0.00000000000E+00 -0.70021235285E+03  0.70021235287E+03  0.50400001928E-02 0. -1.
    10030    2    1    2    0    0  0.00000000000E+00  0.00000000000E+00  0.11879918967E+03  0.15192238954E+04  0.15145718857E+04 0.  0.
        2    1    3    3  502    0  0.11936379101E+03 -0.51012863373E+03 -0.48909166230E+03  0.71672141847E+03  0.25500000920E-02 0. -1.
       -2    1    3    3    0  502 -0.11936379101E+03  0.51012863373E+03  0.60789085197E+03  0.80250247692E+03  0.25500000920E-02 0.  1.
</event>
<event>
 5   0  0.2542737E-04  0.1504337E+04  0.7818609E-02  0.8881574E-01
       -1   -1    0    0    0  501  0.00000000000E+00  0.00000000000E+00  0.80181239186E+03  0.80181239187E+03  0.50400001928E-02 0. -1.
        1   -1    0    0  501    0  0.00000000000E+00  0.00000000000E+00 -0.70559794719E+03  0.70559794721E+03  0.50400001928E-02 0.  1.
    10030    2    1    2    0    0  0.00000000000E+00  0.00000000000E+00  0.96214444666E+02  0.15074103391E+04  0.15043366349E+04 0.  0.
        1    1    3    3  502    0  0.45263227242E+03  0.31911442042E+03 -0.46189950046E+03  0.72115264397E+03  0.50400001928E-02 0.  1.
       -1    1    3    3    0  502 -0.45263227242E+03 -0.31911442042E+03  0.55811394512E+03  0.78625769511E+03  0.50400001928E-02 0. -1.
</event>
<event>
 5   0  0.4569211E-04  0.1496464E+04  0.7818609E-02  0.8886808E-01
        2   -1    0    0  501    0  0.00000000000E+00  0.00000000000E+00  0.86818449973E+03  0.86818449973E+03  0.25500000920E-02 0. -1.
       -2   -1    0    0    0  501  0.00000000000E+00  0.00000000000E+00 -0.64485283002E+03  0.64485283002E+03  0.25500000920E-02 0.  1.
    10030    2    1    2    0    0  0.00000000000E+00  0.00000000000E+00  0.22333166971E+03  0.15130373298E+04  0.14964641414E+04 0.  0.
        5    1    3    3  502    0  0.54129263802E+03  0.23093176086E+03  0.57884583752E+03  0.82547670576E+03  0.46999998093E+01 0. -1.
       -5    1    3    3    0  502 -0.54129263802E+03 -0.23093176086E+03 -0.35551416781E+03  0.68756062399E+03  0.46999998093E+01 0.  1.
</event>
<event>
 5   0  0.4569211E-04  0.1684679E+04  0.7818609E-02  0.8770151E-01
       -2   -1    0    0    0  501  0.00000000000E+00  0.00000000000E+00  0.41797626055E+03  0.41797626056E+03  0.25500000920E-02 0.  1.
        2   -1    0    0  501    0  0.00000000000E+00  0.00000000000E+00 -0.16975502383E+04  0.16975502383E+04  0.25500000920E-02 0. -1.
    10030    2    1    2    0    0  0.00000000000E+00  0.00000000000E+00 -0.12795739777E+04  0.21155264988E+04  0.16846788426E+04 0.  0.
        5    1    3    3  502    0 -0.20027550279E+03  0.73849362869E+03 -0.10820346907E+04  0.13252563067E+04  0.46999998093E+01 0.  1.
       -5    1    3    3    0  502  0.20027550279E+03 -0.73849362869E+03 -0.19753928702E+03  0.79027019211E+03  0.46999998093E+01 0. -1.
</event>
<event>
 5   0  0.4785496E-04  0.1520242E+04  0.7818609E-02  0.8871103E-01
        2   -1    0    0  501    0  0.00000000000E+00  0.00000000000E+00  0.17134654740E+04  0.17134654740E+04  0.25500000920E-02 0.  1.
       -2   -1    0    0    0  501  0.00000000000E+00  0.00000000000E+00 -0.33720208577E+03  0.33720208578E+03  0.25500000920E-02 0. -1.
    10030    2    1    2    0    0  0.00000000000E+00  0.00000000000E+00  0.13762633883E+04  0.20506675598E+04  0.15202422593E+04 0.  0.
        4    1    3    3  502    0  0.73303865976E+03 -0.50647260870E+02  0.42562532560E+03  0.84915802559E+03  0.12699999809E+01 0. -1.
       -4    1    3    3    0  502 -0.73303865976E+03  0.50647260870E+02  0.95063806265E+03  0.12015095342E+04  0.12699999809E+01 0.  1.
</event>
<event>
 5   0  0.2565416E-04  0.1503646E+04  0.7818609E-02  0.8882032E-01
       -1   -1    0    0    0  501  0.00000000000E+00  0.00000000000E+00  0.68856988775E+03  0.68856988777E+03  0.50400001928E-02 0.  1.
        1   -1    0    0  501    0  0.00000000000E+00  0.00000000000E+00 -0.82088677644E+03  0.82088677646E+03  0.50400001928E-02 0. -1.
    10030    2    1    2    0    0  0.00000000000E+00  0.00000000000E+00 -0.13231688870E+03  0.15094566642E+04  0.15036461226E+04 0.  0.
        5    1    3    3  502    0 -0.19220429139E+03 -0.21491442784E+03  0.63084813223E+03  0.69362969722E+03  0.46999998093E+01 0.  1.
       -5    1    3    3    0  502  0.19220429139E+03  0.21491442784E+03 -0.76316502093E+03  0.81582696701E+03  0.46999998093E+01 0. -1.
</event>
<event>
 5   0  0.4726600E-04  0.1487406E+04  0.7818609E-02  0.8892871E-01
       -2   -1    0    0    0  501  0.00000000000E+00  0.00000000000E+00  0.30426034244E+03  0.30426034245E+03  0.25500000920E-02 0. -1.
        2   -1    0    0  501    0  0.00000000000E+00  0.00000000000E+00 -0.18178312215E+04  0.18178312215E+04  0.25500000920E-02 0.  1.
    10030    2    1    2    0    0  0.00000000000E+00  0.00000000000E+00 -0.15135708791E+04  0.21220915640E+04  0.14874057281E+04 0.  0.
        2    1    3    3  502    0  0.90592076749E+02  0.34111523605E+03 -0.16907361956E+04  0.17271813488E+04  0.25500000920E-02 0.  1.
       -2    1    3    3    0  502 -0.90592076749E+02 -0.34111523605E+03  0.17716531652E+03  0.39491021514E+03  0.25500000920E-02 0. -1.
</event>
<event>
 5   0  0.2603873E-04  0.1498546E+04  0.7818609E-02  0.8885420E-01
        1   -1    0    0  501    0  0.00000000000E+00  0.00000000000E+00  0.24956010534E+04  0.24956010535E+04  0.50400001928E-02 0.  1.
       -1   -1    0    0    0  501  0.00000000000E+00  0.00000000000E+00 -0.22495990819E+03  0.22495990825E+03  0.50400001928E-02 0. -1.
    10030    2    1    2    0    0  0.00000000000E+00  0.00000000000E+00  0.22706411453E+04  0.27205609617E+04  0.14985462074E+04 0.  0.
        2    1    3    3  502    0  0.14137473241E+03  0.64202151662E+03  0.48268172536E+03  0.81557347356E+03  0.25500000920E-02 0. -1.
       -2    1    3    3    0  502 -0.14137473241E+03 -0.64202151662E+03  0.17879594199E+04  0.19049874881E+04  0.25500000920E-02 0.  1.
</event>
<event>
 5   0  0.4726600E-04  0.1492710E+04  0.7818609E-02  0.8889315E-01
       -2   -1    0    0    0  501  0.00000000000E+00  0.00000000000E+00  0.20910248221E+03  0.20910248223E+03  0.25500000920E-02 0.  1.
        2   -1    0    0  501    0  0.00000000000E+00  0.00000000000E+00 -0.26639861746E+04  0.26639861746E+04  0.25500000920E-02 0. -1.
    10030    2    1    2    0    0  0.00000000000E+00  0.00000000000E+00 -0.24548836923E+04  0.28730886568E+04  0.14927104498E+04 0.  0.
        2    1    3    3  502    0 -0.80674188819E+02 -0.95690966337E+02 -0.26436430975E+04  0.26466042229E+04  0.25500000920E-02 0. -1.
       -2    1    3    3    0  502  0.80674188819E+02  0.95690966337E+02  0.18875940512E+03  0.22648443392E+03  0.25500000920E-02 0.  1.
</event>
<event>
 5   0  0.2565416E-04  0.1506462E+04  0.7818609E-02  0.8880167E-01
        1   -1    0    0  501    0  0.00000000000E+00  0.00000000000E+00  0.53866622465E+03  0.53866622467E+03  0.50400001928E-02 0. -1.
       -1   -1    0    0    0  501  0.00000000000E+00  0.00000000000E+00 -0.10532626878E+04  0.10532626878E+04  0.50400001928E-02 0.  1.
    10030    2    1    2    0    0  0.00000000000E+00  0.00000000000E+00 -0.51459646313E+03  0.15919289125E+04  0.15064621278E+04 0.  0.
        5    1    3    3  502    0  0.11522675345E+02 -0.13753052104E+03  0.52517526517E+03  0.54302722345E+03  0.46999998093E+01 0. -1.
       -5    1    3    3    0  502 -0.11522675345E+02  0.13753052104E+03 -0.10397717283E+04  0.10489016890E+04  0.46999998093E+01 0.  1.
</event>
<event>
 5   0  0.4785496E-04  0.1496303E+04  0.7818609E-02  0.8886915E-01
       -2   -1    0    0    0  501  0.00000000000E+00  0.00000000000E+00  0.15078687316E+04  0.15078687316E+04  0.25500000920E-02 0. -1.
        2   -1    0    0  501    0  0.00000000000E+00  0.00000000000E+00 -0.37120626138E+03  0.37120626139E+03  0.25500000920E-02 0.  1.
    10030    2    1    2    0    0  0.00000000000E+00  0.00000000000E+00  0.11366624702E+04  0.18790749930E+04  0.14963025289E+04 0.  0.
        4    1    3    3  502    0  0.11175487496E+02 -0.10250008494E+03 -0.36223963390E+03  0.37663022211E+03  0.12699999809E+01 0.  1.
       -4    1    3    3    0  502 -0.11175487496E+02  0.10250008494E+03  0.14989021041E+04  0.15024447709E+04  0.12699999809E+01 0. -1.
</event>
<event>
 5   0  0.2542737E-04  0.1655886E+04  0.7818609E-02  0.8786932E-01
       -1   -1    0    0    0  501  0.00000000000E+00  0.00000000000E+00  0.57282276812E+03  0.57282276814E+03  0.50400001928E-02 0. -1.
        1   -1    0    0  501    0  0.00000000000E+00  0.00000000000E+00 -0.11966875417E+04  0.11966875418E+04  0.50400001928E-02 0.  1.
    10030    2    1    2    0    0  0.00000000000E+00  0.00000000000E+00 -0.62386477363E+03  0.17695103099E+04  0.16558863128E+04 0.  0.
        1    1    3    3  502    0 -0.24426432754E+03 -0.24917754417E+03 -0.11142756663E+04  0.11676321213E+04  0.50400001928E-02 0.  1.
       -1    1    3    3    0  502  0.24426432754E+03  0.24917754417E+03  0.49041089266E+03  0.60187818858E+03  0.50400001928E-02 0. -1.
</event>
<event>
 5   0  0.2565416E-04  0.1487335E+04  0.7818609E-02  0.8892919E-01
        1   -1    0    0  501    0  0.00000000000E+00  0.00000000000E+00  0.11826647784E+04  0.11826647784E+04  0.50400001928E-02 0.  1.
       -1   -1    0    0    0  501  0.00000000000E+00  0.00000000000E+00 -0.46762333560E+03  0.46762333563E+03  0.50400001928E-02 0. -1.
    10030    2    1    2    0    0  0.00000000000E+00  0.00000000000E+00  0.71504144283E+03  0.16502881141E+04  0.14873354008E+04 0.  0.
        5    1    3    3  502    0 -0.94429527471E+01  0.63152449630E+03  0.79309509575E+03  0.10138709384E+04  0.46999998093E+01 0.  1.
       -5    1    3    3    0  502  0.94429527471E+01 -0.63152449630E+03 -0.78053652919E+02  0.63641717569E+03  0.46999998093E+01 0. -1.
</event>
<event>
 5   0  0.2544374E-04  0.1514255E+04  0.7818609E-02  0.8875028E-01
       -1   -1    0    0    0  501  0.00000000000E+00  0.00000000000E+00  0.48331705956E+03  0.48331705959E+03  0.50400001928E-02 0.  1.
        1   -1    0    0  501    0  0.00000000000E+00  0.00000000000E+00 -0.11860582099E+04  0.11860582100E+04  0.50400001928E-02 0. -1.
    10030    2    1    2    0    0  0.00000000000E+00  0.00000000000E+00 -0.70274115039E+03  0.16693752695E+04  0.15142551523E+04 0.  0.
        4    1    3    3  502    0 -0.35114122213E+03 -0.48400554723E+02  0.38619201087E+03  0.52420287459E+03  0.12699999809E+01 0.  1.
       -4    1    3    3    0  502  0.35114122213E+03  0.48400554723E+02 -0.10889331613E+04  0.11451723950E+04  0.12699999809E+01 0. -1.
</event>
<event>
 5   0  0.4726600E-04  0.1322495E+04  0.7818609E-02  0.9011914E-01
        2   -1    0    0  501    0  0.00000000000E+00  0.00000000000E+00  0.30172258350E+03  0.30172258351E+03  0.25500000920E-02 0.  1.
       -2   -1    0    0    0  501  0.00000000000E+00  0.00000000000E+00 -0.14491736161E+04  0.14491736161E+04  0.25500000920E-02 0. -1.
    10030    2    1    2    0    0  0.00000000000E+00  0.00000000000E+00 -0.11474510326E+04  0.17508961996E+04  0.13224952286E+04 0.  0.
        2    1    3    3  502    0  0.24705937184E+03  0.36663525539E+03 -0.12247304107E+04  0.13020846066E+04  0.25500000920E-02 0. -1.
       -2    1    3    3    0  502 -0.24705937184E+03 -0.36663525539E+03  0.77279378167E+02  0.44881159300E+03  0.25500000920E-02 0.  1.
</event>
<event>
 5   0  0.4768387E-04  0.1498737E+04  0.7818609E-02  0.8885293E-01
        2   -1    0    0  501    0  0.00000000000E+00  0.00000000000E+00  0.11780293719E+04  0.11780293719E+04  0.25500000920E-02 0. -1.
       -2   -1    0    0    0  501  0.00000000000E+00  0.00000000000E+00 -0.47668866039E+03  0.47668866040E+03  0.25500000920E-02 0.  1.
    10030    2    1    2    0    0  0.00000000000E+00  0.00000000000E+00  0.70134071151E+03  0.16547180323E+04  0.14987371260E+04 0.  0.
        3    1    3    3  502    0  0.54489349559E+03 -0.51272895897E+03  0.30443971840E+03  0.80776448254E+03  0.10100000352E+00 0.  1.
       -3    1    3    3    0  502 -0.54489349559E+03  0.51272895897E+03  0.39690099311E+03  0.84695354975E+03  0.10100000352E+00 0. -1.
</event>
<event>
 5   0  0.2565416E-04  0.1495694E+04  0.7818609E-02  0.8887321E-01
        1   -1    0    0  501    0  0.00000000000E+00  0.00000000000E+00  0.35945685271E+03  0.35945685274E+03  0.50400001928E-02 0. -1.
       -1   -1    0    0    0  501  0.00000000000E+00  0.00000000000E+00 -0.15558899871E+04  0.15558899871E+04  0.50400001928E-02 0.  1.
    10030    2    1    2    0    0  0.00000000000E+00  0.00000000000E+00 -0.11964331344E+04  0.19153468398E+04  0.14956942441E+04 0.  0.
        5    1    3    3  502    0  0.65287337441E+02  0.44725777022E+03 -0.13611540981E+04  0.14342470214E+04  0.46999998093E+01 0.  1.
       -5    1    3    3    0  502 -0.65287337441E+02 -0.44725777022E+03  0.16472096374E+03  0.48109981848E+03  0.46999998093E+01 0. -1.
</event>
<event>
 5   0  0.4569211E-04  0.1514451E+04  0.7818609E-02  0.8874899E-01
        2   -1    0    0  501    0  0.00000000000E+00  0.00000000000E+00  0.10570472513E+04  0.10570472513E+04  0.25500000920E-02 0. -1.
       -2   -1    0    0    0  501  0.00000000000E+00  0.00000000000E+00 -0.54244562845E+03  0.54244562845E+03  0.25500000920E-02 0.  1.
    10030    2    1    2    0    0  0.00000000000E+00  0.00000000000E+00  0.51460162287E+03  0.15994928798E+04  0.15144512677E+04 0.  0.
        5    1    3    3  502    0  0.23630282867E+03  0.37204143320E+03 -0.39299705512E+03  0.59052741696E+03  0.46999998093E+01 0.  1.
       -5    1    3    3    0  502 -0.23630282867E+03 -0.37204143320E+03  0.90759867799E+03  0.10089654628E+04  0.46999998093E+01 0. -1.
</event>
<event>
 5   0  0.4569211E-04  0.1523513E+04  0.7818609E-02  0.8868966E-01
       -2   -1    0    0    0  501  0.00000000000E+00  0.00000000000E+00  0.32067674267E+03  0.32067674268E+03  0.25500000920E-02 0.  1.
        2   -1    0    0  501    0  0.00000000000E+00  0.00000000000E+00 -0.18095255929E+04  0.18095255929E+04  0.25500000920E-02 0. -1.
    10030    2    1    2    0    0  0.00000000000E+00  0.00000000000E+00 -0.14888488503E+04  0.21302023356E+04  0.15235127475E+04 0.  0.
        5    1    3    3  502    0 -0.49658837448E+03 -0.56372222017E+03 -0.56829380209E+03  0.94199930502E+03  0.46999998093E+01 0. -1.
       -5    1    3    3    0  502  0.49658837448E+03  0.56372222017E+03 -0.92055504818E+03  0.11882030306E+04  0.46999998093E+01 0.  1.
</event>
<event>
 5   0  0.4569211E-04  0.1477551E+04  0.7818609E-02  0.8899520E-01
       -2   -1    0    0    0  501  0.00000000000E+00  0.00000000000E+00  0.57489763410E+03  0.57489763411E+03  0.25500000920E-02 0.  1.
        2   -1    0    0  501    0  0.00000000000E+00  0.00000000000E+00 -0.94936724334E+03  0.94936724334E+03  0.25500000920E-02 0. -1.
    10030    2    1    2    0    0  0.00000000000E+00  0.00000000000E+00 -0.37446960924E+03  0.15242648774E+04  0.14775506517E+04 0.  0.
        5    1    3    3  502    0 -0.63246498475E+03  0.32516572136E+03  0.19145611175E+02  0.71143049394E+03  0.46999998093E+01 0.  1.
       -5    1    3    3    0  502  0.63246498475E+03 -0.32516572136E+03 -0.39361522041E+03  0.81283438351E+03  0.46999998093E+01 0. -1.
</event>
<event>
 5   0  0.2544374E-04  0.1503036E+04  0.7818609E-02  0.8882436E-01
       -1   -1    0    0    0  501  0.00000000000E+00  0.00000000000E+00  0.86788133997E+03  0.86788133998E+03  0.50400001928E-02 0.  1.
        1   -1    0    0  501    0  0.00000000000E+00  0.00000000000E+00 -0.65075652949E+03  0.65075652951E+03  0.50400001928E-02 0. -1.
    10030    2    1    2    0    0  0.00000000000E+00  0.00000000000E+00  0.21712481048E+03  0.15186378695E+04  0.15030361923E+04 0.  0.
        4    1    3    3  502    0  0.44852058572E+03  0.51255912545E+03  0.42949173883E+03  0.80520329081E+03  0.12699999809E+01 0.  1.
       -4    1    3    3    0  502 -0.44852058572E+03 -0.51255912545E+03 -0.21236692835E+03  0.71343457868E+03  0.12699999809E+01 0. -1.
</event>
<event>
 5   0  0.4785496E-04  0.1522736E+04  0.7818609E-02  0.8869473E-01
       -2   -1    0    0    0  501  0.00000000000E+00  0.00000000000E+00  0.21252491301E+03  0.21252491302E+03  0.25500000920E-02 0.  1.
        2   -1    0    0  501    0  0.00000000000E+00  0.00000000000E+00 -0.27275902028E+04  0.27275902028E+04  0.25500000920E-02 0. -1.
    10030    2    1    2    0    0  0.00000000000E+00  0.00000000000E+00 -0.25150652898E+04  0.29401151159E+04  0.15227355261E+04 0.  0.
        4    1    3    3  502    0  0.49589030180E+03 -0.30276256645E+03 -0.22075760191E+04  0.22827540069E+04  0.12699999809E+01 0. -1.
       -4    1    3    3    0  502 -0.49589030180E+03  0.30276256645E+03 -0.30748927075E+03  0.65736110897E+03  0.12699999809E+01 0.  1.
</event>
<event>
 5   0  0.2542737E-04  0.1496879E+04  0.7818609E-02  0.8886531E-01
        1   -1    0    0  501    0  0.00000000000E+00  0.00000000000E+00  0.13876641750E+04  0.13876641750E+04  0.50400001928E-02 0. -1.
       -1   -1    0    0    0  501  0.00000000000E+00  0.00000000000E+00 -0.40367228759E+03  0.40367228763E+03  0.50400001928E-02 0.  1.
    10030    2    1    2    0    0  0.00000000000E+00  0.00000000000E+00  0.98399188736E+03  0.17913364626E+04  0.14968788487E+04 0.  0.
        1    1    3    3  502    0 -0.44257053341E+02  0.65594731848E+03  0.92003845093E+03  0.11307945537E+04  0.50400001928E-02 0.  1.
       -1    1    3    3    0  502  0.44257053341E+02 -0.65594731848E+03  0.63953436428E+02  0.66054190892E+03  0.50400001928E-02 0. -1.
</event>
<event>
 5   0  0.2542737E-04  0.1500165E+04  0.7818609E-02  0.8884344E-01
        1   -1    0    0  501    0  0.00000000000E+00  0.00000000000E+00  0.17280703399E+04  0.17280703399E+04  0.50400001928E-02 0. -1.
       -1   -1    0    0    0  501  0.00000000000E+00  0.00000000000E+00 -0.32557899149E+03  0.32557899153E+03  0.50400001928E-02 0.  1.
    10030    2    1    2    0    0  0.00000000000E+00  0.00000000000E+00  0.14024913484E+04  0.20536493314E+04  0.15001645224E+04 0.  0.
        1    1    3    3  502    0  0.69740745266E+03 -0.63079822119E+02  0.33323708914E+03  0.77550188690E+03  0.50400001928E-02 0.  1.
       -1    1    3    3    0  502 -0.69740745266E+03  0.63079822119E+02  0.10692542593E+04  0.12781474445E+04  0.50400001928E-02 0. -1.
</event>
<event>
 5   0  0.2603873E-04  0.1552758E+04  0.7818609E-02  0.8850108E-01
        1   -1    0    0  501    0  0.00000000000E+00  0.00000000000E+00  0.10704002345E+04  0.10704002345E+04  0.50400001928E-02 0.  1.
       -1   -1    0    0    0  501  0.00000000000E+00  0.00000000000E+00 -0.56312059764E+03  0.56312059767E+03  0.50400001928E-02 0. -1.
    10030    2    1    2    0    0  0.00000000000E+00  0.00000000000E+00  0.50727963682E+03  0.16335208321E+04  0.15527580878E+04 0.  0.
        2    1    3    3  502    0 -0.64765025955E+02  0.71195198133E+03  0.57220038668E+03  0.91568740016E+03  0.25500000920E-02 0.  1.
       -2    1    3    3    0  502  0.64765025955E+02 -0.71195198133E+03 -0.64920749855E+02  0.71783343198E+03  0.25500000920E-02 0. -1.
</event>
<event>
 5   0  0.4785496E-04  0.1495241E+04  0.7818609E-02  0.8887624E-01
        2   -1    0    0  501    0  0.00000000000E+00  0.00000000000E+00  0.11243678135E+04  0.11243678135E+04  0.25500000920E-02 0.  1.
       -2   -1    0    0    0  501  0.00000000000E+00  0.00000000000E+00 -0.49711177969E+03  0.49711177969E+03  0.25500000920E-02 0. -1.
    10030    2    1    2    0    0  0.00000000000E+00  0.00000000000E+00  0.62725603377E+03  0.16214795932E+04  0.14952410973E+04 0.  0.
        4    1    3    3  502    0 -0.14561699540E+03  0.13151001906E+03  0.10959468630E+04  0.11133734027E+04  0.12699999809E+01 0.  1.
       -4    1    3    3    0  502  0.14561699540E+03 -0.13151001906E+03 -0.46869082923E+03  0.50810619044E+03  0.12699999809E+01 0. -1.
</event>
<event>
 5   0  0.2544374E-04  0.1491302E+04  0.7818609E-02  0.8890257E-01
       -1   -1    0    0    0  501  0.00000000000E+00  0.00000000000E+00  0.10755074427E+04  0.10755074427E+04  0.50400001928E-02 0. -1.
        1   -1    0    0  501    0  0.00000000000E+00  0.00000000000E+00 -0.51696133846E+03  0.51696133849E+03  0.50400001928E-02 0.  1.
    10030    2    1    2    0    0  0.00000000000E+00  0.00000000000E+00  0.55854610424E+03  0.15924687812E+04  0.14913024739E+04 0.  0.
        4    1    3    3  502    0 -0.43826401713E+03  0.60264172552E+03  0.25019028143E+03  0.78603383379E+03  0.12699999809E+01 0. -1.
       -4    1    3    3    0  502  0.43826401713E+03 -0.60264172552E+03  0.30835582280E+03  0.80643494741E+03  0.12699999809E+01 0.  1.
</event>
<event>
 5   0  0.2605471E-04  0.1498452E+04  0.7818609E-02  0.8885483E-01
       -1   -1    0    0    0  501  0.00000000000E+00  0.00000000000E+00  0.59263318296E+03  0.59263318298E+03  0.50400001928E-02 0.  1.
        1   -1    0    0  501    0  0.00000000000E+00  0.00000000000E+00 -0.94719570691E+03  0.94719570692E+03  0.50400001928E-02 0. -1.
    10030    2    1    2    0    0  0.00000000000E+00  0.00000000000E+00 -0.35456252395E+03  0.15398288899E+04  0.14984520102E+04 0.  0.
        3    1    3    3  502    0  0.22427975944E+03  0.69113861318E+03 -0.36498767743E+03  0.81313590992E+03  0.10100000352E+00 0. -1.
       -3    1    3    3    0  502 -0.22427975944E+03 -0.69113861318E+03  0.10425153484E+02  0.72669297998E+03  0.10100000352E+00 0.  1.
</event>
<event>
 5   0  0.4948645E-04  0.1501151E+04  0.7818609E-02  0.8883688E-01
        2   -1    0    0  501    0  0.00000000000E+00  0.00000000000E+00  0.99002959097E+03  0.99002959098E+03  0.25500000920E-02 0. -1.
       -2   -1    0    0    0  501  0.00000000000E+00  0.00000000000E+00 -0.56903676405E+03  0.56903676405E+03  0.25500000920E-02 0.  1.
    10030    2    1    2    0    0  0.00000000000E+00  0.00000000000E+00  0.42099282693E+03  0.15590663550E+04  0.15011505384E+04 0.  0.
        1    1    3    3  502    0 -0.40163180147E+03  0.31585106816E+03 -0.36052785510E+03  0.62534017586E+03  0.50400001928E-02 0.  1.
       -1    1    3    3    0  502  0.40163180147E+03 -0.31585106816E+03  0.78152068202E+03  0.93372617917E+03  0.50400001928E-02 0. -1.
</event>
<event>
 5   0  0.4569211E-04  0.1503482E+04  0.7818609E-02  0.8882141E-01
       -2   -1    0    0    0  501  0.00000000000E+00  0.00000000000E+00  0.38439426875E+03  0.38439426876E+03  0.25500000920E-02 0.  1.
        2   -1    0    0  501    0  0.00000000000E+00  0.00000000000E+00 -0.14701424175E+04  0.14701424175E+04  0.25500000920E-02 0. -1.
    10030    2    1    2    0    0  0.00000000000E+00  0.00000000000E+00 -0.10857481487E+04  0.18545366862E+04  0.15034817186E+04 0.  0.
        5    1    3    3  502    0 -0.13971288678E+03  0.22840101127E+03 -0.14093156386E+04  0.14345310634E+04  0.46999998093E+01 0. -1.
       -5    1    3    3    0  502  0.13971288678E+03 -0.22840101127E+03  0.32356748989E+03  0.42000562281E+03  0.46999998093E+01 0.  1.
</event>
<event>
 5   0  0.2544374E-04  0.1481182E+04  0.7818609E-02  0.8897064E-01
       -1   -1    0    0    0  501  0.00000000000E+00  0.00000000000E+00  0.44279264710E+03  0.44279264713E+03  0.50400001928E-02 0.  1.
        1   -1    0    0  501    0  0.00000000000E+00  0.00000000000E+00 -0.12386722569E+04  0.12386722570E+04  0.50400001928E-02 0. -1.
    10030    2    1    2    0    0  0.00000000000E+00  0.00000000000E+00 -0.79587960985E+03  0.16814649041E+04  0.14811819167E+04 0.  0.
        4    1    3    3  502    0  0.63288385486E+03 -0.33770775678E+03 -0.18897064251E+03  0.74182209415E+03  0.12699999809E+01 0.  1.
       -4    1    3    3    0  502 -0.63288385486E+03  0.33770775678E+03 -0.60690896734E+03  0.93964280994E+03  0.12699999809E+01 0. -1.
</event>
<event>
 5   0  0.4785496E-04  0.1503885E+04  0.7818609E-02  0.8881874E-01
        2   -1    0    0  501    0  0.00000000000E+00  0.00000000000E+00  0.16254867885E+04  0.16254867885E+04  0.25500000920E-02 0.  1.
       -2   -1    0    0    0  501  0.00000000000E+00  0.00000000000E+00 -0.34784498320E+03  0.34784498321E+03  0.25500000920E-02 0. -1.
    10030    2    1    2    0    0  0.00000000000E+00  0.00000000000E+00  0.12776418053E+04  0.19733317717E+04  0.15038848688E+04 0.  0.
        4    1    3    3  502    0 -0.39822109212E+03 -0.45947389344E+03  0.12193213834E+04  0.13625133195E+04  0.12699999809E+01 0.  1.
       -4    1    3    3    0  502  0.39822109212E+03  0.45947389344E+03  0.58320421847E+02  0.61081845214E+03  0.12699999809E+01 0. -1.
</event>
<event>
 5   0  0.4726600E-04  0.1484522E+04  0.7818609E-02  0.8894812E-01
        2   -1    0    0  501    0  0.00000000000E+00  0.00000000000E+00  0.67830077569E+03  0.67830077570E+03  0.25500000920E-02 0.  1.
       -2   -1    0    0    0  501  0.00000000000E+00  0.00000000000E+00 -0.81225193965E+03  0.81225193965E+03  0.25500000920E-02 0. -1.
    10030    2    1    2    0    0  0.00000000000E+00  0.00000000000E+00 -0.13395116396E+03  0.14905527153E+04  0.14845216344E+04 0.  0.
        2    1    3    3  502    0  0.60219082019E+03 -0.79970953378E+02 -0.49523152657E+03  0.78376233785E+03  0.25500000920E-02 0. -1.
       -2    1    3    3    0  502 -0.60219082019E+03  0.79970953378E+02  0.36128036262E+03  0.70679037750E+03  0.25500000920E-02 0.  1.
</event>
<event>
 5   0  0.2542737E-04  0.1492132E+04  0.7818609E-02  0.8889702E-01
        1   -1    0    0  501    0  0.00000000000E+00  0.00000000000E+00  0.11564222388E+04  0.11564222389E+04  0.50400001928E-02 0.  1.
       -1   -1    0    0    0  501  0.00000000000E+00  0.00000000000E+00 -0.48132478519E+03  0.48132478521E+03  0.50400001928E-02 0. -1.
    10030    2    1    2    0    0  0.00000000000E+00  0.00000000000E+00  0.67509745366E+03  0.16377470241E+04  0.14921322806E+04 0.  0.
        1    1    3    3  502    0  0.54176362197E+03 -0.12445223076E+03 -0.20862529854E+03  0.59373453247E+03  0.50400001928E-02 0. -1.
       -1    1    3    3    0  502 -0.54176362197E+03  0.12445223076E+03  0.88372275220E+03  0.10440124916E+04  0.50400001928E-02 0.  1.
</event>
<event>
 5   0  0.4726600E-04  0.1523186E+04  0.7818609E-02  0.8869179E-01
       -2   -1    0    0    0  501  0.00000000000E+00  0.00000000000E+00  0.10115689345E+04  0.10115689345E+04  0.25500000920E-02 0.  1.
        2   -1    0    0  501    0  0.00000000000E+00  0.00000000000E+00 -0.57339018382E+03  0.57339018383E+03  0.25500000920E-02 0. -1.
    10030    2    1    2    0    0  0.00000000000E+00  0.00000000000E+00  0.43817875072E+03  0.15849591184E+04  0.15231857370E+04 0.  0.
        2    1    3    3  502    0 -0.25975576595E+03 -0.31172344510E+03  0.88972641832E+03  0.97788427926E+03  0.25500000920E-02 0.  1.
       -2    1    3    3    0  502  0.25975576595E+03  0.31172344510E+03 -0.45154766760E+03  0.60707483911E+03  0.25500000920E-02 0. -1.
</event>
<event>
 5   0  0.2603873E-04  0.1501979E+04  0.7818609E-02  0.8883138E-01
        1   -1    0    0  501    0  0.00000000000E+00  0.00000000000E+00  0.39887775057E+03  0.39887775060E+03  0.50400001928E-02 0.  1.
       -1   -1    0    0    0  501  0.00000000000E+00  0.00000000000E+00 -0.14139293052E+04  0.14139293052E+04  0.50400001928E-02 0. -1.
    10030    2    1    2    0    0  0.00000000000E+00  0.00000000000E+00 -0.10150515546E+04  0.18128070558E+04  0.15019786160E+04 0.  0.
        2    1    3    3  502    0  0.28730793481E+03  0.18750435841E+03  0.29876581796E+03  0.45493378399E+03  0.25500000920E-02 0.  1.
       -2    1    3    3    0  502 -0.28730793481E+03 -0.18750435841E+03 -0.13138173725E+04  0.13578732718E+04  0.25500000920E-02 0. -1.
</event>
<event>
 5   0  0.2544374E-04  0.1500093E+04  0.7818609E-02  0.8884391E-01
        1   -1    0    0  501    0  0.00000000000E+00  0.00000000000E+00  0.67823061801E+03  0.67823061803E+03  0.50400001928E-02 0.  1.
       -1   -1    0    0    0  501  0.00000000000E+00  0.00000000000E+00 -0.82946631289E+03  0.82946631290E+03  0.50400001928E-02 0. -1.
    10030    2    1    2    0    0  0.00000000000E+00  0.00000000000E+00 -0.15123569488E+03  0.15076969309E+04  0.15000925972E+04 0.  0.
        4    1    3    3  502    0 -0.33206151488E+03  0.46200354770E+03  0.41558830330E+03  0.70457602747E+03  0.12699999809E+01 0.  1.
       -4    1    3    3    0  502  0.33206151488E+03 -0.46200354770E+03 -0.56682399818E+03  0.80312090345E+03  0.12699999809E+01 0. -1.
</event>
<event>
 5   0  0.4948645E-04  0.1495074E+04  0.7818609E-02  0.8887735E-01
       -2   -1    0    0    0  501  0.00000000000E+00  0.00000000000E+00  0.26057314935E+03  0.26057314936E+03  0.25500000920E-02 0.  1.
        2   -1    0    0  501    0  0.00000000000E+00  0.00000000000E+00 -0.21445483727E+04  0.21445483727E+04  0.25500000920E-02 0. -1.
    10030    2    1    2    0    0  0.00000000000E+00  0.00000000000E+00 -0.18839752234E+04  0.24051215221E+04  0.14950742101E+04 0.  0.
        1    1    3    3  502    0  0.47952442367E+03 -0.45283134756E+03 -0.15080383099E+04  0.16459585191E+04  0.50400001928E-02 0. -1.
       -1    1    3    3    0  502 -0.47952442367E+03  0.45283134756E+03 -0.37593691343E+03  0.75916300301E+03  0.50400001928E-02 0.  1.
</event>
<event>
 5   0  0.4726600E-04  0.1488534E+04  0.7818609E-02  0.8892113E-01
        2   -1    0    0  501    0  0.00000000000E+00  0.00000000000E+00  0.49534397455E+03  0.49534397456E+03  0.25500000920E-02 0. -1.
       -2   -1    0    0    0  501  0.00000000000E+00  0.00000000000E+00 -0.11182809023E+04  0.11182809023E+04  0.25500000920E-02 0.  1.
    10030    2    1    2    0    0  0.00000000000E+00  0.00000000000E+00 -0.62293692775E+03  0.16136248769E+04  0.14885344562E+04 0.  0.
        2    1    3    3  502    0 -0.58080349015E+03  0.36525193937E+03  0.12003445133E+01  0.68610721773E+03  0.25500000920E-02 0. -1.
       -2    1    3    3    0  502  0.58080349015E+03 -0.36525193937E+03 -0.62413727227E+03  0.92751765914E+03  0.25500000920E-02 0.  1.
</event>
<event>
 5   0  0.2542737E-04  0.1486387E+04  0.7818609E-02  0.8893556E-01
        1   -1    0    0  501    0  0.00000000000E+00  0.00000000000E+00  0.53367952416E+03  0.53367952418E+03  0.50400001928E-02 0. -1.
       -1   -1    0    0    0  501  0.00000000000E+00  0.00000000000E+00 -0.10349599102E+04  0.10349599102E+04  0.50400001928E-02 0.  1.
    10030    2    1    2    0    0  0.00000000000E+00  0.00000000000E+00 -0.50128038604E+03  0.15686394344E+04  0.14863874494E+04 0.  0.
        1    1    3    3  502    0  0.70089319405E+03 -0.80303751607E+00  0.10190311400E+02  0.70096772879E+03  0.50400001928E-02 0. -1.
       -1    1    3    3    0  502 -0.70089319405E+03  0.80303751607E+00 -0.51147069744E+03  0.86767170560E+03  0.50400001928E-02 0.  1.
</event>
<event>
 5   0  0.2603873E-04  0.1500157E+04  0.7818609E-02  0.8884349E-01
       -1   -1    0    0    0  501  0.00000000000E+00  0.00000000000E+00  0.71781817553E+03  0.71781817555E+03  0.50400001928E-02 0.  1.
        1   -1    0    0  501    0  0.00000000000E+00  0.00000000000E+00 -0.78378870230E+03  0.78378870231E+03  0.50400001928E-02 0. -1.
    10030    2    1    2    0    0  0.00000000000E+00  0.00000000000E+00 -0.65970526769E+02  0.15016068779E+04  0.15001570269E+04 0.  0.
        2    1    3    3  502    0 -0.35366264602E+03  0.16254986802E+03  0.60881929946E+03  0.72260685451E+03  0.25500000920E-02 0.  1.
       -2    1    3    3    0  502  0.35366264602E+03 -0.16254986802E+03 -0.67478982623E+03  0.77900002335E+03  0.25500000920E-02 0. -1.
</event>
<event>
 5   0  0.4948645E-04  0.1557515E+04  0.7818609E-02  0.8847082E-01
        2   -1    0    0  501    0  0.00000000000E+00  0.00000000000E+00  0.91767586069E+03  0.91767586070E+03  0.25500000920E-02 0. -1.
       -2   -1    0    0    0  501  0.00000000000E+00  0.00000000000E+00 -0.66086874973E+03  0.66086874973E+03  0.25500000920E-02 0.  1.
    10030    2    1    2    0    0  0.00000000000E+00  0.00000000000E+00  0.25680711096E+03  0.15785446104E+04  0.15575150705E+04 0.  0.
        1    1    3    3  502    0  0.47240279090E+03  0.61911103650E+03  0.12906530447E+03  0.78937996251E+03  0.50400001928E-02 0. -1.
       -1    1    3    3    0  502 -0.47240279090E+03 -0.61911103650E+03  0.12774180649E+03  0.78916464792E+03  0.50400001928E-02 0.  1.
</event>
<event>
 5   0  0.2603873E-04  0.1529149E+04  0.7818609E-02  0.8865297E-01
       -1   -1    0    0    0  501  0.00000000000E+00  0.00000000000E+00  0.54257375150E+03  0.54257375152E+03  0.50400001928E-02 0. -1.
        1   -1    0    0  501    0  0.00000000000E+00  0.00000000000E+00 -0.10774097327E+04  0.10774097327E+04  0.50400001928E-02 0.  1.
    10030    2    1    2    0    0  0.00000000000E+00  0.00000000000E+00 -0.53483598116E+03  0.16199834842E+04  0.15291490975E+04 0.  0.
        2    1    3    3  502    0  0.54718426704E+03  0.27486739165E+03 -0.75244770300E+03  0.97012383274E+03  0.25500000920E-02 0.  1.
       -2    1    3    3    0  502 -0.54718426704E+03 -0.27486739165E+03  0.21761172184E+03  0.64985965145E+03  0.25500000920E-02 0. -1.
</event>
<event>
 5   0  0.2605471E-04  0.1503788E+04  0.7818609E-02  0.8881938E-01
        1   -1    0    0  501    0  0.00000000000E+00  0.00000000000E+00  0.16285813064E+04  0.16285813064E+04  0.50400001928E-02 0. -1.
       -1   -1    0    0    0  501  0.00000000000E+00  0.00000000000E+00 -0.34713952057E+03  0.34713952061E+03  0.50400001928E-02 0.  1.
    10030    2    1    2    0    0  0.00000000000E+00  0.00000000000E+00  0.12814417858E+04  0.19757208270E+04  0.15037884611E+04 0.  0.
        3    1    3    3  502    0  0.60397928839E+03 -0.39576269921E+03  0.91607959920E+03  0.11664565732E+04  0.10100000352E+00 0.  1.
       -3    1    3    3    0  502 -0.60397928839E+03  0.39576269921E+03  0.36536218663E+03  0.80926425383E+03  0.10100000352E+00 0. -1.
</event>
<event>
 5   0  0.4785496E-04  0.1504608E+04  0.7818609E-02  0.8881395E-01
       -2   -1    0    0    0  501  0.00000000000E+00  0.00000000000E+00  0.44679450703E+03  0.44679450704E+03  0.25500000920E-02 0.  1.
        2   -1    0    0  501    0  0.00000000000E+00  0.00000000000E+00 -0.12667142285E+04  0.12667142285E+04  0.25500000920E-02 0. -1.
    10030    2    1    2    0    0  0.00000000000E+00  0.00000000000E+00 -0.81991972149E+03  0.17135087356E+04  0.15046075359E+04 0.  0.
        4    1    3    3  502    0 -0.71753574647E+03 -0.12767421425E+03 -0.62241123177E+03  0.95841306688E+03  0.12699999809E+01 0. -1.
       -4    1    3    3    0  502  0.71753574647E+03  0.12767421425E+03 -0.19750848973E+03  0.75509566868E+03  0.12699999809E+01 0.  1.
</event>
<event>
 5   0  0.4785496E-04  0.1554980E+04  0.7818609E-02  0.8848693E-01
        2   -1    0    0  501    0  0.00000000000E+00  0.00000000000E+00  0.77426781618E+03  0.77426781619E+03  0.25500000920E-02 0. -1.
       -2   -1    0    0    0  501  0.00000000000E+00  0.00000000000E+00 -0.78072591786E+03  0.78072591786E+03  0.25500000920E-02 0.  1.
    10030    2    1    2    0    0  0.00000000000E+00  0.00000000000E+00 -0.64581016713E+01  0.15549937340E+04  0.15549803233E+04 0.  0.
        4    1    3    3  502    0  0.44737441238E+02 -0.14494821190E+03  0.75932451817E+03  0.77432987775E+03  0.12699999809E+01 0. -1.
       -4    1    3    3    0  502 -0.44737441238E+02  0.14494821190E+03 -0.76578261984E+03  0.78066385630E+03  0.12699999809E+01 0.  1.
</event>
<event>
 5   0  0.4785496E-04  0.1502094E+04  0.7818609E-02  0.8883062E-01
        2   -1    0    0  501    0  0.00000000000E+00  0.00000000000E+00  0.14484842421E+04  0.14484842421E+04  0.25500000920E-02 0.  1.
       -2   -1    0    0    0  501  0.00000000000E+00  0.00000000000E+00 -0.38942184787E+03  0.38942184788E+03  0.25500000920E-02 0. -1.
    10030    2    1    2    0    0  0.00000000000E+00  0.00000000000E+00  0.10590623942E+04  0.18379060900E+04  0.15020937523E+04 0.  0.
        4    1    3    3  502    0  0.33702063686E+02  0.26938303966E+03 -0.32728325380E+03  0.42522816495E+03  0.12699999809E+01 0. -1.
       -4    1    3    3    0  502 -0.33702063686E+02 -0.26938303966E+03  0.13863456480E+04  0.14126779250E+04  0.12699999809E+01 0.  1.
</event>
<event>
 5   0  0.4768387E-04  0.1501811E+04  0.7818609E-02  0.8883249E-01
        2   -1    0    0  501    0  0.00000000000E+00  0.00000000000E+00  0.10250307197E+04  0.10250307197E+04  0.25500000920E-02 0.  1.
       -2   -1    0    0    0  501  0.00000000000E+00  0.00000000000E+00 -0.55009001349E+03  0.55009001350E+03  0.25500000920E-02 0. -1.
    10030    2    1    2    0    0  0.00000000000E+00  0.00000000000E+00  0.47494070623E+03  0.15751207332E+04  0.15018111232E+04 0.  0.
        3    1    3    3  502    0 -0.10009926909E+03 -0.13764213252E+03  0.10045357065E+04  0.10188509293E+04  0.10100000352E+00 0.  1.
       -3    1    3    3    0  502  0.10009926909E+03  0.13764213252E+03 -0.52959500023E+03  0.55626980395E+03  0.10100000352E+00 0. -1.
</event>
<event>
 5   0  0.2542737E-04  0.1508879E+04  0.7818609E-02  0.8878570E-01
       -1   -1    0    0    0  501  0.00000000000E+00  0.00000000000E+00  0.39095851122E+03  0.39095851126E+03  0.50400001928E-02 0. -1.
        1   -1    0    0  501    0  0.00000000000E+00  0.00000000000E+00 -0.14558551707E+04  0.14558551707E+04  0.50400001928E-02 0.  1.
    10030    2    1    2    0    0  0.00000000000E+00  0.00000000000E+00 -0.10648966595E+04  0.18468136819E+04  0.15088790145E+04 0.  0.
        1    1    3    3  502    0  0.47034878465E+03 -0.56584779492E+03 -0.73640372982E+03  0.10410101630E+04  0.50400001928E-02 0. -1.
       -1    1    3    3    0  502 -0.47034878465E+03  0.56584779492E+03 -0.32849292964E+03  0.80580351891E+03  0.50400001928E-02 0.  1.
</event>
<event>
 5   0  0.4726600E-04  0.1497226E+04  0.7818609E-02  0.8886300E-01
       -2   -1    0    0    0  501  0.00000000000E+00  0.00000000000E+00  0.34824405547E+03  0.34824405548E+03  0.25500000920E-02 0. -1.
        2   -1    0    0  501    0  0.00000000000E+00  0.00000000000E+00 -0.16092776436E+04  0.16092776436E+04  0.25500000920E-02 0.  1.
    10030    2    1    2    0    0  0.00000000000E+00  0.00000000000E+00 -0.12610335881E+04  0.19575216990E+04  0.14972259322E+04 0.  0.
        2    1    3    3  502    0 -0.33719237689E+03  0.26661518530E+03  0.17080064058E+03  0.46255293200E+03  0.25500000920E-02 0. -1.
       -2    1    3    3    0  502  0.33719237689E+03 -0.26661518530E+03 -0.14318342287E+04  0.14949687671E+04  0.25500000920E-02 0.  1.
</event>
<event>
 5   0  0.4948645E-04  0.1503163E+04  0.7818609E-02  0.8882352E-01
        2   -1    0    0  501    0  0.00000000000E+00  0.00000000000E+00  0.18423667416E+04  0.18423667416E+04  0.25500000920E-02 0.  1.
       -2   -1    0    0    0  501  0.00000000000E+00  0.00000000000E+00 -0.30660276690E+03  0.30660276691E+03  0.25500000920E-02 0. -1.
    10030    2    1    2    0    0  0.00000000000E+00  0.00000000000E+00  0.15357639747E+04  0.21489695085E+04  0.15031629860E+04 0.  0.
        1    1    3    3  502    0  0.37556684594E+03 -0.10126700861E+03 -0.15150492036E+03  0.41744365335E+03  0.50400001928E-02 0. -1.
       -1    1    3    3    0  502 -0.37556684594E+03  0.10126700861E+03  0.16872688950E+04  0.17315258551E+04  0.50400001928E-02 0.  1.
</event>
<event>
 5   0  0.2603873E-04  0.1540067E+04  0.7818609E-02  0.8858237E-01
        1   -1    0    0  501    0  0.00000000000E+00  0.00000000000E+00  0.65620429631E+03  0.65620429633E+03  0.50400001928E-02 0.  1.
       -1   -1    0    0    0  501  0.00000000000E+00  0.00000000000E+00 -0.90360850435E+03  0.90360850436E+03  0.50400001928E-02 0. -1.
    10030    2    1    2    0    0  0.00000000000E+00  0.00000000000E+00 -0.24740420803E+03  0.15598128007E+04  0.15400672489E+04 0.  0.
        2    1    3    3  502    0  0.39217675483E+02  0.76107798747E+03 -0.23545284227E+03  0.79763134970E+03  0.25500000920E-02 0. -1.
       -2    1    3    3    0  502 -0.39217675483E+02 -0.76107798747E+03 -0.11951365766E+02  0.76218145099E+03  0.25500000920E-02 0.  1.
</event>
<event>
 5   0  0.2603873E-04  0.1510917E+04  0.7818609E-02  0.8877226E-01
       -1   -1    0    0    0  501  0.00000000000E+00  0.00000000000E+00  0.41266982359E+03  0.41266982362E+03  0.50400001928E-02 0. -1.
        1   -1    0    0  501    0  0.00000000000E+00  0.00000000000E+00 -0.13829875084E+04  0.13829875084E+04  0.50400001928E-02 0.  1.
    10030    2    1    2    0    0  0.00000000000E+00  0.00000000000E+00 -0.97031768483E+03  0.17956573320E+04  0.15109165578E+04 0.  0.
        2    1    3    3  502    0 -0.43807039783E+03 -0.18945424161E+03  0.21079193030E+03  0.52175839333E+03  0.25500000920E-02 0. -1.
       -2    1    3    3    0  502  0.43807039783E+03  0.18945424161E+03 -0.11811096151E+04  0.12738989387E+04  0.25500000920E-02 0.  1.
</event>
<event>
 5   0  0.4785496E-04  0.1505713E+04  0.7818609E-02  0.8880663E-01
       -2   -1    0    0    0  501  0.00000000000E+00  0.00000000000E+00  0.89300458190E+03  0.89300458190E+03  0.25500000920E-02 0.  1.
        2   -1    0    0  501    0  0.00000000000E+00  0.00000000000E+00 -0.63470343980E+03  0.63470343981E+03  0.25500000920E-02 0. -1.
    10030    2    1    2    0    0  0.00000000000E+00  0.00000000000E+00  0.25830114210E+03  0.15277080217E+04  0.15057132262E+04 0.  0.
        4    1    3    3  502    0  0.49065308950E+03  0.33565121082E+03  0.59783917101E+03  0.84309873493E+03  0.12699999809E+01 0.  1.
       -4    1    3    3    0  502 -0.49065308950E+03 -0.33565121082E+03 -0.33953802891E+03  0.68460928677E+03  0.12699999809E+01 0. -1.
</event>
<event>
 5   0  0.4785496E-04  0.1417846E+04  0.7818609E-02  0.8941001E-01
        2   -1    0    0  501    0  0.00000000000E+00  0.00000000000E+00  0.98769050975E+03  0.98769050975E+03  0.25500000920E-02 0.  1.
       -2   -1    0    0    0  501  0.00000000000E+00  0.00000000000E+00 -0.50883531689E+03  0.50883531689E+03  0.25500000920E-02 0. -1.
    10030    2    1    2    0    0  0.00000000000E+00  0.00000000000E+00  0.47885519286E+03  0.14965258266E+04  0.14178459910E+04 0.  0.
        4    1    3    3  502    0  0.39042297378E+03  0.37261887502E+03  0.72460442410E+03  0.90350877627E+03  0.12699999809E+01 0.  1.
       -4    1    3    3    0  502 -0.39042297378E+03 -0.37261887502E+03 -0.24574923124E+03  0.59301705037E+03  0.12699999809E+01 0. -1.
</event>
<event>
 5   0  0.4785496E-04  0.1499992E+04  0.7818609E-02  0.8884458E-01
        2   -1    0    0  501    0  0.00000000000E+00  0.00000000000E+00  0.87490743620E+03  0.87490743620E+03  0.25500000920E-02 0.  1.
       -2   -1    0    0    0  501  0.00000000000E+00  0.00000000000E+00 -0.64291813031E+03  0.64291813032E+03  0.25500000920E-02 0. -1.
    10030    2    1    2    0    0  0.00000000000E+00  0.00000000000E+00  0.23198930589E+03  0.15178255665E+04  0.14999918041E+04 0.  0.
        4    1    3    3  502    0 -0.69776523060E+03  0.43427646754E+01 -0.16222348582E+03  0.71638903460E+03  0.12699999809E+01 0. -1.
       -4    1    3    3    0  502  0.69776523060E+03 -0.43427646754E+01  0.39421279171E+03  0.80143653192E+03  0.12699999809E+01 0.  1.
</event>
<event>
 5   0  0.2605471E-04  0.1506319E+04  0.7818609E-02  0.8880261E-01
       -1   -1    0    0    0  501  0.00000000000E+00  0.00000000000E+00  0.68154386810E+03  0.68154386812E+03  0.50400001928E-02 0. -1.
        1   -1    0    0  501    0  0.00000000000E+00  0.00000000000E+00 -0.83230093551E+03  0.83230093553E+03  0.50400001928E-02 0.  1.
    10030    2    1    2    0    0  0.00000000000E+00  0.00000000000E+00 -0.15075706741E+03  0.15138448036E+04  0.15063194867E+04 0.  0.
        3    1    3    3  502    0  0.19346706056E+03  0.40365014739E+03 -0.68411625038E+03  0.81754388215E+03  0.10100000352E+00 0.  1.
       -3    1    3    3    0  502 -0.19346706056E+03 -0.40365014739E+03  0.53335918296E+03  0.69630092149E+03  0.10100000352E+00 0. -1.
</event>
<event>
 5   0  0.1792000E-04  0.1513179E+04  0.7818609E-02  0.8875736E-01
       -3   -1    0    0    0  501  0.00000000000E+00  0.00000000000E+00  0.51090640814E+03  0.51090641812E+03  0.10100000352E+00 0. -1.
        3   -1    0    0  501    0  0.00000000000E+00  0.00000000000E+00 -0.11204153654E+04  0.11204153700E+04  0.10100000352E+00 0.  1.
    10030    2    1    2    0    0  0.00000000000E+00  0.00000000000E+00 -0.60950895726E+03  0.16313217881E+04  0.15131786435E+04 0.  0.
        5    1    3    3  502    0 -0.27723832104E+03 -0.69835411075E+03 -0.20926248178E+03  0.77998232476E+03  0.46999998093E+01 0. -1.
       -5    1    3    3    0  502  0.27723832104E+03  0.69835411075E+03 -0.40024647548E+03  0.85133946331E+03  0.46999998093E+01 0.  1.
</event>
<event>
 5   0  0.2605471E-04  0.1535250E+04  0.7818609E-02  0.8861345E-01
        1   -1    0    0  501    0  0.00000000000E+00  0.00000000000E+00  0.83759597450E+03  0.83759597452E+03  0.50400001928E-02 0.  1.
       -1   -1    0    0    0  501  0.00000000000E+00  0.00000000000E+00 -0.70349926560E+03  0.70349926562E+03  0.50400001928E-02 0. -1.
    10030    2    1    2    0    0  0.00000000000E+00  0.00000000000E+00  0.13409670890E+03  0.15410952401E+04  0.15352500161E+04 0.  0.
        3    1    3    3  502    0 -0.70693639572E+03 -0.13756705864E+03 -0.19960259356E+03  0.74734528083E+03  0.10100000352E+00 0. -1.
       -3    1    3    3    0  502  0.70693639572E+03  0.13756705864E+03  0.33369930247E+03  0.79374995930E+03  0.10100000352E+00 0.  1.
</event>
<event>
 5   0  0.4726600E-04  0.1496086E+04  0.7818609E-02  0.8887060E-01
       -2   -1    0    0    0  501  0.00000000000E+00  0.00000000000E+00  0.10223835691E+04  0.10223835691E+04  0.25500000920E-02 0. -1.
        2   -1    0    0  501    0  0.00000000000E+00  0.00000000000E+00 -0.54731705780E+03  0.54731705781E+03  0.25500000920E-02 0.  1.
    10030    2    1    2    0    0  0.00000000000E+00  0.00000000000E+00  0.47506651125E+03  0.15697006269E+04  0.14960855149E+04 0.  0.
        2    1    3    3  502    0 -0.71832836132E+03  0.20362801795E+03  0.28570494351E+03  0.79942937094E+03  0.25500000920E-02 0.  1.
       -2    1    3    3    0  502  0.71832836132E+03 -0.20362801795E+03  0.18936156774E+03  0.77027125593E+03  0.25500000920E-02 0. -1.
</event>
<event>
 5   0  0.2603873E-04  0.1501566E+04  0.7818609E-02  0.8883412E-01
        1   -1    0    0  501    0  0.00000000000E+00  0.00000000000E+00  0.12793656528E+04  0.12793656529E+04  0.50400001928E-02 0.  1.
       -1   -1    0    0    0  501  0.00000000000E+00  0.00000000000E+00 -0.44058975431E+03  0.44058975434E+03  0.50400001928E-02 0. -1.
    10030    2    1    2    0    0  0.00000000000E+00  0.00000000000E+00  0.83877589854E+03  0.17199554072E+04  0.15015663804E+04 0.  0.
        2    1    3    3  502    0 -0.12722891546E+03 -0.54044523905E+03  0.99826878576E+03  0.11422822865E+04  0.25500000920E-02 0.  1.
       -2    1    3    3    0  502  0.12722891546E+03  0.54044523905E+03 -0.15949288722E+03  0.57767312073E+03  0.25500000920E-02 0. -1.
</event>
<event>
 5   0  0.2603873E-04  0.1499902E+04  0.7818609E-02  0.8884518E-01
        1   -1    0    0  501    0  0.00000000000E+00  0.00000000000E+00  0.19716566285E+04  0.19716566285E+04  0.50400001928E-02 0.  1.
       -1   -1    0    0    0  501  0.00000000000E+00  0.00000000000E+00 -0.28525576740E+03  0.28525576745E+03  0.50400001928E-02 0. -1.
    10030    2    1    2    0    0  0.00000000000E+00  0.00000000000E+00  0.16864008611E+04  0.22569123960E+04  0.14999018964E+04 0.  0.
        2    1    3    3  502    0  0.89930165424E+02 -0.26234330647E+03  0.18916635648E+04  0.19118845382E+04  0.25500000920E-02 0.  1.
       -2    1    3    3    0  502 -0.89930165424E+02  0.26234330647E+03 -0.20526270367E+03  0.34502785776E+03  0.25500000920E-02 0. -1.
</event>
<event>
 5   0  0.2542737E-04  0.1505678E+04  0.7818609E-02  0.8880686E-01
       -1   -1    0    0    0  501  0.00000000000E+00  0.00000000000E+00  0.48331858532E+03  0.48331858534E+03  0.50400001928E-02 0.  1.
        1   -1    0    0  501    0  0.00000000000E+00  0.00000000000E+00 -0.11726555718E+04  0.11726555719E+04  0.50400001928E-02 0. -1.
    10030    2    1    2    0    0  0.00000000000E+00  0.00000000000E+00 -0.68933698653E+03  0.16559741572E+04  0.15056775645E+04 0.  0.
        1    1    3    3  502    0  0.13962580270E+03 -0.49181168872E+03 -0.95245421930E+03  0.10809917399E+04  0.50400001928E-02 0. -1.
       -1    1    3    3    0  502 -0.13962580270E+03  0.49181168872E+03  0.26311723277E+03  0.57498241725E+03  0.50400001928E-02 0.  1.
</event>
<event>
 5   0  0.4726600E-04  0.1469116E+04  0.7818609E-02  0.8905254E-01
        2   -1    0    0  501    0  0.00000000000E+00  0.00000000000E+00  0.43098908477E+03  0.43098908477E+03  0.25500000920E-02 0.  1.
       -2   -1    0    0    0  501  0.00000000000E+00  0.00000000000E+00 -0.12519470806E+04  0.12519470806E+04  0.25500000920E-02 0. -1.
    10030    2    1    2    0    0  0.00000000000E+00  0.00000000000E+00 -0.82095799587E+03  0.16829361654E+04  0.14691160968E+04 0.  0.
        2    1    3    3  502    0 -0.28789173345E+03 -0.63424084303E+03 -0.67774294912E+03  0.97184288969E+03  0.25500000920E-02 0. -1.
       -2    1    3    3    0  502  0.28789173345E+03  0.63424084303E+03 -0.14321504675E+03  0.71109327572E+03  0.25500000920E-02 0.  1.
</event>
<event>
 5   0  0.4785496E-04  0.1495064E+04  0.7818609E-02  0.8887742E-01
       -2   -1    0    0    0  501  0.00000000000E+00  0.00000000000E+00  0.17251292363E+04  0.17251292363E+04  0.25500000920E-02 0. -1.
        2   -1    0    0  501    0  0.00000000000E+00  0.00000000000E+00 -0.32392010337E+03  0.32392010338E+03  0.25500000920E-02 0.  1.
    10030    2    1    2    0    0  0.00000000000E+00  0.00000000000E+00  0.14012091329E+04  0.20490493396E+04  0.14950639325E+04 0.  0.
        4    1    3    3  502    0  0.39408688730E+03  0.23719903856E+03  0.15082191060E+04  0.15767987643E+04  0.12699999809E+01 0. -1.
       -4    1    3    3    0  502 -0.39408688730E+03 -0.23719903856E+03 -0.10700997309E+03  0.47225057531E+03  0.12699999809E+01 0.  1.
</event>
<event>
 5   0  0.2542737E-04  0.1497896E+04  0.7818609E-02  0.8885853E-01
       -1   -1    0    0    0  501  0.00000000000E+00  0.00000000000E+00  0.51403756715E+03  0.51403756718E+03  0.50400001928E-02 0. -1.
        1   -1    0    0  501    0  0.00000000000E+00  0.00000000000E+00 -0.10912100897E+04  0.10912100897E+04  0.50400001928E-02 0.  1.
    10030    2    1    2    0    0  0.00000000000E+00  0.00000000000E+00 -0.57717252250E+03  0.16052476568E+04  0.14978958305E+04 0.  0.
        1    1    3    3  502    0 -0.41307225774E+03  0.48341474328E+03 -0.71268064150E+03  0.95510847600E+03  0.50400001928E-02 0.  1.
       -1    1    3    3    0  502  0.41307225774E+03 -0.48341474328E+03  0.13550811899E+03  0.65013918085E+03  0.50400001928E-02 0. -1.
</event>
<event>
 5   0  0.4948645E-04  0.1505190E+04  0.7818609E-02  0.8881009E-01
        2   -1    0    0  501    0  0.00000000000E+00  0.00000000000E+00  0.16552559074E+04  0.16552559074E+04  0.25500000920E-02 0. -1.
       -2   -1    0    0    0  501  0.00000000000E+00  0.00000000000E+00 -0.34218211890E+03  0.34218211891E+03  0.25500000920E-02 0.  1.
    10030    2    1    2    0    0  0.00000000000E+00  0.00000000000E+00  0.13130737885E+04  0.19974380264E+04  0.15051896542E+04 0.  0.
        1    1    3    3  502    0  0.63893784245E+03 -0.35831899700E+03  0.42759022538E+03  0.84821428365E+03  0.50400001928E-02 0.  1.
       -1    1    3    3    0  502 -0.63893784245E+03  0.35831899700E+03  0.88548356317E+03  0.11492237427E+04  0.50400001928E-02 0. -1.
</event>
<event>
 5   0  0.2603873E-04  0.1495957E+04  0.7818609E-02  0.8887146E-01
        1   -1    0    0  501    0  0.00000000000E+00  0.00000000000E+00  0.10746363513E+04  0.10746363513E+04  0.50400001928E-02 0.  1.
       -1   -1    0    0    0  501  0.00000000000E+00  0.00000000000E+00 -0.52061497656E+03  0.52061497659E+03  0.50400001928E-02 0. -1.
    10030    2    1    2    0    0  0.00000000000E+00  0.00000000000E+00  0.55402137469E+03  0.15952513279E+04  0.14959569230E+04 0.  0.
        2    1    3    3  502    0  0.49332791006E+03 -0.28201653389E+03 -0.24165344349E+03  0.61749667124E+03  0.25500000920E-02 0. -1.
       -2    1    3    3    0  502 -0.49332791006E+03  0.28201653389E+03  0.79567481819E+03  0.97775465662E+03  0.25500000920E-02 0.  1.
</event>
<event>
 5   0  0.2544374E-04  0.1499867E+04  0.7818609E-02  0.8884541E-01
       -1   -1    0    0    0  501  0.00000000000E+00  0.00000000000E+00  0.48411249999E+03  0.48411250001E+03  0.50400001928E-02 0.  1.
        1   -1    0    0  501    0  0.00000000000E+00  0.00000000000E+00 -0.11617146148E+04  0.11617146148E+04  0.50400001928E-02 0. -1.
    10030    2    1    2    0    0  0.00000000000E+00  0.00000000000E+00 -0.67760211478E+03  0.16458271148E+04  0.14998674161E+04 0.  0.
        4    1    3    3  502    0 -0.59359460103E+03 -0.35742659250E+03 -0.24021480571E+02  0.69331591921E+03  0.12699999809E+01 0.  1.
       -4    1    3    3    0  502  0.59359460103E+03  0.35742659250E+03 -0.65358063420E+03  0.95251119558E+03  0.12699999809E+01 0. -1.
</event>
<event>
 5   0  0.2542737E-04  0.1499781E+04  0.7818609E-02  0.8884599E-01
        1   -1    0    0  501    0  0.00000000000E+00  0.00000000000E+00  0.11820998288E+04  0.11820998288E+04  0.50400001928E-02 0. -1.
       -1   -1    0    0    0  501  0.00000000000E+00  0.00000000000E+00 -0.47570888240E+03  0.47570888242E+03  0.50400001928E-02 0.  1.
    10030    2    1    2    0    0  0.00000000000E+00  0.00000000000E+00  0.70639094640E+03  0.16578087112E+04  0.14997805019E+04 0.  0.
        1    1    3    3  502    0 -0.27568599031E+03 -0.13898387635E+03  0.11085879288E+04  0.11507764679E+04  0.50400001928E-02 0. -1.
       -1    1    3    3    0  502  0.27568599031E+03  0.13898387635E+03 -0.40219698239E+03  0.50703224336E+03  0.50400001928E-02 0.  1.
</event>
<event>
 5   0  0.2542737E-04  0.1496915E+04  0.7818609E-02  0.8886507E-01
       -1   -1    0    0    0  501  0.00000000000E+00  0.00000000000E+00  0.92160894314E+03  0.92160894315E+03  0.50400001928E-02 0. -1.
        1   -1    0    0  501    0  0.00000000000E+00  0.00000000000E+00 -0.60783795914E+03  0.60783795916E+03  0.50400001928E-02 0.  1.
    10030    2    1    2    0    0  0.00000000000E+00  0.00000000000E+00  0.31377098400E+03  0.15294469023E+04  0.14969153605E+04 0.  0.
        1    1    3    3  502    0 -0.31440580924E+03  0.28373793159E+03 -0.47364068149E+03  0.63536896517E+03  0.50400001928E-02 0.  1.
       -1    1    3    3    0  502  0.31440580924E+03 -0.28373793159E+03  0.78741166550E+03  0.89407793715E+03  0.50400001928E-02 0. -1.
</event>
<event>
 5   0  0.2542737E-04  0.1443819E+04  0.7818609E-02  0.8922697E-01
       -1   -1    0    0    0  501  0.00000000000E+00  0.00000000000E+00  0.39728898139E+03  0.39728898142E+03  0.50400001928E-02 0. -1.
        1   -1    0    0  501    0  0.00000000000E+00  0.00000000000E+00 -0.13117746642E+04  0.13117746642E+04  0.50400001928E-02 0.  1.
    10030    2    1    2    0    0  0.00000000000E+00  0.00000000000E+00 -0.91448568277E+03  0.17090636456E+04  0.14438194072E+04 0.  0.
        1    1    3    3  502    0 -0.28426601740E+03 -0.50557292089E+03 -0.96602132626E+03  0.11267689869E+04  0.50400001928E-02 0.  1.
       -1    1    3    3    0  502  0.28426601740E+03  0.50557292089E+03  0.51535643494E+02  0.58229465871E+03  0.50400001928E-02 0. -1.
</event>
<event>
 5   0  0.2603873E-04  0.1461558E+04  0.7818609E-02  0.8910427E-01
        1   -1    0    0  501    0  0.00000000000E+00  0.00000000000E+00  0.89291915916E+03  0.89291915918E+03  0.50400001928E-02 0.  1.
       -1   -1    0    0    0  501  0.00000000000E+00  0.00000000000E+00 -0.59808072230E+03  0.59808072233E+03  0.50400001928E-02 0. -1.
    10030    2    1    2    0    0  0.00000000000E+00  0.00000000000E+00  0.29483843686E+03  0.14909998815E+04  0.14615577111E+04 0.  0.
        2    1    3    3  502    0 -0.48379103986E+03 -0.14624810807E+03 -0.39103484032E+03  0.63902310264E+03  0.25500000920E-02 0. -1.
       -2    1    3    3    0  502  0.48379103986E+03  0.14624810807E+03  0.68587327717E+03  0.85197677886E+03  0.25500000920E-02 0.  1.
</event>
<event>
 5   0  0.2544374E-04  0.1483632E+04  0.7818609E-02  0.8895411E-01
       -1   -1    0    0    0  501  0.00000000000E+00  0.00000000000E+00  0.68924313541E+03  0.68924313543E+03  0.50400001928E-02 0. -1.
        1   -1    0    0  501    0  0.00000000000E+00  0.00000000000E+00 -0.79839857936E+03  0.79839857938E+03  0.50400001928E-02 0.  1.
    10030    2    1    2    0    0  0.00000000000E+00  0.00000000000E+00 -0.10915544395E+03  0.14876417148E+04  0.14836316796E+04 0.  0.
        4    1    3    3  502    0 -0.16150985793E+03 -0.21632217559E+03  0.63823727827E+03  0.69298568105E+03  0.12699999809E+01 0. -1.
       -4    1    3    3    0  502  0.16150985793E+03  0.21632217559E+03 -0.74739272222E+03  0.79465603376E+03  0.12699999809E+01 0.  1.
</event>
<event>
 5   0  0.4726600E-04  0.1491148E+04  0.7818609E-02  0.8890361E-01
       -2   -1    0    0    0  501  0.00000000000E+00  0.00000000000E+00  0.27405381214E+03  0.27405381215E+03  0.25500000920E-02 0.  1.
        2   -1    0    0  501    0  0.00000000000E+00  0.00000000000E+00 -0.20283622324E+04  0.20283622324E+04  0.25500000920E-02 0. -1.
    10030    2    1    2    0    0  0.00000000000E+00  0.00000000000E+00 -0.17543084203E+04  0.23024160445E+04  0.14911477488E+04 0.  0.
        2    1    3    3  502    0 -0.44489049110E+02 -0.45416520530E+03  0.33230450093E+02  0.45754734401E+03  0.25500000920E-02 0.  1.
       -2    1    3    3    0  502  0.44489049110E+02  0.45416520530E+03 -0.17875388703E+04  0.18448687005E+04  0.25500000920E-02 0. -1.
</event>
<event>
 5   0  0.2603873E-04  0.1511412E+04  0.7818609E-02  0.8876899E-01
       -1   -1    0    0    0  501  0.00000000000E+00  0.00000000000E+00  0.12168120253E+04  0.12168120253E+04  0.50400001928E-02 0. -1.
        1   -1    0    0  501    0  0.00000000000E+00  0.00000000000E+00 -0.46933437192E+03  0.46933437195E+03  0.50400001928E-02 0.  1.
    10030    2    1    2    0    0  0.00000000000E+00  0.00000000000E+00  0.74747765339E+03  0.16861463973E+04  0.15114121975E+04 0.  0.
        2    1    3    3  502    0 -0.38664141570E+03 -0.52113721989E+03 -0.58358244406E+02  0.65152227206E+03  0.25500000920E-02 0.  1.
       -2    1    3    3    0  502  0.38664141570E+03  0.52113721989E+03  0.80583589780E+03  0.10346241252E+04  0.25500000920E-02 0. -1.
</event>
<event>
 5   0  0.2565416E-04  0.1427086E+04  0.7818609E-02  0.8934442E-01
        1   -1    0    0  501    0  0.00000000000E+00  0.00000000000E+00  0.67292895883E+03  0.67292895884E+03  0.50400001928E-02 0. -1.
       -1   -1    0    0    0  501  0.00000000000E+00  0.00000000000E+00 -0.75660846186E+03  0.75660846188E+03  0.50400001928E-02 0.  1.
    10030    2    1    2    0    0  0.00000000000E+00  0.00000000000E+00 -0.83679503037E+02  0.14295374207E+04  0.14270861845E+04 0.  0.
        5    1    3    3  502    0 -0.22664684010E+03 -0.27691591747E+03  0.57652960046E+03  0.67857179847E+03  0.46999998093E+01 0. -1.
       -5    1    3    3    0  502  0.22664684010E+03  0.27691591747E+03 -0.66020910349E+03  0.75096562226E+03  0.46999998093E+01 0.  1.
</event>
<event>
 5   0  0.4948645E-04  0.1509387E+04  0.7818609E-02  0.8878235E-01
        2   -1    0    0  501    0  0.00000000000E+00  0.00000000000E+00  0.10695990040E+04  0.10695990040E+04  0.25500000920E-02 0.  1.
       -2   -1    0    0    0  501  0.00000000000E+00  0.00000000000E+00 -0.53250054878E+03  0.53250054878E+03  0.25500000920E-02 0. -1.
    10030    2    1    2    0    0  0.00000000000E+00  0.00000000000E+00  0.53709845520E+03  0.16020995528E+04  0.15093867054E+04 0.  0.
        1    1    3    3  502    0 -0.38900549953E+03  0.31763393486E+03  0.86648580950E+03  0.10015059927E+04  0.50400001928E-02 0.  1.
       -1    1    3    3    0  502  0.38900549953E+03 -0.31763393486E+03 -0.32938735430E+03  0.60059356010E+03  0.50400001928E-02 0. -1.
</event>
<event>
 5   0  0.4948645E-04  0.1477122E+04  0.7818609E-02  0.8899811E-01
        2   -1    0    0  501    0  0.00000000000E+00  0.00000000000E+00  0.14749523591E+04  0.14749523591E+04  0.25500000920E-02 0.  1.
       -2   -1    0    0    0  501  0.00000000000E+00  0.00000000000E+00 -0.36982372735E+03  0.36982372736E+03  0.25500000920E-02 0. -1.
    10030    2    1    2    0    0  0.00000000000E+00  0.00000000000E+00  0.11051286317E+04  0.18447760865E+04  0.14771220385E+04 0.  0.
        1    1    3    3  502    0 -0.19431036812E+03 -0.42304927502E+03  0.12686367796E+04  0.13513572758E+04  0.50400001928E-02 0.  1.
       -1    1    3    3    0  502  0.19431036812E+03  0.42304927502E+03 -0.16350814788E+03  0.49341881065E+03  0.50400001928E-02 0. -1.
</event>
<event>
 5   0  0.4726600E-04  0.1496620E+04  0.7818609E-02  0.8886703E-01
        2   -1    0    0  501    0  0.00000000000E+00  0.00000000000E+00  0.17663951304E+04  0.17663951304E+04  0.25500000920E-02 0.  1.
       -2   -1    0    0    0  501  0.00000000000E+00  0.00000000000E+00 -0.31701184311E+03  0.31701184312E+03  0.25500000920E-02 0. -1.
    10030    2    1    2    0    0  0.00000000000E+00  0.00000000000E+00  0.14493832873E+04  0.20834069735E+04  0.14966204274E+04 0.  0.
        2    1    3    3  502    0  0.56246878910E+03 -0.40648332860E+03  0.33498952138E+03  0.77059575302E+03  0.25500000920E-02 0. -1.
       -2    1    3    3    0  502 -0.56246878910E+03  0.40648332860E+03  0.11143937659E+04  0.13128112205E+04  0.25500000920E-02 0.  1.
</event>
<event>
 5   0  0.4569211E-04  0.1499025E+04  0.7818609E-02  0.8885102E-01
        2   -1    0    0  501    0  0.00000000000E+00  0.00000000000E+00  0.69983361710E+03  0.69983361710E+03  0.25500000920E-02 0.  1.
       -2   -1    0    0    0  501  0.00000000000E+00  0.00000000000E+00 -0.80271791600E+03  0.80271791600E+03  0.25500000920E-02 0. -1.
    10030    2    1    2    0    0  0.00000000000E+00  0.00000000000E+00 -0.10288429890E+03  0.15025515331E+04  0.14990249933E+04 0.  0.
        5    1    3    3  502    0  0.54713262581E+03  0.35716137102E+03 -0.41949604087E+03  0.77647754216E+03  0.46999998093E+01 0. -1.
       -5    1    3    3    0  502 -0.54713262581E+03 -0.35716137102E+03  0.31661174197E+03  0.72607399095E+03  0.46999998093E+01 0.  1.
</event>
<event>
 5   0  0.2544374E-04  0.1504061E+04  0.7818609E-02  0.8881757E-01
       -1   -1    0    0    0  501  0.00000000000E+00  0.00000000000E+00  0.34812814765E+03  0.34812814769E+03  0.50400001928E-02 0. -1.
        1   -1    0    0  501    0  0.00000000000E+00  0.00000000000E+00 -0.16245450580E+04  0.16245450580E+04  0.50400001928E-02 0.  1.
    10030    2    1    2    0    0  0.00000000000E+00  0.00000000000E+00 -0.12764169104E+04  0.19726732057E+04  0.15040609853E+04 0.  0.
        4    1    3    3  502    0  0.29494884531E+03  0.22256594637E+03 -0.14972761133E+04  0.15421957704E+04  0.12699999809E+01 0.  1.
       -4    1    3    3    0  502 -0.29494884531E+03 -0.22256594637E+03  0.22085920300E+03  0.43047743527E+03  0.12699999809E+01 0. -1.
</event>
<event>
 5   0  0.4948645E-04  0.1546814E+04  0.7818609E-02  0.8853905E-01
       -2   -1    0    0    0  501  0.00000000000E+00  0.00000000000E+00  0.66980242845E+03  0.66980242845E+03  0.25500000920E-02 0. -1.
        2   -1    0    0  501    0  0.00000000000E+00  0.00000000000E+00 -0.89303699456E+03  0.89303699456E+03  0.25500000920E-02 0.  1.
    10030    2    1    2    0    0  0.00000000000E+00  0.00000000000E+00 -0.22323456611E+03  0.15628394230E+04  0.15468139483E+04 0.  0.
        1    1    3    3  502    0  0.40680441970E+02  0.53642991369E+03 -0.67302351249E+03  0.86161046827E+03  0.50400001928E-02 0.  1.
       -1    1    3    3    0  502 -0.40680441970E+02 -0.53642991369E+03  0.44978894638E+03  0.70122895474E+03  0.50400001928E-02 0. -1.
</event>
<event>
 5   0  0.2542737E-04  0.1515173E+04  0.7818609E-02  0.8874425E-01
        1   -1    0    0  501    0  0.00000000000E+00  0.00000000000E+00  0.11914920403E+04  0.11914920403E+04  0.50400001928E-02 0.  1.
       -1   -1    0    0    0  501  0.00000000000E+00  0.00000000000E+00 -0.48169626886E+03  0.48169626888E+03  0.50400001928E-02 0. -1.
    10030    2    1    2    0    0  0.00000000000E+00  0.00000000000E+00  0.70979577148E+03  0.16731883092E+04  0.15151729541E+04 0.  0.
        1    1    3    3  502    0  0.34713656539E+03 -0.56586744797E+03  0.75796703780E+03  0.10075831450E+04  0.50400001928E-02 0.  1.
       -1    1    3    3    0  502 -0.34713656539E+03  0.56586744797E+03 -0.48171266319E+02  0.66560516421E+03  0.50400001928E-02 0. -1.
</event>
<event>
 5   0  0.1792000E-04  0.1488176E+04  0.7818609E-02  0.8892354E-01
       -4   -1    0    0    0  501  0.00000000000E+00  0.00000000000E+00  0.60944826184E+03  0.60944958509E+03  0.12699999809E+01 0. -1.
        4   -1    0    0  501    0  0.00000000000E+00  0.00000000000E+00 -0.90846967548E+03  0.90847056318E+03  0.12699999809E+01 0.  1.
    10030    2    1    2    0    0  0.00000000000E+00  0.00000000000E+00 -0.29902141363E+03  0.15179201483E+04  0.14881759878E+04 0.  0.
        5    1    3    3  502    0  0.20672254253E+03 -0.26398037636E+03  0.52801330387E+03  0.62549179672E+03  0.46999998093E+01 0. -1.
       -5    1    3    3    0  502 -0.20672254253E+03  0.26398037636E+03 -0.82703471751E+03  0.89242835155E+03  0.46999998093E+01 0.  1.
</event>
<event>
 5   0  0.2542737E-04  0.1513460E+04  0.7818609E-02  0.8875551E-01
        1   -1    0    0  501    0  0.00000000000E+00  0.00000000000E+00  0.12298106838E+04  0.12298106838E+04  0.50400001928E-02 0. -1.
       -1   -1    0    0    0  501  0.00000000000E+00  0.00000000000E+00 -0.46563265407E+03  0.46563265409E+03  0.50400001928E-02 0.  1.
    10030    2    1    2    0    0  0.00000000000E+00  0.00000000000E+00  0.76417802975E+03  0.16954433379E+04  0.15134596298E+04 0.  0.
        1    1    3    3  502    0  0.35315924877E+03  0.12885420499E+03  0.11178043296E+04  0.11793266640E+04  0.50400001928E-02 0. -1.
       -1    1    3    3    0  502 -0.35315924877E+03 -0.12885420499E+03 -0.35362629985E+03  0.51611667392E+03  0.50400001928E-02 0.  1.
</event>
<event>
 5   0  0.2565416E-04  0.1479998E+04  0.7818609E-02  0.8897864E-01
        1   -1    0    0  501    0  0.00000000000E+00  0.00000000000E+00  0.13678103038E+04  0.13678103039E+04  0.50400001928E-02 0.  1.
       -1   -1    0    0    0  501  0.00000000000E+00  0.00000000000E+00 -0.40034688550E+03  0.40034688553E+03  0.50400001928E-02 0. -1.
    10030    2    1    2    0    0  0.00000000000E+00  0.00000000000E+00  0.96746341834E+03  0.17681571894E+04  0.14799981015E+04 0.  0.
        5    1    3    3  502    0 -0.13617817464E+03 -0.49382088935E+03  0.11217217051E+04  0.12331606707E+04  0.46999998093E+01 0.  1.
       -5    1    3    3    0  502  0.13617817464E+03  0.49382088935E+03 -0.15425828675E+03  0.53499651871E+03  0.46999998093E+01 0. -1.
</event>
<event>
 5   0  0.2603873E-04  0.1500812E+04  0.7818609E-02  0.8883913E-01
        1   -1    0    0  501    0  0.00000000000E+00  0.00000000000E+00  0.67720785974E+03  0.67720785976E+03  0.50400001928E-02 0.  1.
       -1   -1    0    0    0  501  0.00000000000E+00  0.00000000000E+00 -0.83151549019E+03  0.83151549021E+03  0.50400001928E-02 0. -1.
    10030    2    1    2    0    0  0.00000000000E+00  0.00000000000E+00 -0.15430763045E+03  0.15087233500E+04  0.15008115478E+04 0.  0.
        2    1    3    3  502    0  0.19907460863E+03 -0.48733505648E+03  0.46043881473E+03  0.69937833766E+03  0.25500000920E-02 0.  1.
       -2    1    3    3    0  502 -0.19907460863E+03  0.48733505648E+03 -0.61474644518E+03  0.80934501231E+03  0.25500000920E-02 0. -1.
</event>
<event>
 5   0  0.4948645E-04  0.1417834E+04  0.7818609E-02  0.8941010E-01
        2   -1    0    0  501    0  0.00000000000E+00  0.00000000000E+00  0.10000902357E+04  0.10000902357E+04  0.25500000920E-02 0.  1.
       -2   -1    0    0    0  501  0.00000000000E+00  0.00000000000E+00 -0.50251773950E+03  0.50251773951E+03  0.25500000920E-02 0. -1.
    10030    2    1    2    0    0  0.00000000000E+00  0.00000000000E+00  0.49757249616E+03  0.15026079752E+04  0.14178336779E+04 0.  0.
        1    1    3    3  502    0 -0.53966472693E+03  0.32495648890E+02  0.73475475892E+03  0.91222724168E+03  0.50400001928E-02 0.  1.
       -1    1    3    3    0  502  0.53966472693E+03 -0.32495648890E+02 -0.23718226276E+03  0.59038073349E+03  0.50400001928E-02 0. -1.
</event>
<event>
 5   0  0.4768387E-04  0.1504978E+04  0.7818609E-02  0.8881150E-01
        2   -1    0    0  501    0  0.00000000000E+00  0.00000000000E+00  0.92271469365E+03  0.92271469365E+03  0.25500000920E-02 0.  1.
       -2   -1    0    0    0  501  0.00000000000E+00  0.00000000000E+00 -0.61366678127E+03  0.61366678127E+03  0.25500000920E-02 0. -1.
    10030    2    1    2    0    0  0.00000000000E+00  0.00000000000E+00  0.30904791238E+03  0.15363814749E+04  0.15049775494E+04 0.  0.
        3    1    3    3  502    0  0.68360253473E+03 -0.93798103878E+02  0.46100309735E+03  0.82983996997E+03  0.10100000352E+00 0.  1.
       -3    1    3    3    0  502 -0.68360253473E+03  0.93798103878E+02 -0.15195518497E+03  0.70654150496E+03  0.10100000352E+00 0. -1.
</event>
<event>
 5   0  0.2542737E-04  0.1501193E+04  0.7818609E-02  0.8883660E-01
        1   -1    0    0  501    0  0.00000000000E+00  0.00000000000E+00  0.73157905050E+03  0.73157905052E+03  0.50400001928E-02 0. -1.
       -1   -1    0    0    0  501  0.00000000000E+00  0.00000000000E+00 -0.77010780693E+03  0.77010780694E+03  0.50400001928E-02 0.  1.
    10030    2    1    2    0    0  0.00000000000E+00  0.00000000000E+00 -0.38528756424E+02  0.15016868575E+04  0.15011925102E+04 0.  0.
        1    1    3    3  502    0  0.60908307390E+03 -0.26844872596E+03 -0.36629046319E+03  0.75974707162E+03  0.50400001928E-02 0.  1.
       -1    1    3    3    0  502 -0.60908307390E+03  0.26844872596E+03  0.32776170676E+03  0.74193978585E+03  0.50400001928E-02 0. -1.
</event>
<event>
 5   0  0.2603873E-04  0.1476395E+04  0.7818609E-02  0.8900303E-01
        1   -1    0    0  501    0  0.00000000000E+00  0.00000000000E+00  0.65747197041E+03  0.65747197043E+03  0.50400001928E-02 0. -1.
       -1   -1    0    0    0  501  0.00000000000E+00  0.00000000000E+00 -0.82883489125E+03  0.82883489126E+03  0.50400001928E-02 0.  1.
    10030    2    1    2    0    0  0.00000000000E+00  0.00000000000E+00 -0.17136292084E+03  0.14863068617E+04  0.14763952169E+04 0.  0.
        2    1    3    3  502    0 -0.24852827319E+03  0.43986288008E+03  0.45616051389E+03  0.68068206256E+03  0.25500000920E-02 0. -1.
       -2    1    3    3    0  502  0.24852827319E+03 -0.43986288008E+03 -0.62752343472E+03  0.80562479914E+03  0.25500000920E-02 0.  1.
</event>
<event>
 5   0  0.1792000E-04  0.1513217E+04  0.7818609E-02  0.8875711E-01
        3   -1    0    0  501    0  0.00000000000E+00  0.00000000000E+00  0.10213234488E+04  0.10213234538E+04  0.10100000352E+00 0.  1.
       -3   -1    0    0    0  501  0.00000000000E+00  0.00000000000E+00 -0.56050443825E+03  0.56050444735E+03  0.10100000352E+00 0. -1.
    10030    2    1    2    0    0  0.00000000000E+00  0.00000000000E+00  0.46081901055E+03  0.15818279011E+04  0.15132168874E+04 0.  0.
        3    1    3    3  502    0  0.43946848615E+03 -0.17996739240E+03 -0.38530931940E+03  0.61154238976E+03  0.10100000352E+00 0. -1.
       -3    1    3    3    0  502 -0.43946848615E+03  0.17996739240E+03  0.84612832995E+03  0.97028551138E+03  0.10100000352E+00 0.  1.
</event>
<event>
 5   0  0.2544374E-04  0.1512003E+04  0.7818609E-02  0.8876510E-01
       -1   -1    0    0    0  501  0.00000000000E+00  0.00000000000E+00  0.71373850646E+03  0.71373850648E+03  0.50400001928E-02 0. -1.
        1   -1    0    0  501    0  0.00000000000E+00  0.00000000000E+00 -0.80076746695E+03  0.80076746697E+03  0.50400001928E-02 0.  1.
    10030    2    1    2    0    0  0.00000000000E+00  0.00000000000E+00 -0.87028960486E+02  0.15145059734E+04  0.15120034073E+04 0.  0.
        4    1    3    3  502    0  0.23039157007E+03  0.32588618561E+02  0.67697757410E+03  0.71585092187E+03  0.12699999809E+01 0. -1.
       -4    1    3    3    0  502 -0.23039157007E+03 -0.32588618561E+02 -0.76400653458E+03  0.79865505157E+03  0.12699999809E+01 0.  1.
</event>
<event>
 5   0  0.2603873E-04  0.1494816E+04  0.7818609E-02  0.8887907E-01
       -1   -1    0    0    0  501  0.00000000000E+00  0.00000000000E+00  0.38707513939E+03  0.38707513943E+03  0.50400001928E-02 0. -1.
        1   -1    0    0  501    0  0.00000000000E+00  0.00000000000E+00 -0.14431797476E+04  0.14431797476E+04  0.50400001928E-02 0.  1.
    10030    2    1    2    0    0  0.00000000000E+00  0.00000000000E+00 -0.10561046082E+04  0.18302548871E+04  0.14948163794E+04 0.  0.
        2    1    3    3  502    0  0.37822599179E+02  0.40852799239E+03  0.23687346744E+03  0.47374540543E+03  0.25500000920E-02 0. -1.
       -2    1    3    3    0  502 -0.37822599179E+02 -0.40852799239E+03 -0.12929780757E+04  0.13565094816E+04  0.25500000920E-02 0.  1.
</event>
<event>
 5   0  0.2605471E-04  0.1433195E+04  0.7818609E-02  0.8930134E-01
       -1   -1    0    0    0  501  0.00000000000E+00  0.00000000000E+00  0.92296848085E+03  0.92296848086E+03  0.50400001928E-02 0. -1.
        1   -1    0    0  501    0  0.00000000000E+00  0.00000000000E+00 -0.55637026807E+03  0.55637026809E+03  0.50400001928E-02 0.  1.
    10030    2    1    2    0    0  0.00000000000E+00  0.00000000000E+00  0.36659821278E+03  0.14793387489E+04  0.14331953407E+04 0.  0.
        3    1    3    3  502    0  0.54585781438E+03 -0.28966632865E+02 -0.29499034223E+03  0.62114340659E+03  0.10100000352E+00 0.  1.
       -3    1    3    3    0  502 -0.54585781438E+03  0.28966632865E+02  0.66158855500E+03  0.85819534236E+03  0.10100000352E+00 0. -1.
</event>
<event>
 5   0  0.4948645E-04  0.1529655E+04  0.7818609E-02  0.8864969E-01
        2   -1    0    0  501    0  0.00000000000E+00  0.00000000000E+00  0.11355964494E+04  0.11355964494E+04  0.25500000920E-02 0.  1.
       -2   -1    0    0    0  501  0.00000000000E+00  0.00000000000E+00 -0.51511361000E+03  0.51511361001E+03  0.25500000920E-02 0. -1.
    10030    2    1    2    0    0  0.00000000000E+00  0.00000000000E+00  0.62048283941E+03  0.16507100594E+04  0.15296551070E+04 0.  0.
        1    1    3    3  502    0  0.11210175926E+03 -0.74468915201E+03  0.45434765483E+03  0.87952289853E+03  0.50400001928E-02 0.  1.
       -1    1    3    3    0  502 -0.11210175926E+03  0.74468915201E+03  0.16613518458E+03  0.77118716090E+03  0.50400001928E-02 0. -1.
</event>
<event>
 5   0  0.2565416E-04  0.1638322E+04  0.7818609E-02  0.8797345E-01
        1   -1    0    0  501    0  0.00000000000E+00  0.00000000000E+00  0.11515357554E+04  0.11515357554E+04  0.50400001928E-02 0. -1.
       -1   -1    0    0    0  501  0.00000000000E+00  0.00000000000E+00 -0.58272132210E+03  0.58272132213E+03  0.50400001928E-02 0.  1.
    10030    2    1    2    0    0  0.00000000000E+00  0.00000000000E+00  0.56881443327E+03  0.17342570775E+04  0.16383216264E+04 0.  0.
        5    1    3    3  502    0 -0.68121152574E+03 -0.21120990954E+03  0.71091982066E+03  0.10070192898E+04  0.46999998093E+01 0. -1.
       -5    1    3    3    0  502  0.68121152574E+03  0.21120990954E+03 -0.14210538740E+03  0.72723778767E+03  0.46999998093E+01 0.  1.
</event>
<event>
 5   0  0.4726600E-04  0.1498739E+04  0.7818609E-02  0.8885292E-01
        2   -1    0    0  501    0  0.00000000000E+00  0.00000000000E+00  0.20166022632E+04  0.20166022632E+04  0.25500000920E-02 0.  1.
       -2   -1    0    0    0  501  0.00000000000E+00  0.00000000000E+00 -0.27846565706E+03  0.27846565708E+03  0.25500000920E-02 0. -1.
    10030    2    1    2    0    0  0.00000000000E+00  0.00000000000E+00  0.17381366062E+04  0.22950679203E+04  0.14987387688E+04 0.  0.
        2    1    3    3  502    0 -0.45460447299E+03  0.41764409370E+03  0.15195922320E+04  0.16401988805E+04  0.25500000920E-02 0.  1.
       -2    1    3    3    0  502  0.45460447299E+03 -0.41764409370E+03  0.21854437414E+03  0.65486903984E+03  0.25500000920E-02 0. -1.
</event>
<event>
 5   0  0.2603873E-04  0.1512541E+04  0.7818609E-02  0.8876156E-01
        1   -1    0    0  501    0  0.00000000000E+00  0.00000000000E+00  0.87320737992E+03  0.87320737994E+03  0.50400001928E-02 0.  1.
       -1   -1    0    0    0  501  0.00000000000E+00  0.00000000000E+00 -0.65499303054E+03  0.65499303056E+03  0.50400001928E-02 0. -1.
    10030    2    1    2    0    0  0.00000000000E+00  0.00000000000E+00  0.21821434938E+03  0.15282004105E+04  0.15125405754E+04 0.  0.
        2    1    3    3  502    0 -0.62904489185E+02 -0.35334103531E+03  0.78168526993E+03  0.86013878137E+03  0.25500000920E-02 0.  1.
       -2    1    3    3    0  502  0.62904489185E+02  0.35334103531E+03 -0.56347092055E+03  0.66806162912E+03  0.25500000920E-02 0. -1.
</event>
<event>
 5   0  0.4768387E-04  0.1494974E+04  0.7818609E-02  0.8887802E-01
       -2   -1    0    0    0  501  0.00000000000E+00  0.00000000000E+00  0.15136673858E+04  0.15136673858E+04  0.25500000920E-02 0. -1.
        2   -1    0    0  501    0  0.00000000000E+00  0.00000000000E+00 -0.36912768607E+03  0.36912768608E+03  0.25500000920E-02 0.  1.
    10030    2    1    2    0    0  0.00000000000E+00  0.00000000000E+00  0.11445396997E+04  0.18827950719E+04  0.14949736314E+04 0.  0.
        3    1    3    3  502    0  0.40570724592E+03  0.39461236480E+03 -0.42680667743E+02  0.56757284770E+03  0.10100000352E+00 0.  1.
       -3    1    3    3    0  502 -0.40570724592E+03 -0.39461236480E+03  0.11872203675E+04  0.13152222242E+04  0.10100000352E+00 0. -1.
</event>
<event>
 5   0  0.2542737E-04  0.1494260E+04  0.7818609E-02  0.8888279E-01
       -1   -1    0    0    0  501  0.00000000000E+00  0.00000000000E+00  0.49314093834E+03  0.49314093837E+03  0.50400001928E-02 0.  1.
        1   -1    0    0  501    0  0.00000000000E+00  0.00000000000E+00 -0.11319347066E+04  0.11319347066E+04  0.50400001928E-02 0. -1.
    10030    2    1    2    0    0  0.00000000000E+00  0.00000000000E+00 -0.63879376828E+03  0.16250756450E+04  0.14942601425E+04 0.  0.
        1    1    3    3  502    0 -0.34903937079E+03  0.61144151712E+03 -0.47479813798E+02  0.70565114891E+03  0.50400001928E-02 0.  1.
       -1    1    3    3    0  502  0.34903937079E+03 -0.61144151712E+03 -0.59131395448E+03  0.91942449609E+03  0.50400001928E-02 0. -1.
</event>
<event>
 5   0  0.4768387E-04  0.1514537E+04  0.7818609E-02  0.8874843E-01
       -2   -1    0    0    0  501  0.00000000000E+00  0.00000000000E+00  0.39266155497E+03  0.39266155498E+03  0.25500000920E-02 0.  1.
        2   -1    0    0  501    0  0.00000000000E+00  0.00000000000E+00 -0.14604320306E+04  0.14604320306E+04  0.25500000920E-02 0. -1.
    10030    2    1    2    0    0  0.00000000000E+00  0.00000000000E+00 -0.10677704756E+04  0.18530935856E+04  0.15145369089E+04 0.  0.
        3    1    3    3  502    0  0.22390071377E+03 -0.11310675228E+03 -0.14081208228E+04  0.14302898059E+04  0.10100000352E+00 0. -1.
       -3    1    3    3    0  502 -0.22390071377E+03  0.11310675228E+03  0.34035034721E+03  0.42280377965E+03  0.10100000352E+00 0.  1.
</event>
<event>
 5   0  0.2605471E-04  0.1495765E+04  0.7818609E-02  0.8887274E-01
       -1   -1    0    0    0  501  0.00000000000E+00  0.00000000000E+00  0.42953124638E+03  0.42953124641E+03  0.50400001928E-02 0.  1.
        1   -1    0    0  501    0  0.00000000000E+00  0.00000000000E+00 -0.13021824258E+04  0.13021824258E+04  0.50400001928E-02 0. -1.
    10030    2    1    2    0    0  0.00000000000E+00  0.00000000000E+00 -0.87265117942E+03  0.17317136722E+04  0.14957647414E+04 0.  0.
        3    1    3    3  502    0  0.12964346738E+03 -0.25788638809E+03  0.36244710432E+03  0.46333652071E+03  0.10100000352E+00 0.  1.
       -3    1    3    3    0  502 -0.12964346738E+03  0.25788638809E+03 -0.12350982837E+04  0.12683771515E+04  0.10100000352E+00 0. -1.
</event>
<event>
 5   0  0.2565416E-04  0.1501943E+04  0.7818609E-02  0.8883162E-01
        1   -1    0    0  501    0  0.00000000000E+00  0.00000000000E+00  0.10160088990E+04  0.10160088990E+04  0.50400001928E-02 0. -1.
       -1   -1    0    0    0  501  0.00000000000E+00  0.00000000000E+00 -0.55507209075E+03  0.55507209077E+03  0.50400001928E-02 0.  1.
    10030    2    1    2    0    0  0.00000000000E+00  0.00000000000E+00  0.46093680821E+03  0.15710809897E+04  0.15019429867E+04 0.  0.
        5    1    3    3  502    0 -0.20896122372E+03  0.17882778500E+03 -0.50047692819E+03  0.57108967366E+03  0.46999998093E+01 0.  1.
       -5    1    3    3    0  502  0.20896122372E+03 -0.17882778500E+03  0.96141373641E+03  0.99999131609E+03  0.46999998093E+01 0. -1.
</event>
<event>
 5   0  0.2605471E-04  0.1487649E+04  0.7818609E-02  0.8892708E-01
        1   -1    0    0  501    0  0.00000000000E+00  0.00000000000E+00  0.44931031347E+03  0.44931031350E+03  0.50400001928E-02 0. -1.
       -1   -1    0    0    0  501  0.00000000000E+00  0.00000000000E+00 -0.12313872768E+04  0.12313872768E+04  0.50400001928E-02 0.  1.
    10030    2    1    2    0    0  0.00000000000E+00  0.00000000000E+00 -0.78207696329E+03  0.16806975903E+04  0.14876491567E+04 0.  0.
        3    1    3    3  502    0  0.66076457949E+03 -0.31186794755E+03 -0.23366570051E+03  0.76711871051E+03  0.10100000352E+00 0. -1.
       -3    1    3    3    0  502 -0.66076457949E+03  0.31186794755E+03 -0.54841126277E+03  0.91357887977E+03  0.10100000352E+00 0.  1.
</event>
<event>
 5   0  0.4569211E-04  0.1496544E+04  0.7818609E-02  0.8886754E-01
        2   -1    0    0  501    0  0.00000000000E+00  0.00000000000E+00  0.19155423860E+04  0.19155423860E+04  0.25500000920E-02 0. -1.
       -2   -1    0    0    0  501  0.00000000000E+00  0.00000000000E+00 -0.29229904160E+03  0.29229904161E+03  0.25500000920E-02 0.  1.
    10030    2    1    2    0    0  0.00000000000E+00  0.00000000000E+00  0.16232433444E+04  0.22078414276E+04  0.14965442908E+04 0.  0.
        5    1    3    3  502    0 -0.28680355564E+02 -0.64943636520E+03  0.26496843434E+03  0.70201176375E+03  0.46999998093E+01 0.  1.
       -5    1    3    3    0  502  0.28680355564E+02  0.64943636520E+03  0.13582749101E+04  0.15058296639E+04  0.46999998093E+01 0. -1.
</event>
<event>
 5   0  0.4948645E-04  0.1469039E+04  0.7818609E-02  0.8905307E-01
       -2   -1    0    0    0  501  0.00000000000E+00  0.00000000000E+00  0.46765987777E+03  0.46765987777E+03  0.25500000920E-02 0.  1.
        2   -1    0    0  501    0  0.00000000000E+00  0.00000000000E+00 -0.11536560182E+04  0.11536560182E+04  0.25500000920E-02 0. -1.
    10030    2    1    2    0    0  0.00000000000E+00  0.00000000000E+00 -0.68599614039E+03  0.16213158959E+04  0.14690386413E+04 0.  0.
        1    1    3    3  502    0  0.44833551552E+03  0.43230652624E+03  0.86755782125E+02  0.62882448494E+03  0.50400001928E-02 0.  1.
       -1    1    3    3    0  502 -0.44833551552E+03 -0.43230652624E+03 -0.77275192251E+03  0.99249141099E+03  0.50400001928E-02 0. -1.
</event>
<event>
 5   0  0.4948645E-04  0.1452346E+04  0.7818609E-02  0.8916775E-01
        2   -1    0    0  501    0  0.00000000000E+00  0.00000000000E+00  0.46889528960E+03  0.46889528961E+03  0.25500000920E-02 0.  1.
       -2   -1    0    0    0  501  0.00000000000E+00  0.00000000000E+00 -0.11246167838E+04  0.11246167838E+04  0.25500000920E-02 0. -1.
    10030    2    1    2    0    0  0.00000000000E+00  0.00000000000E+00 -0.65572149417E+03  0.15935120734E+04  0.14523463947E+04 0.  0.
        1    1    3    3  502    0 -0.61387813018E+03 -0.23528833151E+03  0.10533004148E+02  0.65750886067E+03  0.50400001928E-02 0.  1.
       -1    1    3    3    0  502  0.61387813018E+03  0.23528833151E+03 -0.66625449832E+03  0.93600321271E+03  0.50400001928E-02 0. -1.
</event>
<event>
 5   0  0.2603873E-04  0.1552918E+04  0.7818609E-02  0.8850006E-01
       -1   -1    0    0    0  501  0.00000000000E+00  0.00000000000E+00  0.61217503572E+03  0.61217503574E+03  0.50400001928E-02 0.  1.
        1   -1    0    0  501    0  0.00000000000E+00  0.00000000000E+00 -0.98483076020E+03  0.98483076022E+03  0.50400001928E-02 0. -1.
    10030    2    1    2    0    0  0.00000000000E+00  0.00000000000E+00 -0.37265572449E+03  0.15970057960E+04  0.15529182925E+04 0.  0.
        2    1    3    3  502    0  0.25320779577E+03 -0.73096450250E+03 -0.11760620602E+03  0.78246693953E+03  0.25500000920E-02 0. -1.
       -2    1    3    3    0  502 -0.25320779577E+03  0.73096450250E+03 -0.25504951847E+03  0.81453885643E+03  0.25500000920E-02 0.  1.
</event>
<event>
 5   0  0.1792000E-04  0.1498138E+04  0.7818609E-02  0.8885692E-01
        4   -1    0    0  501    0  0.00000000000E+00  0.00000000000E+00  0.70463728411E+03  0.70463842859E+03  0.12699999809E+01 0.  1.
       -4   -1    0    0    0  501  0.00000000000E+00  0.00000000000E+00 -0.79630056952E+03  0.79630158227E+03  0.12699999809E+01 0. -1.
    10030    2    1    2    0    0  0.00000000000E+00  0.00000000000E+00 -0.91663285419E+02  0.15009400109E+04  0.14981384310E+04 0.  0.
        2    1    3    3  502    0  0.10427281030E+03  0.76741148955E+02 -0.78500716732E+03  0.79561188758E+03  0.25500000920E-02 0. -1.
       -2    1    3    3    0  502 -0.10427281030E+03 -0.76741148955E+02  0.69334388190E+03  0.70532812328E+03  0.25500000920E-02 0.  1.
</event>
<event>
 5   0  0.4726600E-04  0.1499613E+04  0.7818609E-02  0.8884710E-01
        2   -1    0    0  501    0  0.00000000000E+00  0.00000000000E+00  0.13476765561E+04  0.13476765561E+04  0.25500000920E-02 0. -1.
       -2   -1    0    0    0  501  0.00000000000E+00  0.00000000000E+00 -0.41716976875E+03  0.41716976875E+03  0.25500000920E-02 0.  1.
    10030    2    1    2    0    0  0.00000000000E+00  0.00000000000E+00  0.93050678739E+03  0.17648463249E+04  0.14996131732E+04 0.  0.
        2    1    3    3  502    0 -0.28273635393E+03 -0.34248299385E+03  0.11762368357E+04  0.12572857831E+04  0.25500000920E-02 0. -1.
       -2    1    3    3    0  502  0.28273635393E+03  0.34248299385E+03 -0.24573004828E+03  0.50756054175E+03  0.25500000920E-02 0.  1.
</event>
<event>
 5   0  0.2565416E-04  0.1491696E+04  0.7818609E-02  0.8889994E-01
        1   -1    0    0  501    0  0.00000000000E+00  0.00000000000E+00  0.94907159880E+03  0.94907159881E+03  0.50400001928E-02 0. -1.
       -1   -1    0    0    0  501  0.00000000000E+00  0.00000000000E+00 -0.58614014356E+03  0.58614014358E+03  0.50400001928E-02 0.  1.
    10030    2    1    2    0    0  0.00000000000E+00  0.00000000000E+00  0.36293145524E+03  0.15352117424E+04  0.14916956301E+04 0.  0.
        5    1    3    3  502    0  0.58071502808E+03  0.45510282485E+03  0.69109771382E+02  0.74104438161E+03  0.46999998093E+01 0.  1.
       -5    1    3    3    0  502 -0.58071502808E+03 -0.45510282485E+03  0.29382168386E+03  0.79416736078E+03  0.46999998093E+01 0. -1.
</event>
<event>
 5   0  0.2544374E-04  0.1496844E+04  0.7818609E-02  0.8886554E-01
        1   -1    0    0  501    0  0.00000000000E+00  0.00000000000E+00  0.90369907659E+03  0.90369907661E+03  0.50400001928E-02 0.  1.
       -1   -1    0    0    0  501  0.00000000000E+00  0.00000000000E+00 -0.61982538417E+03  0.61982538419E+03  0.50400001928E-02 0. -1.
    10030    2    1    2    0    0  0.00000000000E+00  0.00000000000E+00  0.28387369242E+03  0.15235244608E+04  0.14968441834E+04 0.  0.
        4    1    3    3  502    0 -0.48553587461E+03  0.62416503388E+02  0.71814869612E+03  0.86912603693E+03  0.12699999809E+01 0.  1.
       -4    1    3    3    0  502  0.48553587461E+03 -0.62416503388E+02 -0.43427500370E+03  0.65439842387E+03  0.12699999809E+01 0. -1.
</event>
<event>
 5   0  0.2605471E-04  0.1542697E+04  0.7818609E-02  0.8856546E-01
       -1   -1    0    0    0  501  0.00000000000E+00  0.00000000000E+00  0.93451639223E+03  0.93451639225E+03  0.50400001928E-02 0. -1.
        1   -1    0    0  501    0  0.00000000000E+00  0.00000000000E+00 -0.63667013934E+03  0.63667013936E+03  0.50400001928E-02 0.  1.
    10030    2    1    2    0    0  0.00000000000E+00  0.00000000000E+00  0.29784625290E+03  0.15711865316E+04  0.15426972246E+04 0.  0.
        3    1    3    3  502    0  0.39091388341E+02  0.93432733288E+02  0.92771487772E+03  0.93322704463E+03  0.10100000352E+00 0. -1.
       -3    1    3    3    0  502 -0.39091388341E+02 -0.93432733288E+02 -0.62986862482E+03  0.63795948698E+03  0.10100000352E+00 0.  1.
</event>
<event>
 5   0  0.2565416E-04  0.1334095E+04  0.7818609E-02  0.9002956E-01
        1   -1    0    0  501    0  0.00000000000E+00  0.00000000000E+00  0.41386578318E+03  0.41386578321E+03  0.50400001928E-02 0. -1.
       -1   -1    0    0    0  501  0.00000000000E+00  0.00000000000E+00 -0.10751134129E+04  0.10751134129E+04  0.50400001928E-02 0.  1.
    10030    2    1    2    0    0  0.00000000000E+00  0.00000000000E+00 -0.66124762971E+03  0.14889791961E+04  0.13340954309E+04 0.  0.
        5    1    3    3  502    0 -0.24245453940E+03 -0.41827318260E+03  0.18228767044E+03  0.51670837399E+03  0.46999998093E+01 0. -1.
       -5    1    3    3    0  502  0.24245453940E+03  0.41827318260E+03 -0.84353530015E+03  0.97227082212E+03  0.46999998093E+01 0.  1.
</event>
<event>
 5   0  0.4726600E-04  0.1512843E+04  0.7818609E-02  0.8875957E-01
       -2   -1    0    0    0  501  0.00000000000E+00  0.00000000000E+00  0.89787997395E+03  0.89787997396E+03  0.25500000920E-02 0.  1.
        2   -1    0    0  501    0  0.00000000000E+00  0.00000000000E+00 -0.63724921964E+03  0.63724921964E+03  0.25500000920E-02 0. -1.
    10030    2    1    2    0    0  0.00000000000E+00  0.00000000000E+00  0.26063075431E+03  0.15351291936E+04  0.15128427714E+04 0.  0.
        2    1    3    3  502    0  0.56925970914E+02  0.15907335038E+03 -0.61785793235E+03  0.64054142844E+03  0.25500000920E-02 0. -1.
       -2    1    3    3    0  502 -0.56925970914E+02 -0.15907335038E+03  0.87848868667E+03  0.89458776516E+03  0.25500000920E-02 0.  1.
</event>
<event>
 5   0  0.4726600E-04  0.1508836E+04  0.7818609E-02  0.8878598E-01
        2   -1    0    0  501    0  0.00000000000E+00  0.00000000000E+00  0.11650504999E+04  0.11650505000E+04  0.25500000920E-02 0. -1.
       -2   -1    0    0    0  501  0.00000000000E+00  0.00000000000E+00 -0.48851638596E+03  0.48851638597E+03  0.25500000920E-02 0.  1.
    10030    2    1    2    0    0  0.00000000000E+00  0.00000000000E+00  0.67653411399E+03  0.16535668859E+04  0.15088356567E+04 0.  0.
        2    1    3    3  502    0 -0.64499435913E+02 -0.73891253807E+03  0.18722705860E+03  0.76498750815E+03  0.25500000920E-02 0. -1.
       -2    1    3    3    0  502  0.64499435913E+02  0.73891253807E+03  0.48930705539E+03  0.88857937777E+03  0.25500000920E-02 0.  1.
</event>
<event>
 5   0  0.2544374E-04  0.1361101E+04  0.7818609E-02  0.8982467E-01
        1   -1    0    0  501    0  0.00000000000E+00  0.00000000000E+00  0.50223312672E+03  0.50223312674E+03  0.50400001928E-02 0.  1.
       -1   -1    0    0    0  501  0.00000000000E+00  0.00000000000E+00 -0.92217872262E+03  0.92217872263E+03  0.50400001928E-02 0. -1.
    10030    2    1    2    0    0  0.00000000000E+00  0.00000000000E+00 -0.41994559590E+03  0.14244118494E+04  0.13611005889E+04 0.  0.
        4    1    3    3  502    0 -0.58390700173E+03  0.34459351372E+03 -0.27148627303E+03  0.73034134877E+03  0.12699999809E+01 0. -1.
       -4    1    3    3    0  502  0.58390700173E+03 -0.34459351372E+03 -0.14845932287E+03  0.69407050061E+03  0.12699999809E+01 0.  1.
</event>
<event>
 5   0  0.2542737E-04  0.1503404E+04  0.7818609E-02  0.8882193E-01
       -1   -1    0    0    0  501  0.00000000000E+00  0.00000000000E+00  0.13726929812E+04  0.13726929812E+04  0.50400001928E-02 0.  1.
        1   -1    0    0  501    0  0.00000000000E+00  0.00000000000E+00 -0.41164019103E+03  0.41164019106E+03  0.50400001928E-02 0. -1.
    10030    2    1    2    0    0  0.00000000000E+00  0.00000000000E+00  0.96105279016E+03  0.17843331723E+04  0.15034036065E+04 0.  0.
        1    1    3    3  502    0  0.53735962652E+03 -0.15003069208E+02  0.11041377478E+04  0.12280474854E+04  0.50400001928E-02 0.  1.
       -1    1    3    3    0  502 -0.53735962652E+03  0.15003069208E+02 -0.14308495760E+03  0.55628568687E+03  0.50400001928E-02 0. -1.
</event>
<event>
 5   0  0.2542737E-04  0.1500245E+04  0.7818609E-02  0.8884290E-01
        1   -1    0    0  501    0  0.00000000000E+00  0.00000000000E+00  0.47990205771E+03  0.47990205773E+03  0.50400001928E-02 0. -1.
       -1   -1    0    0    0  501  0.00000000000E+00  0.00000000000E+00 -0.11724973008E+04  0.11724973008E+04  0.50400001928E-02 0.  1.
    10030    2    1    2    0    0  0.00000000000E+00  0.00000000000E+00 -0.69259524312E+03  0.16523993586E+04  0.15002451364E+04 0.  0.
        1    1    3    3  502    0 -0.24501942731E+03  0.52809100337E+02  0.43241501098E+03  0.49980602496E+03  0.50400001928E-02 0. -1.
       -1    1    3    3    0  502  0.24501942731E+03 -0.52809100337E+02 -0.11250102541E+04  0.11525933336E+04  0.50400001928E-02 0.  1.
</event>
<event>
 5   0  0.1792000E-04  0.1495667E+04  0.7818609E-02  0.8887340E-01
       -3   -1    0    0    0  501  0.00000000000E+00  0.00000000000E+00  0.76699889479E+03  0.76699890144E+03  0.10100000352E+00 0.  1.
        3   -1    0    0  501    0  0.00000000000E+00  0.00000000000E+00 -0.72914650674E+03  0.72914651374E+03  0.10100000352E+00 0. -1.
    10030    2    1    2    0    0  0.00000000000E+00  0.00000000000E+00  0.37852388041E+02  0.14961454152E+04  0.14956665070E+04 0.  0.
        3    1    3    3  502    0  0.33694003581E+03  0.63710639535E+02  0.68371925791E+03  0.76489193169E+03  0.10100000352E+00 0.  1.
       -3    1    3    3    0  502 -0.33694003581E+03 -0.63710639535E+02 -0.64586686987E+03  0.73125348349E+03  0.10100000352E+00 0. -1.
</event>
<event>
 5   0  0.2565416E-04  0.1495936E+04  0.7818609E-02  0.8887160E-01
       -1   -1    0    0    0  501  0.00000000000E+00  0.00000000000E+00  0.62108409379E+03  0.62108409381E+03  0.50400001928E-02 0. -1.
        1   -1    0    0  501    0  0.00000000000E+00  0.00000000000E+00 -0.90077411615E+03  0.90077411616E+03  0.50400001928E-02 0.  1.
    10030    2    1    2    0    0  0.00000000000E+00  0.00000000000E+00 -0.27969002235E+03  0.15218582100E+04  0.14959364634E+04 0.  0.
        5    1    3    3  502    0  0.86411397023E+02 -0.56795576007E+03  0.34740493146E+03  0.67138137547E+03  0.46999998093E+01 0. -1.
       -5    1    3    3    0  502 -0.86411397023E+02  0.56795576007E+03 -0.62709495381E+03  0.85047683450E+03  0.46999998093E+01 0.  1.
</event>
<event>
 5   0  0.4785496E-04  0.1501868E+04  0.7818609E-02  0.8883211E-01
        2   -1    0    0  501    0  0.00000000000E+00  0.00000000000E+00  0.16103832484E+04  0.16103832484E+04  0.25500000920E-02 0.  1.
       -2   -1    0    0    0  501  0.00000000000E+00  0.00000000000E+00 -0.35016643832E+03  0.35016643833E+03  0.25500000920E-02 0. -1.
    10030    2    1    2    0    0  0.00000000000E+00  0.00000000000E+00  0.12602168101E+04  0.19605496867E+04  0.15018683916E+04 0.  0.
        4    1    3    3  502    0  0.22904757962E+03 -0.41394288852E+03  0.13913846833E+04  0.14696137107E+04  0.12699999809E+01 0.  1.
       -4    1    3    3    0  502 -0.22904757962E+03  0.41394288852E+03 -0.13116787328E+03  0.49093597604E+03  0.12699999809E+01 0. -1.
</event>
<event>
 5   0  0.4768387E-04  0.1488718E+04  0.7818609E-02  0.8891990E-01
        2   -1    0    0  501    0  0.00000000000E+00  0.00000000000E+00  0.10689870418E+04  0.10689870418E+04  0.25500000920E-02 0.  1.
       -2   -1    0    0    0  501  0.00000000000E+00  0.00000000000E+00 -0.51831338467E+03  0.51831338468E+03  0.25500000920E-02 0. -1.
    10030    2    1    2    0    0  0.00000000000E+00  0.00000000000E+00  0.55067365715E+03  0.15873004265E+04  0.14887179610E+04 0.  0.
        3    1    3    3  502    0  0.37217091276E+03  0.62621593750E+03  0.43848131069E+03  0.85024905686E+03  0.10100000352E+00 0.  1.
       -3    1    3    3    0  502 -0.37217091276E+03 -0.62621593750E+03  0.11219234646E+03  0.73705136964E+03  0.10100000352E+00 0. -1.
</event>
<event>
 5   0  0.4948645E-04  0.1519269E+04  0.7818609E-02  0.8871739E-01
       -2   -1    0    0    0  501  0.00000000000E+00  0.00000000000E+00  0.32362232704E+03  0.32362232705E+03  0.25500000920E-02 0.  1.
        2   -1    0    0  501    0  0.00000000000E+00  0.00000000000E+00 -0.17830801487E+04  0.17830801487E+04  0.25500000920E-02 0. -1.
    10030    2    1    2    0    0  0.00000000000E+00  0.00000000000E+00 -0.14594578217E+04  0.21067024757E+04  0.15192689650E+04 0.  0.
        1    1    3    3  502    0  0.65106790206E+03 -0.36617315413E+03 -0.53822806283E+03  0.92068541834E+03  0.50400001928E-02 0.  1.
       -1    1    3    3    0  502 -0.65106790206E+03  0.36617315413E+03 -0.92122975883E+03  0.11860170574E+04  0.50400001928E-02 0. -1.
</event>
<event>
 5   0  0.4768387E-04  0.1495846E+04  0.7818609E-02  0.8887220E-01
       -2   -1    0    0    0  501  0.00000000000E+00  0.00000000000E+00  0.51546689715E+03  0.51546689715E+03  0.25500000920E-02 0.  1.
        2   -1    0    0  501    0  0.00000000000E+00  0.00000000000E+00 -0.10852076166E+04  0.10852076166E+04  0.25500000920E-02 0. -1.
    10030    2    1    2    0    0  0.00000000000E+00  0.00000000000E+00 -0.56974071944E+03  0.16006745137E+04  0.14958457178E+04 0.  0.
        3    1    3    3  502    0  0.33612714923E+03 -0.66796120866E+03 -0.26846788170E+03  0.79449899335E+03  0.10100000352E+00 0. -1.
       -3    1    3    3    0  502 -0.33612714923E+03  0.66796120866E+03 -0.30127283774E+03  0.80617552040E+03  0.10100000352E+00 0.  1.
</event>
<event>
 5   0  0.4569211E-04  0.1520673E+04  0.7818609E-02  0.8870821E-01
       -2   -1    0    0    0  501  0.00000000000E+00  0.00000000000E+00  0.54422783134E+03  0.54422783135E+03  0.25500000920E-02 0. -1.
        2   -1    0    0  501    0  0.00000000000E+00  0.00000000000E+00 -0.10622606651E+04  0.10622606651E+04  0.25500000920E-02 0.  1.
    10030    2    1    2    0    0  0.00000000000E+00  0.00000000000E+00 -0.51803283372E+03  0.16064884964E+04  0.15206732957E+04 0.  0.
        5    1    3    3  502    0  0.42473904707E+03 -0.23554202157E+03  0.35897974932E+03  0.60396345291E+03  0.46999998093E+01 0.  1.
       -5    1    3    3    0  502 -0.42473904707E+03  0.23554202157E+03 -0.87701258304E+03  0.10025250435E+04  0.46999998093E+01 0. -1.
</event>
<event>
 5   0  0.4569211E-04  0.1504250E+04  0.7818609E-02  0.8881632E-01
       -2   -1    0    0    0  501  0.00000000000E+00  0.00000000000E+00  0.50952770043E+03  0.50952770043E+03  0.25500000920E-02 0. -1.
        2   -1    0    0  501    0  0.00000000000E+00  0.00000000000E+00 -0.11102284222E+04  0.11102284222E+04  0.25500000920E-02 0.  1.
    10030    2    1    2    0    0  0.00000000000E+00  0.00000000000E+00 -0.60070072182E+03  0.16197561227E+04  0.15042501586E+04 0.  0.
        5    1    3    3  502    0  0.41354606225E+03 -0.79825375870E+02  0.37061598484E+03  0.56104432485E+03  0.46999998093E+01 0. -1.
       -5    1    3    3    0  502 -0.41354606225E+03  0.79825375870E+02 -0.97131670666E+03  0.10587117978E+04  0.46999998093E+01 0.  1.
</event>
<event>
 5   0  0.2542737E-04  0.1507083E+04  0.7818609E-02  0.8879756E-01
       -1   -1    0    0    0  501  0.00000000000E+00  0.00000000000E+00  0.37897706326E+03  0.37897706329E+03  0.50400001928E-02 0. -1.
        1   -1    0    0  501    0  0.00000000000E+00  0.00000000000E+00 -0.14983091507E+04  0.14983091507E+04  0.50400001928E-02 0.  1.
    10030    2    1    2    0    0  0.00000000000E+00  0.00000000000E+00 -0.11193320875E+04  0.18772862140E+04  0.15070830128E+04 0.  0.
        1    1    3    3  502    0 -0.23568905643E+03 -0.47866982587E+03  0.10316388781E+03  0.54343069595E+03  0.50400001928E-02 0. -1.
       -1    1    3    3    0  502  0.23568905643E+03  0.47866982587E+03 -0.12224959753E+04  0.13338555181E+04  0.50400001928E-02 0.  1.
</event>
<event>
 5   0  0.4948645E-04  0.1495142E+04  0.7818609E-02  0.8887690E-01
        2   -1    0    0  501    0  0.00000000000E+00  0.00000000000E+00  0.44327159843E+03  0.44327159844E+03  0.25500000920E-02 0.  1.
       -2   -1    0    0    0  501  0.00000000000E+00  0.00000000000E+00 -0.12607671829E+04  0.12607671829E+04  0.25500000920E-02 0. -1.
    10030    2    1    2    0    0  0.00000000000E+00  0.00000000000E+00 -0.81749558447E+03  0.17040387813E+04  0.14951418453E+04 0.  0.
        1    1    3    3  502    0 -0.74536203920E+03 -0.91017911821E+01 -0.34412600845E+03  0.82101773538E+03  0.50400001928E-02 0.  1.
       -1    1    3    3    0  502  0.74536203920E+03  0.91017911821E+01 -0.47336957602E+03  0.88302104596E+03  0.50400001928E-02 0. -1.
</event>
<event>
 5   0  0.2605471E-04  0.1501725E+04  0.7818609E-02  0.8883307E-01
        1   -1    0    0  501    0  0.00000000000E+00  0.00000000000E+00  0.58655547956E+03  0.58655547959E+03  0.50400001928E-02 0.  1.
       -1   -1    0    0    0  501  0.00000000000E+00  0.00000000000E+00 -0.96119525673E+03  0.96119525674E+03  0.50400001928E-02 0. -1.
    10030    2    1    2    0    0  0.00000000000E+00  0.00000000000E+00 -0.37463977716E+03  0.15477507363E+04  0.15017248014E+04 0.  0.
        3    1    3    3  502    0 -0.66386236846E+03  0.34398554466E+03 -0.11624968769E+03  0.75667251786E+03  0.10100000352E+00 0.  1.
       -3    1    3    3    0  502  0.66386236846E+03 -0.34398554466E+03 -0.25839008947E+03  0.79107821847E+03  0.10100000352E+00 0. -1.
</event>
<event>
 5   0  0.2603873E-04  0.1500918E+04  0.7818609E-02  0.8883843E-01
        1   -1    0    0  501    0  0.00000000000E+00  0.00000000000E+00  0.79695259213E+03  0.79695259214E+03  0.50400001928E-02 0.  1.
       -1   -1    0    0    0  501  0.00000000000E+00  0.00000000000E+00 -0.70667779450E+03  0.70667779452E+03  0.50400001928E-02 0. -1.
    10030    2    1    2    0    0  0.00000000000E+00  0.00000000000E+00  0.90274797627E+02  0.15036303867E+04  0.15009179860E+04 0.  0.
        2    1    3    3  502    0 -0.53423792679E+03  0.50171057524E+03  0.20687585740E+03  0.76152562932E+03  0.25500000920E-02 0. -1.
       -2    1    3    3    0  502  0.53423792679E+03 -0.50171057524E+03 -0.11660105977E+03  0.74210475735E+03  0.25500000920E-02 0.  1.
</event>
<event>
 5   0  0.2544374E-04  0.1506024E+04  0.7818609E-02  0.8880457E-01
       -1   -1    0    0    0  501  0.00000000000E+00  0.00000000000E+00  0.11596287980E+04  0.11596287981E+04  0.50400001928E-02 0. -1.
        1   -1    0    0  501    0  0.00000000000E+00  0.00000000000E+00 -0.48897314921E+03  0.48897314924E+03  0.50400001928E-02 0.  1.
    10030    2    1    2    0    0  0.00000000000E+00  0.00000000000E+00  0.67065564883E+03  0.16486019473E+04  0.15060243628E+04 0.  0.
        4    1    3    3  502    0 -0.55698501256E+03  0.54023582335E+02 -0.21623333679E+03  0.59992442900E+03  0.12699999809E+01 0.  1.
       -4    1    3    3    0  502  0.55698501256E+03 -0.54023582335E+02  0.88688898562E+03  0.10486775183E+04  0.12699999809E+01 0. -1.
</event>
<event>
 5   0  0.4785496E-04  0.1482800E+04  0.7818609E-02  0.8895972E-01
        2   -1    0    0  501    0  0.00000000000E+00  0.00000000000E+00  0.10543251804E+04  0.10543251804E+04  0.25500000920E-02 0. -1.
       -2   -1    0    0    0  501  0.00000000000E+00  0.00000000000E+00 -0.52135173939E+03  0.52135173939E+03  0.25500000920E-02 0.  1.
    10030    2    1    2    0    0  0.00000000000E+00  0.00000000000E+00  0.53297344104E+03  0.15756769198E+04  0.14828004137E+04 0.  0.
        4    1    3    3  502    0 -0.39582014398E+03  0.56063418177E+03 -0.31598045745E+02  0.68701115096E+03  0.12699999809E+01 0. -1.
       -4    1    3    3    0  502  0.39582014398E+03 -0.56063418177E+03  0.56457148678E+03  0.88866576886E+03  0.12699999809E+01 0.  1.
</event>
<event>
 5   0  0.2565416E-04  0.1502927E+04  0.7818609E-02  0.8882509E-01
        1   -1    0    0  501    0  0.00000000000E+00  0.00000000000E+00  0.10596265285E+04  0.10596265285E+04  0.50400001928E-02 0.  1.
       -1   -1    0    0    0  501  0.00000000000E+00  0.00000000000E+00 -0.53292130340E+03  0.53292130342E+03  0.50400001928E-02 0. -1.
    10030    2    1    2    0    0  0.00000000000E+00  0.00000000000E+00  0.52670522509E+03  0.15925478319E+04  0.15029272114E+04 0.  0.
        5    1    3    3  502    0  0.18529224945E+03  0.71997455245E+03  0.37932718186E+03  0.83463032223E+03  0.46999998093E+01 0.  1.
       -5    1    3    3    0  502 -0.18529224945E+03 -0.71997455245E+03  0.14737804323E+03  0.75791750970E+03  0.46999998093E+01 0. -1.
</event>
<event>
 5   0  0.2565416E-04  0.1502026E+04  0.7818609E-02  0.8883107E-01
        1   -1    0    0  501    0  0.00000000000E+00  0.00000000000E+00  0.89766321606E+03  0.89766321607E+03  0.50400001928E-02 0.  1.
       -1   -1    0    0    0  501  0.00000000000E+00  0.00000000000E+00 -0.62832112106E+03  0.62832112108E+03  0.50400001928E-02 0. -1.
    10030    2    1    2    0    0  0.00000000000E+00  0.00000000000E+00  0.26934209500E+03  0.15259843372E+04  0.15020263091E+04 0.  0.
        5    1    3    3  502    0  0.15330650523E+03  0.63775686113E+03  0.50623952601E+03  0.82857543179E+03  0.46999998093E+01 0. -1.
       -5    1    3    3    0  502 -0.15330650523E+03 -0.63775686113E+03 -0.23689743101E+03  0.69740890537E+03  0.46999998093E+01 0.  1.
</event>
<event>
 5   0  0.2565416E-04  0.1505619E+04  0.7818609E-02  0.8880725E-01
       -1   -1    0    0    0  501  0.00000000000E+00  0.00000000000E+00  0.51924090464E+03  0.51924090466E+03  0.50400001928E-02 0. -1.
        1   -1    0    0  501    0  0.00000000000E+00  0.00000000000E+00 -0.10914434213E+04  0.10914434213E+04  0.50400001928E-02 0.  1.
    10030    2    1    2    0    0  0.00000000000E+00  0.00000000000E+00 -0.57220251669E+03  0.16106843260E+04  0.15056189019E+04 0.  0.
        5    1    3    3  502    0  0.45165206443E+03 -0.33625273547E+03 -0.82061191304E+03  0.99522936614E+03  0.46999998093E+01 0.  1.
       -5    1    3    3    0  502 -0.45165206443E+03  0.33625273547E+03  0.24840939635E+03  0.61545495985E+03  0.46999998093E+01 0. -1.
</event>
<event>
 5   0  0.4569211E-04  0.1507123E+04  0.7818609E-02  0.8879730E-01
        2   -1    0    0  501    0  0.00000000000E+00  0.00000000000E+00  0.81186624734E+03  0.81186624735E+03  0.25500000920E-02 0. -1.
       -2   -1    0    0    0  501  0.00000000000E+00  0.00000000000E+00 -0.69944364491E+03  0.69944364491E+03  0.25500000920E-02 0.  1.
    10030    2    1    2    0    0  0.00000000000E+00  0.00000000000E+00  0.11242260244E+03  0.15113098923E+04  0.15071226721E+04 0.  0.
        5    1    3    3  502    0  0.73492007049E+03  0.16252790597E+03  0.92502552656E+02  0.75835456250E+03  0.46999998093E+01 0.  1.
       -5    1    3    3    0  502 -0.73492007049E+03 -0.16252790597E+03  0.19920049782E+02  0.75295532975E+03  0.46999998093E+01 0. -1.
</event>
<event>
 5   0  0.4948645E-04  0.1481287E+04  0.7818609E-02  0.8896993E-01
        2   -1    0    0  501    0  0.00000000000E+00  0.00000000000E+00  0.13894809071E+04  0.13894809071E+04  0.25500000920E-02 0.  1.
       -2   -1    0    0    0  501  0.00000000000E+00  0.00000000000E+00 -0.39478977900E+03  0.39478977901E+03  0.25500000920E-02 0. -1.
    10030    2    1    2    0    0  0.00000000000E+00  0.00000000000E+00  0.99469112805E+03  0.17842706861E+04  0.14812870893E+04 0.  0.
        1    1    3    3  502    0  0.60387668881E+03 -0.42785828871E+03  0.46278784354E+03  0.87287018431E+03  0.50400001928E-02 0.  1.
       -1    1    3    3    0  502 -0.60387668881E+03  0.42785828871E+03  0.53190328452E+03  0.91140050176E+03  0.50400001928E-02 0. -1.
</event>
<event>
 5   0  0.2603873E-04  0.1507068E+04  0.7818609E-02  0.8879767E-01
        1   -1    0    0  501    0  0.00000000000E+00  0.00000000000E+00  0.19484509820E+04  0.19484509820E+04  0.50400001928E-02 0. -1.
       -1   -1    0    0    0  501  0.00000000000E+00  0.00000000000E+00 -0.29141773653E+03  0.29141773657E+03  0.50400001928E-02 0.  1.
    10030    2    1    2    0    0  0.00000000000E+00  0.00000000000E+00  0.16570332455E+04  0.22398687186E+04  0.15070675830E+04 0.  0.
        2    1    3    3  502    0  0.73302091286E+03 -0.16423018068E+03  0.74031383868E+03  0.10546827915E+04  0.25500000920E-02 0. -1.
       -2    1    3    3    0  502 -0.73302091286E+03  0.16423018068E+03  0.91671940677E+03  0.11851859271E+04  0.25500000920E-02 0.  1.
</event>
<event>
 5   0  0.4569211E-04  0.1503727E+04  0.7818609E-02  0.8881978E-01
       -2   -1    0    0    0  501  0.00000000000E+00  0.00000000000E+00  0.27885234056E+03  0.27885234057E+03  0.25500000920E-02 0.  1.
        2   -1    0    0  501    0  0.00000000000E+00  0.00000000000E+00 -0.20272325944E+04  0.20272325944E+04  0.25500000920E-02 0. -1.
    10030    2    1    2    0    0  0.00000000000E+00  0.00000000000E+00 -0.17483802539E+04  0.23060849350E+04  0.15037267755E+04 0.  0.
        5    1    3    3  502    0  0.19345869049E+03  0.26165742045E+03 -0.19136196581E+04  0.19410958649E+04  0.46999998093E+01 0. -1.
       -5    1    3    3    0  502 -0.19345869049E+03 -0.26165742045E+03  0.16523940427E+03  0.36498907014E+03  0.46999998093E+01 0.  1.
</event>
<event>
 5   0  0.4948645E-04  0.1511850E+04  0.7818609E-02  0.8876611E-01
       -2   -1    0    0    0  501  0.00000000000E+00  0.00000000000E+00  0.31220615882E+03  0.31220615883E+03  0.25500000920E-02 0. -1.
        2   -1    0    0  501    0  0.00000000000E+00  0.00000000000E+00 -0.18302734690E+04  0.18302734690E+04  0.25500000920E-02 0.  1.
    10030    2    1    2    0    0  0.00000000000E+00  0.00000000000E+00 -0.15180673102E+04  0.21424796279E+04  0.15118500579E+04 0.  0.
        1    1    3    3  502    0  0.39654957788E+03 -0.61797309302E+03 -0.50442274082E+03  0.89083366174E+03  0.50400001928E-02 0.  1.
       -1    1    3    3    0  502 -0.39654957788E+03  0.61797309302E+03 -0.10136445694E+04  0.12516459661E+04  0.50400001928E-02 0. -1.
</event>
<event>
 5   0  0.1792000E-04  0.1483311E+04  0.7818609E-02  0.8895627E-01
       -3   -1    0    0    0  501  0.00000000000E+00  0.00000000000E+00  0.90136566763E+03  0.90136567328E+03  0.10100000352E+00 0.  1.
        3   -1    0    0  501    0  0.00000000000E+00  0.00000000000E+00 -0.61024373646E+03  0.61024374482E+03  0.10100000352E+00 0. -1.
    10030    2    1    2    0    0  0.00000000000E+00  0.00000000000E+00  0.29112193117E+03  0.15116094181E+04  0.14833108420E+04 0.  0.
        1    1    3    3  502    0  0.10607677652E+03 -0.41790551126E+03  0.76052658100E+03  0.87424137359E+03  0.50400001928E-02 0.  1.
       -1    1    3    3    0  502 -0.10607677652E+03  0.41790551126E+03 -0.46940464983E+03  0.63736804451E+03  0.50400001928E-02 0. -1.
</event>
<event>
 5   0  0.4948645E-04  0.1502168E+04  0.7818609E-02  0.8883012E-01
       -2   -1    0    0    0  501  0.00000000000E+00  0.00000000000E+00  0.75253753960E+03  0.75253753961E+03  0.25500000920E-02 0. -1.
        2   -1    0    0  501    0  0.00000000000E+00  0.00000000000E+00 -0.74963348400E+03  0.74963348401E+03  0.25500000920E-02 0.  1.
    10030    2    1    2    0    0  0.00000000000E+00  0.00000000000E+00  0.29040556004E+01  0.15021710236E+04  0.15021682165E+04 0.  0.
        1    1    3    3  502    0  0.56150372056E+02  0.49103571411E+03  0.56701333860E+03  0.75217887699E+03  0.50400001928E-02 0. -1.
       -1    1    3    3    0  502 -0.56150372056E+02 -0.49103571411E+03 -0.56410928300E+03  0.74999214663E+03  0.50400001928E-02 0.  1.
</event>
<event>
 5   0  0.4768387E-04  0.1498879E+04  0.7818609E-02  0.8885199E-01
       -2   -1    0    0    0  501  0.00000000000E+00  0.00000000000E+00  0.58989829962E+03  0.58989829962E+03  0.25500000920E-02 0.  1.
        2   -1    0    0  501    0  0.00000000000E+00  0.00000000000E+00 -0.95212942620E+03  0.95212942620E+03  0.25500000920E-02 0. -1.
    10030    2    1    2    0    0  0.00000000000E+00  0.00000000000E+00 -0.36223112658E+03  0.15420277258E+04  0.14988789538E+04 0.  0.
        3    1    3    3  502    0  0.44584320736E+03 -0.96994043175E+02  0.43053768342E+03  0.62733301923E+03  0.10100000352E+00 0.  1.
       -3    1    3    3    0  502 -0.44584320736E+03  0.96994043175E+02 -0.79276881000E+03  0.91469470660E+03  0.10100000352E+00 0. -1.
</event>
<event>
 5   0  0.2544374E-04  0.1513005E+04  0.7818609E-02  0.8875850E-01
       -1   -1    0    0    0  501  0.00000000000E+00  0.00000000000E+00  0.63316828727E+03  0.63316828729E+03  0.50400001928E-02 0. -1.
        1   -1    0    0  501    0  0.00000000000E+00  0.00000000000E+00 -0.90386101024E+03  0.90386101026E+03  0.50400001928E-02 0.  1.
    10030    2    1    2    0    0  0.00000000000E+00  0.00000000000E+00 -0.27069272298E+03  0.15370292975E+04  0.15130051260E+04 0.  0.
        4    1    3    3  502    0  0.45702185795E+03  0.41727181218E+03 -0.57735245993E+03  0.84635821008E+03  0.12699999809E+01 0.  1.
       -4    1    3    3    0  502 -0.45702185795E+03 -0.41727181218E+03  0.30665973696E+03  0.69067108746E+03  0.12699999809E+01 0. -1.
</event>
<event>
 5   0  0.2544374E-04  0.1498586E+04  0.7818609E-02  0.8885394E-01
       -1   -1    0    0    0  501  0.00000000000E+00  0.00000000000E+00  0.29341853442E+03  0.29341853446E+03  0.50400001928E-02 0. -1.
        1   -1    0    0  501    0  0.00000000000E+00  0.00000000000E+00 -0.19134430010E+04  0.19134430010E+04  0.50400001928E-02 0.  1.
    10030    2    1    2    0    0  0.00000000000E+00  0.00000000000E+00 -0.16200244666E+04  0.22068615355E+04  0.14985855212E+04 0.  0.
        4    1    3    3  502    0 -0.41658476682E+02  0.58954625299E+03 -0.14882822179E+04  0.16013387481E+04  0.12699999809E+01 0. -1.
       -4    1    3    3    0  502  0.41658476682E+02 -0.58954625299E+03 -0.13174224873E+03  0.60552278743E+03  0.12699999809E+01 0.  1.
</event>
<event>
 5   0  0.2542737E-04  0.1496385E+04  0.7818609E-02  0.8886861E-01
        1   -1    0    0  501    0  0.00000000000E+00  0.00000000000E+00  0.89400672822E+03  0.89400672823E+03  0.50400001928E-02 0. -1.
       -1   -1    0    0    0  501  0.00000000000E+00  0.00000000000E+00 -0.62616071776E+03  0.62616071778E+03  0.50400001928E-02 0.  1.
    10030    2    1    2    0    0  0.00000000000E+00  0.00000000000E+00  0.26784601046E+03  0.15201674460E+04  0.14963848364E+04 0.  0.
        1    1    3    3  502    0 -0.50447793658E+03 -0.22603690969E+03  0.64611990566E+03  0.85033029203E+03  0.50400001928E-02 0. -1.
       -1    1    3    3    0  502  0.50447793658E+03  0.22603690969E+03 -0.37827389520E+03  0.66983715398E+03  0.50400001928E-02 0.  1.
</event>
<event>
 5   0  0.4569211E-04  0.1505481E+04  0.7818609E-02  0.8880817E-01
        2   -1    0    0  501    0  0.00000000000E+00  0.00000000000E+00  0.11858625665E+04  0.11858625665E+04  0.25500000920E-02 0.  1.
       -2   -1    0    0    0  501  0.00000000000E+00  0.00000000000E+00 -0.47781082014E+03  0.47781082015E+03  0.25500000920E-02 0. -1.
    10030    2    1    2    0    0  0.00000000000E+00  0.00000000000E+00  0.70805174632E+03  0.16636733866E+04  0.15054806083E+04 0.  0.
        5    1    3    3  502    0  0.50384371326E+03  0.38082970907E+03  0.80657669735E+03  0.10244402439E+04  0.46999998093E+01 0.  1.
       -5    1    3    3    0  502 -0.50384371326E+03 -0.38082970907E+03 -0.98524951028E+02  0.63923314267E+03  0.46999998093E+01 0. -1.
</event>
<event>
 5   0  0.2542737E-04  0.1499951E+04  0.7818609E-02  0.8884486E-01
       -1   -1    0    0    0  501  0.00000000000E+00  0.00000000000E+00  0.79722086269E+03  0.79722086270E+03  0.50400001928E-02 0.  1.
        1   -1    0    0  501    0  0.00000000000E+00  0.00000000000E+00 -0.70553000655E+03  0.70553000656E+03  0.50400001928E-02 0. -1.
    10030    2    1    2    0    0  0.00000000000E+00  0.00000000000E+00  0.91690856140E+02  0.15027508693E+04  0.14999509865E+04 0.  0.
        1    1    3    3  502    0 -0.35832882028E+03  0.44727950177E+03  0.53048877050E+03  0.78094611325E+03  0.50400001928E-02 0.  1.
       -1    1    3    3    0  502  0.35832882028E+03 -0.44727950177E+03 -0.43879791436E+03  0.72180475602E+03  0.50400001928E-02 0. -1.
</event>
<event>
 5   0  0.1792000E-04  0.1501042E+04  0.7818609E-02  0.8883760E-01
       -3   -1    0    0    0  501  0.00000000000E+00  0.00000000000E+00  0.74995400587E+03  0.74995401267E+03  0.10100000352E+00 0. -1.
        3   -1    0    0  501    0  0.00000000000E+00  0.00000000000E+00 -0.75108846746E+03  0.75108847425E+03  0.10100000352E+00 0.  1.
    10030    2    1    2    0    0  0.00000000000E+00  0.00000000000E+00 -0.11344615891E+01  0.15010424869E+04  0.15010420582E+04 0.  0.
        3    1    3    3  502    0 -0.43021484011E+03 -0.30235386004E+03 -0.53608502080E+03  0.75092597841E+03  0.10100000352E+00 0.  1.
       -3    1    3    3    0  502  0.43021484011E+03  0.30235386004E+03  0.53495055921E+03  0.75011650850E+03  0.10100000352E+00 0. -1.
</event>
<event>
 5   0  0.4569211E-04  0.1523710E+04  0.7818609E-02  0.8868837E-01
        2   -1    0    0  501    0  0.00000000000E+00  0.00000000000E+00  0.14533491273E+04  0.14533491273E+04  0.25500000920E-02 0. -1.
       -2   -1    0    0    0  501  0.00000000000E+00  0.00000000000E+00 -0.39936955337E+03  0.39936955338E+03  0.25500000920E-02 0.  1.
    10030    2    1    2    0    0  0.00000000000E+00  0.00000000000E+00  0.10539795739E+04  0.18527186807E+04  0.15237104605E+04 0.  0.
        5    1    3    3  502    0  0.21923339955E+03  0.64079115932E+03  0.10276464562E+03  0.68502500373E+03  0.46999998093E+01 0.  1.
       -5    1    3    3    0  502 -0.21923339955E+03 -0.64079115932E+03  0.95121492831E+03  0.11676936769E+04  0.46999998093E+01 0. -1.
</event>
<event>
 5   0  0.4948645E-04  0.1483097E+04  0.7818609E-02  0.8895772E-01
       -2   -1    0    0    0  501  0.00000000000E+00  0.00000000000E+00  0.62022815684E+03  0.62022815685E+03  0.25500000920E-02 0.  1.
        2   -1    0    0  501    0  0.00000000000E+00  0.00000000000E+00 -0.88659933582E+03  0.88659933583E+03  0.25500000920E-02 0. -1.
    10030    2    1    2    0    0  0.00000000000E+00  0.00000000000E+00 -0.26637117898E+03  0.15068274927E+04  0.14830965874E+04 0.  0.
        1    1    3    3  502    0  0.16763753535E+03  0.48825411769E+03  0.40768528762E+03  0.65780066925E+03  0.50400001928E-02 0.  1.
       -1    1    3    3    0  502 -0.16763753535E+03 -0.48825411769E+03 -0.67405646660E+03  0.84902682342E+03  0.50400001928E-02 0. -1.
</event>
<event>
 5   0  0.4785496E-04  0.1504408E+04  0.7818609E-02  0.8881527E-01
       -2   -1    0    0    0  501  0.00000000000E+00  0.00000000000E+00  0.73735530830E+03  0.73735530830E+03  0.25500000920E-02 0.  1.
        2   -1    0    0  501    0  0.00000000000E+00  0.00000000000E+00 -0.76735128049E+03  0.76735128050E+03  0.25500000920E-02 0. -1.
    10030    2    1    2    0    0  0.00000000000E+00  0.00000000000E+00 -0.29995972197E+02  0.15047065888E+04  0.15044075778E+04 0.  0.
        4    1    3    3  502    0  0.29645060608E+03 -0.69084891250E+03  0.10575540397E+02  0.75184349216E+03  0.12699999809E+01 0.  1.
       -4    1    3    3    0  502 -0.29645060608E+03  0.69084891250E+03 -0.40571512594E+02  0.75286309664E+03  0.12699999809E+01 0. -1.
</event>
<event>
 5   0  0.4569211E-04  0.1501939E+04  0.7818609E-02  0.8883164E-01
       -2   -1    0    0    0  501  0.00000000000E+00  0.00000000000E+00  0.32430403256E+03  0.32430403257E+03  0.25500000920E-02 0.  1.
        2   -1    0    0  501    0  0.00000000000E+00  0.00000000000E+00 -0.17389711820E+04  0.17389711820E+04  0.25500000920E-02 0. -1.
    10030    2    1    2    0    0  0.00000000000E+00  0.00000000000E+00 -0.14146671494E+04  0.20632752146E+04  0.15019392356E+04 0.  0.
        5    1    3    3  502    0 -0.30441569237E+03 -0.10637472212E+03 -0.16389980477E+04  0.16704254504E+04  0.46999998093E+01 0. -1.
       -5    1    3    3    0  502  0.30441569237E+03  0.10637472212E+03  0.22433089822E+03  0.39284976411E+03  0.46999998093E+01 0.  1.
</event>
<event>
 5   0  0.2544374E-04  0.1504193E+04  0.7818609E-02  0.8881670E-01
       -1   -1    0    0    0  501  0.00000000000E+00  0.00000000000E+00  0.56535512423E+03  0.56535512425E+03  0.50400001928E-02 0.  1.
        1   -1    0    0  501    0  0.00000000000E+00  0.00000000000E+00 -0.10005196015E+04  0.10005196015E+04  0.50400001928E-02 0. -1.
    10030    2    1    2    0    0  0.00000000000E+00  0.00000000000E+00 -0.43516447730E+03  0.15658747258E+04  0.15041926521E+04 0.  0.
        4    1    3    3  502    0  0.60249910676E+03 -0.52586915434E+02 -0.68299110368E+03  0.91227683185E+03  0.12699999809E+01 0. -1.
       -4    1    3    3    0  502 -0.60249910676E+03  0.52586915434E+02  0.24782662638E+03  0.65359789394E+03  0.12699999809E+01 0.  1.
</event>
<event>
 5   0  0.4948645E-04  0.1495801E+04  0.7818609E-02  0.8887250E-01
       -2   -1    0    0    0  501  0.00000000000E+00  0.00000000000E+00  0.70648537440E+03  0.70648537441E+03  0.25500000920E-02 0.  1.
        2   -1    0    0  501    0  0.00000000000E+00  0.00000000000E+00 -0.79174375705E+03  0.79174375706E+03  0.25500000920E-02 0. -1.
    10030    2    1    2    0    0  0.00000000000E+00  0.00000000000E+00 -0.85258382650E+02  0.14982291315E+04  0.14958013032E+04 0.  0.
        1    1    3    3  502    0  0.90724475282E+02 -0.59736470279E+03  0.39885812153E+03  0.72399124283E+03  0.50400001928E-02 0.  1.
       -1    1    3    3    0  502 -0.90724475282E+02  0.59736470279E+03 -0.48411650418E+03  0.77423788864E+03  0.50400001928E-02 0. -1.
</event>
<event>
 5   0  0.2544374E-04  0.1491301E+04  0.7818609E-02  0.8890258E-01
       -1   -1    0    0    0  501  0.00000000000E+00  0.00000000000E+00  0.10462574703E+04  0.10462574703E+04  0.50400001928E-02 0. -1.
        1   -1    0    0  501    0  0.00000000000E+00  0.00000000000E+00 -0.53141312928E+03  0.53141312930E+03  0.50400001928E-02 0.  1.
    10030    2    1    2    0    0  0.00000000000E+00  0.00000000000E+00  0.51484434101E+03  0.15776705996E+04  0.14913013865E+04 0.  0.
        4    1    3    3  502    0  0.45658506326E+02 -0.32924915771E+03  0.96353895913E+03  0.10192637763E+04  0.12699999809E+01 0. -1.
       -4    1    3    3    0  502 -0.45658506326E+02  0.32924915771E+03 -0.44869461812E+03  0.55840682328E+03  0.12699999809E+01 0.  1.
</event>
<event>
 5   0  0.2603873E-04  0.1505233E+04  0.7818609E-02  0.8880981E-01
        1   -1    0    0  501    0  0.00000000000E+00  0.00000000000E+00  0.88511452498E+03  0.88511452499E+03  0.50400001928E-02 0. -1.
       -1   -1    0    0    0  501  0.00000000000E+00  0.00000000000E+00 -0.63995252474E+03  0.63995252476E+03  0.50400001928E-02 0.  1.
    10030    2    1    2    0    0  0.00000000000E+00  0.00000000000E+00  0.24516200024E+03  0.15250670497E+04  0.15052325733E+04 0.  0.
        2    1    3    3  502    0  0.38562678599E+03 -0.52311295810E+03 -0.26199421078E+03  0.70071117551E+03  0.25500000920E-02 0.  1.
       -2    1    3    3    0  502 -0.38562678599E+03  0.52311295810E+03  0.50715621102E+03  0.82435587423E+03  0.25500000920E-02 0. -1.
</event>
<event>
 5   0  0.1792000E-04  0.1507061E+04  0.7818609E-02  0.8879771E-01
        4   -1    0    0  501    0  0.00000000000E+00  0.00000000000E+00  0.36753835969E+03  0.36754055388E+03  0.12699999809E+01 0.  1.
       -4   -1    0    0    0  501  0.00000000000E+00  0.00000000000E+00 -0.15448876527E+04  0.15448881747E+04  0.12699999809E+01 0. -1.
    10030    2    1    2    0    0  0.00000000000E+00  0.00000000000E+00 -0.11773492930E+04  0.19124287286E+04  0.15070608097E+04 0.  0.
        1    1    3    3  502    0 -0.45332453957E+03  0.34455615595E+03 -0.12149720830E+04  0.13417821154E+04  0.50400001928E-02 0. -1.
       -1    1    3    3    0  502  0.45332453957E+03 -0.34455615595E+03  0.37622789981E+02  0.57064661318E+03  0.50400001928E-02 0.  1.
</event>
<event>
 5   0  0.2542737E-04  0.1499457E+04  0.7818609E-02  0.8884814E-01
       -1   -1    0    0    0  501  0.00000000000E+00  0.00000000000E+00  0.37110520225E+03  0.37110520228E+03  0.50400001928E-02 0. -1.
        1   -1    0    0  501    0  0.00000000000E+00  0.00000000000E+00 -0.15146461522E+04  0.15146461522E+04  0.50400001928E-02 0.  1.
    10030    2    1    2    0    0  0.00000000000E+00  0.00000000000E+00 -0.11435409500E+04  0.18857513545E+04  0.14994573241E+04 0.  0.
        1    1    3    3  502    0  0.15784149451E+03  0.72247150690E+03 -0.41664870476E+03  0.84880808130E+03  0.50400001928E-02 0. -1.
       -1    1    3    3    0  502 -0.15784149451E+03 -0.72247150690E+03 -0.72689224520E+03  0.10369432732E+04  0.50400001928E-02 0.  1.
</event>
<event>
 5   0  0.2544374E-04  0.1481155E+04  0.7818609E-02  0.8897082E-01
        1   -1    0    0  501    0  0.00000000000E+00  0.00000000000E+00  0.15801297173E+04  0.15801297173E+04  0.50400001928E-02 0.  1.
       -1   -1    0    0    0  501  0.00000000000E+00  0.00000000000E+00 -0.34709481909E+03  0.34709481912E+03  0.50400001928E-02 0. -1.
    10030    2    1    2    0    0  0.00000000000E+00  0.00000000000E+00  0.12330348982E+04  0.19272245365E+04  0.14811547366E+04 0.  0.
        4    1    3    3  502    0 -0.10796781685E+03  0.47078228910E+02 -0.33482782092E+03  0.35494322317E+03  0.12699999809E+01 0. -1.
       -4    1    3    3    0  502  0.10796781685E+03 -0.47078228910E+02  0.15678627191E+04  0.15722813133E+04  0.12699999809E+01 0.  1.
</event>
<event>
 5   0  0.4785496E-04  0.1489459E+04  0.7818609E-02  0.8891493E-01
       -2   -1    0    0    0  501  0.00000000000E+00  0.00000000000E+00  0.43407510375E+03  0.43407510376E+03  0.25500000920E-02 0.  1.
        2   -1    0    0  501    0  0.00000000000E+00  0.00000000000E+00 -0.12777092885E+04  0.12777092885E+04  0.25500000920E-02 0. -1.
    10030    2    1    2    0    0  0.00000000000E+00  0.00000000000E+00 -0.84363418473E+03  0.17117843922E+04  0.14894586828E+04 0.  0.
        4    1    3    3  502    0 -0.46006147852E+03 -0.55595605045E+03 -0.21028816227E+03  0.75164248027E+03  0.12699999809E+01 0. -1.
       -4    1    3    3    0  502  0.46006147852E+03  0.55595605045E+03 -0.63334602246E+03  0.96014191197E+03  0.12699999809E+01 0.  1.
</event>
<event>
 5   0  0.4726600E-04  0.1476377E+04  0.7818609E-02  0.8900315E-01
        2   -1    0    0  501    0  0.00000000000E+00  0.00000000000E+00  0.47726249419E+03  0.47726249420E+03  0.25500000920E-02 0.  1.
       -2   -1    0    0    0  501  0.00000000000E+00  0.00000000000E+00 -0.11417667832E+04  0.11417667832E+04  0.25500000920E-02 0. -1.
    10030    2    1    2    0    0  0.00000000000E+00  0.00000000000E+00 -0.66450428904E+03  0.16190292774E+04  0.14763772726E+04 0.  0.
        2    1    3    3  502    0  0.68051097773E+02 -0.39767654974E+03  0.34565680870E+03  0.53127791177E+03  0.25500000920E-02 0.  1.
       -2    1    3    3    0  502 -0.68051097773E+02  0.39767654974E+03 -0.10101610977E+04  0.10877513657E+04  0.25500000920E-02 0. -1.
</event>
<event>
 5   0  0.2565416E-04  0.1504817E+04  0.7818609E-02  0.8881256E-01
        1   -1    0    0  501    0  0.00000000000E+00  0.00000000000E+00  0.14125554355E+04  0.14125554355E+04  0.50400001928E-02 0.  1.
       -1   -1    0    0    0  501  0.00000000000E+00  0.00000000000E+00 -0.40077608367E+03  0.40077608371E+03  0.50400001928E-02 0. -1.
    10030    2    1    2    0    0  0.00000000000E+00  0.00000000000E+00  0.10117793518E+04  0.18133315192E+04  0.15048168466E+04 0.  0.
        5    1    3    3  502    0 -0.26453324051E+02  0.62268854825E+03  0.10137952069E+04  0.11900603422E+04  0.46999998093E+01 0.  1.
       -5    1    3    3    0  502  0.26453324051E+02 -0.62268854825E+03 -0.20158550585E+01  0.62327117706E+03  0.46999998093E+01 0. -1.
</event>
<event>
 5   0  0.4726600E-04  0.1476910E+04  0.7818609E-02  0.8899954E-01
       -2   -1    0    0    0  501  0.00000000000E+00  0.00000000000E+00  0.31489960874E+03  0.31489960875E+03  0.25500000920E-02 0.  1.
        2   -1    0    0  501    0  0.00000000000E+00  0.00000000000E+00 -0.17317133733E+04  0.17317133733E+04  0.25500000920E-02 0. -1.
    10030    2    1    2    0    0  0.00000000000E+00  0.00000000000E+00 -0.14168137646E+04  0.20466129821E+04  0.14769101039E+04 0.  0.
        2    1    3    3  502    0 -0.66592137702E+03  0.31258110923E+03 -0.79775898229E+03  0.10851624874E+04  0.25500000920E-02 0. -1.
       -2    1    3    3    0  502  0.66592137702E+03 -0.31258110923E+03 -0.61905478231E+03  0.96145049468E+03  0.25500000920E-02 0.  1.
</event>
<event>
 5   0  0.2565416E-04  0.1480937E+04  0.7818609E-02  0.8897230E-01
       -1   -1    0    0    0  501  0.00000000000E+00  0.00000000000E+00  0.44243197916E+03  0.44243197919E+03  0.50400001928E-02 0. -1.
        1   -1    0    0  501    0  0.00000000000E+00  0.00000000000E+00 -0.12392719650E+04  0.12392719650E+04  0.50400001928E-02 0.  1.
    10030    2    1    2    0    0  0.00000000000E+00  0.00000000000E+00 -0.79683998582E+03  0.16817039442E+04  0.14809369307E+04 0.  0.
        5    1    3    3  502    0  0.55433003203E+03 -0.12162191328E+03  0.14165883479E+03  0.58494699732E+03  0.46999998093E+01 0. -1.
       -5    1    3    3    0  502 -0.55433003203E+03  0.12162191328E+03 -0.93849882061E+03  0.10967569469E+04  0.46999998093E+01 0.  1.
</event>
<event>
 5   0  0.4948645E-04  0.1512022E+04  0.7818609E-02  0.8876498E-01
        2   -1    0    0  501    0  0.00000000000E+00  0.00000000000E+00  0.98274144991E+03  0.98274144992E+03  0.25500000920E-02 0.  1.
       -2   -1    0    0    0  501  0.00000000000E+00  0.00000000000E+00 -0.58159003041E+03  0.58159003042E+03  0.25500000920E-02 0. -1.
    10030    2    1    2    0    0  0.00000000000E+00  0.00000000000E+00  0.40115141950E+03  0.15643314803E+04  0.15120219969E+04 0.  0.
        1    1    3    3  502    0  0.18339915431E+03 -0.51241809924E+03  0.74346256880E+03  0.92138165244E+03  0.50400001928E-02 0.  1.
       -1    1    3    3    0  502 -0.18339915431E+03  0.51241809924E+03 -0.34231114930E+03  0.64294982789E+03  0.50400001928E-02 0. -1.
</event>
<event>
 5   0  0.4785496E-04  0.1505691E+04  0.7818609E-02  0.8880677E-01
        2   -1    0    0  501    0  0.00000000000E+00  0.00000000000E+00  0.16707196009E+03  0.16707196011E+03  0.25500000920E-02 0. -1.
       -2   -1    0    0    0  501  0.00000000000E+00  0.00000000000E+00 -0.33924081379E+04  0.33924081379E+04  0.25500000920E-02 0.  1.
    10030    2    1    2    0    0  0.00000000000E+00  0.00000000000E+00 -0.32253361778E+04  0.35594800980E+04  0.15056909073E+04 0.  0.
        4    1    3    3  502    0 -0.72518645726E+03  0.23426688205E+02 -0.20874206442E+04  0.22099255115E+04  0.12699999809E+01 0.  1.
       -4    1    3    3    0  502  0.72518645726E+03 -0.23426688205E+02 -0.11379155336E+04  0.13495545865E+04  0.12699999809E+01 0. -1.
</event>
<event>
 5   0  0.2605471E-04  0.1512306E+04  0.7818609E-02  0.8876311E-01
        1   -1    0    0  501    0  0.00000000000E+00  0.00000000000E+00  0.11209598796E+04  0.11209598796E+04  0.50400001928E-02 0.  1.
       -1   -1    0    0    0  501  0.00000000000E+00  0.00000000000E+00 -0.51006938702E+03  0.51006938704E+03  0.50400001928E-02 0. -1.
    10030    2    1    2    0    0  0.00000000000E+00  0.00000000000E+00  0.61089049254E+03  0.16310292666E+04  0.15123059461E+04 0.  0.
        3    1    3    3  502    0  0.44670706806E+03  0.13554493060E+03  0.94699488943E+03  0.10558025212E+04  0.10100000352E+00 0.  1.
       -3    1    3    3    0  502 -0.44670706806E+03 -0.13554493060E+03 -0.33610439689E+03  0.57522674545E+03  0.10100000352E+00 0. -1.
</event>
<event>
 5   0  0.4785496E-04  0.1500631E+04  0.7818609E-02  0.8884034E-01
        2   -1    0    0  501    0  0.00000000000E+00  0.00000000000E+00  0.13032022408E+04  0.13032022408E+04  0.25500000920E-02 0. -1.
       -2   -1    0    0    0  501  0.00000000000E+00  0.00000000000E+00 -0.43199210809E+03  0.43199210809E+03  0.25500000920E-02 0.  1.
    10030    2    1    2    0    0  0.00000000000E+00  0.00000000000E+00  0.87121013268E+03  0.17351943489E+04  0.15006306451E+04 0.  0.
        4    1    3    3  502    0  0.51369483418E+03 -0.19996184746E+03  0.10241934183E+04  0.11631168876E+04  0.12699999809E+01 0. -1.
       -4    1    3    3    0  502 -0.51369483418E+03  0.19996184746E+03 -0.15298328567E+03  0.57207746127E+03  0.12699999809E+01 0.  1.
</event>
<event>
 5   0  0.4569211E-04  0.1502403E+04  0.7818609E-02  0.8882856E-01
       -2   -1    0    0    0  501  0.00000000000E+00  0.00000000000E+00  0.27859460634E+03  0.27859460635E+03  0.25500000920E-02 0. -1.
        2   -1    0    0  501    0  0.00000000000E+00  0.00000000000E+00 -0.20255383351E+04  0.20255383351E+04  0.25500000920E-02 0.  1.
    10030    2    1    2    0    0  0.00000000000E+00  0.00000000000E+00 -0.17469437288E+04  0.23041329415E+04  0.15024034812E+04 0.  0.
        5    1    3    3  502    0  0.65204193388E+03 -0.17171927023E+02 -0.14448980277E+04  0.15853094206E+04  0.46999998093E+01 0.  1.
       -5    1    3    3    0  502 -0.65204193388E+03  0.17171927023E+02 -0.30204570109E+03  0.71882352088E+03  0.46999998093E+01 0. -1.
</event>
<event>
 5   0  0.4948645E-04  0.1501091E+04  0.7818609E-02  0.8883728E-01
       -2   -1    0    0    0  501  0.00000000000E+00  0.00000000000E+00  0.12742671919E+04  0.12742671919E+04  0.25500000920E-02 0.  1.
        2   -1    0    0  501    0  0.00000000000E+00  0.00000000000E+00 -0.44207250412E+03  0.44207250413E+03  0.25500000920E-02 0. -1.
    10030    2    1    2    0    0  0.00000000000E+00  0.00000000000E+00  0.83219468781E+03  0.17163396961E+04  0.15010909213E+04 0.  0.
        1    1    3    3  502    0 -0.29885260744E+03  0.15838867087E+03  0.11821878254E+04  0.12296210418E+04  0.50400001928E-02 0.  1.
       -1    1    3    3    0  502  0.29885260744E+03 -0.15838867087E+03 -0.34999313755E+03  0.48671865424E+03  0.50400001928E-02 0. -1.
</event>
<event>
 5   0  0.2544374E-04  0.1499855E+04  0.7818609E-02  0.8884549E-01
        1   -1    0    0  501    0  0.00000000000E+00  0.00000000000E+00  0.10444683859E+04  0.10444683859E+04  0.50400001928E-02 0. -1.
       -1   -1    0    0    0  501  0.00000000000E+00  0.00000000000E+00 -0.53844748610E+03  0.53844748612E+03  0.50400001928E-02 0.  1.
    10030    2    1    2    0    0  0.00000000000E+00  0.00000000000E+00  0.50602089983E+03  0.15829158721E+04  0.14998551620E+04 0.  0.
        4    1    3    3  502    0  0.50375695599E+03 -0.40356228712E+02  0.83776104732E+03  0.97838892124E+03  0.12699999809E+01 0. -1.
       -4    1    3    3    0  502 -0.50375695599E+03  0.40356228712E+02 -0.33174014749E+03  0.60452695081E+03  0.12699999809E+01 0.  1.
</event>
<event>
 5   0  0.4948645E-04  0.1438287E+04  0.7818609E-02  0.8926561E-01
       -2   -1    0    0    0  501  0.00000000000E+00  0.00000000000E+00  0.33981197774E+03  0.33981197775E+03  0.25500000920E-02 0.  1.
        2   -1    0    0  501    0  0.00000000000E+00  0.00000000000E+00 -0.15219231518E+04  0.15219231518E+04  0.25500000920E-02 0. -1.
    10030    2    1    2    0    0  0.00000000000E+00  0.00000000000E+00 -0.11821111740E+04  0.18617351295E+04  0.14382874764E+04 0.  0.
        1    1    3    3  502    0 -0.37795128188E+02  0.71738143328E+03 -0.63404725422E+03  0.95816518051E+03  0.50400001928E-02 0. -1.
       -1    1    3    3    0  502  0.37795128188E+02 -0.71738143328E+03 -0.54806391981E+03  0.90356994901E+03  0.50400001928E-02 0.  1.
</event>
<event>
 5   0  0.2603873E-04  0.1493840E+04  0.7818609E-02  0.8888560E-01
       -1   -1    0    0    0  501  0.00000000000E+00  0.00000000000E+00  0.82336842150E+03  0.82336842152E+03  0.50400001928E-02 0.  1.
        1   -1    0    0  501    0  0.00000000000E+00  0.00000000000E+00 -0.67756975507E+03  0.67756975509E+03  0.50400001928E-02 0. -1.
    10030    2    1    2    0    0  0.00000000000E+00  0.00000000000E+00  0.14579866643E+03  0.15009381766E+04  0.14938400714E+04 0.  0.
        2    1    3    3  502    0  0.22661396762E+03  0.70665535968E+03 -0.12201714399E+02  0.74220251247E+03  0.25500000920E-02 0. -1.
       -2    1    3    3    0  502 -0.22661396762E+03 -0.70665535968E+03  0.15800038083E+03  0.75873566414E+03  0.25500000920E-02 0.  1.
</event>
<event>
 5   0  0.4768387E-04  0.1502317E+04  0.7818609E-02  0.8882914E-01
       -2   -1    0    0    0  501  0.00000000000E+00  0.00000000000E+00  0.11450595521E+04  0.11450595521E+04  0.25500000920E-02 0. -1.
        2   -1    0    0  501    0  0.00000000000E+00  0.00000000000E+00 -0.49275932106E+03  0.49275932106E+03  0.25500000920E-02 0.  1.
    10030    2    1    2    0    0  0.00000000000E+00  0.00000000000E+00  0.65230023104E+03  0.16378188732E+04  0.15023165678E+04 0.  0.
        3    1    3    3  502    0 -0.19299892104E+03  0.70000008547E+03  0.53582523433E+03  0.90241752816E+03  0.10100000352E+00 0.  1.
       -3    1    3    3    0  502  0.19299892104E+03 -0.70000008547E+03  0.11647499671E+03  0.73540134501E+03  0.10100000352E+00 0. -1.
</event>
<event>
 5   0  0.2544374E-04  0.1504395E+04  0.7818609E-02  0.8881535E-01
       -1   -1    0    0    0  501  0.00000000000E+00  0.00000000000E+00  0.14328589586E+04  0.14328589586E+04  0.50400001928E-02 0. -1.
        1   -1    0    0  501    0  0.00000000000E+00  0.00000000000E+00 -0.39487581902E+03  0.39487581906E+03  0.50400001928E-02 0.  1.
    10030    2    1    2    0    0  0.00000000000E+00  0.00000000000E+00  0.10379831396E+04  0.18277347777E+04  0.15043953667E+04 0.  0.
        4    1    3    3  502    0  0.16743002106E+03 -0.40982288568E+03 -0.21983374212E+03  0.49428341734E+03  0.12699999809E+01 0.  1.
       -4    1    3    3    0  502 -0.16743002106E+03  0.40982288568E+03  0.12578168817E+04  0.13334513603E+04  0.12699999809E+01 0. -1.
</event>
<event>
 5   0  0.2544374E-04  0.1480777E+04  0.7818609E-02  0.8897338E-01
        1   -1    0    0  501    0  0.00000000000E+00  0.00000000000E+00  0.76992652576E+03  0.76992652578E+03  0.50400001928E-02 0. -1.
       -1   -1    0    0    0  501  0.00000000000E+00  0.00000000000E+00 -0.71198328433E+03  0.71198328434E+03  0.50400001928E-02 0.  1.
    10030    2    1    2    0    0  0.00000000000E+00  0.00000000000E+00  0.57943241439E+02  0.14819098101E+04  0.14807765754E+04 0.  0.
        4    1    3    3  502    0  0.79074841084E+02  0.60555405594E+03  0.44789041848E+03  0.75733479058E+03  0.12699999809E+01 0.  1.
       -4    1    3    3    0  502 -0.79074841084E+02 -0.60555405594E+03 -0.38994717704E+03  0.72457501954E+03  0.12699999809E+01 0. -1.
</event>
<event>
 5   0  0.4948645E-04  0.1502284E+04  0.7818609E-02  0.8882935E-01
       -2   -1    0    0    0  501  0.00000000000E+00  0.00000000000E+00  0.17073808094E+04  0.17073808094E+04  0.25500000920E-02 0.  1.
        2   -1    0    0  501    0  0.00000000000E+00  0.00000000000E+00 -0.33045617916E+03  0.33045617917E+03  0.25500000920E-02 0. -1.
    10030    2    1    2    0    0  0.00000000000E+00  0.00000000000E+00  0.13769246302E+04  0.20378369885E+04  0.15022843122E+04 0.  0.
        1    1    3    3  502    0 -0.23203635942E+03  0.43575083651E+03  0.14564033121E+04  0.15378004654E+04  0.50400001928E-02 0.  1.
       -1    1    3    3    0  502  0.23203635942E+03 -0.43575083651E+03 -0.79478681935E+02  0.50003652318E+03  0.50400001928E-02 0. -1.
</event>
<event>
 5   0  0.4785496E-04  0.1515829E+04  0.7818609E-02  0.8873994E-01
       -2   -1    0    0    0  501  0.00000000000E+00  0.00000000000E+00  0.67957420077E+03  0.67957420077E+03  0.25500000920E-02 0. -1.
        2   -1    0    0  501    0  0.00000000000E+00  0.00000000000E+00 -0.84528593659E+03  0.84528593659E+03  0.25500000920E-02 0.  1.
    10030    2    1    2    0    0  0.00000000000E+00  0.00000000000E+00 -0.16571173582E+03  0.15248601374E+04  0.15158291656E+04 0.  0.
        4    1    3    3  502    0  0.29312396306E+03 -0.68755822442E+03  0.43490715631E+02  0.74869955586E+03  0.12699999809E+01 0.  1.
       -4    1    3    3    0  502 -0.29312396306E+03  0.68755822442E+03 -0.20920245146E+03  0.77616058151E+03  0.12699999809E+01 0. -1.
</event>
<event>
 5   0  0.2565416E-04  0.1502729E+04  0.7818609E-02  0.8882640E-01
       -1   -1    0    0    0  501  0.00000000000E+00  0.00000000000E+00  0.66106621789E+03  0.66106621791E+03  0.50400001928E-02 0.  1.
        1   -1    0    0  501    0  0.00000000000E+00  0.00000000000E+00 -0.85399751851E+03  0.85399751852E+03  0.50400001928E-02 0. -1.
    10030    2    1    2    0    0  0.00000000000E+00  0.00000000000E+00 -0.19293130062E+03  0.15150637364E+04  0.15027293964E+04 0.  0.
        5    1    3    3  502    0 -0.39708561348E+03  0.52322578887E+03 -0.46426760912E+03  0.80436851843E+03  0.46999998093E+01 0. -1.
       -5    1    3    3    0  502  0.39708561348E+03 -0.52322578887E+03  0.27133630850E+03  0.71069521799E+03  0.46999998093E+01 0.  1.
</event>
<event>
 5   0  0.4948645E-04  0.1512922E+04  0.7818609E-02  0.8875905E-01
       -2   -1    0    0    0  501  0.00000000000E+00  0.00000000000E+00  0.33987089868E+03  0.33987089869E+03  0.25500000920E-02 0.  1.
        2   -1    0    0  501    0  0.00000000000E+00  0.00000000000E+00 -0.16836790265E+04  0.16836790265E+04  0.25500000920E-02 0. -1.
    10030    2    1    2    0    0  0.00000000000E+00  0.00000000000E+00 -0.13438081278E+04  0.20235499252E+04  0.15129223428E+04 0.  0.
        1    1    3    3  502    0 -0.36268238077E+02 -0.14898735818E+02 -0.16823189996E+04  0.16827758537E+04  0.50400001928E-02 0. -1.
       -1    1    3    3    0  502  0.36268238077E+02  0.14898735818E+02  0.33851087180E+03  0.34077407146E+03  0.50400001928E-02 0.  1.
</event>
<event>
 5   0  0.4768387E-04  0.1496706E+04  0.7818609E-02  0.8886646E-01
       -2   -1    0    0    0  501  0.00000000000E+00  0.00000000000E+00  0.35925095570E+03  0.35925095571E+03  0.25500000920E-02 0.  1.
        2   -1    0    0  501    0  0.00000000000E+00  0.00000000000E+00 -0.15588884968E+04  0.15588884968E+04  0.25500000920E-02 0. -1.
    10030    2    1    2    0    0  0.00000000000E+00  0.00000000000E+00 -0.11996375411E+04  0.19181394525E+04  0.14967059595E+04 0.  0.
        3    1    3    3  502    0 -0.54932684886E+03  0.12236927303E+03  0.32320704724E+02  0.56371878096E+03  0.10100000352E+00 0.  1.
       -3    1    3    3    0  502  0.54932684886E+03 -0.12236927303E+03 -0.12319582458E+04  0.13544206716E+04  0.10100000352E+00 0. -1.
</event>
<event>
 5   0  0.2542737E-04  0.1494383E+04  0.7818609E-02  0.8888197E-01
       -1   -1    0    0    0  501  0.00000000000E+00  0.00000000000E+00  0.33393627186E+03  0.33393627190E+03  0.50400001928E-02 0. -1.
        1   -1    0    0  501    0  0.00000000000E+00  0.00000000000E+00 -0.16718618864E+04  0.16718618864E+04  0.50400001928E-02 0.  1.
    10030    2    1    2    0    0  0.00000000000E+00  0.00000000000E+00 -0.13379256146E+04  0.20057981583E+04  0.14943832513E+04 0.  0.
        1    1    3    3  502    0 -0.57680832438E+02 -0.40308354871E+03  0.17192989970E+03  0.44199922636E+03  0.50400001928E-02 0. -1.
       -1    1    3    3    0  502  0.57680832438E+02  0.40308354871E+03 -0.15098555143E+04  0.15637989320E+04  0.50400001928E-02 0.  1.
</event>
<event>
 5   0  0.2544374E-04  0.1514411E+04  0.7818609E-02  0.8874926E-01
        1   -1    0    0  501    0  0.00000000000E+00  0.00000000000E+00  0.17666687491E+04  0.17666687491E+04  0.50400001928E-02 0. -1.
       -1   -1    0    0    0  501  0.00000000000E+00  0.00000000000E+00 -0.32454294659E+03  0.32454294663E+03  0.50400001928E-02 0.  1.
    10030    2    1    2    0    0  0.00000000000E+00  0.00000000000E+00  0.14421258025E+04  0.20912116957E+04  0.15144106200E+04 0.  0.
        4    1    3    3  502    0 -0.34632767147E+03  0.60329451255E+03  0.30806551649E+03  0.76079767366E+03  0.12699999809E+01 0.  1.
       -4    1    3    3    0  502  0.34632767147E+03 -0.60329451255E+03  0.11340602860E+04  0.13304140221E+04  0.12699999809E+01 0. -1.
</event>
<event>
 5   0  0.2605471E-04  0.1491241E+04  0.7818609E-02  0.8890299E-01
        1   -1    0    0  501    0  0.00000000000E+00  0.00000000000E+00  0.40550869198E+03  0.40550869201E+03  0.50400001928E-02 0.  1.
       -1   -1    0    0    0  501  0.00000000000E+00  0.00000000000E+00 -0.13709933232E+04  0.13709933232E+04  0.50400001928E-02 0. -1.
    10030    2    1    2    0    0  0.00000000000E+00  0.00000000000E+00 -0.96548463121E+03  0.17765020152E+04  0.14912407039E+04 0.  0.
        3    1    3    3  502    0 -0.65906586952E+02 -0.55478440613E+03 -0.10709800376E+04  0.12079435693E+04  0.10100000352E+00 0. -1.
       -3    1    3    3    0  502  0.65906586952E+02  0.55478440613E+03  0.10549540635E+03  0.56855844594E+03  0.10100000352E+00 0.  1.
</event>
<event>
 5   0  0.2565416E-04  0.1498638E+04  0.7818609E-02  0.8885359E-01
        1   -1    0    0  501    0  0.00000000000E+00  0.00000000000E+00  0.95682757869E+03  0.95682757870E+03  0.50400001928E-02 0.  1.
       -1   -1    0    0    0  501  0.00000000000E+00  0.00000000000E+00 -0.58681288664E+03  0.58681288666E+03  0.50400001928E-02 0. -1.
    10030    2    1    2    0    0  0.00000000000E+00  0.00000000000E+00  0.37001469205E+03  0.15436404654E+04  0.14986377194E+04 0.  0.
        5    1    3    3  502    0  0.36827046582E+03  0.52254361997E+03 -0.21760320704E+03  0.67531342092E+03  0.46999998093E+01 0. -1.
       -5    1    3    3    0  502 -0.36827046582E+03 -0.52254361997E+03  0.58761789909E+03  0.86832704443E+03  0.46999998093E+01 0.  1.
</event>
<event>
 5   0  0.2605471E-04  0.1505761E+04  0.7818609E-02  0.8880631E-01
       -1   -1    0    0    0  501  0.00000000000E+00  0.00000000000E+00  0.41711005626E+03  0.41711005629E+03  0.50400001928E-02 0. -1.
        1   -1    0    0  501    0  0.00000000000E+00  0.00000000000E+00 -0.13589438103E+04  0.13589438103E+04  0.50400001928E-02 0.  1.
    10030    2    1    2    0    0  0.00000000000E+00  0.00000000000E+00 -0.94183375407E+03  0.17760538666E+04  0.15057611088E+04 0.  0.
        3    1    3    3  502    0 -0.13764404638E+03 -0.38139171717E+03 -0.12191583480E+04  0.12848161787E+04  0.10100000352E+00 0.  1.
       -3    1    3    3    0  502  0.13764404638E+03  0.38139171717E+03  0.27732459391E+03  0.49123768791E+03  0.10100000352E+00 0. -1.
</event>
<event>
 5   0  0.4785496E-04  0.1515603E+04  0.7818609E-02  0.8874143E-01
        2   -1    0    0  501    0  0.00000000000E+00  0.00000000000E+00  0.12068556825E+04  0.12068556825E+04  0.25500000920E-02 0.  1.
       -2   -1    0    0    0  501  0.00000000000E+00  0.00000000000E+00 -0.47583425900E+03  0.47583425900E+03  0.25500000920E-02 0. -1.
    10030    2    1    2    0    0  0.00000000000E+00  0.00000000000E+00  0.73102142346E+03  0.16826899415E+04  0.15156032190E+04 0.  0.
        4    1    3    3  502    0 -0.19571062906E+03 -0.25845873368E+03 -0.39495246368E+03  0.51097223878E+03  0.12699999809E+01 0. -1.
       -4    1    3    3    0  502  0.19571062906E+03  0.25845873368E+03  0.11259738871E+04  0.11717177027E+04  0.12699999809E+01 0.  1.
</event>
<event>
 5   0  0.4948645E-04  0.1502591E+04  0.7818609E-02  0.8882732E-01
       -2   -1    0    0    0  501  0.00000000000E+00  0.00000000000E+00  0.67191208825E+03  0.67191208826E+03  0.25500000920E-02 0.  1.
        2   -1    0    0  501    0  0.00000000000E+00  0.00000000000E+00 -0.84005756507E+03  0.84005756508E+03  0.25500000920E-02 0. -1.
    10030    2    1    2    0    0  0.00000000000E+00  0.00000000000E+00 -0.16814547682E+03  0.15119696533E+04  0.15025908729E+04 0.  0.
        1    1    3    3  502    0  0.71933603197E+03  0.21630509809E+03 -0.69400559273E+02  0.75435314011E+03  0.50400001928E-02 0. -1.
       -1    1    3    3    0  502 -0.71933603197E+03 -0.21630509809E+03 -0.98744917545E+02  0.75761651322E+03  0.50400001928E-02 0.  1.
</event>
<event>
 5   0  0.2603873E-04  0.1508385E+04  0.7818609E-02  0.8878896E-01
       -1   -1    0    0    0  501  0.00000000000E+00  0.00000000000E+00  0.12875081007E+04  0.12875081007E+04  0.50400001928E-02 0.  1.
        1   -1    0    0  501    0  0.00000000000E+00  0.00000000000E+00 -0.44178830235E+03  0.44178830238E+03  0.50400001928E-02 0. -1.
    10030    2    1    2    0    0  0.00000000000E+00  0.00000000000E+00  0.84571979831E+03  0.17292964030E+04  0.15083845903E+04 0.  0.
        2    1    3    3  502    0  0.21537172979E+03  0.51218509749E+03 -0.16181851387E+03  0.57870872425E+03  0.25500000920E-02 0. -1.
       -2    1    3    3    0  502 -0.21537172979E+03 -0.51218509749E+03  0.10075383122E+04  0.11505876788E+04  0.25500000920E-02 0.  1.
</event>
<event>
 5   0  0.4569211E-04  0.1506345E+04  0.7818609E-02  0.8880244E-01
        2   -1    0    0  501    0  0.00000000000E+00  0.00000000000E+00  0.99424953500E+03  0.99424953500E+03  0.25500000920E-02 0. -1.
       -2   -1    0    0    0  501  0.00000000000E+00  0.00000000000E+00 -0.57054994543E+03  0.57054994543E+03  0.25500000920E-02 0.  1.
    10030    2    1    2    0    0  0.00000000000E+00  0.00000000000E+00  0.42369958957E+03  0.15647994804E+04  0.15063452698E+04 0.  0.
        5    1    3    3  502    0  0.59572409548E+03  0.15638693383E+03  0.66214866452E+03  0.90432682971E+03  0.46999998093E+01 0. -1.
       -5    1    3    3    0  502 -0.59572409548E+03 -0.15638693383E+03 -0.23844907495E+03  0.66047265072E+03  0.46999998093E+01 0.  1.
</event>
<event>
 5   0  0.2603873E-04  0.1503922E+04  0.7818609E-02  0.8881849E-01
       -1   -1    0    0    0  501  0.00000000000E+00  0.00000000000E+00  0.80262451837E+03  0.80262451839E+03  0.50400001928E-02 0.  1.
        1   -1    0    0  501    0  0.00000000000E+00  0.00000000000E+00 -0.70449511940E+03  0.70449511942E+03  0.50400001928E-02 0. -1.
    10030    2    1    2    0    0  0.00000000000E+00  0.00000000000E+00  0.98129398972E+02  0.15071196378E+04  0.15039216149E+04 0.  0.
        2    1    3    3  502    0  0.41848746951E+03 -0.53684252090E+03 -0.27116668959E+03  0.73270937481E+03  0.25500000920E-02 0. -1.
       -2    1    3    3    0  502 -0.41848746951E+03  0.53684252090E+03  0.36929608857E+03  0.77441026299E+03  0.25500000920E-02 0.  1.
</event>
<event>
 5   0  0.4726600E-04  0.1498033E+04  0.7818609E-02  0.8885762E-01
        2   -1    0    0  501    0  0.00000000000E+00  0.00000000000E+00  0.61027934319E+03  0.61027934319E+03  0.25500000920E-02 0.  1.
       -2   -1    0    0    0  501  0.00000000000E+00  0.00000000000E+00 -0.91929323137E+03  0.91929323138E+03  0.25500000920E-02 0. -1.
    10030    2    1    2    0    0  0.00000000000E+00  0.00000000000E+00 -0.30901388818E+03  0.15295725746E+04  0.14980329361E+04 0.  0.
        2    1    3    3  502    0 -0.18206003716E+02 -0.67731305377E+03  0.17149761825E+03  0.69892479169E+03  0.25500000920E-02 0.  1.
       -2    1    3    3    0  502  0.18206003716E+02  0.67731305377E+03 -0.48051150644E+03  0.83064778288E+03  0.25500000920E-02 0. -1.
</event>
<event>
 5   0  0.4768387E-04  0.1496481E+04  0.7818609E-02  0.8886796E-01
        2   -1    0    0  501    0  0.00000000000E+00  0.00000000000E+00  0.10373005640E+04  0.10373005640E+04  0.25500000920E-02 0. -1.
       -2   -1    0    0    0  501  0.00000000000E+00  0.00000000000E+00 -0.53973158786E+03  0.53973158786E+03  0.25500000920E-02 0.  1.
    10030    2    1    2    0    0  0.00000000000E+00  0.00000000000E+00  0.49756897615E+03  0.15770321519E+04  0.14964810463E+04 0.  0.
        3    1    3    3  502    0  0.43951698606E+03  0.28566181488E+02  0.88621714199E+03  0.98963227550E+03  0.10100000352E+00 0. -1.
       -3    1    3    3    0  502 -0.43951698606E+03 -0.28566181488E+02 -0.38864816583E+03  0.58739987638E+03  0.10100000352E+00 0.  1.
</event>
<event>
 5   0  0.1792000E-04  0.1495658E+04  0.7818609E-02  0.8887345E-01
        3   -1    0    0  501    0  0.00000000000E+00  0.00000000000E+00  0.55792734635E+03  0.55792735549E+03  0.10100000352E+00 0.  1.
       -3   -1    0    0    0  501  0.00000000000E+00  0.00000000000E+00 -0.10023676503E+04  0.10023676554E+04  0.10100000352E+00 0. -1.
    10030    2    1    2    0    0  0.00000000000E+00  0.00000000000E+00 -0.44444030395E+03  0.15602950109E+04  0.14956581619E+04 0.  0.
        1    1    3    3  502    0  0.67420958272E+03 -0.28221362016E+03 -0.57123973544E+02  0.73312088854E+03  0.50400001928E-02 0. -1.
       -1    1    3    3    0  502 -0.67420958272E+03  0.28221362016E+03 -0.38731633041E+03  0.82717412234E+03  0.50400001928E-02 0.  1.
</event>
<event>
 5   0  0.4948645E-04  0.1496180E+04  0.7818609E-02  0.8886997E-01
       -2   -1    0    0    0  501  0.00000000000E+00  0.00000000000E+00  0.25342382079E+03  0.25342382081E+03  0.25500000920E-02 0.  1.
        2   -1    0    0  501    0  0.00000000000E+00  0.00000000000E+00 -0.22083125367E+04  0.22083125368E+04  0.25500000920E-02 0. -1.
    10030    2    1    2    0    0  0.00000000000E+00  0.00000000000E+00 -0.19548887160E+04  0.24617363576E+04  0.14961804712E+04 0.  0.
        1    1    3    3  502    0 -0.63964916571E+03  0.85145133352E+02 -0.35473260349E+03  0.73636673535E+03  0.50400001928E-02 0.  1.
       -1    1    3    3    0  502  0.63964916571E+03 -0.85145133352E+02 -0.16001561125E+04  0.17253696222E+04  0.50400001928E-02 0. -1.
</event>
<event>
 5   0  0.4785496E-04  0.1488763E+04  0.7818609E-02  0.8891960E-01
        2   -1    0    0  501    0  0.00000000000E+00  0.00000000000E+00  0.10237511487E+04  0.10237511487E+04  0.25500000920E-02 0.  1.
       -2   -1    0    0    0  501  0.00000000000E+00  0.00000000000E+00 -0.54124883205E+03  0.54124883205E+03  0.25500000920E-02 0. -1.
    10030    2    1    2    0    0  0.00000000000E+00  0.00000000000E+00  0.48250231662E+03  0.15649999807E+04  0.14887633976E+04 0.  0.
        4    1    3    3  502    0  0.66391933201E+03  0.20834123654E+03  0.51919092965E+03  0.86819109912E+03  0.12699999809E+01 0.  1.
       -4    1    3    3    0  502 -0.66391933201E+03 -0.20834123654E+03 -0.36688613034E+02  0.69680888160E+03  0.12699999809E+01 0. -1.
</event>
<event>
 5   0  0.2565416E-04  0.1509436E+04  0.7818609E-02  0.8878202E-01
        1   -1    0    0  501    0  0.00000000000E+00  0.00000000000E+00  0.48645755253E+03  0.48645755256E+03  0.50400001928E-02 0.  1.
       -1   -1    0    0    0  501  0.00000000000E+00  0.00000000000E+00 -0.11709133318E+04  0.11709133318E+04  0.50400001928E-02 0. -1.
    10030    2    1    2    0    0  0.00000000000E+00  0.00000000000E+00 -0.68445577930E+03  0.16573708844E+04  0.15094364957E+04 0.  0.
        5    1    3    3  502    0 -0.71284131139E+03 -0.16650822578E+03 -0.54382442794E+03  0.91194014217E+03  0.46999998093E+01 0. -1.
       -5    1    3    3    0  502  0.71284131139E+03  0.16650822578E+03 -0.14063135135E+03  0.74543074223E+03  0.46999998093E+01 0.  1.
</event>
<event>
 5   0  0.2603873E-04  0.1498397E+04  0.7818609E-02  0.8885519E-01
        1   -1    0    0  501    0  0.00000000000E+00  0.00000000000E+00  0.97806139991E+03  0.97806139993E+03  0.50400001928E-02 0.  1.
       -1   -1    0    0    0  501  0.00000000000E+00  0.00000000000E+00 -0.57388892186E+03  0.57388892188E+03  0.50400001928E-02 0. -1.
    10030    2    1    2    0    0  0.00000000000E+00  0.00000000000E+00  0.40417247806E+03  0.15519503218E+04  0.14983972802E+04 0.  0.
        2    1    3    3  502    0 -0.62696219347E+03  0.38113721502E+03  0.35899809100E+03  0.81683951794E+03  0.25500000920E-02 0.  1.
       -2    1    3    3    0  502  0.62696219347E+03 -0.38113721502E+03  0.45174387054E+02  0.73511080387E+03  0.25500000920E-02 0. -1.
</event>
<event>
 5   0  0.2565416E-04  0.1510953E+04  0.7818609E-02  0.8877202E-01
       -1   -1    0    0    0  501  0.00000000000E+00  0.00000000000E+00  0.55799536529E+03  0.55799536531E+03  0.50400001928E-02 0. -1.
        1   -1    0    0  501    0  0.00000000000E+00  0.00000000000E+00 -0.10228480559E+04  0.10228480560E+04  0.50400001928E-02 0.  1.
    10030    2    1    2    0    0  0.00000000000E+00  0.00000000000E+00 -0.46485269066E+03  0.15808434213E+04  0.15109526460E+04 0.  0.
        5    1    3    3  502    0  0.29964062206E+03  0.56031407231E+03 -0.65996763501E+03  0.91614176374E+03  0.46999998093E+01 0.  1.
       -5    1    3    3    0  502 -0.29964062206E+03 -0.56031407231E+03  0.19511494436E+03  0.66470165753E+03  0.46999998093E+01 0. -1.
</event>
<event>
 5   0  0.4768387E-04  0.1500980E+04  0.7818609E-02  0.8883802E-01
        2   -1    0    0  501    0  0.00000000000E+00  0.00000000000E+00  0.85013893326E+03  0.85013893327E+03  0.25500000920E-02 0. -1.
       -2   -1    0    0    0  501  0.00000000000E+00  0.00000000000E+00 -0.66252098922E+03  0.66252098923E+03  0.25500000920E-02 0.  1.
    10030    2    1    2    0    0  0.00000000000E+00  0.00000000000E+00  0.18761794404E+03  0.15126599225E+04  0.15009795296E+04 0.  0.
        3    1    3    3  502    0 -0.50774928185E+03 -0.47496380454E+03  0.37855849170E+03  0.79164795880E+03  0.10100000352E+00 0. -1.
       -3    1    3    3    0  502  0.50774928185E+03  0.47496380454E+03 -0.19094054766E+03  0.72101196369E+03  0.10100000352E+00 0.  1.
</event>
<event>
 5   0  0.4726600E-04  0.1510574E+04  0.7818609E-02  0.8877452E-01
       -2   -1    0    0    0  501  0.00000000000E+00  0.00000000000E+00  0.54733134089E+03  0.54733134090E+03  0.25500000920E-02 0. -1.
        2   -1    0    0  501    0  0.00000000000E+00  0.00000000000E+00 -0.10422542845E+04  0.10422542845E+04  0.25500000920E-02 0.  1.
    10030    2    1    2    0    0  0.00000000000E+00  0.00000000000E+00 -0.49492294356E+03  0.15895856254E+04  0.15105739771E+04 0.  0.
        2    1    3    3  502    0  0.47847329033E+03 -0.34539278114E+03  0.24860393745E+03  0.64034114388E+03  0.25500000920E-02 0. -1.
       -2    1    3    3    0  502 -0.47847329033E+03  0.34539278114E+03 -0.74352688101E+03  0.94924448148E+03  0.25500000920E-02 0.  1.
</event>
<event>
 5   0  0.4569211E-04  0.1501648E+04  0.7818609E-02  0.8883358E-01
        2   -1    0    0  501    0  0.00000000000E+00  0.00000000000E+00  0.72642018304E+03  0.72642018305E+03  0.25500000920E-02 0.  1.
       -2   -1    0    0    0  501  0.00000000000E+00  0.00000000000E+00 -0.77604752069E+03  0.77604752070E+03  0.25500000920E-02 0. -1.
    10030    2    1    2    0    0  0.00000000000E+00  0.00000000000E+00 -0.49627337649E+02  0.15024677037E+04  0.15016478709E+04 0.  0.
        5    1    3    3  502    0 -0.48863624758E+03  0.41291941839E+03  0.36839791740E+03  0.73824585612E+03  0.46999998093E+01 0.  1.
       -5    1    3    3    0  502  0.48863624758E+03 -0.41291941839E+03 -0.41802525505E+03  0.76422184763E+03  0.46999998093E+01 0. -1.
</event>
<event>
 5   0  0.2544374E-04  0.1435174E+04  0.7818609E-02  0.8928744E-01
       -1   -1    0    0    0  501  0.00000000000E+00  0.00000000000E+00  0.43609188099E+03  0.43609188102E+03  0.50400001928E-02 0.  1.
        1   -1    0    0  501    0  0.00000000000E+00  0.00000000000E+00 -0.11807851693E+04  0.11807851693E+04  0.50400001928E-02 0. -1.
    10030    2    1    2    0    0  0.00000000000E+00  0.00000000000E+00 -0.74469328829E+03  0.16168770503E+04  0.14351736140E+04 0.  0.
        4    1    3    3  502    0  0.30261476649E+03  0.52954488579E+03  0.53587991693E+02  0.61226364315E+03  0.12699999809E+01 0.  1.
       -4    1    3    3    0  502 -0.30261476649E+03 -0.52954488579E+03 -0.79828127998E+03  0.10046134072E+04  0.12699999809E+01 0. -1.
</event>
<event>
 5   0  0.2542737E-04  0.1499998E+04  0.7818609E-02  0.8884454E-01
       -1   -1    0    0    0  501  0.00000000000E+00  0.00000000000E+00  0.64664655641E+03  0.64664655643E+03  0.50400001928E-02 0. -1.
        1   -1    0    0  501    0  0.00000000000E+00  0.00000000000E+00 -0.86986981166E+03  0.86986981168E+03  0.50400001928E-02 0.  1.
    10030    2    1    2    0    0  0.00000000000E+00  0.00000000000E+00 -0.22322325526E+03  0.15165163681E+04  0.14999977577E+04 0.  0.
        1    1    3    3  502    0  0.32249930617E+02 -0.73337427484E+03  0.43770270198E+02  0.73538678367E+03  0.50400001928E-02 0. -1.
       -1    1    3    3    0  502 -0.32249930617E+02  0.73337427484E+03 -0.26699352545E+03  0.78112958443E+03  0.50400001928E-02 0.  1.
</event>
<event>
 5   0  0.4726600E-04  0.1498490E+04  0.7818609E-02  0.8885458E-01
        2   -1    0    0  501    0  0.00000000000E+00  0.00000000000E+00  0.16134337265E+04  0.16134337265E+04  0.25500000920E-02 0.  1.
       -2   -1    0    0    0  501  0.00000000000E+00  0.00000000000E+00 -0.34793358704E+03  0.34793358705E+03  0.25500000920E-02 0. -1.
    10030    2    1    2    0    0  0.00000000000E+00  0.00000000000E+00  0.12655001395E+04  0.19613673136E+04  0.14984896182E+04 0.  0.
        2    1    3    3  502    0  0.20636590145E+03  0.51947599888E+02 -0.30754616356E+03  0.37399208700E+03  0.25500000920E-02 0. -1.
       -2    1    3    3    0  502 -0.20636590145E+03 -0.51947599888E+02  0.15730463031E+04  0.15873752266E+04  0.25500000920E-02 0.  1.
</event>
<event>
 5   0  0.1792000E-04  0.1497792E+04  0.7818609E-02  0.8885922E-01
       -3   -1    0    0    0  501  0.00000000000E+00  0.00000000000E+00  0.37128072732E+03  0.37128074106E+03  0.10100000352E+00 0. -1.
        3   -1    0    0  501    0  0.00000000000E+00  0.00000000000E+00 -0.15105698491E+04  0.15105698525E+04  0.10100000352E+00 0.  1.
    10030    2    1    2    0    0  0.00000000000E+00  0.00000000000E+00 -0.11392891218E+04  0.18818505936E+04  0.14977923599E+04 0.  0.
        4    1    3    3  502    0 -0.50814787753E+03 -0.28504533020E+02  0.12060390726E+03  0.52304272214E+03  0.12699999809E+01 0. -1.
       -4    1    3    3    0  502  0.50814787753E+03  0.28504533020E+02 -0.12598930291E+04  0.13588078714E+04  0.12699999809E+01 0.  1.
</event>
<event>
 5   0  0.2544374E-04  0.1424109E+04  0.7818609E-02  0.8936550E-01
        1   -1    0    0  501    0  0.00000000000E+00  0.00000000000E+00  0.14663594635E+04  0.14663594635E+04  0.50400001928E-02 0.  1.
       -1   -1    0    0    0  501  0.00000000000E+00  0.00000000000E+00 -0.34576905452E+03  0.34576905456E+03  0.50400001928E-02 0. -1.
    10030    2    1    2    0    0  0.00000000000E+00  0.00000000000E+00  0.11205904090E+04  0.18121285181E+04  0.14241091606E+04 0.  0.
        4    1    3    3  502    0  0.64629605210E+03  0.29836333412E+03  0.58236600479E+03  0.91971247819E+03  0.12699999809E+01 0. -1.
       -4    1    3    3    0  502 -0.64629605210E+03 -0.29836333412E+03  0.53822440422E+03  0.89241603992E+03  0.12699999809E+01 0.  1.
</event>
<event>
 5   0  0.4785496E-04  0.1492781E+04  0.7818609E-02  0.8889268E-01
        2   -1    0    0  501    0  0.00000000000E+00  0.00000000000E+00  0.14537594683E+04  0.14537594683E+04  0.25500000920E-02 0. -1.
       -2   -1    0    0    0  501  0.00000000000E+00  0.00000000000E+00 -0.38321247835E+03  0.38321247835E+03  0.25500000920E-02 0.  1.
    10030    2    1    2    0    0  0.00000000000E+00  0.00000000000E+00  0.10705469900E+04  0.18369719467E+04  0.14927809870E+04 0.  0.
        4    1    3    3  502    0  0.67082878446E+03  0.37970176484E+02  0.13530186910E+03  0.68539127587E+03  0.12699999809E+01 0. -1.
       -4    1    3    3    0  502 -0.67082878446E+03 -0.37970176484E+02  0.93524512089E+03  0.11515806708E+04  0.12699999809E+01 0.  1.
</event>
<event>
 5   0  0.2565416E-04  0.1499606E+04  0.7818609E-02  0.8884715E-01
       -1   -1    0    0    0  501  0.00000000000E+00  0.00000000000E+00  0.79535963618E+03  0.79535963620E+03  0.50400001928E-02 0.  1.
        1   -1    0    0  501    0  0.00000000000E+00  0.00000000000E+00 -0.70685601905E+03  0.70685601906E+03  0.50400001928E-02 0. -1.
    10030    2    1    2    0    0  0.00000000000E+00  0.00000000000E+00  0.88503617134E+02  0.15022156553E+04  0.14996062765E+04 0.  0.
        5    1    3    3  502    0  0.47378643138E+03 -0.40862300618E+03 -0.36966968915E+03  0.72672148228E+03  0.46999998093E+01 0. -1.
       -5    1    3    3    0  502 -0.47378643138E+03  0.40862300618E+03  0.45817330628E+03  0.77549417298E+03  0.46999998093E+01 0.  1.
</event>
<event>
 5   0  0.4768387E-04  0.1494602E+04  0.7818609E-02  0.8888050E-01
       -2   -1    0    0    0  501  0.00000000000E+00  0.00000000000E+00  0.66150303514E+03  0.66150303515E+03  0.25500000920E-02 0.  1.
        2   -1    0    0  501    0  0.00000000000E+00  0.00000000000E+00 -0.84422740706E+03  0.84422740707E+03  0.25500000920E-02 0. -1.
    10030    2    1    2    0    0  0.00000000000E+00  0.00000000000E+00 -0.18272437192E+03  0.15057304422E+04  0.14946022777E+04 0.  0.
        3    1    3    3  502    0 -0.25658730724E+03  0.96779748248E+01  0.61566672653E+03  0.66706539244E+03  0.10100000352E+00 0.  1.
       -3    1    3    3    0  502  0.25658730724E+03 -0.96779748248E+01 -0.79839109845E+03  0.83866504978E+03  0.10100000352E+00 0. -1.
</event>
<event>
 5   0  0.4948645E-04  0.1494342E+04  0.7818609E-02  0.8888224E-01
        2   -1    0    0  501    0  0.00000000000E+00  0.00000000000E+00  0.13715959457E+04  0.13715959457E+04  0.25500000920E-02 0. -1.
       -2   -1    0    0    0  501  0.00000000000E+00  0.00000000000E+00 -0.40701836131E+03  0.40701836132E+03  0.25500000920E-02 0.  1.
    10030    2    1    2    0    0  0.00000000000E+00  0.00000000000E+00  0.96457758444E+03  0.17786143071E+04  0.14943423091E+04 0.  0.
        1    1    3    3  502    0 -0.22084176056E+03 -0.39239371761E+03 -0.22739389221E+03  0.50443225022E+03  0.50400001928E-02 0.  1.
       -1    1    3    3    0  502  0.22084176056E+03  0.39239371761E+03  0.11919714766E+04  0.12741820568E+04  0.50400001928E-02 0. -1.
</event>
<event>
 5   0  0.2542737E-04  0.1514227E+04  0.7818609E-02  0.8875047E-01
       -1   -1    0    0    0  501  0.00000000000E+00  0.00000000000E+00  0.88581650997E+03  0.88581650998E+03  0.50400001928E-02 0.  1.
        1   -1    0    0  501    0  0.00000000000E+00  0.00000000000E+00 -0.64711001445E+03  0.64711001447E+03  0.50400001928E-02 0. -1.
    10030    2    1    2    0    0  0.00000000000E+00  0.00000000000E+00  0.23870649552E+03  0.15329265244E+04  0.15142268451E+04 0.  0.
        1    1    3    3  502    0  0.30835597288E+03  0.53911798109E+03  0.55770065863E+03  0.83472248574E+03  0.50400001928E-02 0.  1.
       -1    1    3    3    0  502 -0.30835597288E+03 -0.53911798109E+03 -0.31899416311E+03  0.69820403871E+03  0.50400001928E-02 0. -1.
</event>
<event>
 5   0  0.2603873E-04  0.1510275E+04  0.7818609E-02  0.8877649E-01
        1   -1    0    0  501    0  0.00000000000E+00  0.00000000000E+00  0.42022182707E+03  0.42022182710E+03  0.50400001928E-02 0. -1.
       -1   -1    0    0    0  501  0.00000000000E+00  0.00000000000E+00 -0.13569807057E+04  0.13569807057E+04  0.50400001928E-02 0.  1.
    10030    2    1    2    0    0  0.00000000000E+00  0.00000000000E+00 -0.93675887861E+03  0.17772025328E+04  0.15102753543E+04 0.  0.
        2    1    3    3  502    0  0.46159903480E+02  0.74645579047E+03 -0.34549069850E+03  0.82382692756E+03  0.25500000920E-02 0. -1.
       -2    1    3    3    0  502 -0.46159903480E+02 -0.74645579047E+03 -0.59126818011E+03  0.95337560522E+03  0.25500000920E-02 0.  1.
</event>
<event>
 5   0  0.2544374E-04  0.1368781E+04  0.7818609E-02  0.8976732E-01
       -1   -1    0    0    0  501  0.00000000000E+00  0.00000000000E+00  0.78974820211E+03  0.78974820213E+03  0.50400001928E-02 0.  1.
        1   -1    0    0  501    0  0.00000000000E+00  0.00000000000E+00 -0.59308794524E+03  0.59308794526E+03  0.50400001928E-02 0. -1.
    10030    2    1    2    0    0  0.00000000000E+00  0.00000000000E+00  0.19666025687E+03  0.13828361474E+04  0.13687806814E+04 0.  0.
        4    1    3    3  502    0 -0.36792038211E+03  0.19485135452E+03  0.64709857421E+03  0.76946126320E+03  0.12699999809E+01 0.  1.
       -4    1    3    3    0  502  0.36792038211E+03 -0.19485135452E+03 -0.45043831733E+03  0.61337488419E+03  0.12699999809E+01 0. -1.
</event>
<event>
 5   0  0.2544374E-04  0.1517761E+04  0.7818609E-02  0.8872727E-01
       -1   -1    0    0    0  501  0.00000000000E+00  0.00000000000E+00  0.38019938335E+03  0.38019938339E+03  0.50400001928E-02 0.  1.
        1   -1    0    0  501    0  0.00000000000E+00  0.00000000000E+00 -0.15147306719E+04  0.15147306719E+04  0.50400001928E-02 0. -1.
    10030    2    1    2    0    0  0.00000000000E+00  0.00000000000E+00 -0.11345312886E+04  0.18949300553E+04  0.15177610714E+04 0.  0.
        4    1    3    3  502    0 -0.65704917592E+03  0.10285604466E+03 -0.11091229473E+03  0.67423744743E+03  0.12699999809E+01 0.  1.
       -4    1    3    3    0  502  0.65704917592E+03 -0.10285604466E+03 -0.10236189938E+04  0.12206926079E+04  0.12699999809E+01 0. -1.
</event>
<event>
 5   0  0.2542737E-04  0.1475443E+04  0.7818609E-02  0.8900949E-01
       -1   -1    0    0    0  501  0.00000000000E+00  0.00000000000E+00  0.26842256299E+03  0.26842256303E+03  0.50400001928E-02 0.  1.
        1   -1    0    0  501    0  0.00000000000E+00  0.00000000000E+00 -0.20275226676E+04  0.20275226676E+04  0.50400001928E-02 0. -1.
    10030    2    1    2    0    0  0.00000000000E+00  0.00000000000E+00 -0.17591001046E+04  0.22959452306E+04  0.14754427553E+04 0.  0.
        1    1    3    3  502    0 -0.10099149321E+03  0.57009375225E+03 -0.15909928762E+04  0.16930636433E+04  0.50400001928E-02 0. -1.
       -1    1    3    3    0  502  0.10099149321E+03 -0.57009375225E+03 -0.16810722835E+03  0.60288158730E+03  0.50400001928E-02 0.  1.
</event>
<event>
 5   0  0.4569211E-04  0.1510780E+04  0.7818609E-02  0.8877316E-01
       -2   -1    0    0    0  501  0.00000000000E+00  0.00000000000E+00  0.49133024920E+03  0.49133024921E+03  0.25500000920E-02 0. -1.
        2   -1    0    0  501    0  0.00000000000E+00  0.00000000000E+00 -0.11613662392E+04  0.11613662392E+04  0.25500000920E-02 0.  1.
    10030    2    1    2    0    0  0.00000000000E+00  0.00000000000E+00 -0.67003598999E+03  0.16526964884E+04  0.15107804125E+04 0.  0.
        5    1    3    3  502    0 -0.51894572538E+03 -0.30157385925E+03  0.16669290359E+03  0.62294467859E+03  0.46999998093E+01 0. -1.
       -5    1    3    3    0  502  0.51894572538E+03  0.30157385925E+03 -0.83672889357E+03  0.10297518098E+04  0.46999998093E+01 0.  1.
</event>
<event>
 5   0  0.4726600E-04  0.1484188E+04  0.7818609E-02  0.8895036E-01
       -2   -1    0    0    0  501  0.00000000000E+00  0.00000000000E+00  0.21568284741E+03  0.21568284742E+03  0.25500000920E-02 0. -1.
        2   -1    0    0  501    0  0.00000000000E+00  0.00000000000E+00 -0.25533034658E+04  0.25533034658E+04  0.25500000920E-02 0.  1.
    10030    2    1    2    0    0  0.00000000000E+00  0.00000000000E+00 -0.23376206184E+04  0.27689863133E+04  0.14841883463E+04 0.  0.
        2    1    3    3  502    0 -0.41023744973E+03  0.60830528800E+03 -0.96128020042E+03  0.12092930630E+04  0.25500000920E-02 0.  1.
       -2    1    3    3    0  502  0.41023744973E+03 -0.60830528800E+03 -0.13763404180E+04  0.15596932502E+04  0.25500000920E-02 0. -1.
</event>
<event>
 5   0  0.2603873E-04  0.1532227E+04  0.7818609E-02  0.8863301E-01
       -1   -1    0    0    0  501  0.00000000000E+00  0.00000000000E+00  0.48072734770E+03  0.48072734773E+03  0.50400001928E-02 0.  1.
        1   -1    0    0  501    0  0.00000000000E+00  0.00000000000E+00 -0.12209198991E+04  0.12209198991E+04  0.50400001928E-02 0. -1.
    10030    2    1    2    0    0  0.00000000000E+00  0.00000000000E+00 -0.74019255142E+03  0.17016472469E+04  0.15322265954E+04 0.  0.
        2    1    3    3  502    0 -0.27292031440E+03 -0.32825073762E+03  0.33640141775E+03  0.54350709161E+03  0.25500000920E-02 0.  1.
       -2    1    3    3    0  502  0.27292031440E+03  0.32825073762E+03 -0.10765939692E+04  0.11581401553E+04  0.25500000920E-02 0. -1.
</event>
<event>
 5   0  0.2542737E-04  0.1493974E+04  0.7818609E-02  0.8888470E-01
        1   -1    0    0  501    0  0.00000000000E+00  0.00000000000E+00  0.11669967916E+04  0.11669967916E+04  0.50400001928E-02 0.  1.
       -1   -1    0    0    0  501  0.00000000000E+00  0.00000000000E+00 -0.47814119848E+03  0.47814119851E+03  0.50400001928E-02 0. -1.
    10030    2    1    2    0    0  0.00000000000E+00  0.00000000000E+00  0.68885559310E+03  0.16451379901E+04  0.14939735534E+04 0.  0.
        1    1    3    3  502    0  0.44935154201E+02  0.58039442069E+03 -0.17102973857E+03  0.60673554630E+03  0.50400001928E-02 0. -1.
       -1    1    3    3    0  502 -0.44935154201E+02 -0.58039442069E+03  0.85988533167E+03  0.10384024438E+04  0.50400001928E-02 0.  1.
</event>
<event>
 5   0  0.2605471E-04  0.1491335E+04  0.7818609E-02  0.8890236E-01
        1   -1    0    0  501    0  0.00000000000E+00  0.00000000000E+00  0.12188540347E+04  0.12188540347E+04  0.50400001928E-02 0.  1.
       -1   -1    0    0    0  501  0.00000000000E+00  0.00000000000E+00 -0.45618247543E+03  0.45618247545E+03  0.50400001928E-02 0. -1.
    10030    2    1    2    0    0  0.00000000000E+00  0.00000000000E+00  0.76267155930E+03  0.16750365102E+04  0.14913347723E+04 0.  0.
        3    1    3    3  502    0 -0.74719174177E+02  0.50386828871E+03  0.99298265032E+03  0.11160110938E+04  0.10100000352E+00 0.  1.
       -3    1    3    3    0  502  0.74719174177E+02 -0.50386828871E+03 -0.23031109102E+03  0.55902541643E+03  0.10100000352E+00 0. -1.
</event>
<event>
 5   0  0.2542737E-04  0.1496830E+04  0.7818609E-02  0.8886564E-01
       -1   -1    0    0    0  501  0.00000000000E+00  0.00000000000E+00  0.43224181455E+03  0.43224181458E+03  0.50400001928E-02 0. -1.
        1   -1    0    0  501    0  0.00000000000E+00  0.00000000000E+00 -0.12958596540E+04  0.12958596540E+04  0.50400001928E-02 0.  1.
    10030    2    1    2    0    0  0.00000000000E+00  0.00000000000E+00 -0.86361783944E+03  0.17281014686E+04  0.14968296206E+04 0.  0.
        1    1    3    3  502    0  0.31236326894E+03 -0.67442193051E+03 -0.53317559929E+03  0.91470868140E+03  0.50400001928E-02 0. -1.
       -1    1    3    3    0  502 -0.31236326894E+03  0.67442193051E+03 -0.33044224015E+03  0.81339278718E+03  0.50400001928E-02 0.  1.
</event>
<event>
 5   0  0.2544374E-04  0.1506139E+04  0.7818609E-02  0.8880381E-01
       -1   -1    0    0    0  501  0.00000000000E+00  0.00000000000E+00  0.45998660071E+03  0.45998660074E+03  0.50400001928E-02 0.  1.
        1   -1    0    0  501    0  0.00000000000E+00  0.00000000000E+00 -0.12328911447E+04  0.12328911447E+04  0.50400001928E-02 0. -1.
    10030    2    1    2    0    0  0.00000000000E+00  0.00000000000E+00 -0.77290454400E+03  0.16928777455E+04  0.15061386480E+04 0.  0.
        4    1    3    3  502    0 -0.70974203087E+03  0.21918260158E+03 -0.52564972391E+03  0.90999121335E+03  0.12699999809E+01 0. -1.
       -4    1    3    3    0  502  0.70974203087E+03 -0.21918260158E+03 -0.24725482009E+03  0.78288653212E+03  0.12699999809E+01 0.  1.
</event>
<event>
 5   0  0.2544374E-04  0.1485791E+04  0.7818609E-02  0.8893957E-01
        1   -1    0    0  501    0  0.00000000000E+00  0.00000000000E+00  0.93413178857E+03  0.93413178859E+03  0.50400001928E-02 0.  1.
       -1   -1    0    0    0  501  0.00000000000E+00  0.00000000000E+00 -0.59080938160E+03  0.59080938162E+03  0.50400001928E-02 0. -1.
    10030    2    1    2    0    0  0.00000000000E+00  0.00000000000E+00  0.34332240697E+03  0.15249411702E+04  0.14857911352E+04 0.  0.
        4    1    3    3  502    0  0.71290107008E+02 -0.10102938670E+03 -0.58017264272E+03  0.59320411715E+03  0.12699999809E+01 0. -1.
       -4    1    3    3    0  502 -0.71290107008E+02  0.10102938670E+03  0.92349504970E+03  0.93173705306E+03  0.12699999809E+01 0.  1.
</event>
<event>
 5   0  0.2605471E-04  0.1509425E+04  0.7818609E-02  0.8878209E-01
        1   -1    0    0  501    0  0.00000000000E+00  0.00000000000E+00  0.72726800751E+03  0.72726800753E+03  0.50400001928E-02 0. -1.
       -1   -1    0    0    0  501  0.00000000000E+00  0.00000000000E+00 -0.78319287067E+03  0.78319287069E+03  0.50400001928E-02 0.  1.
    10030    2    1    2    0    0  0.00000000000E+00  0.00000000000E+00 -0.55924863158E+02  0.15104608782E+04  0.15094252132E+04 0.  0.
        3    1    3    3  502    0  0.47086113193E+03 -0.55051036805E+03 -0.23981323383E+03  0.76307422196E+03  0.10100000352E+00 0.  1.
       -3    1    3    3    0  502 -0.47086113193E+03  0.55051036805E+03  0.18388837067E+03  0.74738665626E+03  0.10100000352E+00 0. -1.
</event>
<event>
 5   0  0.4726600E-04  0.1490048E+04  0.7818609E-02  0.8891098E-01
       -2   -1    0    0    0  501  0.00000000000E+00  0.00000000000E+00  0.27584757436E+03  0.27584757437E+03  0.25500000920E-02 0. -1.
        2   -1    0    0  501    0  0.00000000000E+00  0.00000000000E+00 -0.20121998002E+04  0.20121998002E+04  0.25500000920E-02 0.  1.
    10030    2    1    2    0    0  0.00000000000E+00  0.00000000000E+00 -0.17363522258E+04  0.22880473746E+04  0.14900475617E+04 0.  0.
        2    1    3    3  502    0 -0.63702740231E+03 -0.35815754916E+03 -0.10905913020E+04  0.13128100127E+04  0.25500000920E-02 0. -1.
       -2    1    3    3    0  502  0.63702740231E+03  0.35815754916E+03 -0.64576092382E+03  0.97523736191E+03  0.25500000920E-02 0.  1.
</event>
<event>
 5   0  0.2565416E-04  0.1353298E+04  0.7818609E-02  0.8988335E-01
        1   -1    0    0  501    0  0.00000000000E+00  0.00000000000E+00  0.58971649903E+03  0.58971649905E+03  0.50400001928E-02 0.  1.
       -1   -1    0    0    0  501  0.00000000000E+00  0.00000000000E+00 -0.77639638303E+03  0.77639638305E+03  0.50400001928E-02 0. -1.
    10030    2    1    2    0    0  0.00000000000E+00  0.00000000000E+00 -0.18667988400E+03  0.13661128821E+04  0.13532978340E+04 0.  0.
        5    1    3    3  502    0 -0.22301879175E+03 -0.50415769473E+03  0.30270069076E+03  0.62893732662E+03  0.46999998093E+01 0.  1.
       -5    1    3    3    0  502  0.22301879175E+03  0.50415769473E+03 -0.48938057476E+03  0.73717555547E+03  0.46999998093E+01 0. -1.
</event>
<event>
 5   0  0.4948645E-04  0.1493354E+04  0.7818609E-02  0.8888884E-01
       -2   -1    0    0    0  501  0.00000000000E+00  0.00000000000E+00  0.36208412550E+03  0.36208412551E+03  0.25500000920E-02 0.  1.
        2   -1    0    0  501    0  0.00000000000E+00  0.00000000000E+00 -0.15397709173E+04  0.15397709173E+04  0.25500000920E-02 0. -1.
    10030    2    1    2    0    0  0.00000000000E+00  0.00000000000E+00 -0.11776867918E+04  0.19018550428E+04  0.14933540854E+04 0.  0.
        1    1    3    3  502    0  0.71838602109E+03  0.16907782449E+03 -0.44441621040E+03  0.86149379227E+03  0.50400001928E-02 0.  1.
       -1    1    3    3    0  502 -0.71838602109E+03 -0.16907782449E+03 -0.73327058138E+03  0.10403612505E+04  0.50400001928E-02 0. -1.
</event>
<event>
 5   0  0.2605471E-04  0.1491626E+04  0.7818609E-02  0.8890041E-01
       -1   -1    0    0    0  501  0.00000000000E+00  0.00000000000E+00  0.77865268824E+03  0.77865268826E+03  0.50400001928E-02 0.  1.
        1   -1    0    0  501    0  0.00000000000E+00  0.00000000000E+00 -0.71435852487E+03  0.71435852489E+03  0.50400001928E-02 0. -1.
    10030    2    1    2    0    0  0.00000000000E+00  0.00000000000E+00  0.64294163374E+02  0.14930112131E+04  0.14916262076E+04 0.  0.
        3    1    3    3  502    0  0.46552221257E+03  0.11291562609E+03  0.60432137796E+03  0.77114538647E+03  0.10100000352E+00 0.  1.
       -3    1    3    3    0  502 -0.46552221257E+03 -0.11291562609E+03 -0.54002721459E+03  0.72186582667E+03  0.10100000352E+00 0. -1.
</event>
<event>
 5   0  0.4948645E-04  0.1503318E+04  0.7818609E-02  0.8882250E-01
       -2   -1    0    0    0  501  0.00000000000E+00  0.00000000000E+00  0.39786666311E+03  0.39786666312E+03  0.25500000920E-02 0.  1.
        2   -1    0    0  501    0  0.00000000000E+00  0.00000000000E+00 -0.14200508472E+04  0.14200508472E+04  0.25500000920E-02 0. -1.
    10030    2    1    2    0    0  0.00000000000E+00  0.00000000000E+00 -0.10221841840E+04  0.18179175103E+04  0.15033175207E+04 0.  0.
        1    1    3    3  502    0 -0.29632974687E+03 -0.68921885491E+03 -0.45493006133E+03  0.87737979780E+03  0.50400001928E-02 0.  1.
       -1    1    3    3    0  502  0.29632974687E+03  0.68921885491E+03 -0.56725412272E+03  0.94053771249E+03  0.50400001928E-02 0. -1.
</event>
<event>
 5   0  0.2542737E-04  0.1500182E+04  0.7818609E-02  0.8884332E-01
       -1   -1    0    0    0  501  0.00000000000E+00  0.00000000000E+00  0.34656593749E+03  0.34656593753E+03  0.50400001928E-02 0.  1.
        1   -1    0    0  501    0  0.00000000000E+00  0.00000000000E+00 -0.16234610514E+04  0.16234610514E+04  0.50400001928E-02 0. -1.
    10030    2    1    2    0    0  0.00000000000E+00  0.00000000000E+00 -0.12768951139E+04  0.19700269889E+04  0.15001817241E+04 0.  0.
        1    1    3    3  502    0 -0.43496422222E+02 -0.71325164441E+03 -0.93794883366E+03  0.11791386100E+04  0.50400001928E-02 0.  1.
       -1    1    3    3    0  502  0.43496422222E+02  0.71325164441E+03 -0.33894628023E+03  0.79088837892E+03  0.50400001928E-02 0. -1.
</event>
<event>
 5   0  0.4569211E-04  0.1487208E+04  0.7818609E-02  0.8893004E-01
        2   -1    0    0  501    0  0.00000000000E+00  0.00000000000E+00  0.17548260257E+04  0.17548260257E+04  0.25500000920E-02 0.  1.
       -2   -1    0    0    0  501  0.00000000000E+00  0.00000000000E+00 -0.31510080198E+03  0.31510080199E+03  0.25500000920E-02 0. -1.
    10030    2    1    2    0    0  0.00000000000E+00  0.00000000000E+00  0.14397252238E+04  0.20699268277E+04  0.14872082411E+04 0.  0.
        5    1    3    3  502    0  0.50931521568E+02 -0.60295122370E+03  0.11834364538E+03  0.61658049470E+03  0.46999998093E+01 0. -1.
       -5    1    3    3    0  502 -0.50931521568E+02  0.60295122370E+03  0.13213815784E+04  0.14533463330E+04  0.46999998093E+01 0.  1.
</event>
<event>
 5   0  0.2603873E-04  0.1523638E+04  0.7818609E-02  0.8868884E-01
       -1   -1    0    0    0  501  0.00000000000E+00  0.00000000000E+00  0.32899616136E+03  0.32899616140E+03  0.50400001928E-02 0. -1.
        1   -1    0    0  501    0  0.00000000000E+00  0.00000000000E+00 -0.17640577901E+04  0.17640577901E+04  0.50400001928E-02 0.  1.
    10030    2    1    2    0    0  0.00000000000E+00  0.00000000000E+00 -0.14350616288E+04  0.20930539515E+04  0.15236380691E+04 0.  0.
        2    1    3    3  502    0 -0.53803779827E+03 -0.14527486668E+03 -0.14310448206E+04  0.15357339411E+04  0.25500000920E-02 0.  1.
       -2    1    3    3    0  502  0.53803779827E+03  0.14527486668E+03 -0.40168081501E+01  0.55732001042E+03  0.25500000920E-02 0. -1.
</event>
<event>
 5   0  0.4768387E-04  0.1473989E+04  0.7818609E-02  0.8901937E-01
       -2   -1    0    0    0  501  0.00000000000E+00  0.00000000000E+00  0.53916949555E+03  0.53916949556E+03  0.25500000920E-02 0.  1.
        2   -1    0    0  501    0  0.00000000000E+00  0.00000000000E+00 -0.10074027293E+04  0.10074027293E+04  0.25500000920E-02 0. -1.
    10030    2    1    2    0    0  0.00000000000E+00  0.00000000000E+00 -0.46823323371E+03  0.15465722248E+04  0.14739889028E+04 0.  0.
        3    1    3    3  502    0  0.28084806334E+03 -0.17638318201E+03 -0.92468590222E+03  0.98235975566E+03  0.10100000352E+00 0. -1.
       -3    1    3    3    0  502 -0.28084806334E+03  0.17638318201E+03  0.45645266851E+03  0.56421246917E+03  0.10100000352E+00 0.  1.
</event>
<event>
 5   0  0.4726600E-04  0.1496893E+04  0.7818609E-02  0.8886522E-01
        2   -1    0    0  501    0  0.00000000000E+00  0.00000000000E+00  0.15678411870E+04  0.15678411870E+04  0.25500000920E-02 0. -1.
       -2   -1    0    0    0  501  0.00000000000E+00  0.00000000000E+00 -0.35728875134E+03  0.35728875135E+03  0.25500000920E-02 0.  1.
    10030    2    1    2    0    0  0.00000000000E+00  0.00000000000E+00  0.12105524357E+04  0.19251299384E+04  0.14968928085E+04 0.  0.
        2    1    3    3  502    0 -0.48876400040E+03 -0.51607522856E+03  0.30380503418E+03  0.77299507659E+03  0.25500000920E-02 0.  1.
       -2    1    3    3    0  502  0.48876400040E+03  0.51607522856E+03  0.90674740152E+03  0.11521348618E+04  0.25500000920E-02 0. -1.
</event>
<event>
 5   0  0.1792000E-04  0.1488180E+04  0.7818609E-02  0.8892351E-01
       -4   -1    0    0    0  501  0.00000000000E+00  0.00000000000E+00  0.90871205150E+03  0.90871293896E+03  0.12699999809E+01 0.  1.
        4   -1    0    0  501    0  0.00000000000E+00  0.00000000000E+00 -0.60928911410E+03  0.60929043769E+03  0.12699999809E+01 0. -1.
    10030    2    1    2    0    0  0.00000000000E+00  0.00000000000E+00  0.29942293740E+03  0.15180033767E+04  0.14881801491E+04 0.  0.
        3    1    3    3  502    0  0.46901729933E+03  0.50508175742E+03  0.43565986638E+03  0.81540440159E+03  0.10100000352E+00 0.  1.
       -3    1    3    3    0  502 -0.46901729933E+03 -0.50508175742E+03 -0.13623692898E+03  0.70259897507E+03  0.10100000352E+00 0. -1.
</event>
<event>
 5   0  0.4569211E-04  0.1501585E+04  0.7818609E-02  0.8883399E-01
       -2   -1    0    0    0  501  0.00000000000E+00  0.00000000000E+00  0.54356383696E+03  0.54356383696E+03  0.25500000920E-02 0. -1.
        2   -1    0    0  501    0  0.00000000000E+00  0.00000000000E+00 -0.10370256111E+04  0.10370256111E+04  0.25500000920E-02 0.  1.
    10030    2    1    2    0    0  0.00000000000E+00  0.00000000000E+00 -0.49346177416E+03  0.15805894481E+04  0.15015853225E+04 0.  0.
        5    1    3    3  502    0  0.11241198980E+03 -0.70043246714E+03  0.12018274927E+02  0.70951294943E+03  0.46999998093E+01 0. -1.
       -5    1    3    3    0  502 -0.11241198980E+03  0.70043246714E+03 -0.50548004908E+03  0.87107649865E+03  0.46999998093E+01 0.  1.
</event>
<event>
 5   0  0.4569211E-04  0.1498860E+04  0.7818609E-02  0.8885211E-01
        2   -1    0    0  501    0  0.00000000000E+00  0.00000000000E+00  0.16430321513E+04  0.16430321513E+04  0.25500000920E-02 0. -1.
       -2   -1    0    0    0  501  0.00000000000E+00  0.00000000000E+00 -0.34183471910E+03  0.34183471911E+03  0.25500000920E-02 0.  1.
    10030    2    1    2    0    0  0.00000000000E+00  0.00000000000E+00  0.13011974322E+04  0.19848668705E+04  0.14988601455E+04 0.  0.
        5    1    3    3  502    0  0.56186278602E+03 -0.42682356920E+03  0.98496929588E+03  0.12116330935E+04  0.46999998093E+01 0. -1.
       -5    1    3    3    0  502 -0.56186278602E+03  0.42682356920E+03  0.31622813636E+03  0.77323377691E+03  0.46999998093E+01 0.  1.
</event>
<event>
 5   0  0.4768387E-04  0.1484313E+04  0.7818609E-02  0.8894952E-01
        2   -1    0    0  501    0  0.00000000000E+00  0.00000000000E+00  0.11223281930E+04  0.11223281931E+04  0.25500000920E-02 0. -1.
       -2   -1    0    0    0  501  0.00000000000E+00  0.00000000000E+00 -0.49076245059E+03  0.49076245060E+03  0.25500000920E-02 0.  1.
    10030    2    1    2    0    0  0.00000000000E+00  0.00000000000E+00  0.63156574245E+03  0.16130906437E+04  0.14843133556E+04 0.  0.
        3    1    3    3  502    0 -0.45303537159E+02  0.73900101771E+03  0.26013901987E+03  0.78475934815E+03  0.10100000352E+00 0.  1.
       -3    1    3    3    0  502  0.45303537159E+02 -0.73900101771E+03  0.37142672258E+03  0.82833129550E+03  0.10100000352E+00 0. -1.
</event>
<event>
 5   0  0.4948645E-04  0.1491763E+04  0.7818609E-02  0.8889949E-01
       -2   -1    0    0    0  501  0.00000000000E+00  0.00000000000E+00  0.88571879087E+03  0.88571879088E+03  0.25500000920E-02 0. -1.
        2   -1    0    0  501    0  0.00000000000E+00  0.00000000000E+00 -0.62812135027E+03  0.62812135028E+03  0.25500000920E-02 0.  1.
    10030    2    1    2    0    0  0.00000000000E+00  0.00000000000E+00  0.25759744060E+03  0.15138401412E+04  0.14917625587E+04 0.  0.
        1    1    3    3  502    0  0.19586750751E+03 -0.19414298599E+03  0.83208000217E+03  0.87659152948E+03  0.50400001928E-02 0. -1.
       -1    1    3    3    0  502 -0.19586750751E+03  0.19414298599E+03 -0.57448256157E+03  0.63724861168E+03  0.50400001928E-02 0.  1.
</event>
<event>
 5   0  0.2565416E-04  0.1496657E+04  0.7818609E-02  0.8886679E-01
       -1   -1    0    0    0  501  0.00000000000E+00  0.00000000000E+00  0.41300098270E+03  0.41300098273E+03  0.50400001928E-02 0.  1.
        1   -1    0    0  501    0  0.00000000000E+00  0.00000000000E+00 -0.13559182112E+04  0.13559182112E+04  0.50400001928E-02 0. -1.
    10030    2    1    2    0    0  0.00000000000E+00  0.00000000000E+00 -0.94291722847E+03  0.17689191939E+04  0.14966570131E+04 0.  0.
        5    1    3    3  502    0  0.22743657264E+03  0.48801250429E+00  0.37114364983E+03  0.43531291221E+03  0.46999998093E+01 0.  1.
       -5    1    3    3    0  502 -0.22743657264E+03 -0.48801250429E+00 -0.13140608783E+04  0.13336062817E+04  0.46999998093E+01 0. -1.
</event>
<event>
 5   0  0.2542737E-04  0.1522939E+04  0.7818609E-02  0.8869340E-01
       -1   -1    0    0    0  501  0.00000000000E+00  0.00000000000E+00  0.44412204467E+03  0.44412204470E+03  0.50400001928E-02 0. -1.
        1   -1    0    0  501    0  0.00000000000E+00  0.00000000000E+00 -0.13055784288E+04  0.13055784288E+04  0.50400001928E-02 0.  1.
    10030    2    1    2    0    0  0.00000000000E+00  0.00000000000E+00 -0.86145638415E+03  0.17497004735E+04  0.15229394753E+04 0.  0.
        1    1    3    3  502    0  0.70178769135E+03 -0.10545724173E+03 -0.74789235168E+03  0.10310044439E+04  0.50400001928E-02 0.  1.
       -1    1    3    3    0  502 -0.70178769135E+03  0.10545724173E+03 -0.11356403247E+03  0.71869602966E+03  0.50400001928E-02 0. -1.
</event>
<event>
 5   0  0.1792000E-04  0.1501858E+04  0.7818609E-02  0.8883218E-01
        3   -1    0    0  501    0  0.00000000000E+00  0.00000000000E+00  0.41471322010E+03  0.41471323240E+03  0.10100000352E+00 0. -1.
       -3   -1    0    0    0  501  0.00000000000E+00  0.00000000000E+00 -0.13597218450E+04  0.13597218487E+04  0.10100000352E+00 0.  1.
    10030    2    1    2    0    0  0.00000000000E+00  0.00000000000E+00 -0.94500862489E+03  0.17744350811E+04  0.15018583675E+04 0.  0.
        5    1    3    3  502    0 -0.13546718982E+03  0.13083383555E+02  0.40000244869E+03  0.42254772914E+03  0.46999998093E+01 0. -1.
       -5    1    3    3    0  502  0.13546718982E+03 -0.13083383555E+02 -0.13450110736E+04  0.13518873520E+04  0.46999998093E+01 0.  1.
</event>
<event>
 5   0  0.4726600E-04  0.1481640E+04  0.7818609E-02  0.8896755E-01
        2   -1    0    0  501    0  0.00000000000E+00  0.00000000000E+00  0.20218218562E+04  0.20218218562E+04  0.25500000920E-02 0. -1.
       -2   -1    0    0    0  501  0.00000000000E+00  0.00000000000E+00 -0.27144544929E+03  0.27144544930E+03  0.25500000920E-02 0.  1.
    10030    2    1    2    0    0  0.00000000000E+00  0.00000000000E+00  0.17503764069E+04  0.22932673055E+04  0.14816400942E+04 0.  0.
        2    1    3    3  502    0  0.18793283669E+02  0.51008479790E+03  0.44161102161E+02  0.51233767333E+03  0.25500000920E-02 0.  1.
       -2    1    3    3    0  502 -0.18793283669E+02 -0.51008479790E+03  0.17062153048E+04  0.17809296322E+04  0.25500000920E-02 0. -1.
</event>
<event>
 5   0  0.2603873E-04  0.1505876E+04  0.7818609E-02  0.8880555E-01
        1   -1    0    0  501    0  0.00000000000E+00  0.00000000000E+00  0.52242199443E+03  0.52242199445E+03  0.50400001928E-02 0. -1.
       -1   -1    0    0    0  501  0.00000000000E+00  0.00000000000E+00 -0.10851683709E+04  0.10851683709E+04  0.50400001928E-02 0.  1.
    10030    2    1    2    0    0  0.00000000000E+00  0.00000000000E+00 -0.56274637647E+03  0.16075903654E+04  0.15058762561E+04 0.  0.
        2    1    3    3  502    0 -0.52697015666E+03 -0.50522041877E+03 -0.47813361833E+03  0.87267231796E+03  0.25500000920E-02 0.  1.
       -2    1    3    3    0  502  0.52697015666E+03  0.50522041877E+03 -0.84612758134E+02  0.73491804740E+03  0.25500000920E-02 0. -1.
</event>
<event>
 5   0  0.4948645E-04  0.1510307E+04  0.7818609E-02  0.8877628E-01
       -2   -1    0    0    0  501  0.00000000000E+00  0.00000000000E+00  0.90046095338E+03  0.90046095338E+03  0.25500000920E-02 0.  1.
        2   -1    0    0  501    0  0.00000000000E+00  0.00000000000E+00 -0.63329402407E+03  0.63329402408E+03  0.25500000920E-02 0. -1.
    10030    2    1    2    0    0  0.00000000000E+00  0.00000000000E+00  0.26716692931E+03  0.15337549775E+04  0.15103066453E+04 0.  0.
        1    1    3    3  502    0 -0.51696742248E+03 -0.41788540707E+01 -0.42540201756E+03  0.66950702408E+03  0.50400001928E-02 0. -1.
       -1    1    3    3    0  502  0.51696742248E+03  0.41788540707E+01  0.69256894687E+03  0.86424795338E+03  0.50400001928E-02 0.  1.
</event>
<event>
 5   0  0.4569211E-04  0.1496088E+04  0.7818609E-02  0.8887059E-01
        2   -1    0    0  501    0  0.00000000000E+00  0.00000000000E+00  0.15410222498E+04  0.15410222498E+04  0.25500000920E-02 0. -1.
       -2   -1    0    0    0  501  0.00000000000E+00  0.00000000000E+00 -0.36311578926E+03  0.36311578927E+03  0.25500000920E-02 0.  1.
    10030    2    1    2    0    0  0.00000000000E+00  0.00000000000E+00  0.11779064606E+04  0.19041380391E+04  0.14960875783E+04 0.  0.
        5    1    3    3  502    0  0.22539756568E+03 -0.47877911890E+03  0.12618417629E+04  0.13683202228E+04  0.46999998093E+01 0. -1.
       -5    1    3    3    0  502 -0.22539756568E+03  0.47877911890E+03 -0.83935302396E+02  0.53581781633E+03  0.46999998093E+01 0.  1.
</event>
<event>
 5   0  0.1792000E-04  0.1495434E+04  0.7818609E-02  0.8887495E-01
        3   -1    0    0  501    0  0.00000000000E+00  0.00000000000E+00  0.27381293041E+03  0.27381294904E+03  0.10100000352E+00 0. -1.
       -3   -1    0    0    0  501  0.00000000000E+00  0.00000000000E+00 -0.20418334826E+04  0.20418334851E+04  0.10100000352E+00 0.  1.
    10030    2    1    2    0    0  0.00000000000E+00  0.00000000000E+00 -0.17680205522E+04  0.23156464341E+04  0.14954336277E+04 0.  0.
        5    1    3    3  502    0 -0.25008812941E+03  0.23297820423E+03  0.14573989499E+03  0.37159806660E+03  0.46999998093E+01 0. -1.
       -5    1    3    3    0  502  0.25008812941E+03 -0.23297820423E+03 -0.19137604471E+04  0.19440483675E+04  0.46999998093E+01 0.  1.
</event>
<event>
 5   0  0.2605471E-04  0.1496911E+04  0.7818609E-02  0.8886510E-01
        1   -1    0    0  501    0  0.00000000000E+00  0.00000000000E+00  0.13229557564E+04  0.13229557564E+04  0.50400001928E-02 0. -1.
       -1   -1    0    0    0  501  0.00000000000E+00  0.00000000000E+00 -0.42343474324E+03  0.42343474327E+03  0.50400001928E-02 0.  1.
    10030    2    1    2    0    0  0.00000000000E+00  0.00000000000E+00  0.89952101314E+03  0.17463904997E+04  0.14969107269E+04 0.  0.
        3    1    3    3  502    0 -0.29591347614E+03  0.68721826758E+03  0.42788166318E+03  0.86192601802E+03  0.10100000352E+00 0.  1.
       -3    1    3    3    0  502  0.29591347614E+03 -0.68721826758E+03  0.47163934996E+03  0.88446448164E+03  0.10100000352E+00 0. -1.
</event>
<event>
 5   0  0.2565416E-04  0.1500459E+04  0.7818609E-02  0.8884148E-01
       -1   -1    0    0    0  501  0.00000000000E+00  0.00000000000E+00  0.93359686606E+03  0.93359686608E+03  0.50400001928E-02 0. -1.
        1   -1    0    0  501    0  0.00000000000E+00  0.00000000000E+00 -0.60287718747E+03  0.60287718749E+03  0.50400001928E-02 0.  1.
    10030    2    1    2    0    0  0.00000000000E+00  0.00000000000E+00  0.33071967859E+03  0.15364740536E+04  0.15004589336E+04 0.  0.
        5    1    3    3  502    0  0.17533831560E+03  0.14600787656E+03 -0.56646930352E+03  0.61071383377E+03  0.46999998093E+01 0.  1.
       -5    1    3    3    0  502 -0.17533831560E+03 -0.14600787656E+03  0.89718898211E+03  0.92576021979E+03  0.46999998093E+01 0. -1.
</event>
<event>
 5   0  0.4948645E-04  0.1410134E+04  0.7818609E-02  0.8946515E-01
       -2   -1    0    0    0  501  0.00000000000E+00  0.00000000000E+00  0.62500949950E+03  0.62500949950E+03  0.25500000920E-02 0.  1.
        2   -1    0    0  501    0  0.00000000000E+00  0.00000000000E+00 -0.79537941144E+03  0.79537941145E+03  0.25500000920E-02 0. -1.
    10030    2    1    2    0    0  0.00000000000E+00  0.00000000000E+00 -0.17036991195E+03  0.14203889109E+04  0.14101343026E+04 0.  0.
        1    1    3    3  502    0 -0.33160706371E+03  0.54598930171E+02  0.53914126022E+03  0.63530904792E+03  0.50400001928E-02 0.  1.
       -1    1    3    3    0  502  0.33160706371E+03 -0.54598930171E+02 -0.70951117216E+03  0.78507986303E+03  0.50400001928E-02 0. -1.
</event>
<event>
 5   0  0.4785496E-04  0.1509497E+04  0.7818609E-02  0.8878162E-01
       -2   -1    0    0    0  501  0.00000000000E+00  0.00000000000E+00  0.62745097399E+03  0.62745097399E+03  0.25500000920E-02 0.  1.
        2   -1    0    0  501    0  0.00000000000E+00  0.00000000000E+00 -0.90787247226E+03  0.90787247226E+03  0.25500000920E-02 0. -1.
    10030    2    1    2    0    0  0.00000000000E+00  0.00000000000E+00 -0.28042149827E+03  0.15353234463E+04  0.15094972236E+04 0.  0.
        4    1    3    3  502    0  0.64903105175E+03 -0.23649536675E+03  0.16908491959E+03  0.71116994282E+03  0.12699999809E+01 0.  1.
       -4    1    3    3    0  502 -0.64903105175E+03  0.23649536675E+03 -0.44950641786E+03  0.82415350344E+03  0.12699999809E+01 0. -1.
</event>
<event>
 5   0  0.1792000E-04  0.1503062E+04  0.7818609E-02  0.8882419E-01
        4   -1    0    0  501    0  0.00000000000E+00  0.00000000000E+00  0.44826043011E+03  0.44826222917E+03  0.12699999809E+01 0. -1.
       -4   -1    0    0    0  501  0.00000000000E+00  0.00000000000E+00 -0.12599746095E+04  0.12599752495E+04  0.12699999809E+01 0.  1.
    10030    2    1    2    0    0  0.00000000000E+00  0.00000000000E+00 -0.81171417937E+03  0.17082374787E+04  0.15030619996E+04 0.  0.
        4    1    3    3  502    0 -0.31578400674E+03 -0.27797739719E+02 -0.11802707777E+04  0.12221018676E+04  0.12699999809E+01 0.  1.
       -4    1    3    3    0  502  0.31578400674E+03  0.27797739719E+02  0.36855659836E+03  0.48613561105E+03  0.12699999809E+01 0. -1.
</event>
<event>
 5   0  0.2544374E-04  0.1496691E+04  0.7818609E-02  0.8886656E-01
       -1   -1    0    0    0  501  0.00000000000E+00  0.00000000000E+00  0.45653433375E+03  0.45653433378E+03  0.50400001928E-02 0. -1.
        1   -1    0    0  501    0  0.00000000000E+00  0.00000000000E+00 -0.12266787968E+04  0.12266787968E+04  0.50400001928E-02 0.  1.
    10030    2    1    2    0    0  0.00000000000E+00  0.00000000000E+00 -0.77014446302E+03  0.16832131306E+04  0.14966909998E+04 0.  0.
        4    1    3    3  502    0  0.73980435789E+03 -0.11227551249E+03 -0.37365325417E+03  0.83638187804E+03  0.12699999809E+01 0. -1.
       -4    1    3    3    0  502 -0.73980435789E+03  0.11227551249E+03 -0.39649120884E+03  0.84683125252E+03  0.12699999809E+01 0.  1.
</event>
<event>
 5   0  0.4768387E-04  0.1519205E+04  0.7818609E-02  0.8871781E-01
       -2   -1    0    0    0  501  0.00000000000E+00  0.00000000000E+00  0.72318709008E+03  0.72318709008E+03  0.25500000920E-02 0.  1.
        2   -1    0    0  501    0  0.00000000000E+00  0.00000000000E+00 -0.79785191500E+03  0.79785191500E+03  0.25500000920E-02 0. -1.
    10030    2    1    2    0    0  0.00000000000E+00  0.00000000000E+00 -0.74664824920E+02  0.15210390051E+04  0.15192053248E+04 0.  0.
        3    1    3    3  502    0 -0.15365119145E+03 -0.67349279017E+03  0.27895229766E+03  0.74499370575E+03  0.10100000352E+00 0.  1.
       -3    1    3    3    0  502  0.15365119145E+03  0.67349279017E+03 -0.35361712258E+03  0.77604529934E+03  0.10100000352E+00 0. -1.
</event>
<event>
 5   0  0.2542737E-04  0.1470776E+04  0.7818609E-02  0.8904123E-01
       -1   -1    0    0    0  501  0.00000000000E+00  0.00000000000E+00  0.41745158019E+03  0.41745158022E+03  0.50400001928E-02 0.  1.
        1   -1    0    0  501    0  0.00000000000E+00  0.00000000000E+00 -0.12954679692E+04  0.12954679692E+04  0.50400001928E-02 0. -1.
    10030    2    1    2    0    0  0.00000000000E+00  0.00000000000E+00 -0.87801638901E+03  0.17129195494E+04  0.14707755109E+04 0.  0.
        1    1    3    3  502    0 -0.48201948282E+03 -0.35134453645E+03  0.61933818366E+02  0.59968455290E+03  0.50400001928E-02 0.  1.
       -1    1    3    3    0  502  0.48201948282E+03  0.35134453645E+03 -0.93995020738E+03  0.11132349965E+04  0.50400001928E-02 0. -1.
</event>
<event>
 5   0  0.4569211E-04  0.1459906E+04  0.7818609E-02  0.8911562E-01
       -2   -1    0    0    0  501  0.00000000000E+00  0.00000000000E+00  0.49823783191E+03  0.49823783192E+03  0.25500000920E-02 0. -1.
        2   -1    0    0  501    0  0.00000000000E+00  0.00000000000E+00 -0.10694319335E+04  0.10694319335E+04  0.25500000920E-02 0.  1.
    10030    2    1    2    0    0  0.00000000000E+00  0.00000000000E+00 -0.57119410162E+03  0.15676697655E+04  0.14599060901E+04 0.  0.
        5    1    3    3  502    0  0.14166261421E+03  0.19090257290E+03 -0.10266832199E+04  0.10538560682E+04  0.46999998093E+01 0.  1.
       -5    1    3    3    0  502 -0.14166261421E+03 -0.19090257290E+03  0.45548911825E+03  0.51381369722E+03  0.46999998093E+01 0. -1.
</event>
<event>
 5   0  0.2603873E-04  0.1498179E+04  0.7818609E-02  0.8885665E-01
        1   -1    0    0  501    0  0.00000000000E+00  0.00000000000E+00  0.14801480211E+04  0.14801480211E+04  0.50400001928E-02 0.  1.
       -1   -1    0    0    0  501  0.00000000000E+00  0.00000000000E+00 -0.37910716607E+03  0.37910716610E+03  0.50400001928E-02 0. -1.
    10030    2    1    2    0    0  0.00000000000E+00  0.00000000000E+00  0.11010408550E+04  0.18592551872E+04  0.14981785230E+04 0.  0.
        2    1    3    3  502    0 -0.38231652259E+03  0.50278388011E+03  0.10502905521E+04  0.12255887554E+04  0.25500000920E-02 0.  1.
       -2    1    3    3    0  502  0.38231652259E+03 -0.50278388011E+03  0.50750302945E+02  0.63366643181E+03  0.25500000920E-02 0. -1.
</event>
<event>
 5   0  0.4948645E-04  0.1505634E+04  0.7818609E-02  0.8880715E-01
       -2   -1    0    0    0  501  0.00000000000E+00  0.00000000000E+00  0.36489911614E+03  0.36489911615E+03  0.25500000920E-02 0. -1.
        2   -1    0    0  501    0  0.00000000000E+00  0.00000000000E+00 -0.15531232089E+04  0.15531232089E+04  0.25500000920E-02 0.  1.
    10030    2    1    2    0    0  0.00000000000E+00  0.00000000000E+00 -0.11882240927E+04  0.19180223250E+04  0.15056338017E+04 0.  0.
        1    1    3    3  502    0  0.65381768985E+03  0.20221128768E+03 -0.99364949426E+03  0.12065265409E+04  0.50400001928E-02 0. -1.
       -1    1    3    3    0  502 -0.65381768985E+03 -0.20221128768E+03 -0.19457459848E+03  0.71149578413E+03  0.50400001928E-02 0.  1.
</event>
<event>
 5   0  0.4726600E-04  0.1501946E+04  0.7818609E-02  0.8883160E-01
       -2   -1    0    0    0  501  0.00000000000E+00  0.00000000000E+00  0.74725128025E+03  0.74725128025E+03  0.25500000920E-02 0. -1.
        2   -1    0    0  501    0  0.00000000000E+00  0.00000000000E+00 -0.75471281169E+03  0.75471281170E+03  0.25500000920E-02 0.  1.
    10030    2    1    2    0    0  0.00000000000E+00  0.00000000000E+00 -0.74615314479E+01  0.15019640920E+04  0.15019455580E+04 0.  0.
        2    1    3    3  502    0  0.10581009868E+03 -0.68260813921E+03  0.29090902886E+03  0.74951831984E+03  0.25500000920E-02 0. -1.
       -2    1    3    3    0  502 -0.10581009868E+03  0.68260813921E+03 -0.29837056031E+03  0.75244577211E+03  0.25500000920E-02 0.  1.
</event>
<event>
 5   0  0.1792000E-04  0.1317239E+04  0.7818609E-02  0.9016005E-01
       -3   -1    0    0    0  501  0.00000000000E+00  0.00000000000E+00  0.28539636290E+03  0.28539638077E+03  0.10100000352E+00 0.  1.
        3   -1    0    0  501    0  0.00000000000E+00  0.00000000000E+00 -0.15199208980E+04  0.15199209014E+04  0.10100000352E+00 0. -1.
    10030    2    1    2    0    0  0.00000000000E+00  0.00000000000E+00 -0.12345245351E+04  0.18053172822E+04  0.13172394093E+04 0.  0.
        2    1    3    3  502    0 -0.46722949602E+03 -0.23829140191E+03 -0.71292372664E+02  0.52930973596E+03  0.25500000920E-02 0.  1.
       -2    1    3    3    0  502  0.46722949602E+03  0.23829140191E+03 -0.11632321625E+04  0.12760075462E+04  0.25500000920E-02 0. -1.
</event>
<event>
 5   0  0.2544374E-04  0.1515839E+04  0.7818609E-02  0.8873988E-01
        1   -1    0    0  501    0  0.00000000000E+00  0.00000000000E+00  0.15668538850E+04  0.15668538850E+04  0.50400001928E-02 0. -1.
       -1   -1    0    0    0  501  0.00000000000E+00  0.00000000000E+00 -0.36662136449E+03  0.36662136452E+03  0.50400001928E-02 0.  1.
    10030    2    1    2    0    0  0.00000000000E+00  0.00000000000E+00  0.12002325205E+04  0.19334752496E+04  0.15158391858E+04 0.  0.
        4    1    3    3  502    0  0.41962885221E+03 -0.53184426388E+02  0.14022959373E+04  0.14647021764E+04  0.12699999809E+01 0. -1.
       -4    1    3    3    0  502 -0.41962885221E+03  0.53184426388E+02 -0.20206341679E+03  0.46877307316E+03  0.12699999809E+01 0.  1.
</event>
<event>
 5   0  0.1792000E-04  0.1492661E+04  0.7818609E-02  0.8889348E-01
        3   -1    0    0  501    0  0.00000000000E+00  0.00000000000E+00  0.63903909519E+03  0.63903910317E+03  0.10100000352E+00 0. -1.
       -3   -1    0    0    0  501  0.00000000000E+00  0.00000000000E+00 -0.87163539678E+03  0.87163540263E+03  0.10100000352E+00 0.  1.
    10030    2    1    2    0    0  0.00000000000E+00  0.00000000000E+00 -0.23259630159E+03  0.15106745058E+04  0.14926608533E+04 0.  0.
        3    1    3    3  502    0  0.19761887348E+03  0.36063628234E+03 -0.74662841908E+03  0.85238826463E+03  0.10100000352E+00 0.  1.
       -3    1    3    3    0  502 -0.19761887348E+03 -0.36063628234E+03  0.51403211749E+03  0.65828624117E+03  0.10100000352E+00 0. -1.
</event>
<event>
 5   0  0.4785496E-04  0.1505244E+04  0.7818609E-02  0.8880973E-01
       -2   -1    0    0    0  501  0.00000000000E+00  0.00000000000E+00  0.60200249711E+03  0.60200249711E+03  0.25500000920E-02 0. -1.
        2   -1    0    0  501    0  0.00000000000E+00  0.00000000000E+00 -0.94092615410E+03  0.94092615411E+03  0.25500000920E-02 0.  1.
    10030    2    1    2    0    0  0.00000000000E+00  0.00000000000E+00 -0.33892365700E+03  0.15429286512E+04  0.15052440259E+04 0.  0.
        4    1    3    3  502    0  0.23555535163E+03  0.89548673579E+02 -0.89639417599E+03  0.93114414581E+03  0.12699999809E+01 0.  1.
       -4    1    3    3    0  502 -0.23555535163E+03 -0.89548673579E+02  0.55747051899E+03  0.61178450542E+03  0.12699999809E+01 0. -1.
</event>
<event>
 5   0  0.4569211E-04  0.1537347E+04  0.7818609E-02  0.8859990E-01
       -2   -1    0    0    0  501  0.00000000000E+00  0.00000000000E+00  0.32807951078E+03  0.32807951079E+03  0.25500000920E-02 0. -1.
        2   -1    0    0  501    0  0.00000000000E+00  0.00000000000E+00 -0.18009630550E+04  0.18009630550E+04  0.25500000920E-02 0.  1.
    10030    2    1    2    0    0  0.00000000000E+00  0.00000000000E+00 -0.14728835442E+04  0.21290425658E+04  0.15373471671E+04 0.  0.
        5    1    3    3  502    0 -0.33573948038E+03 -0.20572104295E+03 -0.16506674922E+04  0.16969877448E+04  0.46999998093E+01 0.  1.
       -5    1    3    3    0  502  0.33573948038E+03  0.20572104295E+03  0.17778394796E+03  0.43205482100E+03  0.46999998093E+01 0. -1.
</event>
<event>
 5   0  0.2542737E-04  0.1502180E+04  0.7818609E-02  0.8883005E-01
       -1   -1    0    0    0  501  0.00000000000E+00  0.00000000000E+00  0.26545356949E+03  0.26545356954E+03  0.50400001928E-02 0.  1.
        1   -1    0    0  501    0  0.00000000000E+00  0.00000000000E+00 -0.21251776092E+04  0.21251776092E+04  0.50400001928E-02 0. -1.
    10030    2    1    2    0    0  0.00000000000E+00  0.00000000000E+00 -0.18597240397E+04  0.23906311788E+04  0.15021797259E+04 0.  0.
        1    1    3    3  502    0  0.50155919831E+03  0.30952325047E+03 -0.16708138611E+04  0.17717181577E+04  0.50400001928E-02 0. -1.
       -1    1    3    3    0  502 -0.50155919831E+03 -0.30952325047E+03 -0.18891017864E+03  0.61891302104E+03  0.50400001928E-02 0.  1.
</event>
<event>
 5   0  0.4785496E-04  0.1654272E+04  0.7818609E-02  0.8787883E-01
        2   -1    0    0  501    0  0.00000000000E+00  0.00000000000E+00  0.69156884385E+03  0.69156884385E+03  0.25500000920E-02 0. -1.
       -2   -1    0    0    0  501  0.00000000000E+00  0.00000000000E+00 -0.98927796396E+03  0.98927796396E+03  0.25500000920E-02 0.  1.
    10030    2    1    2    0    0  0.00000000000E+00  0.00000000000E+00 -0.29770912011E+03  0.16808468078E+04  0.16542718250E+04 0.  0.
        4    1    3    3  502    0  0.16075808143E+03  0.68240847319E+03 -0.59479889638E+03  0.91940841037E+03  0.12699999809E+01 0.  1.
       -4    1    3    3    0  502 -0.16075808143E+03 -0.68240847319E+03  0.29708977627E+03  0.76143839744E+03  0.12699999809E+01 0. -1.
</event>
<event>
 5   0  0.1792000E-04  0.1491664E+04  0.7818609E-02  0.8890015E-01
        3   -1    0    0  501    0  0.00000000000E+00  0.00000000000E+00  0.25495239235E+03  0.25495241236E+03  0.10100000352E+00 0. -1.
       -3   -1    0    0    0  501  0.00000000000E+00  0.00000000000E+00 -0.21818394905E+04  0.21818394928E+04  0.10100000352E+00 0.  1.
    10030    2    1    2    0    0  0.00000000000E+00  0.00000000000E+00 -0.19268870981E+04  0.24367919052E+04  0.14916638027E+04 0.  0.
        1    1    3    3  502    0 -0.32776552004E+03 -0.33653431555E+03 -0.17107691376E+02  0.47008324242E+03  0.50400001928E-02 0. -1.
       -1    1    3    3    0  502  0.32776552004E+03  0.33653431555E+03 -0.19097794067E+04  0.19667086628E+04  0.50400001928E-02 0.  1.
</event>
<event>
 5   0  0.2605471E-04  0.1505299E+04  0.7818609E-02  0.8880937E-01
        1   -1    0    0  501    0  0.00000000000E+00  0.00000000000E+00  0.67897287856E+03  0.67897287858E+03  0.50400001928E-02 0. -1.
       -1   -1    0    0    0  501  0.00000000000E+00  0.00000000000E+00 -0.83432112758E+03  0.83432112760E+03  0.50400001928E-02 0.  1.
    10030    2    1    2    0    0  0.00000000000E+00  0.00000000000E+00 -0.15534824902E+03  0.15132940062E+04  0.15052991964E+04 0.  0.
        3    1    3    3  502    0 -0.23911478875E+03  0.71279286618E+03 -0.11295832730E+03  0.76026912747E+03  0.10100000352E+00 0.  1.
       -3    1    3    3    0  502  0.23911478875E+03 -0.71279286618E+03 -0.42389921721E+02  0.75302487870E+03  0.10100000352E+00 0. -1.
</event>
<event>
 5   0  0.2603873E-04  0.1499425E+04  0.7818609E-02  0.8884835E-01
       -1   -1    0    0    0  501  0.00000000000E+00  0.00000000000E+00  0.51743905104E+03  0.51743905106E+03  0.50400001928E-02 0.  1.
        1   -1    0    0  501    0  0.00000000000E+00  0.00000000000E+00 -0.10862510348E+04  0.10862510348E+04  0.50400001928E-02 0. -1.
    10030    2    1    2    0    0  0.00000000000E+00  0.00000000000E+00 -0.56881198372E+03  0.16036900858E+04  0.14994248293E+04 0.  0.
        2    1    3    3  502    0  0.31073390428E+02 -0.43116591135E+03 -0.93953471922E+03  0.10342123028E+04  0.25500000920E-02 0. -1.
       -2    1    3    3    0  502 -0.31073390428E+02  0.43116591135E+03  0.37072273551E+03  0.56947778300E+03  0.25500000920E-02 0.  1.
</event>
<event>
 5   0  0.2603873E-04  0.1486571E+04  0.7818609E-02  0.8893433E-01
       -1   -1    0    0    0  501  0.00000000000E+00  0.00000000000E+00  0.49001143179E+03  0.49001143181E+03  0.50400001928E-02 0.  1.
        1   -1    0    0  501    0  0.00000000000E+00  0.00000000000E+00 -0.11274698997E+04  0.11274698997E+04  0.50400001928E-02 0. -1.
    10030    2    1    2    0    0  0.00000000000E+00  0.00000000000E+00 -0.63745846793E+03  0.16174813315E+04  0.14865707382E+04 0.  0.
        2    1    3    3  502    0  0.58499549355E+03  0.41433670635E+03 -0.10501846818E+03  0.72451605391E+03  0.25500000920E-02 0. -1.
       -2    1    3    3    0  502 -0.58499549355E+03 -0.41433670635E+03 -0.53243999975E+03  0.89296527763E+03  0.25500000920E-02 0.  1.
</event>
<event>
 5   0  0.2542737E-04  0.1499757E+04  0.7818609E-02  0.8884615E-01
        1   -1    0    0  501    0  0.00000000000E+00  0.00000000000E+00  0.18724306918E+04  0.18724306918E+04  0.50400001928E-02 0.  1.
       -1   -1    0    0    0  501  0.00000000000E+00  0.00000000000E+00 -0.30031418701E+03  0.30031418705E+03  0.50400001928E-02 0. -1.
    10030    2    1    2    0    0  0.00000000000E+00  0.00000000000E+00  0.15721165048E+04  0.21727448788E+04  0.14997566482E+04 0.  0.
        1    1    3    3  502    0 -0.49732025476E+03 -0.10235661116E+03 -0.13391170098E+02  0.50792089453E+03  0.50400001928E-02 0. -1.
       -1    1    3    3    0  502  0.49732025476E+03  0.10235661116E+03  0.15855076749E+04  0.16648239843E+04  0.50400001928E-02 0.  1.
</event>
<event>
 5   0  0.2565416E-04  0.1513754E+04  0.7818609E-02  0.8875358E-01
        1   -1    0    0  501    0  0.00000000000E+00  0.00000000000E+00  0.14925989893E+04  0.14925989893E+04  0.50400001928E-02 0. -1.
       -1   -1    0    0    0  501  0.00000000000E+00  0.00000000000E+00 -0.38380204573E+03  0.38380204576E+03  0.50400001928E-02 0.  1.
    10030    2    1    2    0    0  0.00000000000E+00  0.00000000000E+00  0.11087969435E+04  0.18764010350E+04  0.15137536729E+04 0.  0.
        5    1    3    3  502    0  0.33545050343E+03  0.32371642817E+03  0.12934983623E+04  0.13749470788E+04  0.46999998093E+01 0. -1.
       -5    1    3    3    0  502 -0.33545050343E+03 -0.32371642817E+03 -0.18470141880E+03  0.50145395624E+03  0.46999998093E+01 0.  1.
</event>
<event>
 5   0  0.2603873E-04  0.1494770E+04  0.7818609E-02  0.8887938E-01
       -1   -1    0    0    0  501  0.00000000000E+00  0.00000000000E+00  0.64945757428E+03  0.64945757430E+03  0.50400001928E-02 0. -1.
        1   -1    0    0  501    0  0.00000000000E+00  0.00000000000E+00 -0.86007866851E+03  0.86007866853E+03  0.50400001928E-02 0.  1.
    10030    2    1    2    0    0  0.00000000000E+00  0.00000000000E+00 -0.21062109423E+03  0.15095362428E+04  0.14947703580E+04 0.  0.
        2    1    3    3  502    0  0.66109816719E+03  0.15979983021E+03  0.20758528860E+03  0.71111069774E+03  0.25500000920E-02 0. -1.
       -2    1    3    3    0  502 -0.66109816719E+03 -0.15979983021E+03 -0.41820638283E+03  0.79842554508E+03  0.25500000920E-02 0.  1.
</event>
<event>
 5   0  0.4785496E-04  0.1492024E+04  0.7818609E-02  0.8889774E-01
        2   -1    0    0  501    0  0.00000000000E+00  0.00000000000E+00  0.49899676711E+03  0.49899676712E+03  0.25500000920E-02 0. -1.
       -2   -1    0    0    0  501  0.00000000000E+00  0.00000000000E+00 -0.11153062179E+04  0.11153062179E+04  0.25500000920E-02 0.  1.
    10030    2    1    2    0    0  0.00000000000E+00  0.00000000000E+00 -0.61630945077E+03  0.16143029850E+04  0.14920243927E+04 0.  0.
        4    1    3    3  502    0 -0.14348112923E+03 -0.38191112166E+03  0.36760349496E+03  0.54916016033E+03  0.12699999809E+01 0. -1.
       -4    1    3    3    0  502  0.14348112923E+03  0.38191112166E+03 -0.98391294573E+03  0.10651428247E+04  0.12699999809E+01 0.  1.
</event>
<event>
 5   0  0.4785496E-04  0.1504368E+04  0.7818609E-02  0.8881554E-01
       -2   -1    0    0    0  501  0.00000000000E+00  0.00000000000E+00  0.42213319930E+03  0.42213319931E+03  0.25500000920E-02 0.  1.
        2   -1    0    0  501    0  0.00000000000E+00  0.00000000000E+00 -0.13402888097E+04  0.13402888097E+04  0.25500000920E-02 0. -1.
    10030    2    1    2    0    0  0.00000000000E+00  0.00000000000E+00 -0.91815561036E+03  0.17624220090E+04  0.15043675126E+04 0.  0.
        4    1    3    3  502    0  0.34222744609E+03  0.24951318528E+03 -0.11873199907E+04  0.12605978057E+04  0.12699999809E+01 0. -1.
       -4    1    3    3    0  502 -0.34222744609E+03 -0.24951318528E+03  0.26916438032E+03  0.50182420330E+03  0.12699999809E+01 0.  1.
</event>
<event>
 5   0  0.4948645E-04  0.1507028E+04  0.7818609E-02  0.8879792E-01
        2   -1    0    0  501    0  0.00000000000E+00  0.00000000000E+00  0.16482365930E+04  0.16482365930E+04  0.25500000920E-02 0. -1.
       -2   -1    0    0    0  501  0.00000000000E+00  0.00000000000E+00 -0.34447948888E+03  0.34447948889E+03  0.25500000920E-02 0.  1.
    10030    2    1    2    0    0  0.00000000000E+00  0.00000000000E+00  0.13037571041E+04  0.19927160819E+04  0.15070284657E+04 0.  0.
        1    1    3    3  502    0  0.34391603799E+03 -0.67037187551E+03  0.66555675116E+03  0.10053071579E+04  0.50400001928E-02 0. -1.
       -1    1    3    3    0  502 -0.34391603799E+03  0.67037187551E+03  0.63820035298E+03  0.98740892401E+03  0.50400001928E-02 0.  1.
</event>
<event>
 5   0  0.2544374E-04  0.1493039E+04  0.7818609E-02  0.8889095E-01
       -1   -1    0    0    0  501  0.00000000000E+00  0.00000000000E+00  0.55182650756E+03  0.55182650758E+03  0.50400001928E-02 0.  1.
        1   -1    0    0  501    0  0.00000000000E+00  0.00000000000E+00 -0.10099025946E+04  0.10099025946E+04  0.50400001928E-02 0. -1.
    10030    2    1    2    0    0  0.00000000000E+00  0.00000000000E+00 -0.45807608706E+03  0.15617291022E+04  0.14930385418E+04 0.  0.
        4    1    3    3  502    0 -0.34061920248E+03  0.49946155657E+03 -0.68714397605E+03  0.91523316391E+03  0.12699999809E+01 0. -1.
       -4    1    3    3    0  502  0.34061920248E+03 -0.49946155657E+03  0.22906788899E+03  0.64649593831E+03  0.12699999809E+01 0.  1.
</event>
<event>
 5   0  0.2544374E-04  0.1510465E+04  0.7818609E-02  0.8877524E-01
        1   -1    0    0  501    0  0.00000000000E+00  0.00000000000E+00  0.12744340393E+04  0.12744340393E+04  0.50400001928E-02 0. -1.
       -1   -1    0    0    0  501  0.00000000000E+00  0.00000000000E+00 -0.44755232047E+03  0.44755232049E+03  0.50400001928E-02 0.  1.
    10030    2    1    2    0    0  0.00000000000E+00  0.00000000000E+00  0.82688171880E+03  0.17219863598E+04  0.15104647121E+04 0.  0.
        4    1    3    3  502    0  0.30918464349E+03 -0.20555585784E+02 -0.37174344139E+03  0.48395503406E+03  0.12699999809E+01 0.  1.
       -4    1    3    3    0  502 -0.30918464349E+03  0.20555585784E+02  0.11986251602E+04  0.12380313257E+04  0.12699999809E+01 0. -1.
</event>
<event>
 5   0  0.4569211E-04  0.1495556E+04  0.7818609E-02  0.8887413E-01
       -2   -1    0    0    0  501  0.00000000000E+00  0.00000000000E+00  0.26693599409E+03  0.26693599410E+03  0.25500000920E-02 0. -1.
        2   -1    0    0  501    0  0.00000000000E+00  0.00000000000E+00 -0.20947793185E+04  0.20947793185E+04  0.25500000920E-02 0.  1.
    10030    2    1    2    0    0  0.00000000000E+00  0.00000000000E+00 -0.18278433244E+04  0.23617153126E+04  0.14955560836E+04 0.  0.
        5    1    3    3  502    0  0.47782468734E+03  0.23443044008E+03 -0.84487953846E+02  0.53891962982E+03  0.46999998093E+01 0. -1.
       -5    1    3    3    0  502 -0.47782468734E+03 -0.23443044008E+03 -0.17433553706E+04  0.18227956828E+04  0.46999998093E+01 0.  1.
</event>
<event>
 5   0  0.2565416E-04  0.1496681E+04  0.7818609E-02  0.8886663E-01
       -1   -1    0    0    0  501  0.00000000000E+00  0.00000000000E+00  0.20296626219E+03  0.20296626225E+03  0.50400001928E-02 0. -1.
        1   -1    0    0  501    0  0.00000000000E+00  0.00000000000E+00 -0.27591467878E+04  0.27591467878E+04  0.50400001928E-02 0.  1.
    10030    2    1    2    0    0  0.00000000000E+00  0.00000000000E+00 -0.25561805256E+04  0.29621130500E+04  0.14966812760E+04 0.  0.
        5    1    3    3  502    0 -0.23084536160E+03  0.27916016382E+03  0.17851039849E+02  0.36271301004E+03  0.46999998093E+01 0. -1.
       -5    1    3    3    0  502  0.23084536160E+03 -0.27916016382E+03 -0.25740315654E+04  0.25994000400E+04  0.46999998093E+01 0.  1.
</event>
<event>
 5   0  0.2565416E-04  0.1508610E+04  0.7818609E-02  0.8878747E-01
        1   -1    0    0  501    0  0.00000000000E+00  0.00000000000E+00  0.48523074830E+03  0.48523074833E+03  0.50400001928E-02 0.  1.
       -1   -1    0    0    0  501  0.00000000000E+00  0.00000000000E+00 -0.11725886614E+04  0.11725886615E+04  0.50400001928E-02 0. -1.
    10030    2    1    2    0    0  0.00000000000E+00  0.00000000000E+00 -0.68735791314E+03  0.16578194098E+04  0.15086100539E+04 0.  0.
        5    1    3    3  502    0 -0.27439409642E+03 -0.54763326088E+03 -0.82739659193E+03  0.10294666186E+04  0.46999998093E+01 0. -1.
       -5    1    3    3    0  502  0.27439409642E+03  0.54763326088E+03  0.14003867879E+03  0.62835279113E+03  0.46999998093E+01 0.  1.
</event>
<event>
 5   0  0.4726600E-04  0.1506304E+04  0.7818609E-02  0.8880272E-01
        2   -1    0    0  501    0  0.00000000000E+00  0.00000000000E+00  0.17579682013E+04  0.17579682013E+04  0.25500000920E-02 0. -1.
       -2   -1    0    0    0  501  0.00000000000E+00  0.00000000000E+00 -0.32266681126E+03  0.32266681127E+03  0.25500000920E-02 0.  1.
    10030    2    1    2    0    0  0.00000000000E+00  0.00000000000E+00  0.14353013901E+04  0.20806350126E+04  0.15063040780E+04 0.  0.
        2    1    3    3  502    0  0.72292242326E+03 -0.11762420384E+03  0.96000896336E+03  0.12075054837E+04  0.25500000920E-02 0. -1.
       -2    1    3    3    0  502 -0.72292242326E+03  0.11762420384E+03  0.47529242671E+03  0.87312952892E+03  0.25500000920E-02 0.  1.
</event>
<event>
 5   0  0.2605471E-04  0.1495002E+04  0.7818609E-02  0.8887784E-01
       -1   -1    0    0    0  501  0.00000000000E+00  0.00000000000E+00  0.44627204386E+03  0.44627204388E+03  0.50400001928E-02 0.  1.
        1   -1    0    0  501    0  0.00000000000E+00  0.00000000000E+00 -0.12520556240E+04  0.12520556240E+04  0.50400001928E-02 0. -1.
    10030    2    1    2    0    0  0.00000000000E+00  0.00000000000E+00 -0.80578358018E+03  0.16983276679E+04  0.14950015684E+04 0.  0.
        3    1    3    3  502    0  0.23013470207E+03  0.70999197350E+03 -0.44982441031E+03  0.87143134774E+03  0.10100000352E+00 0.  1.
       -3    1    3    3    0  502 -0.23013470207E+03 -0.70999197350E+03 -0.35595916988E+03  0.82689632019E+03  0.10100000352E+00 0. -1.
</event>
<event>
 5   0  0.4768387E-04  0.1501888E+04  0.7818609E-02  0.8883198E-01
        2   -1    0    0  501    0  0.00000000000E+00  0.00000000000E+00  0.81775955023E+03  0.81775955023E+03  0.25500000920E-02 0.  1.
       -2   -1    0    0    0  501  0.00000000000E+00  0.00000000000E+00 -0.68958810438E+03  0.68958810438E+03  0.25500000920E-02 0. -1.
    10030    2    1    2    0    0  0.00000000000E+00  0.00000000000E+00  0.12817144585E+03  0.15073476546E+04  0.15018884887E+04 0.  0.
        3    1    3    3  502    0 -0.45189017420E+03  0.84622038246E+02 -0.53183310045E+03  0.70300218764E+03  0.10100000352E+00 0. -1.
       -3    1    3    3    0  502  0.45189017420E+03 -0.84622038246E+02  0.66000454630E+03  0.80434546697E+03  0.10100000352E+00 0.  1.
</event>
<event>
 5   0  0.1792000E-04  0.1495290E+04  0.7818609E-02  0.8887591E-01
       -3   -1    0    0    0  501  0.00000000000E+00  0.00000000000E+00  0.47241713328E+03  0.47241714407E+03  0.10100000352E+00 0.  1.
        3   -1    0    0  501    0  0.00000000000E+00  0.00000000000E+00 -0.11832191836E+04  0.11832191879E+04  0.10100000352E+00 0. -1.
    10030    2    1    2    0    0  0.00000000000E+00  0.00000000000E+00 -0.71080205030E+03  0.16556363320E+04  0.14952899749E+04 0.  0.
        3    1    3    3  502    0 -0.17598734887E+03  0.60036509228E+03  0.97839655550E+02  0.63323171067E+03  0.10100000352E+00 0.  1.
       -3    1    3    3    0  502  0.17598734887E+03 -0.60036509228E+03 -0.80864170585E+03  0.10224046213E+04  0.10100000352E+00 0. -1.
</event>
<event>
 5   0  0.4785496E-04  0.1494496E+04  0.7818609E-02  0.8888122E-01
        2   -1    0    0  501    0  0.00000000000E+00  0.00000000000E+00  0.71621791617E+03  0.71621791618E+03  0.25500000920E-02 0. -1.
       -2   -1    0    0    0  501  0.00000000000E+00  0.00000000000E+00 -0.77962203346E+03  0.77962203346E+03  0.25500000920E-02 0.  1.
    10030    2    1    2    0    0  0.00000000000E+00  0.00000000000E+00 -0.63404117288E+02  0.14958399496E+04  0.14944955914E+04 0.  0.
        4    1    3    3  502    0  0.11887511609E+02 -0.74507741911E+03  0.23989541576E+02  0.74555937685E+03  0.12699999809E+01 0. -1.
       -4    1    3    3    0  502 -0.11887511609E+02  0.74507741911E+03 -0.87393658864E+02  0.75028057279E+03  0.12699999809E+01 0.  1.
</event>
<event>
 5   0  0.4785496E-04  0.1501408E+04  0.7818609E-02  0.8883517E-01
       -2   -1    0    0    0  501  0.00000000000E+00  0.00000000000E+00  0.83338787911E+03  0.83338787911E+03  0.25500000920E-02 0.  1.
        2   -1    0    0  501    0  0.00000000000E+00  0.00000000000E+00 -0.67622328592E+03  0.67622328592E+03  0.25500000920E-02 0. -1.
    10030    2    1    2    0    0  0.00000000000E+00  0.00000000000E+00  0.15716459319E+03  0.15096111650E+04  0.15014077262E+04 0.  0.
        4    1    3    3  502    0  0.67649832038E+03 -0.22841757260E+03  0.31164636675E+03  0.77906972458E+03  0.12699999809E+01 0.  1.
       -4    1    3    3    0  502 -0.67649832038E+03  0.22841757260E+03 -0.15448177356E+03  0.73054144045E+03  0.12699999809E+01 0. -1.
</event>
<event>
 5   0  0.2603873E-04  0.1499121E+04  0.7818609E-02  0.8885037E-01
        1   -1    0    0  501    0  0.00000000000E+00  0.00000000000E+00  0.12244185553E+04  0.12244185553E+04  0.50400001928E-02 0. -1.
       -1   -1    0    0    0  501  0.00000000000E+00  0.00000000000E+00 -0.45886373153E+03  0.45886373156E+03  0.50400001928E-02 0.  1.
    10030    2    1    2    0    0  0.00000000000E+00  0.00000000000E+00  0.76555482374E+03  0.16832822868E+04  0.14991214324E+04 0.  0.
        2    1    3    3  502    0  0.10148416176E+03  0.47937667171E+03 -0.25412490703E+03  0.55197871050E+03  0.25500000920E-02 0.  1.
       -2    1    3    3    0  502 -0.10148416176E+03 -0.47937667171E+03  0.10196797308E+04  0.11313035763E+04  0.25500000920E-02 0. -1.
</event>
<event>
 5   0  0.4948645E-04  0.1464962E+04  0.7818609E-02  0.8908093E-01
        2   -1    0    0  501    0  0.00000000000E+00  0.00000000000E+00  0.69145371993E+03  0.69145371994E+03  0.25500000920E-02 0.  1.
       -2   -1    0    0    0  501  0.00000000000E+00  0.00000000000E+00 -0.77594303212E+03  0.77594303213E+03  0.25500000920E-02 0. -1.
    10030    2    1    2    0    0  0.00000000000E+00  0.00000000000E+00 -0.84489312193E+02  0.14673967521E+04  0.14649623832E+04 0.  0.
        1    1    3    3  502    0 -0.45081316069E+03 -0.92058065856E+02  0.52863355291E+03  0.70082852869E+03  0.50400001928E-02 0.  1.
       -1    1    3    3    0  502  0.45081316069E+03  0.92058065856E+02 -0.61312286510E+03  0.76656822337E+03  0.50400001928E-02 0. -1.
</event>
<event>
 5   0  0.2542737E-04  0.1507738E+04  0.7818609E-02  0.8879324E-01
       -1   -1    0    0    0  501  0.00000000000E+00  0.00000000000E+00  0.81049598457E+03  0.81049598459E+03  0.50400001928E-02 0.  1.
        1   -1    0    0  501    0  0.00000000000E+00  0.00000000000E+00 -0.70119793237E+03  0.70119793239E+03  0.50400001928E-02 0. -1.
    10030    2    1    2    0    0  0.00000000000E+00  0.00000000000E+00  0.10929805220E+03  0.15116939170E+04  0.15077375217E+04 0.  0.
        1    1    3    3  502    0 -0.33049116298E+03 -0.12042663091E+03  0.72317535778E+03  0.80418255413E+03  0.50400001928E-02 0.  1.
       -1    1    3    3    0  502  0.33049116298E+03  0.12042663091E+03 -0.61387730558E+03  0.70751136285E+03  0.50400001928E-02 0. -1.
</event>
<event>
 5   0  0.2565416E-04  0.1490200E+04  0.7818609E-02  0.8890996E-01
        1   -1    0    0  501    0  0.00000000000E+00  0.00000000000E+00  0.90575073609E+03  0.90575073610E+03  0.50400001928E-02 0.  1.
       -1   -1    0    0    0  501  0.00000000000E+00  0.00000000000E+00 -0.61294314814E+03  0.61294314816E+03  0.50400001928E-02 0. -1.
    10030    2    1    2    0    0  0.00000000000E+00  0.00000000000E+00  0.29280758795E+03  0.15186938843E+04  0.14901995942E+04 0.  0.
        5    1    3    3  502    0  0.36849374846E+03  0.63504355212E+03  0.27565013904E+03  0.78426592741E+03  0.46999998093E+01 0. -1.
       -5    1    3    3    0  502 -0.36849374846E+03 -0.63504355212E+03  0.17157448908E+02  0.73442795685E+03  0.46999998093E+01 0.  1.
</event>
<event>
 5   0  0.4948645E-04  0.1504612E+04  0.7818609E-02  0.8881392E-01
       -2   -1    0    0    0  501  0.00000000000E+00  0.00000000000E+00  0.40878543525E+03  0.40878543526E+03  0.25500000920E-02 0. -1.
        2   -1    0    0  501    0  0.00000000000E+00  0.00000000000E+00 -0.13845020399E+04  0.13845020399E+04  0.25500000920E-02 0.  1.
    10030    2    1    2    0    0  0.00000000000E+00  0.00000000000E+00 -0.97571660467E+03  0.17932874752E+04  0.15046119354E+04 0.  0.
        1    1    3    3  502    0  0.71351555946E+01 -0.38141236001E+03  0.28495818371E+03  0.47615907563E+03  0.50400001928E-02 0. -1.
       -1    1    3    3    0  502 -0.71351555946E+01  0.38141236001E+03 -0.12606747884E+04  0.13171283996E+04  0.50400001928E-02 0.  1.
</event>
<event>
 5   0  0.2565416E-04  0.1502624E+04  0.7818609E-02  0.8882710E-01
       -1   -1    0    0    0  501  0.00000000000E+00  0.00000000000E+00  0.71496786448E+03  0.71496786450E+03  0.50400001928E-02 0. -1.
        1   -1    0    0  501    0  0.00000000000E+00  0.00000000000E+00 -0.78950411607E+03  0.78950411609E+03  0.50400001928E-02 0.  1.
    10030    2    1    2    0    0  0.00000000000E+00  0.00000000000E+00 -0.74536251594E+02  0.15044719806E+04  0.15026244666E+04 0.  0.
        5    1    3    3  502    0  0.42663468796E+03  0.36000644592E+03  0.46616834302E+03  0.72729417164E+03  0.46999998093E+01 0. -1.
       -5    1    3    3    0  502 -0.42663468796E+03 -0.36000644592E+03 -0.54070459461E+03  0.77717780894E+03  0.46999998093E+01 0.  1.
</event>
<event>
 5   0  0.2605471E-04  0.1488981E+04  0.7818609E-02  0.8891813E-01
        1   -1    0    0  501    0  0.00000000000E+00  0.00000000000E+00  0.59153517928E+03  0.59153517931E+03  0.50400001928E-02 0. -1.
       -1   -1    0    0    0  501  0.00000000000E+00  0.00000000000E+00 -0.93699643991E+03  0.93699643992E+03  0.50400001928E-02 0.  1.
    10030    2    1    2    0    0  0.00000000000E+00  0.00000000000E+00 -0.34546126062E+03  0.15285316192E+04  0.14889813392E+04 0.  0.
        3    1    3    3  502    0 -0.68705944302E+03  0.13901407437E+03 -0.43017214321E+03  0.82244980036E+03  0.10100000352E+00 0.  1.
       -3    1    3    3    0  502  0.68705944302E+03 -0.13901407437E+03  0.84710882582E+02  0.70608181887E+03  0.10100000352E+00 0. -1.
</event>
<event>
 5   0  0.2544374E-04  0.1494351E+04  0.7818609E-02  0.8888218E-01
       -1   -1    0    0    0  501  0.00000000000E+00  0.00000000000E+00  0.53866142574E+03  0.53866142576E+03  0.50400001928E-02 0.  1.
        1   -1    0    0  501    0  0.00000000000E+00  0.00000000000E+00 -0.10364041227E+04  0.10364041228E+04  0.50400001928E-02 0. -1.
    10030    2    1    2    0    0  0.00000000000E+00  0.00000000000E+00 -0.49774269700E+03  0.15750655485E+04  0.14943505913E+04 0.  0.
        4    1    3    3  502    0  0.46783956406E+03  0.24434279685E+03 -0.80629602841E+03  0.96368675325E+03  0.12699999809E+01 0. -1.
       -4    1    3    3    0  502 -0.46783956406E+03 -0.24434279685E+03  0.30855333141E+03  0.61137879526E+03  0.12699999809E+01 0.  1.
</event>
<event>
 5   0  0.4569211E-04  0.1502198E+04  0.7818609E-02  0.8882992E-01
       -2   -1    0    0    0  501  0.00000000000E+00  0.00000000000E+00  0.62114839113E+03  0.62114839114E+03  0.25500000920E-02 0.  1.
        2   -1    0    0  501    0  0.00000000000E+00  0.00000000000E+00 -0.90823693914E+03  0.90823693915E+03  0.25500000920E-02 0. -1.
    10030    2    1    2    0    0  0.00000000000E+00  0.00000000000E+00 -0.28708854801E+03  0.15293853303E+04  0.15021982739E+04 0.  0.
        5    1    3    3  502    0  0.53118879688E+03 -0.26126492040E+03  0.32710669938E+03  0.67634442360E+03  0.46999998093E+01 0.  1.
       -5    1    3    3    0  502 -0.53118879688E+03  0.26126492040E+03 -0.61419524739E+03  0.85304090668E+03  0.46999998093E+01 0. -1.
</event>
<event>
 5   0  0.4948645E-04  0.1500330E+04  0.7818609E-02  0.8884234E-01
       -2   -1    0    0    0  501  0.00000000000E+00  0.00000000000E+00  0.34346271327E+03  0.34346271328E+03  0.25500000920E-02 0.  1.
        2   -1    0    0  501    0  0.00000000000E+00  0.00000000000E+00 -0.16384523949E+04  0.16384523949E+04  0.25500000920E-02 0. -1.
    10030    2    1    2    0    0  0.00000000000E+00  0.00000000000E+00 -0.12949896816E+04  0.19819151082E+04  0.15003297040E+04 0.  0.
        1    1    3    3  502    0 -0.71506838831E+03  0.21804110028E+03 -0.56518367424E+03  0.93717517413E+03  0.50400001928E-02 0.  1.
       -1    1    3    3    0  502  0.71506838831E+03 -0.21804110028E+03 -0.72980600741E+03  0.10447399341E+04  0.50400001928E-02 0. -1.
</event>
<event>
 5   0  0.2603873E-04  0.1503191E+04  0.7818609E-02  0.8882334E-01
       -1   -1    0    0    0  501  0.00000000000E+00  0.00000000000E+00  0.48458931875E+03  0.48458931878E+03  0.50400001928E-02 0.  1.
        1   -1    0    0  501    0  0.00000000000E+00  0.00000000000E+00 -0.11657203572E+04  0.11657203572E+04  0.50400001928E-02 0. -1.
    10030    2    1    2    0    0  0.00000000000E+00  0.00000000000E+00 -0.68113103845E+03  0.16503096760E+04  0.15031907847E+04 0.  0.
        2    1    3    3  502    0  0.31154389391E+03  0.28058851486E+03  0.34426857414E+03  0.54250379137E+03  0.25500000920E-02 0.  1.
       -2    1    3    3    0  502 -0.31154389391E+03 -0.28058851486E+03 -0.10253996126E+04  0.11078058846E+04  0.25500000920E-02 0. -1.
</event>
<event>
 5   0  0.2565416E-04  0.1496372E+04  0.7818609E-02  0.8886869E-01
       -1   -1    0    0    0  501  0.00000000000E+00  0.00000000000E+00  0.49392985860E+03  0.49392985863E+03  0.50400001928E-02 0. -1.
        1   -1    0    0  501    0  0.00000000000E+00  0.00000000000E+00 -0.11333232349E+04  0.11333232349E+04  0.50400001928E-02 0.  1.
    10030    2    1    2    0    0  0.00000000000E+00  0.00000000000E+00 -0.63939337631E+03  0.16272530936E+04  0.14963718591E+04 0.  0.
        5    1    3    3  502    0 -0.69134483742E+03  0.24559746074E+03 -0.47909222619E+03  0.87625752387E+03  0.46999998093E+01 0.  1.
       -5    1    3    3    0  502  0.69134483742E+03 -0.24559746074E+03 -0.16030115012E+03  0.75099556968E+03  0.46999998093E+01 0. -1.
</event>
<event>
 5   0  0.4768387E-04  0.1534567E+04  0.7818609E-02  0.8861786E-01
       -2   -1    0    0    0  501  0.00000000000E+00  0.00000000000E+00  0.96980138263E+03  0.96980138264E+03  0.25500000920E-02 0. -1.
        2   -1    0    0  501    0  0.00000000000E+00  0.00000000000E+00 -0.60705639947E+03  0.60705639947E+03  0.25500000920E-02 0.  1.
    10030    2    1    2    0    0  0.00000000000E+00  0.00000000000E+00  0.36274498316E+03  0.15768577821E+04  0.15345672166E+04 0.  0.
        3    1    3    3  502    0  0.13151295590E+03 -0.75587015810E+03  0.19105402844E+03  0.79065606015E+03  0.10100000352E+00 0.  1.
       -3    1    3    3    0  502 -0.13151295590E+03  0.75587015810E+03  0.17169095472E+03  0.78620172196E+03  0.10100000352E+00 0. -1.
</event>
<event>
 5   0  0.4948645E-04  0.1497047E+04  0.7818609E-02  0.8886419E-01
       -2   -1    0    0    0  501  0.00000000000E+00  0.00000000000E+00  0.62957830739E+03  0.62957830740E+03  0.25500000920E-02 0. -1.
        2   -1    0    0  501    0  0.00000000000E+00  0.00000000000E+00 -0.88994028381E+03  0.88994028381E+03  0.25500000920E-02 0.  1.
    10030    2    1    2    0    0  0.00000000000E+00  0.00000000000E+00 -0.26036197642E+03  0.15195185912E+04  0.14970465558E+04 0.  0.
        1    1    3    3  502    0  0.12867776988E+03 -0.53513396833E+03 -0.64510350230E+03  0.84798871527E+03  0.50400001928E-02 0.  1.
       -1    1    3    3    0  502 -0.12867776988E+03  0.53513396833E+03  0.38474152588E+03  0.67152987594E+03  0.50400001928E-02 0. -1.
</event>
<event>
 5   0  0.2565416E-04  0.1498885E+04  0.7818609E-02  0.8885195E-01
        1   -1    0    0  501    0  0.00000000000E+00  0.00000000000E+00  0.54744728992E+03  0.54744728994E+03  0.50400001928E-02 0. -1.
       -1   -1    0    0    0  501  0.00000000000E+00  0.00000000000E+00 -0.10259694993E+04  0.10259694993E+04  0.50400001928E-02 0.  1.
    10030    2    1    2    0    0  0.00000000000E+00  0.00000000000E+00 -0.47852220934E+03  0.15734167892E+04  0.14988852150E+04 0.  0.
        5    1    3    3  502    0 -0.51078174915E+03  0.54838968977E+03 -0.23549307102E+03  0.78556242502E+03  0.46999998093E+01 0.  1.
       -5    1    3    3    0  502  0.51078174915E+03 -0.54838968977E+03 -0.24302913832E+03  0.78785436419E+03  0.46999998093E+01 0. -1.
</event>
<event>
 5   0  0.2603873E-04  0.1500934E+04  0.7818609E-02  0.8883832E-01
       -1   -1    0    0    0  501  0.00000000000E+00  0.00000000000E+00  0.69570953473E+03  0.69570953475E+03  0.50400001928E-02 0.  1.
        1   -1    0    0  501    0  0.00000000000E+00  0.00000000000E+00 -0.80953409103E+03  0.80953409105E+03  0.50400001928E-02 0. -1.
    10030    2    1    2    0    0  0.00000000000E+00  0.00000000000E+00 -0.11382455630E+03  0.15052436258E+04  0.15009338238E+04 0.  0.
        2    1    3    3  502    0  0.24558342684E+03  0.17044995964E+03 -0.74724643186E+03  0.80482397965E+03  0.25500000920E-02 0. -1.
       -2    1    3    3    0  502 -0.24558342684E+03 -0.17044995964E+03  0.63342187556E+03  0.70041964615E+03  0.25500000920E-02 0.  1.
</event>
<event>
 5   0  0.2565416E-04  0.1503621E+04  0.7818609E-02  0.8882049E-01
        1   -1    0    0  501    0  0.00000000000E+00  0.00000000000E+00  0.15694691331E+04  0.15694691331E+04  0.50400001928E-02 0. -1.
       -1   -1    0    0    0  501  0.00000000000E+00  0.00000000000E+00 -0.36013383444E+03  0.36013383447E+03  0.50400001928E-02 0.  1.
    10030    2    1    2    0    0  0.00000000000E+00  0.00000000000E+00  0.12093352986E+04  0.19296029675E+04  0.15036208790E+04 0.  0.
        5    1    3    3  502    0  0.26566395504E+03 -0.70105732796E+03  0.53277818052E+03  0.91974637468E+03  0.46999998093E+01 0.  1.
       -5    1    3    3    0  502 -0.26566395504E+03  0.70105732796E+03  0.67655711810E+03  0.10098565929E+04  0.46999998093E+01 0. -1.
</event>
<event>
 5   0  0.2603873E-04  0.1499920E+04  0.7818609E-02  0.8884506E-01
       -1   -1    0    0    0  501  0.00000000000E+00  0.00000000000E+00  0.77382901134E+03  0.77382901136E+03  0.50400001928E-02 0.  1.
        1   -1    0    0  501    0  0.00000000000E+00  0.00000000000E+00 -0.72682752708E+03  0.72682752710E+03  0.50400001928E-02 0. -1.
    10030    2    1    2    0    0  0.00000000000E+00  0.00000000000E+00  0.47001484259E+02  0.15006565385E+04  0.14999203002E+04 0.  0.
        2    1    3    3  502    0  0.64041202637E+03  0.26361937191E+03  0.31142228022E+03  0.75934614860E+03  0.25500000920E-02 0.  1.
       -2    1    3    3    0  502 -0.64041202637E+03 -0.26361937191E+03 -0.26442079596E+03  0.74131038986E+03  0.25500000920E-02 0. -1.
</event>
<event>
 5   0  0.2565416E-04  0.1503623E+04  0.7818609E-02  0.8882047E-01
       -1   -1    0    0    0  501  0.00000000000E+00  0.00000000000E+00  0.49819887270E+03  0.49819887273E+03  0.50400001928E-02 0. -1.
        1   -1    0    0  501    0  0.00000000000E+00  0.00000000000E+00 -0.11345277077E+04  0.11345277077E+04  0.50400001928E-02 0.  1.
    10030    2    1    2    0    0  0.00000000000E+00  0.00000000000E+00 -0.63632883496E+03  0.16327265804E+04  0.15036228583E+04 0.  0.
        5    1    3    3  502    0 -0.43957282959E+03 -0.58232564682E+03 -0.12129404414E+03  0.73963623938E+03  0.46999998093E+01 0.  1.
       -5    1    3    3    0  502  0.43957282959E+03  0.58232564682E+03 -0.51503479082E+03  0.89309034102E+03  0.46999998093E+01 0. -1.
</event>
<event>
 5   0  0.1792000E-04  0.1499209E+04  0.7818609E-02  0.8884979E-01
        4   -1    0    0  501    0  0.00000000000E+00  0.00000000000E+00  0.34337613726E+03  0.34337848585E+03  0.12699999809E+01 0. -1.
       -4   -1    0    0    0  501  0.00000000000E+00  0.00000000000E+00 -0.16364088100E+04  0.16364093028E+04  0.12699999809E+01 0.  1.
    10030    2    1    2    0    0  0.00000000000E+00  0.00000000000E+00 -0.12930326727E+04  0.19797877887E+04  0.14992085230E+04 0.  0.
        5    1    3    3  502    0 -0.33810212631E+03 -0.91590722158E+02 -0.15216595654E+04  0.15614646429E+04  0.46999998093E+01 0.  1.
       -5    1    3    3    0  502  0.33810212631E+03  0.91590722158E+02  0.22862689266E+03  0.41832314572E+03  0.46999998093E+01 0. -1.
</event>
<event>
 5   0  0.4768387E-04  0.1494218E+04  0.7818609E-02  0.8888307E-01
        2   -1    0    0  501    0  0.00000000000E+00  0.00000000000E+00  0.11387673520E+04  0.11387673520E+04  0.25500000920E-02 0.  1.
       -2   -1    0    0    0  501  0.00000000000E+00  0.00000000000E+00 -0.49015416757E+03  0.49015416758E+03  0.25500000920E-02 0. -1.
    10030    2    1    2    0    0  0.00000000000E+00  0.00000000000E+00  0.64861318446E+03  0.16289215196E+04  0.14942176060E+04 0.  0.
        3    1    3    3  502    0  0.64023773125E+03  0.15176164426E+03  0.71009592852E+03  0.96807653989E+03  0.10100000352E+00 0.  1.
       -3    1    3    3    0  502 -0.64023773125E+03 -0.15176164426E+03 -0.61482744060E+02  0.66084497971E+03  0.10100000352E+00 0. -1.
</event>
<event>
 5   0  0.4726600E-04  0.1501423E+04  0.7818609E-02  0.8883507E-01
        2   -1    0    0  501    0  0.00000000000E+00  0.00000000000E+00  0.10941211334E+04  0.10941211334E+04  0.25500000920E-02 0.  1.
       -2   -1    0    0    0  501  0.00000000000E+00  0.00000000000E+00 -0.51508719739E+03  0.51508719740E+03  0.25500000920E-02 0. -1.
    10030    2    1    2    0    0  0.00000000000E+00  0.00000000000E+00  0.57903393603E+03  0.16092083308E+04  0.15014230426E+04 0.  0.
        2    1    3    3  502    0 -0.17538392099E+03  0.35405512056E+03 -0.39462791539E+03  0.55843149960E+03  0.25500000920E-02 0. -1.
       -2    1    3    3    0  502  0.17538392099E+03 -0.35405512056E+03  0.97366185142E+03  0.10507768312E+04  0.25500000920E-02 0.  1.
</event>
<event>
 5   0  0.4948645E-04  0.1502750E+04  0.7818609E-02  0.8882626E-01
       -2   -1    0    0    0  501  0.00000000000E+00  0.00000000000E+00  0.42795955300E+03  0.42795955301E+03  0.25500000920E-02 0.  1.
        2   -1    0    0  501    0  0.00000000000E+00  0.00000000000E+00 -0.13191997744E+04  0.13191997744E+04  0.25500000920E-02 0. -1.
    10030    2    1    2    0    0  0.00000000000E+00  0.00000000000E+00 -0.89124022144E+03  0.17471593275E+04  0.15027496742E+04 0.  0.
        1    1    3    3  502    0  0.49551881023E+03  0.17494572361E+03  0.17877283655E+03  0.55507172925E+03  0.50400001928E-02 0.  1.
       -1    1    3    3    0  502 -0.49551881023E+03 -0.17494572361E+03 -0.10700130580E+04  0.11920875982E+04  0.50400001928E-02 0. -1.
</event>
<event>
 5   0  0.2603873E-04  0.1494428E+04  0.7818609E-02  0.8888167E-01
        1   -1    0    0  501    0  0.00000000000E+00  0.00000000000E+00  0.49619095091E+03  0.49619095093E+03  0.50400001928E-02 0. -1.
       -1   -1    0    0    0  501  0.00000000000E+00  0.00000000000E+00 -0.11252296095E+04  0.11252296095E+04  0.50400001928E-02 0.  1.
    10030    2    1    2    0    0  0.00000000000E+00  0.00000000000E+00 -0.62903865857E+03  0.16214205604E+04  0.14944279841E+04 0.  0.
        2    1    3    3  502    0  0.18964206411E+02 -0.50925294881E+03  0.27838933430E+03  0.58068823689E+03  0.25500000920E-02 0. -1.
       -2    1    3    3    0  502 -0.18964206411E+02  0.50925294881E+03 -0.90742799287E+03  0.10407323235E+04  0.25500000920E-02 0.  1.
</event>
<event>
 5   0  0.4785496E-04  0.1501345E+04  0.7818609E-02  0.8883559E-01
       -2   -1    0    0    0  501  0.00000000000E+00  0.00000000000E+00  0.88067665262E+03  0.88067665262E+03  0.25500000920E-02 0. -1.
        2   -1    0    0  501    0  0.00000000000E+00  0.00000000000E+00 -0.63985978393E+03  0.63985978394E+03  0.25500000920E-02 0.  1.
    10030    2    1    2    0    0  0.00000000000E+00  0.00000000000E+00  0.24081686869E+03  0.15205364366E+04  0.15013454934E+04 0.  0.
        4    1    3    3  502    0  0.64079908867E+03  0.39094804890E+03  0.11368194371E+03  0.75920290187E+03  0.12699999809E+01 0. -1.
       -4    1    3    3    0  502 -0.64079908867E+03 -0.39094804890E+03  0.12713492497E+03  0.76133353468E+03  0.12699999809E+01 0.  1.
</event>
<event>
 5   0  0.2542737E-04  0.1501917E+04  0.7818609E-02  0.8883179E-01
        1   -1    0    0  501    0  0.00000000000E+00  0.00000000000E+00  0.41667690068E+03  0.41667690071E+03  0.50400001928E-02 0. -1.
       -1   -1    0    0    0  501  0.00000000000E+00  0.00000000000E+00 -0.13534186977E+04  0.13534186977E+04  0.50400001928E-02 0.  1.
    10030    2    1    2    0    0  0.00000000000E+00  0.00000000000E+00 -0.93674179704E+03  0.17700955984E+04  0.15019165201E+04 0.  0.
        1    1    3    3  502    0 -0.22094641022E+03 -0.69524800679E+03 -0.67837656225E+03  0.99618365143E+03  0.50400001928E-02 0. -1.
       -1    1    3    3    0  502  0.22094641022E+03  0.69524800679E+03 -0.25836523479E+03  0.77391194700E+03  0.50400001928E-02 0.  1.
</event>
<event>
 5   0  0.2544374E-04  0.1498005E+04  0.7818609E-02  0.8885781E-01
        1   -1    0    0  501    0  0.00000000000E+00  0.00000000000E+00  0.66600478075E+03  0.66600478077E+03  0.50400001928E-02 0. -1.
       -1   -1    0    0    0  501  0.00000000000E+00  0.00000000000E+00 -0.84234308039E+03  0.84234308040E+03  0.50400001928E-02 0.  1.
    10030    2    1    2    0    0  0.00000000000E+00  0.00000000000E+00 -0.17633829964E+03  0.15083478612E+04  0.14980046977E+04 0.  0.
        4    1    3    3  502    0 -0.36881871720E+03 -0.38523301143E+03  0.44136235381E+03  0.69226733240E+03  0.12699999809E+01 0. -1.
       -4    1    3    3    0  502  0.36881871720E+03  0.38523301143E+03 -0.61770065345E+03  0.81608052876E+03  0.12699999809E+01 0.  1.
</event>
<event>
 5   0  0.4768387E-04  0.1504004E+04  0.7818609E-02  0.8881795E-01
       -2   -1    0    0    0  501  0.00000000000E+00  0.00000000000E+00  0.40670638914E+03  0.40670638915E+03  0.25500000920E-02 0.  1.
        2   -1    0    0  501    0  0.00000000000E+00  0.00000000000E+00 -0.13904546479E+04  0.13904546479E+04  0.25500000920E-02 0. -1.
    10030    2    1    2    0    0  0.00000000000E+00  0.00000000000E+00 -0.98374825880E+03  0.17971610371E+04  0.15040037090E+04 0.  0.
        3    1    3    3  502    0 -0.64332045447E+03  0.18813919084E+03 -0.89928546154E+03  0.11215934708E+04  0.10100000352E+00 0. -1.
       -3    1    3    3    0  502  0.64332045447E+03 -0.18813919084E+03 -0.84462797261E+02  0.67556756626E+03  0.10100000352E+00 0.  1.
</event>
<event>
 5   0  0.2565416E-04  0.1463559E+04  0.7818609E-02  0.8909054E-01
        1   -1    0    0  501    0  0.00000000000E+00  0.00000000000E+00  0.35998409341E+03  0.35998409344E+03  0.50400001928E-02 0. -1.
       -1   -1    0    0    0  501  0.00000000000E+00  0.00000000000E+00 -0.14875693760E+04  0.14875693761E+04  0.50400001928E-02 0.  1.
    10030    2    1    2    0    0  0.00000000000E+00  0.00000000000E+00 -0.11275852826E+04  0.18475534695E+04  0.14635591047E+04 0.  0.
        5    1    3    3  502    0 -0.68256122858E+03  0.33999977497E+02 -0.23355939778E+03  0.72223120365E+03  0.46999998093E+01 0. -1.
       -5    1    3    3    0  502  0.68256122858E+03 -0.33999977497E+02 -0.89402588486E+03  0.11253222659E+04  0.46999998093E+01 0.  1.
</event>
<event>
 5   0  0.4768387E-04  0.1499684E+04  0.7818609E-02  0.8884663E-01
       -2   -1    0    0    0  501  0.00000000000E+00  0.00000000000E+00  0.62207532624E+03  0.62207532624E+03  0.25500000920E-02 0.  1.
        2   -1    0    0  501    0  0.00000000000E+00  0.00000000000E+00 -0.90385019841E+03  0.90385019841E+03  0.25500000920E-02 0. -1.
    10030    2    1    2    0    0  0.00000000000E+00  0.00000000000E+00 -0.28177487217E+03  0.15259255247E+04  0.14996838428E+04 0.  0.
        3    1    3    3  502    0  0.49536889162E+03  0.11398625009E+03  0.42001130408E+03  0.65938813286E+03  0.10100000352E+00 0.  1.
       -3    1    3    3    0  502 -0.49536889162E+03 -0.11398625009E+03 -0.70178617626E+03  0.86653739180E+03  0.10100000352E+00 0. -1.
</event>
<event>
 5   0  0.2544374E-04  0.1511917E+04  0.7818609E-02  0.8876567E-01
        1   -1    0    0  501    0  0.00000000000E+00  0.00000000000E+00  0.14827417686E+04  0.14827417686E+04  0.50400001928E-02 0. -1.
       -1   -1    0    0    0  501  0.00000000000E+00  0.00000000000E+00 -0.38541646463E+03  0.38541646466E+03  0.50400001928E-02 0.  1.
    10030    2    1    2    0    0  0.00000000000E+00  0.00000000000E+00  0.10973253040E+04  0.18681582333E+04  0.15119167840E+04 0.  0.
        4    1    3    3  502    0  0.74257915327E+03  0.99555987764E+02  0.42426128443E+03  0.86100780713E+03  0.12699999809E+01 0.  1.
       -4    1    3    3    0  502 -0.74257915327E+03 -0.99555987764E+02  0.67306401952E+03  0.10071504261E+04  0.12699999809E+01 0. -1.
</event>
<event>
 5   0  0.2565416E-04  0.1505930E+04  0.7818609E-02  0.8880519E-01
       -1   -1    0    0    0  501  0.00000000000E+00  0.00000000000E+00  0.10289073470E+04  0.10289073471E+04  0.50400001928E-02 0. -1.
        1   -1    0    0  501    0  0.00000000000E+00  0.00000000000E+00 -0.55102728708E+03  0.55102728711E+03  0.50400001928E-02 0.  1.
    10030    2    1    2    0    0  0.00000000000E+00  0.00000000000E+00  0.47788005996E+03  0.15799346342E+04  0.15059296453E+04 0.  0.
        5    1    3    3  502    0  0.44980870166E+03 -0.10356205108E+03  0.86305275826E+03  0.97874160025E+03  0.46999998093E+01 0. -1.
       -5    1    3    3    0  502 -0.44980870166E+03  0.10356205108E+03 -0.38517269830E+03  0.60119303392E+03  0.46999998093E+01 0.  1.
</event>
<event>
 5   0  0.4569211E-04  0.1489170E+04  0.7818609E-02  0.8891687E-01
       -2   -1    0    0    0  501  0.00000000000E+00  0.00000000000E+00  0.48773169691E+03  0.48773169692E+03  0.25500000920E-02 0. -1.
        2   -1    0    0  501    0  0.00000000000E+00  0.00000000000E+00 -0.11367040348E+04  0.11367040348E+04  0.25500000920E-02 0.  1.
    10030    2    1    2    0    0  0.00000000000E+00  0.00000000000E+00 -0.64897233792E+03  0.16244357318E+04  0.14891696852E+04 0.  0.
        5    1    3    3  502    0 -0.65630089472E+03 -0.18003144749E+03  0.50146407349E+01  0.68058021064E+03  0.46999998093E+01 0. -1.
       -5    1    3    3    0  502  0.65630089472E+03  0.18003144749E+03 -0.65398697865E+03  0.94385552111E+03  0.46999998093E+01 0.  1.
</event>
<event>
 5   0  0.2542737E-04  0.1495946E+04  0.7818609E-02  0.8887153E-01
       -1   -1    0    0    0  501  0.00000000000E+00  0.00000000000E+00  0.13047949106E+04  0.13047949106E+04  0.50400001928E-02 0. -1.
        1   -1    0    0  501    0  0.00000000000E+00  0.00000000000E+00 -0.42877518587E+03  0.42877518590E+03  0.50400001928E-02 0.  1.
    10030    2    1    2    0    0  0.00000000000E+00  0.00000000000E+00  0.87601972472E+03  0.17335700965E+04  0.14959460958E+04 0.  0.
        1    1    3    3  502    0 -0.43389422363E+02 -0.65213919497E+03  0.16509441444E+02  0.65378951756E+03  0.50400001928E-02 0.  1.
       -1    1    3    3    0  502  0.43389422363E+02  0.65213919497E+03  0.85951028328E+03  0.10797805789E+04  0.50400001928E-02 0. -1.
</event>
<event>
 5   0  0.4569211E-04  0.1419183E+04  0.7818609E-02  0.8940049E-01
        2   -1    0    0  501    0  0.00000000000E+00  0.00000000000E+00  0.43447269570E+03  0.43447269571E+03  0.25500000920E-02 0. -1.
       -2   -1    0    0    0  501  0.00000000000E+00  0.00000000000E+00 -0.11589221001E+04  0.11589221001E+04  0.25500000920E-02 0.  1.
    10030    2    1    2    0    0  0.00000000000E+00  0.00000000000E+00 -0.72444940443E+03  0.15933947958E+04  0.14191828761E+04 0.  0.
        5    1    3    3  502    0  0.17995015147E+03  0.19512030769E+03 -0.11010657381E+04  0.11326172527E+04  0.46999998093E+01 0.  1.
       -5    1    3    3    0  502 -0.17995015147E+03 -0.19512030769E+03  0.37661633367E+03  0.46077754315E+03  0.46999998093E+01 0. -1.
</event>
<event>
 5   0  0.2603873E-04  0.1503234E+04  0.7818609E-02  0.8882305E-01
       -1   -1    0    0    0  501  0.00000000000E+00  0.00000000000E+00  0.69939821009E+03  0.69939821011E+03  0.50400001928E-02 0.  1.
        1   -1    0    0  501    0  0.00000000000E+00  0.00000000000E+00 -0.80773460065E+03  0.80773460066E+03  0.50400001928E-02 0. -1.
    10030    2    1    2    0    0  0.00000000000E+00  0.00000000000E+00 -0.10833639056E+03  0.15071328108E+04  0.15032340256E+04 0.  0.
        2    1    3    3  502    0  0.47022408419E+03 -0.55899914863E+03 -0.23165104080E+03  0.76632430617E+03  0.25500000920E-02 0.  1.
       -2    1    3    3    0  502 -0.47022408419E+03  0.55899914863E+03  0.12331465024E+03  0.74080850460E+03  0.25500000920E-02 0. -1.
</event>
<event>
 5   0  0.2605471E-04  0.1502624E+04  0.7818609E-02  0.8882710E-01
        1   -1    0    0  501    0  0.00000000000E+00  0.00000000000E+00  0.14767057954E+04  0.14767057954E+04  0.50400001928E-02 0. -1.
       -1   -1    0    0    0  501  0.00000000000E+00  0.00000000000E+00 -0.38224935250E+03  0.38224935253E+03  0.50400001928E-02 0.  1.
    10030    2    1    2    0    0  0.00000000000E+00  0.00000000000E+00  0.10944564429E+04  0.18589551479E+04  0.15026241501E+04 0.  0.
        3    1    3    3  502    0 -0.18456419331E+03  0.72497301090E+03  0.46133818537E+03  0.87890997233E+03  0.10100000352E+00 0. -1.
       -3    1    3    3    0  502  0.18456419331E+03 -0.72497301090E+03  0.63311825750E+03  0.98004517557E+03  0.10100000352E+00 0.  1.
</event>
<event>
 5   0  0.2565416E-04  0.1507174E+04  0.7818609E-02  0.8879696E-01
       -1   -1    0    0    0  501  0.00000000000E+00  0.00000000000E+00  0.84178686986E+03  0.84178686988E+03  0.50400001928E-02 0.  1.
        1   -1    0    0  501    0  0.00000000000E+00  0.00000000000E+00 -0.67462828734E+03  0.67462828736E+03  0.50400001928E-02 0. -1.
    10030    2    1    2    0    0  0.00000000000E+00  0.00000000000E+00  0.16715858252E+03  0.15164151572E+04  0.15071738245E+04 0.  0.
        5    1    3    3  502    0 -0.13737580994E+03  0.23072961982E+02  0.82870559380E+03  0.84034488511E+03  0.46999998093E+01 0.  1.
       -5    1    3    3    0  502  0.13737580994E+03 -0.23072961982E+02 -0.66154701128E+03  0.67607027213E+03  0.46999998093E+01 0. -1.
</event>
<event>
 5   0  0.4726600E-04  0.1499444E+04  0.7818609E-02  0.8884822E-01
        2   -1    0    0  501    0  0.00000000000E+00  0.00000000000E+00  0.18085503969E+04  0.18085503969E+04  0.25500000920E-02 0.  1.
       -2   -1    0    0    0  501  0.00000000000E+00  0.00000000000E+00 -0.31079219568E+03  0.31079219569E+03  0.25500000920E-02 0. -1.
    10030    2    1    2    0    0  0.00000000000E+00  0.00000000000E+00  0.14977582012E+04  0.21193425925E+04  0.14994443622E+04 0.  0.
        2    1    3    3  502    0 -0.28735330235E+03  0.11491619511E+03 -0.21629613687E+03  0.37757339829E+03  0.25500000920E-02 0. -1.
       -2    1    3    3    0  502  0.28735330235E+03 -0.11491619511E+03  0.17140543380E+04  0.17417691942E+04  0.25500000920E-02 0.  1.
</event>
<event>
 5   0  0.4948645E-04  0.1500754E+04  0.7818609E-02  0.8883952E-01
        2   -1    0    0  501    0  0.00000000000E+00  0.00000000000E+00  0.88381220642E+03  0.88381220642E+03  0.25500000920E-02 0.  1.
       -2   -1    0    0    0  501  0.00000000000E+00  0.00000000000E+00 -0.63708730995E+03  0.63708730995E+03  0.25500000920E-02 0. -1.
    10030    2    1    2    0    0  0.00000000000E+00  0.00000000000E+00  0.24672489647E+03  0.15208995164E+04  0.15007538654E+04 0.  0.
        1    1    3    3  502    0 -0.68126659277E+03  0.18328414457E+03 -0.13570221278E+03  0.71842350926E+03  0.50400001928E-02 0. -1.
       -1    1    3    3    0  502  0.68126659277E+03 -0.18328414457E+03  0.38242710925E+03  0.80247600711E+03  0.50400001928E-02 0.  1.
</event>
<event>
 5   0  0.2542737E-04  0.1494650E+04  0.7818609E-02  0.8888018E-01
        1   -1    0    0  501    0  0.00000000000E+00  0.00000000000E+00  0.13316111736E+04  0.13316111736E+04  0.50400001928E-02 0. -1.
       -1   -1    0    0    0  501  0.00000000000E+00  0.00000000000E+00 -0.41941294118E+03  0.41941294121E+03  0.50400001928E-02 0.  1.
    10030    2    1    2    0    0  0.00000000000E+00  0.00000000000E+00  0.91219823243E+03  0.17510241148E+04  0.14946504058E+04 0.  0.
        1    1    3    3  502    0 -0.32509797530E+03 -0.66481645929E+03  0.57799057951E+03  0.93901156975E+03  0.50400001928E-02 0. -1.
       -1    1    3    3    0  502  0.32509797530E+03  0.66481645929E+03  0.33420765292E+03  0.81201254509E+03  0.50400001928E-02 0.  1.
</event>
<event>
 5   0  0.2605471E-04  0.1332916E+04  0.7818609E-02  0.9003862E-01
        1   -1    0    0  501    0  0.00000000000E+00  0.00000000000E+00  0.20748290785E+04  0.20748290785E+04  0.50400001928E-02 0. -1.
       -1   -1    0    0    0  501  0.00000000000E+00  0.00000000000E+00 -0.21407354931E+03  0.21407354937E+03  0.50400001928E-02 0.  1.
    10030    2    1    2    0    0  0.00000000000E+00  0.00000000000E+00  0.18607555292E+04  0.22889026279E+04  0.13329156389E+04 0.  0.
        3    1    3    3  502    0  0.11190063621E+03 -0.17328322537E+03 -0.15787755530E+03  0.25975788967E+03  0.10100000352E+00 0.  1.
       -3    1    3    3    0  502 -0.11190063621E+03  0.17328322537E+03  0.20186330845E+04  0.20291447382E+04  0.10100000352E+00 0. -1.
</event>
<event>
 5   0  0.2605471E-04  0.1520531E+04  0.7818609E-02  0.8870914E-01
       -1   -1    0    0    0  501  0.00000000000E+00  0.00000000000E+00  0.25383219502E+03  0.25383219507E+03  0.50400001928E-02 0. -1.
        1   -1    0    0  501    0  0.00000000000E+00  0.00000000000E+00 -0.22771089380E+04  0.22771089380E+04  0.50400001928E-02 0.  1.
    10030    2    1    2    0    0  0.00000000000E+00  0.00000000000E+00 -0.20232767430E+04  0.25309411331E+04  0.15205309074E+04 0.  0.
        3    1    3    3  502    0  0.33860028068E+03 -0.46344307416E+03 -0.18415169790E+04  0.19288894284E+04  0.10100000352E+00 0.  1.
       -3    1    3    3    0  502 -0.33860028068E+03  0.46344307416E+03 -0.18175976403E+03  0.60205170466E+03  0.10100000352E+00 0. -1.
</event>
<event>
 5   0  0.2603873E-04  0.1499611E+04  0.7818609E-02  0.8884712E-01
       -1   -1    0    0    0  501  0.00000000000E+00  0.00000000000E+00  0.98729213317E+03  0.98729213318E+03  0.50400001928E-02 0. -1.
        1   -1    0    0  501    0  0.00000000000E+00  0.00000000000E+00 -0.56944451431E+03  0.56944451433E+03  0.50400001928E-02 0.  1.
    10030    2    1    2    0    0  0.00000000000E+00  0.00000000000E+00  0.41784761886E+03  0.15567366475E+04  0.14996107352E+04 0.  0.
        2    1    3    3  502    0  0.17018446227E+03  0.43995016412E+03  0.81395459408E+03  0.94076616613E+03  0.25500000920E-02 0.  1.
       -2    1    3    3    0  502 -0.17018446227E+03 -0.43995016412E+03 -0.39610697522E+03  0.61597048138E+03  0.25500000920E-02 0. -1.
</event>
<event>
 5   0  0.4948645E-04  0.1495274E+04  0.7818609E-02  0.8887601E-01
       -2   -1    0    0    0  501  0.00000000000E+00  0.00000000000E+00  0.57023127017E+03  0.57023127017E+03  0.25500000920E-02 0. -1.
        2   -1    0    0  501    0  0.00000000000E+00  0.00000000000E+00 -0.98023624719E+03  0.98023624720E+03  0.25500000920E-02 0.  1.
    10030    2    1    2    0    0  0.00000000000E+00  0.00000000000E+00 -0.41000497703E+03  0.15504675174E+04  0.14952743699E+04 0.  0.
        1    1    3    3  502    0  0.13253393060E+03 -0.44243272229E+02  0.55657274605E+03  0.57384312453E+03  0.50400001928E-02 0. -1.
       -1    1    3    3    0  502 -0.13253393060E+03  0.44243272229E+02 -0.96657772308E+03  0.97662439284E+03  0.50400001928E-02 0.  1.
</event>
<event>
 5   0  0.4768387E-04  0.1474976E+04  0.7818609E-02  0.8901266E-01
       -2   -1    0    0    0  501  0.00000000000E+00  0.00000000000E+00  0.38484334006E+03  0.38484334007E+03  0.25500000920E-02 0. -1.
        2   -1    0    0  501    0  0.00000000000E+00  0.00000000000E+00 -0.14132728100E+04  0.14132728100E+04  0.25500000920E-02 0.  1.
    10030    2    1    2    0    0  0.00000000000E+00  0.00000000000E+00 -0.10284294699E+04  0.17981161501E+04  0.14749761064E+04 0.  0.
        3    1    3    3  502    0 -0.64374235064E+03 -0.32096787777E+03 -0.31589738401E+03  0.78563080387E+03  0.10100000352E+00 0. -1.
       -3    1    3    3    0  502  0.64374235064E+03  0.32096787777E+03 -0.71253208593E+03  0.10124853462E+04  0.10100000352E+00 0.  1.
</event>
<event>
 5   0  0.2605471E-04  0.1487629E+04  0.7818609E-02  0.8892721E-01
       -1   -1    0    0    0  501  0.00000000000E+00  0.00000000000E+00  0.41609388949E+03  0.41609388952E+03  0.50400001928E-02 0.  1.
        1   -1    0    0  501    0  0.00000000000E+00  0.00000000000E+00 -0.13296522360E+04  0.13296522360E+04  0.50400001928E-02 0. -1.
    10030    2    1    2    0    0  0.00000000000E+00  0.00000000000E+00 -0.91355834650E+03  0.17457461255E+04  0.14876292153E+04 0.  0.
        3    1    3    3  502    0  0.38757176068E+03 -0.37685200373E+03  0.14278036086E+03  0.55912033056E+03  0.10100000352E+00 0.  1.
       -3    1    3    3    0  502 -0.38757176068E+03  0.37685200373E+03 -0.10563387074E+04  0.11866257950E+04  0.10100000352E+00 0. -1.
</event>
<event>
 5   0  0.4785496E-04  0.1496814E+04  0.7818609E-02  0.8886574E-01
       -2   -1    0    0    0  501  0.00000000000E+00  0.00000000000E+00  0.79128017529E+03  0.79128017529E+03  0.25500000920E-02 0.  1.
        2   -1    0    0  501    0  0.00000000000E+00  0.00000000000E+00 -0.70785690583E+03  0.70785690584E+03  0.25500000920E-02 0. -1.
    10030    2    1    2    0    0  0.00000000000E+00  0.00000000000E+00  0.83423269457E+02  0.14991370811E+04  0.14968141321E+04 0.  0.
        4    1    3    3  502    0  0.58912775943E+03 -0.46642179603E+02  0.50162414281E+03  0.77516153374E+03  0.12699999809E+01 0.  1.
       -4    1    3    3    0  502 -0.58912775943E+03  0.46642179603E+02 -0.41820087335E+03  0.72397554739E+03  0.12699999809E+01 0. -1.
</event>
<event>
 5   0  0.2605471E-04  0.1496700E+04  0.7818609E-02  0.8886650E-01
        1   -1    0    0  501    0  0.00000000000E+00  0.00000000000E+00  0.12058080661E+04  0.12058080661E+04  0.50400001928E-02 0.  1.
       -1   -1    0    0    0  501  0.00000000000E+00  0.00000000000E+00 -0.46444179551E+03  0.46444179554E+03  0.50400001928E-02 0. -1.
    10030    2    1    2    0    0  0.00000000000E+00  0.00000000000E+00  0.74136627054E+03  0.16702498616E+04  0.14966999209E+04 0.  0.
        3    1    3    3  502    0 -0.52133653948E+03  0.26492476051E+03  0.89178843273E+03  0.10664255882E+04  0.10100000352E+00 0.  1.
       -3    1    3    3    0  502  0.52133653948E+03 -0.26492476051E+03 -0.15042216218E+03  0.60382427345E+03  0.10100000352E+00 0. -1.
</event>
<event>
 5   0  0.2605471E-04  0.1483317E+04  0.7818609E-02  0.8895623E-01
        1   -1    0    0  501    0  0.00000000000E+00  0.00000000000E+00  0.89563965474E+03  0.89563965475E+03  0.50400001928E-02 0.  1.
       -1   -1    0    0    0  501  0.00000000000E+00  0.00000000000E+00 -0.61415019570E+03  0.61415019572E+03  0.50400001928E-02 0. -1.
    10030    2    1    2    0    0  0.00000000000E+00  0.00000000000E+00  0.28148945904E+03  0.15097898505E+04  0.14833169173E+04 0.  0.
        3    1    3    3  502    0  0.40636799503E+03 -0.41411303360E+03  0.61097765833E+03  0.84256647284E+03  0.10100000352E+00 0.  1.
       -3    1    3    3    0  502 -0.40636799503E+03  0.41411303360E+03 -0.32948819929E+03  0.66722337763E+03  0.10100000352E+00 0. -1.
</event>
<event>
 5   0  0.4569211E-04  0.1476416E+04  0.7818609E-02  0.8900289E-01
       -2   -1    0    0    0  501  0.00000000000E+00  0.00000000000E+00  0.92273515307E+03  0.92273515307E+03  0.25500000920E-02 0. -1.
        2   -1    0    0  501    0  0.00000000000E+00  0.00000000000E+00 -0.59058210421E+03  0.59058210422E+03  0.25500000920E-02 0.  1.
    10030    2    1    2    0    0  0.00000000000E+00  0.00000000000E+00  0.33215304885E+03  0.15133172573E+04  0.14764157522E+04 0.  0.
        5    1    3    3  502    0  0.46062564767E+03  0.52644490578E+03  0.40778512764E+03  0.80971045839E+03  0.46999998093E+01 0. -1.
       -5    1    3    3    0  502 -0.46062564767E+03 -0.52644490578E+03 -0.75632078787E+02  0.70360679889E+03  0.46999998093E+01 0.  1.
</event>
<event>
 5   0  0.2544374E-04  0.1494613E+04  0.7818609E-02  0.8888043E-01
        1   -1    0    0  501    0  0.00000000000E+00  0.00000000000E+00  0.40538625576E+03  0.40538625579E+03  0.50400001928E-02 0.  1.
       -1   -1    0    0    0  501  0.00000000000E+00  0.00000000000E+00 -0.13776170242E+04  0.13776170242E+04  0.50400001928E-02 0. -1.
    10030    2    1    2    0    0  0.00000000000E+00  0.00000000000E+00 -0.97223076840E+03  0.17830032800E+04  0.14946130032E+04 0.  0.
        4    1    3    3  502    0 -0.65315241710E+03 -0.16703348035E+03 -0.10147885397E+03  0.68176816751E+03  0.12699999809E+01 0.  1.
       -4    1    3    3    0  502  0.65315241710E+03  0.16703348035E+03 -0.87075191443E+03  0.11012351125E+04  0.12699999809E+01 0. -1.
</event>
<event>
 5   0  0.2605471E-04  0.1500480E+04  0.7818609E-02  0.8884134E-01
       -1   -1    0    0    0  501  0.00000000000E+00  0.00000000000E+00  0.46821693122E+03  0.46821693125E+03  0.50400001928E-02 0. -1.
        1   -1    0    0  501    0  0.00000000000E+00  0.00000000000E+00 -0.12021358578E+04  0.12021358578E+04  0.50400001928E-02 0.  1.
    10030    2    1    2    0    0  0.00000000000E+00  0.00000000000E+00 -0.73391892653E+03  0.16703527890E+04  0.15004804061E+04 0.  0.
        3    1    3    3  502    0 -0.23750483791E+03 -0.26916736233E+03 -0.11003294130E+04  0.11574041836E+04  0.10100000352E+00 0.  1.
       -3    1    3    3    0  502  0.23750483791E+03  0.26916736233E+03  0.36641048647E+03  0.51294860539E+03  0.10100000352E+00 0. -1.
</event>
<event>
 5   0  0.4726600E-04  0.1340342E+04  0.7818609E-02  0.8998171E-01
        2   -1    0    0  501    0  0.00000000000E+00  0.00000000000E+00  0.62112118192E+03  0.62112118193E+03  0.25500000920E-02 0. -1.
       -2   -1    0    0    0  501  0.00000000000E+00  0.00000000000E+00 -0.72309430125E+03  0.72309430125E+03  0.25500000920E-02 0.  1.
    10030    2    1    2    0    0  0.00000000000E+00  0.00000000000E+00 -0.10197311933E+03  0.13442154832E+04  0.13403420266E+04 0.  0.
        2    1    3    3  502    0 -0.45086188783E+03 -0.29669857328E+02  0.44539069922E+03  0.63445221829E+03  0.25500000920E-02 0. -1.
       -2    1    3    3    0  502  0.45086188783E+03  0.29669857328E+02 -0.54736381855E+03  0.70976326489E+03  0.25500000920E-02 0.  1.
</event>
<event>
 5   0  0.2544374E-04  0.1481776E+04  0.7818609E-02  0.8896663E-01
       -1   -1    0    0    0  501  0.00000000000E+00  0.00000000000E+00  0.97927295887E+03  0.97927295888E+03  0.50400001928E-02 0. -1.
        1   -1    0    0  501    0  0.00000000000E+00  0.00000000000E+00 -0.56053287083E+03  0.56053287085E+03  0.50400001928E-02 0.  1.
    10030    2    1    2    0    0  0.00000000000E+00  0.00000000000E+00  0.41874008804E+03  0.15398058297E+04  0.14817755336E+04 0.  0.
        4    1    3    3  502    0  0.14921206035E+03 -0.38666767295E+03 -0.42879509663E+03  0.59635809381E+03  0.12699999809E+01 0.  1.
       -4    1    3    3    0  502 -0.14921206035E+03  0.38666767295E+03  0.84753518467E+03  0.94344773592E+03  0.12699999809E+01 0. -1.
</event>
<event>
 5   0  0.4948645E-04  0.1492447E+04  0.7818609E-02  0.8889491E-01
        2   -1    0    0  501    0  0.00000000000E+00  0.00000000000E+00  0.59262963993E+03  0.59262963994E+03  0.25500000920E-02 0. -1.
       -2   -1    0    0    0  501  0.00000000000E+00  0.00000000000E+00 -0.93962425583E+03  0.93962425584E+03  0.25500000920E-02 0.  1.
    10030    2    1    2    0    0  0.00000000000E+00  0.00000000000E+00 -0.34699461590E+03  0.15322538958E+04  0.14924465611E+04 0.  0.
        1    1    3    3  502    0 -0.34889485696E+03 -0.15519924225E+03  0.48472291148E+03  0.61706622574E+03  0.50400001928E-02 0. -1.
       -1    1    3    3    0  502  0.34889485696E+03  0.15519924225E+03 -0.83171752738E+03  0.91518767004E+03  0.50400001928E-02 0.  1.
</event>
<event>
 5   0  0.1792000E-04  0.1489618E+04  0.7818609E-02  0.8891386E-01
        4   -1    0    0  501    0  0.00000000000E+00  0.00000000000E+00  0.71373609400E+03  0.71373722390E+03  0.12699999809E+01 0.  1.
       -4   -1    0    0    0  501  0.00000000000E+00  0.00000000000E+00 -0.77723274104E+03  0.77723377863E+03  0.12699999809E+01 0. -1.
    10030    2    1    2    0    0  0.00000000000E+00  0.00000000000E+00 -0.63496647036E+02  0.14909710025E+04  0.14896183089E+04 0.  0.
        5    1    3    3  502    0  0.50457622417E+03  0.41006334213E+02  0.51504429003E+03  0.72219900037E+03  0.46999998093E+01 0.  1.
       -5    1    3    3    0  502 -0.50457622417E+03 -0.41006334213E+02 -0.57854093707E+03  0.76877200216E+03  0.46999998093E+01 0. -1.
</event>
<event>
 5   0  0.2544374E-04  0.1497563E+04  0.7818609E-02  0.8886075E-01
        1   -1    0    0  501    0  0.00000000000E+00  0.00000000000E+00  0.72077389470E+03  0.72077389472E+03  0.50400001928E-02 0.  1.
       -1   -1    0    0    0  501  0.00000000000E+00  0.00000000000E+00 -0.77787694167E+03  0.77787694168E+03  0.50400001928E-02 0. -1.
    10030    2    1    2    0    0  0.00000000000E+00  0.00000000000E+00 -0.57103046967E+02  0.14986508364E+04  0.14975625434E+04 0.  0.
        4    1    3    3  502    0  0.20656286458E+03  0.58141564134E+03  0.39597299457E+03  0.73314977348E+03  0.12699999809E+01 0.  1.
       -4    1    3    3    0  502 -0.20656286458E+03 -0.58141564134E+03 -0.45307604154E+03  0.76550106292E+03  0.12699999809E+01 0. -1.
</event>
<event>
 5   0  0.4768387E-04  0.1488569E+04  0.7818609E-02  0.8892090E-01
       -2   -1    0    0    0  501  0.00000000000E+00  0.00000000000E+00  0.39358049624E+03  0.39358049625E+03  0.25500000920E-02 0. -1.
        2   -1    0    0  501    0  0.00000000000E+00  0.00000000000E+00 -0.14074875780E+04  0.14074875780E+04  0.25500000920E-02 0.  1.
    10030    2    1    2    0    0  0.00000000000E+00  0.00000000000E+00 -0.10139070818E+04  0.18010680743E+04  0.14885693258E+04 0.  0.
        3    1    3    3  502    0  0.18844767229E+03 -0.38104091787E+03 -0.12461567547E+04  0.13166667664E+04  0.10100000352E+00 0.  1.
       -3    1    3    3    0  502 -0.18844767229E+03  0.38104091787E+03  0.23224967293E+03  0.48440130786E+03  0.10100000352E+00 0. -1.
</event>
<event>
 5   0  0.2605471E-04  0.1479175E+04  0.7818609E-02  0.8898421E-01
        1   -1    0    0  501    0  0.00000000000E+00  0.00000000000E+00  0.19385873728E+04  0.19385873728E+04  0.50400001928E-02 0.  1.
       -1   -1    0    0    0  501  0.00000000000E+00  0.00000000000E+00 -0.28215880905E+03  0.28215880910E+03  0.50400001928E-02 0. -1.
    10030    2    1    2    0    0  0.00000000000E+00  0.00000000000E+00  0.16564285638E+04  0.22207461819E+04  0.14791747759E+04 0.  0.
        3    1    3    3  502    0  0.51018352226E+03 -0.50939823556E+03  0.10758933071E+04  0.12951139746E+04  0.10100000352E+00 0.  1.
       -3    1    3    3    0  502 -0.51018352226E+03  0.50939823556E+03  0.58053525669E+03  0.92563220733E+03  0.10100000352E+00 0. -1.
</event>
<event>
 5   0  0.4726600E-04  0.1506061E+04  0.7818609E-02  0.8880433E-01
        2   -1    0    0  501    0  0.00000000000E+00  0.00000000000E+00  0.76243955940E+03  0.76243955941E+03  0.25500000920E-02 0.  1.
       -2   -1    0    0    0  501  0.00000000000E+00  0.00000000000E+00 -0.74373721329E+03  0.74373721330E+03  0.25500000920E-02 0. -1.
    10030    2    1    2    0    0  0.00000000000E+00  0.00000000000E+00  0.18702346110E+02  0.15061767727E+04  0.15060606538E+04 0.  0.
        2    1    3    3  502    0 -0.59473611719E+03 -0.20902881090E+03 -0.40256719487E+03  0.74797355520E+03  0.25500000920E-02 0. -1.
       -2    1    3    3    0  502  0.59473611719E+03  0.20902881090E+03  0.42126954098E+03  0.75820321751E+03  0.25500000920E-02 0.  1.
</event>
<event>
 5   0  0.4768387E-04  0.1505071E+04  0.7818609E-02  0.8881088E-01
       -2   -1    0    0    0  501  0.00000000000E+00  0.00000000000E+00  0.31576334939E+03  0.31576334940E+03  0.25500000920E-02 0.  1.
        2   -1    0    0  501    0  0.00000000000E+00  0.00000000000E+00 -0.17934617146E+04  0.17934617146E+04  0.25500000920E-02 0. -1.
    10030    2    1    2    0    0  0.00000000000E+00  0.00000000000E+00 -0.14776983652E+04  0.21092250640E+04  0.15050707332E+04 0.  0.
        3    1    3    3  502    0 -0.42407061447E+02 -0.25737674897E+01 -0.17917796945E+04  0.17922833110E+04  0.10100000352E+00 0. -1.
       -3    1    3    3    0  502  0.42407061447E+02  0.25737674897E+01  0.31408132931E+03  0.31694175295E+03  0.10100000352E+00 0.  1.
</event>
<event>
 5   0  0.4726600E-04  0.1512293E+04  0.7818609E-02  0.8876319E-01
        2   -1    0    0  501    0  0.00000000000E+00  0.00000000000E+00  0.18861314977E+04  0.18861314977E+04  0.25500000920E-02 0.  1.
       -2   -1    0    0    0  501  0.00000000000E+00  0.00000000000E+00 -0.30313757398E+03  0.30313757399E+03  0.25500000920E-02 0. -1.
    10030    2    1    2    0    0  0.00000000000E+00  0.00000000000E+00  0.15829939237E+04  0.21892690717E+04  0.15122927315E+04 0.  0.
        2    1    3    3  502    0  0.72861948492E+03  0.82738349909E+02  0.10585296953E+04  0.12877177890E+04  0.25500000920E-02 0.  1.
       -2    1    3    3    0  502 -0.72861948492E+03 -0.82738349909E+02  0.52446422843E+03  0.90155128266E+03  0.25500000920E-02 0. -1.
</event>
<event>
 5   0  0.4726600E-04  0.1501824E+04  0.7818609E-02  0.8883241E-01
       -2   -1    0    0    0  501  0.00000000000E+00  0.00000000000E+00  0.30826906910E+03  0.30826906911E+03  0.25500000920E-02 0. -1.
        2   -1    0    0  501    0  0.00000000000E+00  0.00000000000E+00 -0.18291446107E+04  0.18291446107E+04  0.25500000920E-02 0.  1.
    10030    2    1    2    0    0  0.00000000000E+00  0.00000000000E+00 -0.15208755416E+04  0.21374136798E+04  0.15018238331E+04 0.  0.
        2    1    3    3  502    0 -0.70378601602E+03  0.17698422172E+03 -0.48582594672E+03  0.87330694581E+03  0.25500000920E-02 0.  1.
       -2    1    3    3    0  502  0.70378601602E+03 -0.17698422172E+03 -0.10350495949E+04  0.12641067340E+04  0.25500000920E-02 0. -1.
</event>
<event>
 5   0  0.2565416E-04  0.1500041E+04  0.7818609E-02  0.8884426E-01
        1   -1    0    0  501    0  0.00000000000E+00  0.00000000000E+00  0.35965851758E+03  0.35965851761E+03  0.50400001928E-02 0. -1.
       -1   -1    0    0    0  501  0.00000000000E+00  0.00000000000E+00 -0.15640687050E+04  0.15640687050E+04  0.50400001928E-02 0.  1.
    10030    2    1    2    0    0  0.00000000000E+00  0.00000000000E+00 -0.12044101874E+04  0.19237272226E+04  0.15000408419E+04 0.  0.
        5    1    3    3  502    0 -0.43731985559E+03 -0.43044607929E+02  0.17725340231E+03  0.47385900117E+03  0.46999998093E+01 0. -1.
       -5    1    3    3    0  502  0.43731985559E+03  0.43044607929E+02 -0.13816635897E+04  0.14498682214E+04  0.46999998093E+01 0.  1.
</event>
<event>
 5   0  0.2544374E-04  0.1509100E+04  0.7818609E-02  0.8878424E-01
       -1   -1    0    0    0  501  0.00000000000E+00  0.00000000000E+00  0.42374825432E+03  0.42374825435E+03  0.50400001928E-02 0. -1.
        1   -1    0    0  501    0  0.00000000000E+00  0.00000000000E+00 -0.13435943669E+04  0.13435943669E+04  0.50400001928E-02 0.  1.
    10030    2    1    2    0    0  0.00000000000E+00  0.00000000000E+00 -0.91984611260E+03  0.17673426213E+04  0.15091000862E+04 0.  0.
        4    1    3    3  502    0 -0.39321231935E+03  0.64395460829E+03 -0.46826101177E+03  0.88801095357E+03  0.12699999809E+01 0. -1.
       -4    1    3    3    0  502  0.39321231935E+03 -0.64395460829E+03 -0.45158510083E+03  0.87933166770E+03  0.12699999809E+01 0.  1.
</event>
<event>
 5   0  0.4726600E-04  0.1466734E+04  0.7818609E-02  0.8906881E-01
       -2   -1    0    0    0  501  0.00000000000E+00  0.00000000000E+00  0.86914723007E+03  0.86914723008E+03  0.25500000920E-02 0. -1.
        2   -1    0    0  501    0  0.00000000000E+00  0.00000000000E+00 -0.61879889487E+03  0.61879889487E+03  0.25500000920E-02 0.  1.
    10030    2    1    2    0    0  0.00000000000E+00  0.00000000000E+00  0.25034833520E+03  0.14879461249E+04  0.14667342574E+04 0.  0.
        2    1    3    3  502    0  0.67049468358E+03  0.16949592611E+03 -0.12235321395E+03  0.70232634768E+03  0.25500000920E-02 0.  1.
       -2    1    3    3    0  502 -0.67049468358E+03 -0.16949592611E+03  0.37270154916E+03  0.78561977727E+03  0.25500000920E-02 0. -1.
</event>
<event>
 5   0  0.4726600E-04  0.1517669E+04  0.7818609E-02  0.8872787E-01
        2   -1    0    0  501    0  0.00000000000E+00  0.00000000000E+00  0.15159504583E+04  0.15159504583E+04  0.25500000920E-02 0.  1.
       -2   -1    0    0    0  501  0.00000000000E+00  0.00000000000E+00 -0.37984745727E+03  0.37984745727E+03  0.25500000920E-02 0. -1.
    10030    2    1    2    0    0  0.00000000000E+00  0.00000000000E+00  0.11361030011E+04  0.18957979156E+04  0.15176691694E+04 0.  0.
        2    1    3    3  502    0  0.43632537108E+03 -0.49125461318E+03  0.93836209694E+02  0.66371391327E+03  0.25500000920E-02 0. -1.
       -2    1    3    3    0  502 -0.43632537108E+03  0.49125461318E+03  0.10422667914E+04  0.12320840023E+04  0.25500000920E-02 0.  1.
</event>
<event>
 5   0  0.1792000E-04  0.1494259E+04  0.7818609E-02  0.8888280E-01
        3   -1    0    0  501    0  0.00000000000E+00  0.00000000000E+00  0.30678782666E+03  0.30678784329E+03  0.10100000352E+00 0. -1.
       -3   -1    0    0    0  501  0.00000000000E+00  0.00000000000E+00 -0.18195066509E+04  0.18195066537E+04  0.10100000352E+00 0.  1.
    10030    2    1    2    0    0  0.00000000000E+00  0.00000000000E+00 -0.15127188242E+04  0.21262944970E+04  0.14942590293E+04 0.  0.
        4    1    3    3  502    0  0.45457753664E+03  0.38182105385E+03 -0.14018524423E+04  0.15223731267E+04  0.12699999809E+01 0.  1.
       -4    1    3    3    0  502 -0.45457753664E+03 -0.38182105385E+03 -0.11086638196E+03  0.60392137032E+03  0.12699999809E+01 0. -1.
</event>
<event>
 5   0  0.4768387E-04  0.1493945E+04  0.7818609E-02  0.8888490E-01
        2   -1    0    0  501    0  0.00000000000E+00  0.00000000000E+00  0.26124669012E+04  0.26124669012E+04  0.25500000920E-02 0. -1.
       -2   -1    0    0    0  501  0.00000000000E+00  0.00000000000E+00 -0.21357889663E+03  0.21357889665E+03  0.25500000920E-02 0.  1.
    10030    2    1    2    0    0  0.00000000000E+00  0.00000000000E+00  0.23988880046E+04  0.28260457979E+04  0.14939448427E+04 0.  0.
        3    1    3    3  502    0 -0.37840210125E+03 -0.25505571072E+03  0.80756643550E+02  0.46342551881E+03  0.10100000352E+00 0.  1.
       -3    1    3    3    0  502  0.37840210125E+03  0.25505571072E+03  0.23181313610E+04  0.23626202791E+04  0.10100000352E+00 0. -1.
</event>
<event>
 5   0  0.1792000E-04  0.1491619E+04  0.7818609E-02  0.8890045E-01
        4   -1    0    0  501    0  0.00000000000E+00  0.00000000000E+00  0.51637673952E+03  0.51637830127E+03  0.12699999809E+01 0.  1.
       -4   -1    0    0    0  501  0.00000000000E+00  0.00000000000E+00 -0.10771789739E+04  0.10771797226E+04  0.12699999809E+01 0. -1.
    10030    2    1    2    0    0  0.00000000000E+00  0.00000000000E+00 -0.56080223436E+03  0.15935580238E+04  0.14916192642E+04 0.  0.
        1    1    3    3  502    0  0.62781572725E+03 -0.30255182616E+03  0.33471411847E+01  0.69692280654E+03  0.50400001928E-02 0.  1.
       -1    1    3    3    0  502 -0.62781572725E+03  0.30255182616E+03 -0.56414937555E+03  0.89663521727E+03  0.50400001928E-02 0. -1.
</event>
<event>
 5   0  0.2542737E-04  0.1491098E+04  0.7818609E-02  0.8890395E-01
       -1   -1    0    0    0  501  0.00000000000E+00  0.00000000000E+00  0.66966072169E+03  0.66966072171E+03  0.50400001928E-02 0. -1.
        1   -1    0    0  501    0  0.00000000000E+00  0.00000000000E+00 -0.83003669999E+03  0.83003670000E+03  0.50400001928E-02 0.  1.
    10030    2    1    2    0    0  0.00000000000E+00  0.00000000000E+00 -0.16037597830E+03  0.14996974217E+04  0.14910975495E+04 0.  0.
        1    1    3    3  502    0 -0.58257236902E+03  0.41908901860E+03 -0.28338489526E+03  0.77157836254E+03  0.50400001928E-02 0.  1.
       -1    1    3    3    0  502  0.58257236902E+03 -0.41908901860E+03  0.12300891696E+03  0.72811905917E+03  0.50400001928E-02 0. -1.
</event>
<event>
 5   0  0.4726600E-04  0.1499413E+04  0.7818609E-02  0.8884844E-01
       -2   -1    0    0    0  501  0.00000000000E+00  0.00000000000E+00  0.88616617732E+03  0.88616617733E+03  0.25500000920E-02 0. -1.
        2   -1    0    0  501    0  0.00000000000E+00  0.00000000000E+00 -0.63425974137E+03  0.63425974137E+03  0.25500000920E-02 0.  1.
    10030    2    1    2    0    0  0.00000000000E+00  0.00000000000E+00  0.25190643595E+03  0.15204259187E+04  0.14994125922E+04 0.  0.
        2    1    3    3  502    0  0.48811504711E+02  0.29889973248E+03 -0.56946839370E+03  0.64499446858E+03  0.25500000920E-02 0.  1.
       -2    1    3    3    0  502 -0.48811504711E+02 -0.29889973248E+03  0.82137482965E+03  0.87543145012E+03  0.25500000920E-02 0. -1.
</event>
<event>
 5   0  0.4569211E-04  0.1495699E+04  0.7818609E-02  0.8887318E-01
       -2   -1    0    0    0  501  0.00000000000E+00  0.00000000000E+00  0.27860426218E+03  0.27860426219E+03  0.25500000920E-02 0. -1.
        2   -1    0    0  501    0  0.00000000000E+00  0.00000000000E+00 -0.20074321199E+04  0.20074321199E+04  0.25500000920E-02 0.  1.
    10030    2    1    2    0    0  0.00000000000E+00  0.00000000000E+00 -0.17288278578E+04  0.22860363821E+04  0.14956993611E+04 0.  0.
        5    1    3    3  502    0 -0.83837767836E+02 -0.19288625720E+03  0.23244863892E+03  0.31350971160E+03  0.46999998093E+01 0. -1.
       -5    1    3    3    0  502  0.83837767836E+02  0.19288625720E+03 -0.19612764967E+04  0.19725266705E+04  0.46999998093E+01 0.  1.
</event>
<event>
 5   0  0.1792000E-04  0.1529583E+04  0.7818609E-02  0.8865015E-01
        4   -1    0    0  501    0  0.00000000000E+00  0.00000000000E+00  0.45015266717E+03  0.45015445867E+03  0.12699999809E+01 0.  1.
       -4   -1    0    0    0  501  0.00000000000E+00  0.00000000000E+00 -0.12993460782E+04  0.12993466989E+04  0.12699999809E+01 0. -1.
    10030    2    1    2    0    0  0.00000000000E+00  0.00000000000E+00 -0.84919341102E+03  0.17495011575E+04  0.15295832278E+04 0.  0.
        4    1    3    3  502    0 -0.23099968262E+03  0.48724971081E+03  0.19571769722E+03  0.57365509146E+03  0.12699999809E+01 0.  1.
       -4    1    3    3    0  502  0.23099968262E+03 -0.48724971081E+03 -0.10449111082E+04  0.11758460661E+04  0.12699999809E+01 0. -1.
</event>
<event>
 5   0  0.2565416E-04  0.1502213E+04  0.7818609E-02  0.8882983E-01
       -1   -1    0    0    0  501  0.00000000000E+00  0.00000000000E+00  0.66271837825E+03  0.66271837827E+03  0.50400001928E-02 0. -1.
        1   -1    0    0  501    0  0.00000000000E+00  0.00000000000E+00 -0.85128318921E+03  0.85128318923E+03  0.50400001928E-02 0.  1.
    10030    2    1    2    0    0  0.00000000000E+00  0.00000000000E+00 -0.18856481096E+03  0.15140015675E+04  0.15022130536E+04 0.  0.
        5    1    3    3  502    0 -0.76289079645E+02 -0.13934897174E+03 -0.83414180109E+03  0.84914827558E+03  0.46999998093E+01 0.  1.
       -5    1    3    3    0  502  0.76289079645E+02  0.13934897174E+03  0.64557699013E+03  0.66485329192E+03  0.46999998093E+01 0. -1.
</event>
<event>
 5   0  0.4785496E-04  0.1498080E+04  0.7818609E-02  0.8885731E-01
        2   -1    0    0  501    0  0.00000000000E+00  0.00000000000E+00  0.96151368949E+03  0.96151368949E+03  0.25500000920E-02 0.  1.
       -2   -1    0    0    0  501  0.00000000000E+00  0.00000000000E+00 -0.58351835566E+03  0.58351835567E+03  0.25500000920E-02 0. -1.
    10030    2    1    2    0    0  0.00000000000E+00  0.00000000000E+00  0.37799533382E+03  0.15450320452E+04  0.14980799539E+04 0.  0.
        4    1    3    3  502    0 -0.83295031329E+02 -0.39876578786E+03 -0.45927825710E+03  0.61391395664E+03  0.12699999809E+01 0. -1.
       -4    1    3    3    0  502  0.83295031329E+02  0.39876578786E+03  0.83727359092E+03  0.93111808852E+03  0.12699999809E+01 0.  1.
</event>
<event>
 5   0  0.2605471E-04  0.1492561E+04  0.7818609E-02  0.8889415E-01
        1   -1    0    0  501    0  0.00000000000E+00  0.00000000000E+00  0.48405113732E+03  0.48405113735E+03  0.50400001928E-02 0. -1.
       -1   -1    0    0    0  501  0.00000000000E+00  0.00000000000E+00 -0.11505694010E+04  0.11505694010E+04  0.50400001928E-02 0.  1.
    10030    2    1    2    0    0  0.00000000000E+00  0.00000000000E+00 -0.66651826370E+03  0.16346205384E+04  0.14925607889E+04 0.  0.
        3    1    3    3  502    0  0.74111357584E+02  0.33602836812E+03 -0.10585012584E+04  0.11130285179E+04  0.10100000352E+00 0.  1.
       -3    1    3    3    0  502 -0.74111357584E+02 -0.33602836812E+03  0.39198299467E+03  0.52159202047E+03  0.10100000352E+00 0. -1.
</event>
<event>
 5   0  0.2603873E-04  0.1499508E+04  0.7818609E-02  0.8884780E-01
       -1   -1    0    0    0  501  0.00000000000E+00  0.00000000000E+00  0.17733580565E+04  0.17733580565E+04  0.50400001928E-02 0.  1.
        1   -1    0    0  501    0  0.00000000000E+00  0.00000000000E+00 -0.31698664779E+03  0.31698664784E+03  0.50400001928E-02 0. -1.
    10030    2    1    2    0    0  0.00000000000E+00  0.00000000000E+00  0.14563714087E+04  0.20903447043E+04  0.14995076868E+04 0.  0.
        2    1    3    3  502    0  0.33857971365E+03  0.46677127362E+03  0.60190577482E+02  0.57977111863E+03  0.25500000920E-02 0. -1.
       -2    1    3    3    0  502 -0.33857971365E+03 -0.46677127362E+03  0.13961808312E+04  0.15105735857E+04  0.25500000920E-02 0.  1.
</event>
<event>
 5   0  0.4726600E-04  0.1499719E+04  0.7818609E-02  0.8884640E-01
        2   -1    0    0  501    0  0.00000000000E+00  0.00000000000E+00  0.18119119181E+04  0.18119119181E+04  0.25500000920E-02 0. -1.
       -2   -1    0    0    0  501  0.00000000000E+00  0.00000000000E+00 -0.31032924703E+03  0.31032924704E+03  0.25500000920E-02 0.  1.
    10030    2    1    2    0    0  0.00000000000E+00  0.00000000000E+00  0.15015826711E+04  0.21222411651E+04  0.14997189887E+04 0.  0.
        2    1    3    3  502    0  0.40854436543E+03 -0.18953000455E+03 -0.97626147914E+02  0.46082641625E+03  0.25500000920E-02 0.  1.
       -2    1    3    3    0  502 -0.40854436543E+03  0.18953000455E+03  0.15992088190E+04  0.16614147489E+04  0.25500000920E-02 0. -1.
</event>
<event>
 5   0  0.4569211E-04  0.1492788E+04  0.7818609E-02  0.8889263E-01
       -2   -1    0    0    0  501  0.00000000000E+00  0.00000000000E+00  0.62930122060E+03  0.62930122061E+03  0.25500000920E-02 0. -1.
        2   -1    0    0  501    0  0.00000000000E+00  0.00000000000E+00 -0.88527400906E+03  0.88527400906E+03  0.25500000920E-02 0.  1.
    10030    2    1    2    0    0  0.00000000000E+00  0.00000000000E+00 -0.25597278845E+03  0.15145752297E+04  0.14927880151E+04 0.  0.
        5    1    3    3  502    0 -0.21549548434E+03 -0.46852822642E+03  0.41944840685E+03  0.66476767275E+03  0.46999998093E+01 0. -1.
       -5    1    3    3    0  502  0.21549548434E+03  0.46852822642E+03 -0.67542119531E+03  0.84980755692E+03  0.46999998093E+01 0.  1.
</event>
<event>
 5   0  0.2544374E-04  0.1488608E+04  0.7818609E-02  0.8892064E-01
        1   -1    0    0  501    0  0.00000000000E+00  0.00000000000E+00  0.84981478662E+03  0.84981478664E+03  0.50400001928E-02 0. -1.
       -1   -1    0    0    0  501  0.00000000000E+00  0.00000000000E+00 -0.65189306451E+03  0.65189306453E+03  0.50400001928E-02 0.  1.
    10030    2    1    2    0    0  0.00000000000E+00  0.00000000000E+00  0.19792172211E+03  0.15017078512E+04  0.14886078940E+04 0.  0.
        4    1    3    3  502    0 -0.60903214939E+03 -0.77933723185E+02  0.52336840120E+03  0.80678988620E+03  0.12699999809E+01 0. -1.
       -4    1    3    3    0  502  0.60903214939E+03  0.77933723185E+02 -0.32544667910E+03  0.69491796497E+03  0.12699999809E+01 0.  1.
</event>
<event>
 5   0  0.4569211E-04  0.1477103E+04  0.7818609E-02  0.8899823E-01
        2   -1    0    0  501    0  0.00000000000E+00  0.00000000000E+00  0.58841355702E+03  0.58841355703E+03  0.25500000920E-02 0.  1.
       -2   -1    0    0    0  501  0.00000000000E+00  0.00000000000E+00 -0.92699833205E+03  0.92699833205E+03  0.25500000920E-02 0. -1.
    10030    2    1    2    0    0  0.00000000000E+00  0.00000000000E+00 -0.33858477503E+03  0.15154118891E+04  0.14771030918E+04 0.  0.
        5    1    3    3  502    0 -0.39972770166E+03 -0.32422682949E+03  0.37409597247E+03  0.63629801119E+03  0.46999998093E+01 0.  1.
       -5    1    3    3    0  502  0.39972770166E+03  0.32422682949E+03 -0.71268074750E+03  0.87911387788E+03  0.46999998093E+01 0. -1.
</event>
<event>
 5   0  0.2605471E-04  0.1463851E+04  0.7818609E-02  0.8908854E-01
       -1   -1    0    0    0  501  0.00000000000E+00  0.00000000000E+00  0.12360191570E+04  0.12360191570E+04  0.50400001928E-02 0. -1.
        1   -1    0    0  501    0  0.00000000000E+00  0.00000000000E+00 -0.43341940869E+03  0.43341940872E+03  0.50400001928E-02 0.  1.
    10030    2    1    2    0    0  0.00000000000E+00  0.00000000000E+00  0.80259974826E+03  0.16694385657E+04  0.14638506647E+04 0.  0.
        3    1    3    3  502    0  0.30268290458E+03  0.53137187765E+03 -0.57353536779E+02  0.61421694169E+03  0.10100000352E+00 0.  1.
       -3    1    3    3    0  502 -0.30268290458E+03 -0.53137187765E+03  0.85995328504E+03  0.10552216240E+04  0.10100000352E+00 0. -1.
</event>
<event>
 5   0  0.4726600E-04  0.1477235E+04  0.7818609E-02  0.8899734E-01
        2   -1    0    0  501    0  0.00000000000E+00  0.00000000000E+00  0.14438496342E+04  0.14438496342E+04  0.25500000920E-02 0. -1.
       -2   -1    0    0    0  501  0.00000000000E+00  0.00000000000E+00 -0.37784784236E+03  0.37784784237E+03  0.25500000920E-02 0.  1.
    10030    2    1    2    0    0  0.00000000000E+00  0.00000000000E+00  0.10660017919E+04  0.18216974766E+04  0.14772345366E+04 0.  0.
        2    1    3    3  502    0 -0.64280639409E+03 -0.34469146052E+03  0.38948911877E+03  0.82687002418E+03  0.25500000920E-02 0. -1.
       -2    1    3    3    0  502  0.64280639409E+03  0.34469146052E+03  0.67651267311E+03  0.99482745243E+03  0.25500000920E-02 0.  1.
</event>
<event>
 5   0  0.4768387E-04  0.1473226E+04  0.7818609E-02  0.8902455E-01
        2   -1    0    0  501    0  0.00000000000E+00  0.00000000000E+00  0.13604369739E+04  0.13604369739E+04  0.25500000920E-02 0. -1.
       -2   -1    0    0    0  501  0.00000000000E+00  0.00000000000E+00 -0.39884122805E+03  0.39884122806E+03  0.25500000920E-02 0.  1.
    10030    2    1    2    0    0  0.00000000000E+00  0.00000000000E+00  0.96159574581E+03  0.17592782019E+04  0.14732255134E+04 0.  0.
        3    1    3    3  502    0 -0.36759089653E+02 -0.49117649473E+03 -0.17326678012E+03  0.52213692356E+03  0.10100000352E+00 0.  1.
       -3    1    3    3    0  502  0.36759089653E+02  0.49117649473E+03  0.11348625259E+04  0.12371412784E+04  0.10100000352E+00 0. -1.
</event>
<event>
 5   0  0.4948645E-04  0.1506691E+04  0.7818609E-02  0.8880016E-01
       -2   -1    0    0    0  501  0.00000000000E+00  0.00000000000E+00  0.38010249625E+03  0.38010249626E+03  0.25500000920E-02 0. -1.
        2   -1    0    0  501    0  0.00000000000E+00  0.00000000000E+00 -0.14930953380E+04  0.14930953380E+04  0.25500000920E-02 0.  1.
    10030    2    1    2    0    0  0.00000000000E+00  0.00000000000E+00 -0.11129928418E+04  0.18731978343E+04  0.15066907648E+04 0.  0.
        1    1    3    3  502    0  0.48685563714E+03  0.51778911432E+03 -0.86704919520E+03  0.11211192110E+04  0.50400001928E-02 0. -1.
       -1    1    3    3    0  502 -0.48685563714E+03 -0.51778911432E+03 -0.24594364659E+03  0.75207862332E+03  0.50400001928E-02 0.  1.
</event>
<event>
 5   0  0.2542737E-04  0.1500160E+04  0.7818609E-02  0.8884346E-01
       -1   -1    0    0    0  501  0.00000000000E+00  0.00000000000E+00  0.59226799760E+03  0.59226799763E+03  0.50400001928E-02 0.  1.
        1   -1    0    0  501    0  0.00000000000E+00  0.00000000000E+00 -0.94994205703E+03  0.94994205704E+03  0.50400001928E-02 0. -1.
    10030    2    1    2    0    0  0.00000000000E+00  0.00000000000E+00 -0.35767405942E+03  0.15422100547E+04  0.15001603647E+04 0.  0.
        1    1    3    3  502    0 -0.21857739869E+03  0.63238783388E+03  0.16967857015E+03  0.69027622648E+03  0.50400001928E-02 0.  1.
       -1    1    3    3    0  502  0.21857739869E+03 -0.63238783388E+03 -0.52735262958E+03  0.85193382818E+03  0.50400001928E-02 0. -1.
</event>
<event>
 5   0  0.4768387E-04  0.1501003E+04  0.7818609E-02  0.8883786E-01
       -2   -1    0    0    0  501  0.00000000000E+00  0.00000000000E+00  0.12056056135E+04  0.12056056135E+04  0.25500000920E-02 0.  1.
        2   -1    0    0  501    0  0.00000000000E+00  0.00000000000E+00 -0.46719443092E+03  0.46719443092E+03  0.25500000920E-02 0. -1.
    10030    2    1    2    0    0  0.00000000000E+00  0.00000000000E+00  0.73841118255E+03  0.16728000444E+04  0.15010026362E+04 0.  0.
        3    1    3    3  502    0 -0.48799944000E+03  0.56014530223E+03  0.48791470607E+03  0.88880086839E+03  0.10100000352E+00 0.  1.
       -3    1    3    3    0  502  0.48799944000E+03 -0.56014530223E+03  0.25049647648E+03  0.78399917601E+03  0.10100000352E+00 0. -1.
</event>
<event>
 5   0  0.2544374E-04  0.1493058E+04  0.7818609E-02  0.8889082E-01
       -1   -1    0    0    0  501  0.00000000000E+00  0.00000000000E+00  0.46610834218E+03  0.46610834221E+03  0.50400001928E-02 0.  1.
        1   -1    0    0  501    0  0.00000000000E+00  0.00000000000E+00 -0.11956569888E+04  0.11956569888E+04  0.50400001928E-02 0. -1.
    10030    2    1    2    0    0  0.00000000000E+00  0.00000000000E+00 -0.72954864658E+03  0.16617653310E+04  0.14930581996E+04 0.  0.
        4    1    3    3  502    0  0.32494929519E+03 -0.26747060113E+03  0.32147628932E+03  0.52960474357E+03  0.12699999809E+01 0.  1.
       -4    1    3    3    0  502 -0.32494929519E+03  0.26747060113E+03 -0.10510249359E+04  0.11321605874E+04  0.12699999809E+01 0. -1.
</event>
<event>
 5   0  0.4569211E-04  0.1503395E+04  0.7818609E-02  0.8882199E-01
        2   -1    0    0  501    0  0.00000000000E+00  0.00000000000E+00  0.25514886427E+04  0.25514886427E+04  0.25500000920E-02 0.  1.
       -2   -1    0    0    0  501  0.00000000000E+00  0.00000000000E+00 -0.22145849855E+03  0.22145849856E+03  0.25500000920E-02 0. -1.
    10030    2    1    2    0    0  0.00000000000E+00  0.00000000000E+00  0.23300301441E+04  0.27729471412E+04  0.15033946174E+04 0.  0.
        5    1    3    3  502    0  0.41364216954E+03 -0.84093267342E+02  0.17805300998E+02  0.42250519615E+03  0.46999998093E+01 0. -1.
       -5    1    3    3    0  502 -0.41364216954E+03  0.84093267342E+02  0.23122248431E+04  0.23504419451E+04  0.46999998093E+01 0.  1.
</event>
<event>
 5   0  0.2544374E-04  0.1498718E+04  0.7818609E-02  0.8885306E-01
       -1   -1    0    0    0  501  0.00000000000E+00  0.00000000000E+00  0.47818743243E+03  0.47818743246E+03  0.50400001928E-02 0. -1.
        1   -1    0    0  501    0  0.00000000000E+00  0.00000000000E+00 -0.11743065550E+04  0.11743065550E+04  0.50400001928E-02 0.  1.
    10030    2    1    2    0    0  0.00000000000E+00  0.00000000000E+00 -0.69611912255E+03  0.16524939875E+04  0.14987176338E+04 0.  0.
        4    1    3    3  502    0 -0.74196503016E+03  0.65880901593E+02 -0.43820807582E+03  0.86422238445E+03  0.12699999809E+01 0. -1.
       -4    1    3    3    0  502  0.74196503016E+03 -0.65880901593E+02 -0.25791104673E+03  0.78827160300E+03  0.12699999809E+01 0.  1.
</event>
<event>
 5   0  0.2605471E-04  0.1428986E+04  0.7818609E-02  0.8933101E-01
        1   -1    0    0  501    0  0.00000000000E+00  0.00000000000E+00  0.12044809727E+04  0.12044809727E+04  0.50400001928E-02 0. -1.
       -1   -1    0    0    0  501  0.00000000000E+00  0.00000000000E+00 -0.42383393258E+03  0.42383393261E+03  0.50400001928E-02 0.  1.
    10030    2    1    2    0    0  0.00000000000E+00  0.00000000000E+00  0.78064704014E+03  0.16283149053E+04  0.14289855247E+04 0.  0.
        3    1    3    3  502    0  0.24652499914E+03  0.55263665095E+03  0.82320688916E+03  0.10216904794E+04  0.10100000352E+00 0. -1.
       -3    1    3    3    0  502 -0.24652499914E+03 -0.55263665095E+03 -0.42559849021E+02  0.60662442592E+03  0.10100000352E+00 0.  1.
</event>
<event>
 5   0  0.4948645E-04  0.1437725E+04  0.7818609E-02  0.8926955E-01
        2   -1    0    0  501    0  0.00000000000E+00  0.00000000000E+00  0.13099801832E+04  0.13099801832E+04  0.25500000920E-02 0. -1.
       -2   -1    0    0    0  501  0.00000000000E+00  0.00000000000E+00 -0.39448167903E+03  0.39448167904E+03  0.25500000920E-02 0.  1.
    10030    2    1    2    0    0  0.00000000000E+00  0.00000000000E+00  0.91549850413E+03  0.17044618622E+04  0.14377248446E+04 0.  0.
        1    1    3    3  502    0  0.38131446722E+03  0.30854681368E+03 -0.16525776451E+03  0.51760215214E+03  0.50400001928E-02 0.  1.
       -1    1    3    3    0  502 -0.38131446722E+03 -0.30854681368E+03  0.10807562686E+04  0.11868597101E+04  0.50400001928E-02 0. -1.
</event>
<event>
 5   0  0.4785496E-04  0.1504722E+04  0.7818609E-02  0.8881319E-01
       -2   -1    0    0    0  501  0.00000000000E+00  0.00000000000E+00  0.52832854698E+03  0.52832854699E+03  0.25500000920E-02 0. -1.
        2   -1    0    0  501    0  0.00000000000E+00  0.00000000000E+00 -0.10713924619E+04  0.10713924619E+04  0.25500000920E-02 0.  1.
    10030    2    1    2    0    0  0.00000000000E+00  0.00000000000E+00 -0.54306391490E+03  0.15997210089E+04  0.15047221971E+04 0.  0.
        4    1    3    3  502    0 -0.68958293103E+03  0.26049099925E+03 -0.43158720037E+03  0.85419512050E+03  0.12699999809E+01 0. -1.
       -4    1    3    3    0  502  0.68958293103E+03 -0.26049099925E+03 -0.11147671452E+03  0.74552588837E+03  0.12699999809E+01 0.  1.
</event>
<event>
 5   0  0.4768387E-04  0.1478627E+04  0.7818609E-02  0.8898792E-01
       -2   -1    0    0    0  501  0.00000000000E+00  0.00000000000E+00  0.79769546065E+03  0.79769546065E+03  0.25500000920E-02 0. -1.
        2   -1    0    0  501    0  0.00000000000E+00  0.00000000000E+00 -0.68520417626E+03  0.68520417627E+03  0.25500000920E-02 0.  1.
    10030    2    1    2    0    0  0.00000000000E+00  0.00000000000E+00  0.11249128438E+03  0.14828996369E+04  0.14786267427E+04 0.  0.
        3    1    3    3  502    0  0.65734465491E+03 -0.29172342828E+03  0.22814603044E+03  0.75449001011E+03  0.10100000352E+00 0. -1.
       -3    1    3    3    0  502 -0.65734465491E+03  0.29172342828E+03 -0.11565474605E+03  0.72840962681E+03  0.10100000352E+00 0.  1.
</event>
<event>
 5   0  0.2603873E-04  0.1514178E+04  0.7818609E-02  0.8875079E-01
        1   -1    0    0  501    0  0.00000000000E+00  0.00000000000E+00  0.10203859199E+04  0.10203859199E+04  0.50400001928E-02 0.  1.
       -1   -1    0    0    0  501  0.00000000000E+00  0.00000000000E+00 -0.56173265332E+03  0.56173265334E+03  0.50400001928E-02 0. -1.
    10030    2    1    2    0    0  0.00000000000E+00  0.00000000000E+00  0.45865326659E+03  0.15821185733E+04  0.15141784442E+04 0.  0.
        2    1    3    3  502    0 -0.60340488384E+03  0.23848966143E+03 -0.17831880744E+03  0.67288362258E+03  0.25500000920E-02 0. -1.
       -2    1    3    3    0  502  0.60340488384E+03 -0.23848966143E+03  0.63697207403E+03  0.90923495068E+03  0.25500000920E-02 0.  1.
</event>
<event>
 5   0  0.2603873E-04  0.1501825E+04  0.7818609E-02  0.8883241E-01
       -1   -1    0    0    0  501  0.00000000000E+00  0.00000000000E+00  0.25182455514E+03  0.25182455519E+03  0.50400001928E-02 0.  1.
        1   -1    0    0  501    0  0.00000000000E+00  0.00000000000E+00 -0.22391353748E+04  0.22391353748E+04  0.50400001928E-02 0. -1.
    10030    2    1    2    0    0  0.00000000000E+00  0.00000000000E+00 -0.19873108197E+04  0.24909599300E+04  0.15018245833E+04 0.  0.
        2    1    3    3  502    0  0.47642094300E+03  0.56747338958E+03 -0.11958870387E+04  0.14068222248E+04  0.25500000920E-02 0. -1.
       -2    1    3    3    0  502 -0.47642094300E+03 -0.56747338958E+03 -0.79142378101E+03  0.10841377053E+04  0.25500000920E-02 0.  1.
</event>
<event>
 5   0  0.4569211E-04  0.1474480E+04  0.7818609E-02  0.8901603E-01
        2   -1    0    0  501    0  0.00000000000E+00  0.00000000000E+00  0.13627639407E+04  0.13627639407E+04  0.25500000920E-02 0. -1.
       -2   -1    0    0    0  501  0.00000000000E+00  0.00000000000E+00 -0.39883854453E+03  0.39883854454E+03  0.25500000920E-02 0.  1.
    10030    2    1    2    0    0  0.00000000000E+00  0.00000000000E+00  0.96392539622E+03  0.17616024853E+04  0.14744799581E+04 0.  0.
        5    1    3    3  502    0 -0.11653283155E+03 -0.35461350162E+03  0.12415035024E+04  0.12964118454E+04  0.46999998093E+01 0. -1.
       -5    1    3    3    0  502  0.11653283155E+03  0.35461350162E+03 -0.27757810623E+03  0.46519063986E+03  0.46999998093E+01 0.  1.
</event>
<event>
 5   0  0.2542737E-04  0.1431987E+04  0.7818609E-02  0.8930985E-01
       -1   -1    0    0    0  501  0.00000000000E+00  0.00000000000E+00  0.59201864988E+03  0.59201864990E+03  0.50400001928E-02 0.  1.
        1   -1    0    0  501    0  0.00000000000E+00  0.00000000000E+00 -0.86593031924E+03  0.86593031925E+03  0.50400001928E-02 0. -1.
    10030    2    1    2    0    0  0.00000000000E+00  0.00000000000E+00 -0.27391166936E+03  0.14579489692E+04  0.14319872884E+04 0.  0.
        1    1    3    3  502    0  0.52155640109E+03 -0.27051285117E+03  0.27966783695E+03  0.65070145322E+03  0.50400001928E-02 0. -1.
       -1    1    3    3    0  502 -0.52155640109E+03  0.27051285117E+03 -0.55357950631E+03  0.80724751594E+03  0.50400001928E-02 0.  1.
</event>
<event>
 5   0  0.4768387E-04  0.1517219E+04  0.7818609E-02  0.8873082E-01
       -2   -1    0    0    0  501  0.00000000000E+00  0.00000000000E+00  0.31484897924E+03  0.31484897925E+03  0.25500000920E-02 0. -1.
        2   -1    0    0  501    0  0.00000000000E+00  0.00000000000E+00 -0.18278241609E+04  0.18278241609E+04  0.25500000920E-02 0.  1.
    10030    2    1    2    0    0  0.00000000000E+00  0.00000000000E+00 -0.15129751816E+04  0.21426731401E+04  0.15172192607E+04 0.  0.
        3    1    3    3  502    0  0.15698188949E+03 -0.66129247924E+03 -0.12323454540E+04  0.14073472865E+04  0.10100000352E+00 0. -1.
       -3    1    3    3    0  502 -0.15698188949E+03  0.66129247924E+03 -0.28062972764E+03  0.73532585359E+03  0.10100000352E+00 0.  1.
</event>
<event>
 5   0  0.2603873E-04  0.1504551E+04  0.7818609E-02  0.8881432E-01
        1   -1    0    0  501    0  0.00000000000E+00  0.00000000000E+00  0.14980019995E+04  0.14980019995E+04  0.50400001928E-02 0.  1.
       -1   -1    0    0    0  501  0.00000000000E+00  0.00000000000E+00 -0.37778209845E+03  0.37778209848E+03  0.50400001928E-02 0. -1.
    10030    2    1    2    0    0  0.00000000000E+00  0.00000000000E+00  0.11202199010E+04  0.18757840980E+04  0.15045508817E+04 0.  0.
        2    1    3    3  502    0  0.12010570873E+01  0.75194159658E+03  0.53221160192E+03  0.92123113084E+03  0.25500000920E-02 0. -1.
       -2    1    3    3    0  502 -0.12010570873E+01 -0.75194159658E+03  0.58800829910E+03  0.95455296712E+03  0.25500000920E-02 0.  1.
</event>
<event>
 5   0  0.2544374E-04  0.1499066E+04  0.7818609E-02  0.8885074E-01
        1   -1    0    0  501    0  0.00000000000E+00  0.00000000000E+00  0.79967870117E+03  0.79967870119E+03  0.50400001928E-02 0. -1.
       -1   -1    0    0    0  501  0.00000000000E+00  0.00000000000E+00 -0.70253171552E+03  0.70253171554E+03  0.50400001928E-02 0.  1.
    10030    2    1    2    0    0  0.00000000000E+00  0.00000000000E+00  0.97146985649E+02  0.15022104167E+04  0.14990659089E+04 0.  0.
        4    1    3    3  502    0 -0.38223044334E+03  0.31632690258E+03  0.61156619774E+03  0.78751358606E+03  0.12699999809E+01 0. -1.
       -4    1    3    3    0  502  0.38223044334E+03 -0.31632690258E+03 -0.51441921209E+03  0.71469683067E+03  0.12699999809E+01 0.  1.
</event>
<event>
 5   0  0.2565416E-04  0.1507623E+04  0.7818609E-02  0.8879399E-01
        1   -1    0    0  501    0  0.00000000000E+00  0.00000000000E+00  0.80838811143E+03  0.80838811145E+03  0.50400001928E-02 0.  1.
       -1   -1    0    0    0  501  0.00000000000E+00  0.00000000000E+00 -0.70291977624E+03  0.70291977626E+03  0.50400001928E-02 0. -1.
    10030    2    1    2    0    0  0.00000000000E+00  0.00000000000E+00  0.10546833519E+03  0.15113078877E+04  0.15076232824E+04 0.  0.
        5    1    3    3  502    0 -0.62709239629E+03  0.36098703732E+03  0.26456409173E+03  0.77043673538E+03  0.46999998093E+01 0.  1.
       -5    1    3    3    0  502  0.62709239629E+03 -0.36098703732E+03 -0.15909575653E+03  0.74087115232E+03  0.46999998093E+01 0. -1.
</event>
<event>
 5   0  0.4785496E-04  0.1493274E+04  0.7818609E-02  0.8888938E-01
        2   -1    0    0  501    0  0.00000000000E+00  0.00000000000E+00  0.25139195698E+04  0.25139195698E+04  0.25500000920E-02 0. -1.
       -2   -1    0    0    0  501  0.00000000000E+00  0.00000000000E+00 -0.22175215508E+03  0.22175215510E+03  0.25500000920E-02 0.  1.
    10030    2    1    2    0    0  0.00000000000E+00  0.00000000000E+00  0.22921674147E+04  0.27356717249E+04  0.14932743650E+04 0.  0.
        4    1    3    3  502    0  0.64772200636E+03 -0.22669827802E+03  0.16849817751E+04  0.18193683250E+04  0.12699999809E+01 0. -1.
       -4    1    3    3    0  502 -0.64772200636E+03  0.22669827802E+03  0.60718563965E+03  0.91630339990E+03  0.12699999809E+01 0.  1.
</event>
<event>
 5   0  0.2565416E-04  0.1508405E+04  0.7818609E-02  0.8878883E-01
        1   -1    0    0  501    0  0.00000000000E+00  0.00000000000E+00  0.95518620623E+03  0.95518620625E+03  0.50400001928E-02 0.  1.
       -1   -1    0    0    0  501  0.00000000000E+00  0.00000000000E+00 -0.59550862598E+03  0.59550862600E+03  0.50400001928E-02 0. -1.
    10030    2    1    2    0    0  0.00000000000E+00  0.00000000000E+00  0.35967758025E+03  0.15506948322E+04  0.15084052841E+04 0.  0.
        5    1    3    3  502    0  0.46087125613E+03  0.28249352850E+03  0.72050616510E+03  0.90075309177E+03  0.46999998093E+01 0.  1.
       -5    1    3    3    0  502 -0.46087125613E+03 -0.28249352850E+03 -0.36082858485E+03  0.64994174048E+03  0.46999998093E+01 0. -1.
</event>
<event>
 5   0  0.4726600E-04  0.1497269E+04  0.7818609E-02  0.8886271E-01
        2   -1    0    0  501    0  0.00000000000E+00  0.00000000000E+00  0.37976065369E+03  0.37976065369E+03  0.25500000920E-02 0. -1.
       -2   -1    0    0    0  501  0.00000000000E+00  0.00000000000E+00 -0.14758069183E+04  0.14758069183E+04  0.25500000920E-02 0.  1.
    10030    2    1    2    0    0  0.00000000000E+00  0.00000000000E+00 -0.10960462646E+04  0.18555675719E+04  0.14972687134E+04 0.  0.
        2    1    3    3  502    0  0.69495773991E+03 -0.26749693955E+03 -0.45256852645E+03  0.87140067940E+03  0.25500000920E-02 0.  1.
       -2    1    3    3    0  502 -0.69495773991E+03  0.26749693955E+03 -0.64347773811E+03  0.98416689254E+03  0.25500000920E-02 0. -1.
</event>
<event>
 5   0  0.2603873E-04  0.1519211E+04  0.7818609E-02  0.8871777E-01
       -1   -1    0    0    0  501  0.00000000000E+00  0.00000000000E+00  0.26261625696E+03  0.26261625701E+03  0.50400001928E-02 0. -1.
        1   -1    0    0  501    0  0.00000000000E+00  0.00000000000E+00 -0.21971241757E+04  0.21971241757E+04  0.50400001928E-02 0.  1.
    10030    2    1    2    0    0  0.00000000000E+00  0.00000000000E+00 -0.19345079188E+04  0.24597404327E+04  0.15192110152E+04 0.  0.
        2    1    3    3  502    0 -0.50998965122E+03  0.54883622087E+03 -0.76444783479E+03  0.10703696249E+04  0.25500000920E-02 0.  1.
       -2    1    3    3    0  502  0.50998965122E+03 -0.54883622087E+03 -0.11700600840E+04  0.13893708079E+04  0.25500000920E-02 0. -1.
</event>
<event>
 5   0  0.2542737E-04  0.1501389E+04  0.7818609E-02  0.8883529E-01
       -1   -1    0    0    0  501  0.00000000000E+00  0.00000000000E+00  0.86779749944E+03  0.86779749945E+03  0.50400001928E-02 0. -1.
        1   -1    0    0  501    0  0.00000000000E+00  0.00000000000E+00 -0.64939411925E+03  0.64939411927E+03  0.50400001928E-02 0.  1.
    10030    2    1    2    0    0  0.00000000000E+00  0.00000000000E+00  0.21840338018E+03  0.15171916187E+04  0.15013894803E+04 0.  0.
        1    1    3    3  502    0  0.23435351223E+03 -0.91289204770E+02  0.82395604104E+03  0.86148641614E+03  0.50400001928E-02 0. -1.
       -1    1    3    3    0  502 -0.23435351223E+03  0.91289204770E+02 -0.60555266086E+03  0.65570520259E+03  0.50400001928E-02 0.  1.
</event>
<event>
 5   0  0.4726600E-04  0.1489596E+04  0.7818609E-02  0.8891401E-01
        2   -1    0    0  501    0  0.00000000000E+00  0.00000000000E+00  0.16485953046E+04  0.16485953047E+04  0.25500000920E-02 0. -1.
       -2   -1    0    0    0  501  0.00000000000E+00  0.00000000000E+00 -0.33648287286E+03  0.33648287287E+03  0.25500000920E-02 0.  1.
    10030    2    1    2    0    0  0.00000000000E+00  0.00000000000E+00  0.13121124318E+04  0.19850781775E+04  0.14895960316E+04 0.  0.
        2    1    3    3  502    0  0.28946530602E+03  0.50856209253E+03  0.12700763196E+04  0.13983988783E+04  0.25500000920E-02 0. -1.
       -2    1    3    3    0  502 -0.28946530602E+03 -0.50856209253E+03  0.42036112195E+02  0.58667929918E+03  0.25500000920E-02 0.  1.
</event>
<event>
 5   0  0.4785496E-04  0.1528763E+04  0.7818609E-02  0.8865548E-01
        2   -1    0    0  501    0  0.00000000000E+00  0.00000000000E+00  0.15652001110E+04  0.15652001110E+04  0.25500000920E-02 0.  1.
       -2   -1    0    0    0  501  0.00000000000E+00  0.00000000000E+00 -0.37329344569E+03  0.37329344570E+03  0.25500000920E-02 0. -1.
    10030    2    1    2    0    0  0.00000000000E+00  0.00000000000E+00  0.11919066653E+04  0.19384935567E+04  0.15287628235E+04 0.  0.
        4    1    3    3  502    0 -0.12576331638E+03  0.69334015284E+03  0.97155190356E+03  0.12001881909E+04  0.12699999809E+01 0.  1.
       -4    1    3    3    0  502  0.12576331638E+03 -0.69334015284E+03  0.22035476175E+03  0.73830536583E+03  0.12699999809E+01 0. -1.
</event>
<event>
 5   0  0.2603873E-04  0.1498818E+04  0.7818609E-02  0.8885239E-01
        1   -1    0    0  501    0  0.00000000000E+00  0.00000000000E+00  0.11332767796E+04  0.11332767796E+04  0.50400001928E-02 0.  1.
       -1   -1    0    0    0  501  0.00000000000E+00  0.00000000000E+00 -0.49556651629E+03  0.49556651631E+03  0.50400001928E-02 0. -1.
    10030    2    1    2    0    0  0.00000000000E+00  0.00000000000E+00  0.63771026329E+03  0.16288432959E+04  0.14988182354E+04 0.  0.
        2    1    3    3  502    0  0.16394945117E+03  0.44034005384E+03  0.95331269971E+03  0.10628188411E+04  0.25500000920E-02 0.  1.
       -2    1    3    3    0  502 -0.16394945117E+03 -0.44034005384E+03 -0.31560243642E+03  0.56602445480E+03  0.25500000920E-02 0. -1.
</event>
<event>
 5   0  0.2542737E-04  0.1496804E+04  0.7818609E-02  0.8886581E-01
        1   -1    0    0  501    0  0.00000000000E+00  0.00000000000E+00  0.19063448870E+04  0.19063448870E+04  0.50400001928E-02 0. -1.
       -1   -1    0    0    0  501  0.00000000000E+00  0.00000000000E+00 -0.29381128226E+03  0.29381128230E+03  0.50400001928E-02 0.  1.
    10030    2    1    2    0    0  0.00000000000E+00  0.00000000000E+00  0.16125336048E+04  0.22001561694E+04  0.14968041098E+04 0.  0.
        1    1    3    3  502    0  0.57819693081E+03  0.16953231090E+03  0.15376790636E+03  0.62185003360E+03  0.50400001928E-02 0.  1.
       -1    1    3    3    0  502 -0.57819693081E+03 -0.16953231090E+03  0.14587656984E+04  0.15783061358E+04  0.50400001928E-02 0. -1.
</event>
<event>
 5   0  0.2544374E-04  0.1506258E+04  0.7818609E-02  0.8880302E-01
       -1   -1    0    0    0  501  0.00000000000E+00  0.00000000000E+00  0.30097790430E+03  0.30097790434E+03  0.50400001928E-02 0. -1.
        1   -1    0    0  501    0  0.00000000000E+00  0.00000000000E+00 -0.18845350353E+04  0.18845350353E+04  0.50400001928E-02 0.  1.
    10030    2    1    2    0    0  0.00000000000E+00  0.00000000000E+00 -0.15835571310E+04  0.21855129397E+04  0.15062581526E+04 0.  0.
        4    1    3    3  502    0 -0.30540927421E+03  0.67391349317E+03 -0.99577878373E+03  0.12405689098E+04  0.12699999809E+01 0. -1.
       -4    1    3    3    0  502  0.30540927421E+03 -0.67391349317E+03 -0.58777834728E+03  0.94494402981E+03  0.12699999809E+01 0.  1.
</event>
<event>
 5   0  0.4785496E-04  0.1501037E+04  0.7818609E-02  0.8883764E-01
       -2   -1    0    0    0  501  0.00000000000E+00  0.00000000000E+00  0.42617939943E+03  0.42617939944E+03  0.25500000920E-02 0. -1.
        2   -1    0    0  501    0  0.00000000000E+00  0.00000000000E+00 -0.13216925660E+04  0.13216925660E+04  0.25500000920E-02 0.  1.
    10030    2    1    2    0    0  0.00000000000E+00  0.00000000000E+00 -0.89551316661E+03  0.17478719655E+04  0.15010371668E+04 0.  0.
        4    1    3    3  502    0 -0.24746012528E+03 -0.70614571660E+03 -0.37987601339E+03  0.83915772362E+03  0.12699999809E+01 0.  1.
       -4    1    3    3    0  502  0.24746012528E+03  0.70614571660E+03 -0.51563715322E+03  0.90871424186E+03  0.12699999809E+01 0. -1.
</event>
<event>
 5   0  0.2605471E-04  0.1501637E+04  0.7818609E-02  0.8883365E-01
       -1   -1    0    0    0  501  0.00000000000E+00  0.00000000000E+00  0.45399663033E+03  0.45399663036E+03  0.50400001928E-02 0. -1.
        1   -1    0    0  501    0  0.00000000000E+00  0.00000000000E+00 -0.12417025100E+04  0.12417025100E+04  0.50400001928E-02 0.  1.
    10030    2    1    2    0    0  0.00000000000E+00  0.00000000000E+00 -0.78770587970E+03  0.16956991404E+04  0.15016374469E+04 0.  0.
        3    1    3    3  502    0 -0.35595922520E+03  0.35449843527E+03 -0.10239536697E+04  0.11405512871E+04  0.10100000352E+00 0.  1.
       -3    1    3    3    0  502  0.35595922520E+03 -0.35449843527E+03  0.23624778995E+03  0.55514785334E+03  0.10100000352E+00 0. -1.
</event>
<event>
 5   0  0.2542737E-04  0.1496383E+04  0.7818609E-02  0.8886862E-01
       -1   -1    0    0    0  501  0.00000000000E+00  0.00000000000E+00  0.62831259852E+03  0.62831259854E+03  0.50400001928E-02 0. -1.
        1   -1    0    0  501    0  0.00000000000E+00  0.00000000000E+00 -0.89094262904E+03  0.89094262906E+03  0.50400001928E-02 0.  1.
    10030    2    1    2    0    0  0.00000000000E+00  0.00000000000E+00 -0.26263003053E+03  0.15192552276E+04  0.14963829435E+04 0.  0.
        1    1    3    3  502    0  0.30859147237E+03  0.63411672287E+03  0.12242046758E+03  0.71576496558E+03  0.50400001928E-02 0.  1.
       -1    1    3    3    0  502 -0.30859147237E+03 -0.63411672287E+03 -0.38505049811E+03  0.80349026202E+03  0.50400001928E-02 0. -1.
</event>
<event>
 5   0  0.2542737E-04  0.1507742E+04  0.7818609E-02  0.8879321E-01
       -1   -1    0    0    0  501  0.00000000000E+00  0.00000000000E+00  0.91277898204E+03  0.91277898206E+03  0.50400001928E-02 0. -1.
        1   -1    0    0  501    0  0.00000000000E+00  0.00000000000E+00 -0.62262790042E+03  0.62262790044E+03  0.50400001928E-02 0.  1.
    10030    2    1    2    0    0  0.00000000000E+00  0.00000000000E+00  0.29015108162E+03  0.15354068825E+04  0.15077422342E+04 0.  0.
        1    1    3    3  502    0 -0.11318542629E+03 -0.74172073599E+03  0.70512754214E+02  0.75361305685E+03  0.50400001928E-02 0.  1.
       -1    1    3    3    0  502  0.11318542629E+03  0.74172073599E+03  0.21963832741E+03  0.78179382565E+03  0.50400001928E-02 0. -1.
</event>
<event>
 5   0  0.4785496E-04  0.1522268E+04  0.7818609E-02  0.8869778E-01
        2   -1    0    0  501    0  0.00000000000E+00  0.00000000000E+00  0.69421957606E+03  0.69421957607E+03  0.25500000920E-02 0.  1.
       -2   -1    0    0    0  501  0.00000000000E+00  0.00000000000E+00 -0.83449862144E+03  0.83449862144E+03  0.25500000920E-02 0. -1.
    10030    2    1    2    0    0  0.00000000000E+00  0.00000000000E+00 -0.14027904537E+03  0.15287181975E+04  0.15222684116E+04 0.  0.
        4    1    3    3  502    0 -0.10572699112E+03 -0.61685883669E+03  0.36485930438E+03  0.72444250700E+03  0.12699999809E+01 0.  1.
       -4    1    3    3    0  502  0.10572699112E+03  0.61685883669E+03 -0.50513834976E+03  0.80427569051E+03  0.12699999809E+01 0. -1.
</event>
<event>
 5   0  0.4768387E-04  0.1504935E+04  0.7818609E-02  0.8881178E-01
        2   -1    0    0  501    0  0.00000000000E+00  0.00000000000E+00  0.11534322054E+04  0.11534322054E+04  0.25500000920E-02 0.  1.
       -2   -1    0    0    0  501  0.00000000000E+00  0.00000000000E+00 -0.49088891437E+03  0.49088891438E+03  0.25500000920E-02 0. -1.
    10030    2    1    2    0    0  0.00000000000E+00  0.00000000000E+00  0.66254329102E+03  0.16443211198E+04  0.15049346605E+04 0.  0.
        3    1    3    3  502    0 -0.32258463928E+03  0.55645169517E+03 -0.95420771571E+02  0.65023416736E+03  0.10100000352E+00 0. -1.
       -3    1    3    3    0  502  0.32258463928E+03 -0.55645169517E+03  0.75796406259E+03  0.99408695240E+03  0.10100000352E+00 0.  1.
</event>
<event>
 5   0  0.4569211E-04  0.1495867E+04  0.7818609E-02  0.8887206E-01
       -2   -1    0    0    0  501  0.00000000000E+00  0.00000000000E+00  0.72179770635E+03  0.72179770635E+03  0.25500000920E-02 0. -1.
        2   -1    0    0  501    0  0.00000000000E+00  0.00000000000E+00 -0.77501612431E+03  0.77501612431E+03  0.25500000920E-02 0.  1.
    10030    2    1    2    0    0  0.00000000000E+00  0.00000000000E+00 -0.53218417961E+02  0.14968138307E+04  0.14958674552E+04 0.  0.
        5    1    3    3  502    0 -0.12908382977E+03 -0.41480560636E+03 -0.63580999039E+03  0.77006672442E+03  0.46999998093E+01 0.  1.
       -5    1    3    3    0  502  0.12908382977E+03  0.41480560636E+03  0.58259157243E+03  0.72674710625E+03  0.46999998093E+01 0. -1.
</event>
<event>
 5   0  0.4768387E-04  0.1501369E+04  0.7818609E-02  0.8883543E-01
       -2   -1    0    0    0  501  0.00000000000E+00  0.00000000000E+00  0.18271413287E+03  0.18271413289E+03  0.25500000920E-02 0. -1.
        2   -1    0    0  501    0  0.00000000000E+00  0.00000000000E+00 -0.30842020029E+04  0.30842020029E+04  0.25500000920E-02 0.  1.
    10030    2    1    2    0    0  0.00000000000E+00  0.00000000000E+00 -0.29014878700E+04  0.32669161358E+04  0.15013691013E+04 0.  0.
        3    1    3    3  502    0  0.59764037704E+02 -0.70756734723E+03 -0.92084568975E+03  0.11628327849E+04  0.10100000352E+00 0. -1.
       -3    1    3    3    0  502 -0.59764037704E+02  0.70756734723E+03 -0.19806421803E+04  0.21040833509E+04  0.10100000352E+00 0.  1.
</event>
<event>
 5   0  0.2565416E-04  0.1498399E+04  0.7818609E-02  0.8885518E-01
        1   -1    0    0  501    0  0.00000000000E+00  0.00000000000E+00  0.11577872261E+04  0.11577872261E+04  0.50400001928E-02 0. -1.
       -1   -1    0    0    0  501  0.00000000000E+00  0.00000000000E+00 -0.48480403477E+03  0.48480403479E+03  0.50400001928E-02 0.  1.
    10030    2    1    2    0    0  0.00000000000E+00  0.00000000000E+00  0.67298319129E+03  0.16425912609E+04  0.14983990371E+04 0.  0.
        5    1    3    3  502    0 -0.14507439937E+03  0.24943865797E+03 -0.42142469517E+03  0.51077107312E+03  0.46999998093E+01 0.  1.
       -5    1    3    3    0  502  0.14507439937E+03 -0.24943865797E+03  0.10944078865E+04  0.11318201877E+04  0.46999998093E+01 0. -1.
</event>
<event>
 5   0  0.4569211E-04  0.1501071E+04  0.7818609E-02  0.8883741E-01
       -2   -1    0    0    0  501  0.00000000000E+00  0.00000000000E+00  0.31238506204E+03  0.31238506205E+03  0.25500000920E-02 0.  1.
        2   -1    0    0  501    0  0.00000000000E+00  0.00000000000E+00 -0.18032335753E+04  0.18032335753E+04  0.25500000920E-02 0. -1.
    10030    2    1    2    0    0  0.00000000000E+00  0.00000000000E+00 -0.14908485132E+04  0.21156186373E+04  0.15010705943E+04 0.  0.
        5    1    3    3  502    0  0.32982534977E+03 -0.30647654321E+03 -0.15917356045E+04  0.16541937485E+04  0.46999998093E+01 0. -1.
       -5    1    3    3    0  502 -0.32982534977E+03  0.30647654321E+03  0.10088709123E+03  0.46142488887E+03  0.46999998093E+01 0.  1.
</event>
<event>
 5   0  0.4726600E-04  0.1502526E+04  0.7818609E-02  0.8882775E-01
        2   -1    0    0  501    0  0.00000000000E+00  0.00000000000E+00  0.22462911727E+04  0.22462911727E+04  0.25500000920E-02 0.  1.
       -2   -1    0    0    0  501  0.00000000000E+00  0.00000000000E+00 -0.25125676139E+03  0.25125676141E+03  0.25500000920E-02 0. -1.
    10030    2    1    2    0    0  0.00000000000E+00  0.00000000000E+00  0.19950344113E+04  0.24975479341E+04  0.15025256673E+04 0.  0.
        2    1    3    3  502    0 -0.50916506717E+03  0.52792354126E+03  0.12678206111E+04  0.14646915829E+04  0.25500000920E-02 0. -1.
       -2    1    3    3    0  502  0.50916506717E+03 -0.52792354126E+03  0.72721380020E+03  0.10328563512E+04  0.25500000920E-02 0.  1.
</event>
<event>
 5   0  0.4569211E-04  0.1501401E+04  0.7818609E-02  0.8883522E-01
        2   -1    0    0  501    0  0.00000000000E+00  0.00000000000E+00  0.28004344029E+03  0.28004344031E+03  0.25500000920E-02 0.  1.
       -2   -1    0    0    0  501  0.00000000000E+00  0.00000000000E+00 -0.20123704816E+04  0.20123704816E+04  0.25500000920E-02 0. -1.
    10030    2    1    2    0    0  0.00000000000E+00  0.00000000000E+00 -0.17323270413E+04  0.22924139219E+04  0.15014008830E+04 0.  0.
        5    1    3    3  502    0 -0.46798446493E+02  0.38903826083E+03 -0.18438104689E+04  0.18849933682E+04  0.46999998093E+01 0. -1.
       -5    1    3    3    0  502  0.46798446493E+02 -0.38903826083E+03  0.11148342756E+03  0.40742055373E+03  0.46999998093E+01 0.  1.
</event>
<event>
 5   0  0.2542737E-04  0.1444843E+04  0.7818609E-02  0.8921984E-01
       -1   -1    0    0    0  501  0.00000000000E+00  0.00000000000E+00  0.35777394518E+03  0.35777394521E+03  0.50400001928E-02 0.  1.
        1   -1    0    0  501    0  0.00000000000E+00  0.00000000000E+00 -0.14587214275E+04  0.14587214275E+04  0.50400001928E-02 0. -1.
    10030    2    1    2    0    0  0.00000000000E+00  0.00000000000E+00 -0.11009474823E+04  0.18164953727E+04  0.14448425797E+04 0.  0.
        1    1    3    3  502    0 -0.15456718668E+03 -0.17207682793E+03 -0.14109087400E+04  0.14297429568E+04  0.50400001928E-02 0. -1.
       -1    1    3    3    0  502  0.15456718668E+03  0.17207682793E+03  0.30996125769E+03  0.38675241590E+03  0.50400001928E-02 0.  1.
</event>
<event>
 5   0  0.4726600E-04  0.1492348E+04  0.7818609E-02  0.8889557E-01
        2   -1    0    0  501    0  0.00000000000E+00  0.00000000000E+00  0.15725738243E+04  0.15725738243E+04  0.25500000920E-02 0. -1.
       -2   -1    0    0    0  501  0.00000000000E+00  0.00000000000E+00 -0.35405377557E+03  0.35405377558E+03  0.25500000920E-02 0.  1.
    10030    2    1    2    0    0  0.00000000000E+00  0.00000000000E+00  0.12185200487E+04  0.19266275998E+04  0.14923480825E+04 0.  0.
        2    1    3    3  502    0 -0.61703689934E+02  0.53870803130E+02  0.15667520404E+04  0.15688917632E+04  0.25500000920E-02 0. -1.
       -2    1    3    3    0  502  0.61703689934E+02 -0.53870803130E+02 -0.34823199165E+03  0.35773583661E+03  0.25500000920E-02 0.  1.
</event>
<event>
 5   0  0.2565416E-04  0.1501179E+04  0.7818609E-02  0.8883669E-01
       -1   -1    0    0    0  501  0.00000000000E+00  0.00000000000E+00  0.76338936845E+03  0.76338936847E+03  0.50400001928E-02 0. -1.
        1   -1    0    0  501    0  0.00000000000E+00  0.00000000000E+00 -0.73800440864E+03  0.73800440865E+03  0.50400001928E-02 0.  1.
    10030    2    1    2    0    0  0.00000000000E+00  0.00000000000E+00  0.25384959818E+02  0.15013937771E+04  0.15011791625E+04 0.  0.
        5    1    3    3  502    0  0.54972280491E+03 -0.18707399460E+03  0.48833463634E+03  0.75873885411E+03  0.46999998093E+01 0. -1.
       -5    1    3    3    0  502 -0.54972280491E+03  0.18707399460E+03 -0.46294967652E+03  0.74265492301E+03  0.46999998093E+01 0.  1.
</event>
<event>
 5   0  0.2605471E-04  0.1501041E+04  0.7818609E-02  0.8883761E-01
       -1   -1    0    0    0  501  0.00000000000E+00  0.00000000000E+00  0.17629419378E+04  0.17629419379E+04  0.50400001928E-02 0.  1.
        1   -1    0    0  501    0  0.00000000000E+00  0.00000000000E+00 -0.31951202453E+03  0.31951202457E+03  0.50400001928E-02 0. -1.
    10030    2    1    2    0    0  0.00000000000E+00  0.00000000000E+00  0.14434299133E+04  0.20824539624E+04  0.15010411690E+04 0.  0.
        3    1    3    3  502    0 -0.13199026971E+02 -0.72367440239E+03  0.99710199520E+03  0.12321084587E+04  0.10100000352E+00 0.  1.
       -3    1    3    3    0  502  0.13199026971E+02  0.72367440239E+03  0.44632791811E+03  0.85034550371E+03  0.10100000352E+00 0. -1.
</event>
<event>
 5   0  0.4785496E-04  0.1505086E+04  0.7818609E-02  0.8881078E-01
       -2   -1    0    0    0  501  0.00000000000E+00  0.00000000000E+00  0.33156060038E+03  0.33156060039E+03  0.25500000920E-02 0. -1.
        2   -1    0    0  501    0  0.00000000000E+00  0.00000000000E+00 -0.17080460571E+04  0.17080460571E+04  0.25500000920E-02 0.  1.
    10030    2    1    2    0    0  0.00000000000E+00  0.00000000000E+00 -0.13764854568E+04  0.20396066575E+04  0.15050857467E+04 0.  0.
        4    1    3    3  502    0  0.16690934877E+03  0.29689756128E+03  0.22113029905E+03  0.40608757019E+03  0.12699999809E+01 0. -1.
       -4    1    3    3    0  502 -0.16690934877E+03 -0.29689756128E+03 -0.15976157558E+04  0.16335190873E+04  0.12699999809E+01 0.  1.
</event>
<event>
 5   0  0.2605471E-04  0.1462383E+04  0.7818609E-02  0.8909861E-01
        1   -1    0    0  501    0  0.00000000000E+00  0.00000000000E+00  0.40308500513E+03  0.40308500516E+03  0.50400001928E-02 0.  1.
       -1   -1    0    0    0  501  0.00000000000E+00  0.00000000000E+00 -0.13263722943E+04  0.13263722943E+04  0.50400001928E-02 0. -1.
    10030    2    1    2    0    0  0.00000000000E+00  0.00000000000E+00 -0.92328728913E+03  0.17294572994E+04  0.14623826901E+04 0.  0.
        3    1    3    3  502    0  0.38529696291E+03  0.30711112217E+01 -0.11965674933E+04  0.12570747621E+04  0.10100000352E+00 0. -1.
       -3    1    3    3    0  502 -0.38529696291E+03 -0.30711112217E+01  0.27328020417E+03  0.47238253730E+03  0.10100000352E+00 0.  1.
</event>
<event>
 5   0  0.2544374E-04  0.1496989E+04  0.7818609E-02  0.8886458E-01
       -1   -1    0    0    0  501  0.00000000000E+00  0.00000000000E+00  0.44117998595E+03  0.44117998598E+03  0.50400001928E-02 0. -1.
        1   -1    0    0  501    0  0.00000000000E+00  0.00000000000E+00 -0.12698759200E+04  0.12698759200E+04  0.50400001928E-02 0.  1.
    10030    2    1    2    0    0  0.00000000000E+00  0.00000000000E+00 -0.82869593405E+03  0.17110559060E+04  0.14969887649E+04 0.  0.
        4    1    3    3  502    0 -0.15855185630E+03 -0.35134482307E+03  0.31900858959E+03  0.50034984657E+03  0.12699999809E+01 0. -1.
       -4    1    3    3    0  502  0.15855185630E+03  0.35134482307E+03 -0.11477045236E+04  0.12107060594E+04  0.12699999809E+01 0.  1.
</event>
<event>
 5   0  0.2605471E-04  0.1500895E+04  0.7818609E-02  0.8883858E-01
       -1   -1    0    0    0  501  0.00000000000E+00  0.00000000000E+00  0.58812565527E+03  0.58812565529E+03  0.50400001928E-02 0. -1.
        1   -1    0    0  501    0  0.00000000000E+00  0.00000000000E+00 -0.95757002131E+03  0.95757002132E+03  0.50400001928E-02 0.  1.
    10030    2    1    2    0    0  0.00000000000E+00  0.00000000000E+00 -0.36944436604E+03  0.15456956766E+04  0.15008950613E+04 0.  0.
        3    1    3    3  502    0 -0.23172594011E+03  0.68012456612E+03 -0.40776278316E+03  0.82615787492E+03  0.10100000352E+00 0.  1.
       -3    1    3    3    0  502  0.23172594011E+03 -0.68012456612E+03  0.38318417123E+02  0.71953780169E+03  0.10100000352E+00 0. -1.
</event>
<event>
 5   0  0.4569211E-04  0.1488406E+04  0.7818609E-02  0.8892200E-01
        2   -1    0    0  501    0  0.00000000000E+00  0.00000000000E+00  0.22255044636E+04  0.22255044636E+04  0.25500000920E-02 0. -1.
       -2   -1    0    0    0  501  0.00000000000E+00  0.00000000000E+00 -0.24885942326E+03  0.24885942327E+03  0.25500000920E-02 0.  1.
    10030    2    1    2    0    0  0.00000000000E+00  0.00000000000E+00  0.19766450404E+04  0.24743638869E+04  0.14884055325E+04 0.  0.
        5    1    3    3  502    0 -0.24018259694E+03  0.60904869915E+03  0.40012516118E+03  0.76730061412E+03  0.46999998093E+01 0. -1.
       -5    1    3    3    0  502  0.24018259694E+03 -0.60904869915E+03  0.15765198792E+04  0.17070632728E+04  0.46999998093E+01 0.  1.
</event>
<event>
 5   0  0.2544374E-04  0.1487276E+04  0.7818609E-02  0.8892959E-01
       -1   -1    0    0    0  501  0.00000000000E+00  0.00000000000E+00  0.40996548784E+03  0.40996548787E+03  0.50400001928E-02 0. -1.
        1   -1    0    0  501    0  0.00000000000E+00  0.00000000000E+00 -0.13488877234E+04  0.13488877234E+04  0.50400001928E-02 0.  1.
    10030    2    1    2    0    0  0.00000000000E+00  0.00000000000E+00 -0.93892223559E+03  0.17588532113E+04  0.14872759174E+04 0.  0.
        4    1    3    3  502    0  0.44463752882E+03 -0.47228659021E+03 -0.89950942870E+03  0.11089977369E+04  0.12699999809E+01 0.  1.
       -4    1    3    3    0  502 -0.44463752882E+03  0.47228659021E+03 -0.39412806888E+02  0.64985547437E+03  0.12699999809E+01 0. -1.
</event>
<event>
 5   0  0.2565416E-04  0.1496705E+04  0.7818609E-02  0.8886647E-01
       -1   -1    0    0    0  501  0.00000000000E+00  0.00000000000E+00  0.90713963798E+03  0.90713963800E+03  0.50400001928E-02 0.  1.
        1   -1    0    0  501    0  0.00000000000E+00  0.00000000000E+00 -0.61735969356E+03  0.61735969358E+03  0.50400001928E-02 0. -1.
    10030    2    1    2    0    0  0.00000000000E+00  0.00000000000E+00  0.28977994443E+03  0.15244993316E+04  0.14967049795E+04 0.  0.
        5    1    3    3  502    0  0.22791027410E+03  0.45928728003E+03  0.70010095083E+03  0.86778530178E+03  0.46999998093E+01 0.  1.
       -5    1    3    3    0  502 -0.22791027410E+03 -0.45928728003E+03 -0.41032100641E+03  0.65671402980E+03  0.46999998093E+01 0. -1.
</event>
<event>
 5   0  0.4569211E-04  0.1588945E+04  0.7818609E-02  0.8827368E-01
       -2   -1    0    0    0  501  0.00000000000E+00  0.00000000000E+00  0.10933463093E+04  0.10933463093E+04  0.25500000920E-02 0.  1.
        2   -1    0    0  501    0  0.00000000000E+00  0.00000000000E+00 -0.57729826059E+03  0.57729826059E+03  0.25500000920E-02 0. -1.
    10030    2    1    2    0    0  0.00000000000E+00  0.00000000000E+00  0.51604804875E+03  0.16706445699E+04  0.15889454649E+04 0.  0.
        5    1    3    3  502    0 -0.18318436209E+03 -0.43267920431E+03  0.93158540013E+03  0.10433797257E+04  0.46999998093E+01 0.  1.
       -5    1    3    3    0  502  0.18318436209E+03  0.43267920431E+03 -0.41553735138E+03  0.62726484418E+03  0.46999998093E+01 0. -1.
</event>
<event>
 5   0  0.2565416E-04  0.1493222E+04  0.7818609E-02  0.8888973E-01
        1   -1    0    0  501    0  0.00000000000E+00  0.00000000000E+00  0.91384181220E+03  0.91384181221E+03  0.50400001928E-02 0.  1.
       -1   -1    0    0    0  501  0.00000000000E+00  0.00000000000E+00 -0.60998281371E+03  0.60998281373E+03  0.50400001928E-02 0. -1.
    10030    2    1    2    0    0  0.00000000000E+00  0.00000000000E+00  0.30385899849E+03  0.15238246259E+04  0.14932217517E+04 0.  0.
        5    1    3    3  502    0 -0.38762677032E+03  0.21830988975E+03  0.76379404444E+03  0.88392146334E+03  0.46999998093E+01 0.  1.
       -5    1    3    3    0  502  0.38762677032E+03 -0.21830988975E+03 -0.45993504595E+03  0.63990316261E+03  0.46999998093E+01 0. -1.
</event>
<event>
 5   0  0.4785496E-04  0.1492062E+04  0.7818609E-02  0.8889749E-01
       -2   -1    0    0    0  501  0.00000000000E+00  0.00000000000E+00  0.25963827367E+03  0.25963827368E+03  0.25500000920E-02 0.  1.
        2   -1    0    0  501    0  0.00000000000E+00  0.00000000000E+00 -0.21436061043E+04  0.21436061043E+04  0.25500000920E-02 0. -1.
    10030    2    1    2    0    0  0.00000000000E+00  0.00000000000E+00 -0.18839678307E+04  0.24032443780E+04  0.14920619134E+04 0.  0.
        4    1    3    3  502    0 -0.69938781354E+03  0.16337733605E+03 -0.12670279586E+04  0.14564329468E+04  0.12699999809E+01 0. -1.
       -4    1    3    3    0  502  0.69938781354E+03 -0.16337733605E+03 -0.61693987202E+03  0.94681143120E+03  0.12699999809E+01 0.  1.
</event>
<event>
 5   0  0.2603873E-04  0.1481149E+04  0.7818609E-02  0.8897086E-01
        1   -1    0    0  501    0  0.00000000000E+00  0.00000000000E+00  0.34226732793E+03  0.34226732797E+03  0.50400001928E-02 0.  1.
       -1   -1    0    0    0  501  0.00000000000E+00  0.00000000000E+00 -0.16024040528E+04  0.16024040528E+04  0.50400001928E-02 0. -1.
    10030    2    1    2    0    0  0.00000000000E+00  0.00000000000E+00 -0.12601367249E+04  0.19446713808E+04  0.14811489506E+04 0.  0.
        2    1    3    3  502    0 -0.28984195289E+03  0.23549607189E+02 -0.15243079151E+04  0.15517981704E+04  0.25500000920E-02 0. -1.
       -2    1    3    3    0  502  0.28984195289E+03 -0.23549607189E+02  0.26417119024E+03  0.39287321035E+03  0.25500000920E-02 0.  1.
</event>
<event>
 5   0  0.2603873E-04  0.1545978E+04  0.7818609E-02  0.8854441E-01
       -1   -1    0    0    0  501  0.00000000000E+00  0.00000000000E+00  0.38145340967E+03  0.38145340970E+03  0.50400001928E-02 0.  1.
        1   -1    0    0  501    0  0.00000000000E+00  0.00000000000E+00 -0.15664087363E+04  0.15664087363E+04  0.50400001928E-02 0. -1.
    10030    2    1    2    0    0  0.00000000000E+00  0.00000000000E+00 -0.11849553266E+04  0.19478621460E+04  0.15459779473E+04 0.  0.
        2    1    3    3  502    0 -0.24633018803E+03 -0.39568508677E+03  0.18448307489E+03  0.50127762203E+03  0.25500000920E-02 0.  1.
       -2    1    3    3    0  502  0.24633018803E+03  0.39568508677E+03 -0.13694384015E+04  0.14465845239E+04  0.25500000920E-02 0. -1.
</event>
<event>
 5   0  0.2542737E-04  0.1318498E+04  0.7818609E-02  0.9015024E-01
       -1   -1    0    0    0  501  0.00000000000E+00  0.00000000000E+00  0.68361689212E+03  0.68361689214E+03  0.50400001928E-02 0.  1.
        1   -1    0    0  501    0  0.00000000000E+00  0.00000000000E+00 -0.63574933442E+03  0.63574933444E+03  0.50400001928E-02 0. -1.
    10030    2    1    2    0    0  0.00000000000E+00  0.00000000000E+00  0.47867557703E+02  0.13193662266E+04  0.13184976059E+04 0.  0.
        1    1    3    3  502    0  0.46800338865E+03  0.37650617041E+03 -0.24795262970E+03  0.64981887841E+03  0.50400001928E-02 0. -1.
       -1    1    3    3    0  502 -0.46800338865E+03 -0.37650617041E+03  0.29582018740E+03  0.66954734817E+03  0.50400001928E-02 0.  1.
</event>
<event>
 5   0  0.4768387E-04  0.1495375E+04  0.7818609E-02  0.8887534E-01
        2   -1    0    0  501    0  0.00000000000E+00  0.00000000000E+00  0.10254771033E+04  0.10254771033E+04  0.25500000920E-02 0. -1.
       -2   -1    0    0    0  501  0.00000000000E+00  0.00000000000E+00 -0.54514806607E+03  0.54514806607E+03  0.25500000920E-02 0.  1.
    10030    2    1    2    0    0  0.00000000000E+00  0.00000000000E+00  0.48032903725E+03  0.15706251694E+04  0.14953753504E+04 0.  0.
        3    1    3    3  502    0  0.36558611462E+03 -0.26397622735E+03  0.86658274578E+03  0.97688398558E+03  0.10100000352E+00 0. -1.
       -3    1    3    3    0  502 -0.36558611462E+03  0.26397622735E+03 -0.38625370852E+03  0.59374118381E+03  0.10100000352E+00 0.  1.
</event>
<event>
 5   0  0.2603873E-04  0.1500019E+04  0.7818609E-02  0.8884440E-01
        1   -1    0    0  501    0  0.00000000000E+00  0.00000000000E+00  0.97759154816E+03  0.97759154817E+03  0.50400001928E-02 0.  1.
       -1   -1    0    0    0  501  0.00000000000E+00  0.00000000000E+00 -0.57540824958E+03  0.57540824960E+03  0.50400001928E-02 0. -1.
    10030    2    1    2    0    0  0.00000000000E+00  0.00000000000E+00  0.40218329858E+03  0.15529997978E+04  0.15000189886E+04 0.  0.
        2    1    3    3  502    0  0.73738433634E+03  0.12683695386E+03  0.25479841588E+03  0.79040844194E+03  0.25500000920E-02 0. -1.
       -2    1    3    3    0  502 -0.73738433634E+03 -0.12683695386E+03  0.14738488270E+03  0.76259135583E+03  0.25500000920E-02 0.  1.
</event>
<event>
 5   0  0.2603873E-04  0.1500525E+04  0.7818609E-02  0.8884104E-01
       -1   -1    0    0    0  501  0.00000000000E+00  0.00000000000E+00  0.11910062233E+04  0.11910062233E+04  0.50400001928E-02 0.  1.
        1   -1    0    0  501    0  0.00000000000E+00  0.00000000000E+00 -0.47262050800E+03  0.47262050802E+03  0.50400001928E-02 0. -1.
    10030    2    1    2    0    0  0.00000000000E+00  0.00000000000E+00  0.71838571531E+03  0.16636267313E+04  0.15005251965E+04 0.  0.
        2    1    3    3  502    0 -0.19997121726E+03 -0.53177341250E+03  0.90247951663E+03  0.10664148948E+04  0.25500000920E-02 0.  1.
       -2    1    3    3    0  502  0.19997121726E+03  0.53177341250E+03 -0.18409380132E+03  0.59721183651E+03  0.25500000920E-02 0. -1.
</event>
<event>
 5   0  0.4569211E-04  0.1505445E+04  0.7818609E-02  0.8880840E-01
        2   -1    0    0  501    0  0.00000000000E+00  0.00000000000E+00  0.74826007162E+03  0.74826007162E+03  0.25500000920E-02 0.  1.
       -2   -1    0    0    0  501  0.00000000000E+00  0.00000000000E+00 -0.75721159182E+03  0.75721159182E+03  0.25500000920E-02 0. -1.
    10030    2    1    2    0    0  0.00000000000E+00  0.00000000000E+00 -0.89515201979E+01  0.15054716634E+04  0.15054450504E+04 0.  0.
        5    1    3    3  502    0 -0.72956090094E+02  0.55991508170E+03 -0.50222105571E+03  0.75569542052E+03  0.46999998093E+01 0. -1.
       -5    1    3    3    0  502  0.72956090094E+02 -0.55991508170E+03  0.49326953551E+03  0.74977624293E+03  0.46999998093E+01 0.  1.
</event>
<event>
 5   0  0.4785496E-04  0.1497355E+04  0.7818609E-02  0.8886213E-01
       -2   -1    0    0    0  501  0.00000000000E+00  0.00000000000E+00  0.39883624858E+03  0.39883624859E+03  0.25500000920E-02 0.  1.
        2   -1    0    0  501    0  0.00000000000E+00  0.00000000000E+00 -0.14053846120E+04  0.14053846120E+04  0.25500000920E-02 0. -1.
    10030    2    1    2    0    0  0.00000000000E+00  0.00000000000E+00 -0.10065483634E+04  0.18042208606E+04  0.14973554374E+04 0.  0.
        4    1    3    3  502    0  0.31406644487E+03  0.56759305111E+03 -0.52883296440E+02  0.65084395934E+03  0.12699999809E+01 0.  1.
       -4    1    3    3    0  502 -0.31406644487E+03 -0.56759305111E+03 -0.95366506699E+03  0.11533769013E+04  0.12699999809E+01 0. -1.
</event>
<event>
 5   0  0.2603873E-04  0.1486224E+04  0.7818609E-02  0.8893666E-01
        1   -1    0    0  501    0  0.00000000000E+00  0.00000000000E+00  0.74587244265E+03  0.74587244266E+03  0.50400001928E-02 0. -1.
       -1   -1    0    0    0  501  0.00000000000E+00  0.00000000000E+00 -0.74036180798E+03  0.74036180800E+03  0.50400001928E-02 0.  1.
    10030    2    1    2    0    0  0.00000000000E+00  0.00000000000E+00  0.55106346636E+01  0.14862342507E+04  0.14862240345E+04 0.  0.
        2    1    3    3  502    0 -0.43750826168E+03 -0.49733782456E+03 -0.33408090281E+03  0.74186820959E+03  0.25500000920E-02 0.  1.
       -2    1    3    3    0  502  0.43750826168E+03  0.49733782456E+03  0.33959153747E+03  0.74436604107E+03  0.25500000920E-02 0. -1.
</event>
<event>
 5   0  0.2542737E-04  0.1499107E+04  0.7818609E-02  0.8885047E-01
        1   -1    0    0  501    0  0.00000000000E+00  0.00000000000E+00  0.33475501921E+03  0.33475501925E+03  0.50400001928E-02 0.  1.
       -1   -1    0    0    0  501  0.00000000000E+00  0.00000000000E+00 -0.16783321711E+04  0.16783321711E+04  0.50400001928E-02 0. -1.
    10030    2    1    2    0    0  0.00000000000E+00  0.00000000000E+00 -0.13435771519E+04  0.20130871904E+04  0.14991065582E+04 0.  0.
        1    1    3    3  502    0 -0.28155641819E+03  0.54199900082E+03 -0.88312252836E+02  0.61711910321E+03  0.50400001928E-02 0.  1.
       -1    1    3    3    0  502  0.28155641819E+03 -0.54199900082E+03 -0.12552648991E+04  0.13959680872E+04  0.50400001928E-02 0. -1.
</event>
<event>
 5   0  0.2605471E-04  0.1490554E+04  0.7818609E-02  0.8890759E-01
        1   -1    0    0  501    0  0.00000000000E+00  0.00000000000E+00  0.72763979326E+03  0.72763979328E+03  0.50400001928E-02 0. -1.
       -1   -1    0    0    0  501  0.00000000000E+00  0.00000000000E+00 -0.76334196365E+03  0.76334196367E+03  0.50400001928E-02 0.  1.
    10030    2    1    2    0    0  0.00000000000E+00  0.00000000000E+00 -0.35702170389E+02  0.14909817570E+04  0.14905542441E+04 0.  0.
        3    1    3    3  502    0  0.14715756827E+03 -0.11028408990E+02 -0.74858165817E+03  0.76298852209E+03  0.10100000352E+00 0.  1.
       -3    1    3    3    0  502 -0.14715756827E+03  0.11028408990E+02  0.71287948778E+03  0.72799323486E+03  0.10100000352E+00 0. -1.
</event>
<event>
 5   0  0.4726600E-04  0.1496784E+04  0.7818609E-02  0.8886594E-01
        2   -1    0    0  501    0  0.00000000000E+00  0.00000000000E+00  0.15873984417E+04  0.15873984417E+04  0.25500000920E-02 0. -1.
       -2   -1    0    0    0  501  0.00000000000E+00  0.00000000000E+00 -0.35283565800E+03  0.35283565801E+03  0.25500000920E-02 0.  1.
    10030    2    1    2    0    0  0.00000000000E+00  0.00000000000E+00  0.12345627837E+04  0.19402340997E+04  0.14967842512E+04 0.  0.
        2    1    3    3  502    0 -0.57998033761E+03 -0.72436955836E+02  0.12231623770E+04  0.13556365682E+04  0.25500000920E-02 0. -1.
       -2    1    3    3    0  502  0.57998033761E+03  0.72436955836E+02  0.11400406743E+02  0.58459753153E+03  0.25500000920E-02 0.  1.
</event>
<event>
 5   0  0.2542737E-04  0.1494178E+04  0.7818609E-02  0.8888334E-01
       -1   -1    0    0    0  501  0.00000000000E+00  0.00000000000E+00  0.12012140578E+04  0.12012140578E+04  0.50400001928E-02 0. -1.
        1   -1    0    0  501    0  0.00000000000E+00  0.00000000000E+00 -0.46464793305E+03  0.46464793308E+03  0.50400001928E-02 0.  1.
    10030    2    1    2    0    0  0.00000000000E+00  0.00000000000E+00  0.73656612475E+03  0.16658619909E+04  0.14941775385E+04 0.  0.
        1    1    3    3  502    0  0.47724601132E+03 -0.35668067441E+03  0.87080203789E+03  0.10551213428E+04  0.50400001928E-02 0. -1.
       -1    1    3    3    0  502 -0.47724601132E+03  0.35668067441E+03 -0.13423591315E+03  0.61074064808E+03  0.50400001928E-02 0.  1.
</event>
<event>
 5   0  0.4569211E-04  0.1500539E+04  0.7818609E-02  0.8884095E-01
        2   -1    0    0  501    0  0.00000000000E+00  0.00000000000E+00  0.67294407683E+03  0.67294407683E+03  0.25500000920E-02 0. -1.
       -2   -1    0    0    0  501  0.00000000000E+00  0.00000000000E+00 -0.83647953954E+03  0.83647953954E+03  0.25500000920E-02 0.  1.
    10030    2    1    2    0    0  0.00000000000E+00  0.00000000000E+00 -0.16353546271E+03  0.15094236164E+04  0.15005385054E+04 0.  0.
        5    1    3    3  502    0  0.96471799335E+01 -0.30760800405E+03  0.60651041783E+03  0.68014169786E+03  0.46999998093E+01 0. -1.
       -5    1    3    3    0  502 -0.96471799335E+01  0.30760800405E+03 -0.77004588054E+03  0.82928191851E+03  0.46999998093E+01 0.  1.
</event>
<event>
 5   0  0.2605471E-04  0.1492496E+04  0.7818609E-02  0.8889458E-01
        1   -1    0    0  501    0  0.00000000000E+00  0.00000000000E+00  0.78863046704E+03  0.78863046706E+03  0.50400001928E-02 0. -1.
       -1   -1    0    0    0  501  0.00000000000E+00  0.00000000000E+00 -0.70614356666E+03  0.70614356667E+03  0.50400001928E-02 0.  1.
    10030    2    1    2    0    0  0.00000000000E+00  0.00000000000E+00  0.82486900388E+02  0.14947740337E+04  0.14924963394E+04 0.  0.
        3    1    3    3  502    0 -0.47413236946E+03 -0.55737343051E+03 -0.10533452459E+03  0.73929832752E+03  0.10100000352E+00 0.  1.
       -3    1    3    3    0  502  0.47413236946E+03  0.55737343051E+03  0.18782142498E+03  0.75547570622E+03  0.10100000352E+00 0. -1.
</event>
<event>
 5   0  0.4726600E-04  0.1491849E+04  0.7818609E-02  0.8889891E-01
        2   -1    0    0  501    0  0.00000000000E+00  0.00000000000E+00  0.80956715796E+03  0.80956715797E+03  0.25500000920E-02 0. -1.
       -2   -1    0    0    0  501  0.00000000000E+00  0.00000000000E+00 -0.68728521269E+03  0.68728521269E+03  0.25500000920E-02 0.  1.
    10030    2    1    2    0    0  0.00000000000E+00  0.00000000000E+00  0.12228194527E+03  0.14968523707E+04  0.14918492368E+04 0.  0.
        2    1    3    3  502    0 -0.41037787159E+03 -0.42818140388E+03 -0.39276342423E+03  0.71134549942E+03  0.25500000920E-02 0.  1.
       -2    1    3    3    0  502  0.41037787159E+03  0.42818140388E+03  0.51504536950E+03  0.78550687124E+03  0.25500000920E-02 0. -1.
</event>
<event>
 5   0  0.1792000E-04  0.1503678E+04  0.7818609E-02  0.8882011E-01
       -3   -1    0    0    0  501  0.00000000000E+00  0.00000000000E+00  0.10122376529E+04  0.10122376580E+04  0.10100000352E+00 0.  1.
        3   -1    0    0  501    0  0.00000000000E+00  0.00000000000E+00 -0.55842792602E+03  0.55842793515E+03  0.10100000352E+00 0. -1.
    10030    2    1    2    0    0  0.00000000000E+00  0.00000000000E+00  0.45380972693E+03  0.15706655931E+04  0.15036778702E+04 0.  0.
        4    1    3    3  502    0  0.47082884150E+03 -0.38210789041E+02  0.83787270248E+03  0.96185869069E+03  0.12699999809E+01 0.  1.
       -4    1    3    3    0  502 -0.47082884150E+03  0.38210789041E+02 -0.38406297555E+03  0.60880690245E+03  0.12699999809E+01 0. -1.
</event>
<event>
 5   0  0.4569211E-04  0.1498075E+04  0.7818609E-02  0.8885734E-01
        2   -1    0    0  501    0  0.00000000000E+00  0.00000000000E+00  0.10898241394E+04  0.10898241394E+04  0.25500000920E-02 0.  1.
       -2   -1    0    0    0  501  0.00000000000E+00  0.00000000000E+00 -0.51481452012E+03  0.51481452012E+03  0.25500000920E-02 0. -1.
    10030    2    1    2    0    0  0.00000000000E+00  0.00000000000E+00  0.57500961925E+03  0.16046386595E+04  0.14980751534E+04 0.  0.
        5    1    3    3  502    0  0.15855560166E+03  0.63538314303E+03  0.67693750615E+03  0.94186946786E+03  0.46999998093E+01 0.  1.
       -5    1    3    3    0  502 -0.15855560166E+03 -0.63538314303E+03 -0.10192788690E+03  0.66276919164E+03  0.46999998093E+01 0. -1.
</event>
<event>
 5   0  0.2542737E-04  0.1496371E+04  0.7818609E-02  0.8886869E-01
        1   -1    0    0  501    0  0.00000000000E+00  0.00000000000E+00  0.81576162329E+03  0.81576162330E+03  0.50400001928E-02 0. -1.
       -1   -1    0    0    0  501  0.00000000000E+00  0.00000000000E+00 -0.68620761577E+03  0.68620761579E+03  0.50400001928E-02 0.  1.
    10030    2    1    2    0    0  0.00000000000E+00  0.00000000000E+00  0.12955400752E+03  0.15019692391E+04  0.14963713959E+04 0.  0.
        1    1    3    3  502    0  0.12621053109E+03  0.28913724756E+03  0.74573397113E+03  0.80972131120E+03  0.50400001928E-02 0. -1.
       -1    1    3    3    0  502 -0.12621053109E+03 -0.28913724756E+03 -0.61617996362E+03  0.69224792789E+03  0.50400001928E-02 0.  1.
</event>
<event>
 5   0  0.2603873E-04  0.1585230E+04  0.7818609E-02  0.8829674E-01
        1   -1    0    0  501    0  0.00000000000E+00  0.00000000000E+00  0.16568848418E+04  0.16568848418E+04  0.50400001928E-02 0.  1.
       -1   -1    0    0    0  501  0.00000000000E+00  0.00000000000E+00 -0.37916831255E+03  0.37916831258E+03  0.50400001928E-02 0. -1.
    10030    2    1    2    0    0  0.00000000000E+00  0.00000000000E+00  0.12777165293E+04  0.20360531544E+04  0.15852296106E+04 0.  0.
        2    1    3    3  502    0 -0.41946456095E+03 -0.24737262232E+03 -0.16436779215E+03  0.51396546894E+03  0.25500000920E-02 0. -1.
       -2    1    3    3    0  502  0.41946456095E+03  0.24737262232E+03  0.14420843214E+04  0.15220876855E+04  0.25500000920E-02 0.  1.
</event>
<event>
 5   0  0.4768387E-04  0.1493016E+04  0.7818609E-02  0.8889111E-01
        2   -1    0    0  501    0  0.00000000000E+00  0.00000000000E+00  0.18499561083E+04  0.18499561083E+04  0.25500000920E-02 0.  1.
       -2   -1    0    0    0  501  0.00000000000E+00  0.00000000000E+00 -0.30123625775E+03  0.30123625776E+03  0.25500000920E-02 0. -1.
    10030    2    1    2    0    0  0.00000000000E+00  0.00000000000E+00  0.15487198505E+04  0.21511923660E+04  0.14930155459E+04 0.  0.
        3    1    3    3  502    0 -0.45032880393E+02 -0.98965608264E+02  0.18384859515E+04  0.18416983347E+04  0.10100000352E+00 0.  1.
       -3    1    3    3    0  502  0.45032880393E+02  0.98965608264E+02 -0.28976610100E+03  0.30949403132E+03  0.10100000352E+00 0. -1.
</event>
<event>
 5   0  0.2565416E-04  0.1635772E+04  0.7818609E-02  0.8798868E-01
       -1   -1    0    0    0  501  0.00000000000E+00  0.00000000000E+00  0.54884477751E+03  0.54884477754E+03  0.50400001928E-02 0.  1.
        1   -1    0    0  501    0  0.00000000000E+00  0.00000000000E+00 -0.12188099792E+04  0.12188099792E+04  0.50400001928E-02 0. -1.
    10030    2    1    2    0    0  0.00000000000E+00  0.00000000000E+00 -0.66996520172E+03  0.17676547568E+04  0.16357719791E+04 0.  0.
        5    1    3    3  502    0 -0.62747555444E+03  0.11968133724E+03  0.21694688295E+03  0.67463859504E+03  0.46999998093E+01 0.  1.
       -5    1    3    3    0  502  0.62747555444E+03 -0.11968133724E+03 -0.88691208467E+03  0.10930161617E+04  0.46999998093E+01 0. -1.
</event>
<event>
 5   0  0.4948645E-04  0.1513939E+04  0.7818609E-02  0.8875236E-01
        2   -1    0    0  501    0  0.00000000000E+00  0.00000000000E+00  0.46558730221E+03  0.46558730222E+03  0.25500000920E-02 0. -1.
       -2   -1    0    0    0  501  0.00000000000E+00  0.00000000000E+00 -0.12307101995E+04  0.12307101995E+04  0.25500000920E-02 0.  1.
    10030    2    1    2    0    0  0.00000000000E+00  0.00000000000E+00 -0.76512289729E+03  0.16962975017E+04  0.15139392875E+04 0.  0.
        1    1    3    3  502    0 -0.25032914601E+03  0.65822295306E+03 -0.69363777654E+03  0.98846117898E+03  0.50400001928E-02 0.  1.
       -1    1    3    3    0  502  0.25032914601E+03 -0.65822295306E+03 -0.71485120752E+02  0.70783632274E+03  0.50400001928E-02 0. -1.
</event>
<event>
 5   0  0.2542737E-04  0.1515399E+04  0.7818609E-02  0.8874277E-01
        1   -1    0    0  501    0  0.00000000000E+00  0.00000000000E+00  0.14758896701E+04  0.14758896701E+04  0.50400001928E-02 0. -1.
       -1   -1    0    0    0  501  0.00000000000E+00  0.00000000000E+00 -0.38899163781E+03  0.38899163784E+03  0.50400001928E-02 0.  1.
    10030    2    1    2    0    0  0.00000000000E+00  0.00000000000E+00  0.10868980323E+04  0.18648813080E+04  0.15153992742E+04 0.  0.
        1    1    3    3  502    0 -0.38130714725E+02 -0.59209025256E+03 -0.36490470423E+02  0.59443786306E+03  0.50400001928E-02 0.  1.
       -1    1    3    3    0  502  0.38130714725E+02  0.59209025256E+03  0.11233885027E+04  0.12704434449E+04  0.50400001928E-02 0. -1.
</event>
<event>
 5   0  0.4726600E-04  0.1489724E+04  0.7818609E-02  0.8891315E-01
       -2   -1    0    0    0  501  0.00000000000E+00  0.00000000000E+00  0.48565166198E+03  0.48565166198E+03  0.25500000920E-02 0. -1.
        2   -1    0    0  501    0  0.00000000000E+00  0.00000000000E+00 -0.11424228027E+04  0.11424228027E+04  0.25500000920E-02 0.  1.
    10030    2    1    2    0    0  0.00000000000E+00  0.00000000000E+00 -0.65677114068E+03  0.16280744646E+04  0.14897241796E+04 0.  0.
        2    1    3    3  502    0 -0.37781234624E+03 -0.19725351248E+03  0.33922136129E+03  0.54472217608E+03  0.25500000920E-02 0. -1.
       -2    1    3    3    0  502  0.37781234624E+03  0.19725351248E+03 -0.99599250197E+03  0.10833522886E+04  0.25500000920E-02 0.  1.
</event>
<event>
 5   0  0.2605471E-04  0.1502380E+04  0.7818609E-02  0.8882872E-01
       -1   -1    0    0    0  501  0.00000000000E+00  0.00000000000E+00  0.68023328106E+03  0.68023328107E+03  0.50400001928E-02 0. -1.
        1   -1    0    0  501    0  0.00000000000E+00  0.00000000000E+00 -0.82954797374E+03  0.82954797375E+03  0.50400001928E-02 0.  1.
    10030    2    1    2    0    0  0.00000000000E+00  0.00000000000E+00 -0.14931469268E+03  0.15097812548E+04  0.15023796324E+04 0.  0.
        3    1    3    3  502    0 -0.16026831948E+03 -0.31906815232E+03 -0.73881858144E+03  0.82057499751E+03  0.10100000352E+00 0.  1.
       -3    1    3    3    0  502  0.16026831948E+03  0.31906815232E+03  0.58950388876E+03  0.68920625731E+03  0.10100000352E+00 0. -1.
</event>
<event>
 5   0  0.4785496E-04  0.1498749E+04  0.7818609E-02  0.8885285E-01
        2   -1    0    0  501    0  0.00000000000E+00  0.00000000000E+00  0.88965022995E+03  0.88965022995E+03  0.25500000920E-02 0. -1.
       -2   -1    0    0    0  501  0.00000000000E+00  0.00000000000E+00 -0.63121667364E+03  0.63121667364E+03  0.25500000920E-02 0.  1.
    10030    2    1    2    0    0  0.00000000000E+00  0.00000000000E+00  0.25843355631E+03  0.15208669036E+04  0.14987488900E+04 0.  0.
        4    1    3    3  502    0 -0.62726147348E+03 -0.25244461097E+03  0.45705607689E+03  0.81614159803E+03  0.12699999809E+01 0. -1.
       -4    1    3    3    0  502  0.62726147348E+03  0.25244461097E+03 -0.19862252057E+03  0.70472530556E+03  0.12699999809E+01 0.  1.
</event>
<event>
 5   0  0.4948645E-04  0.1497669E+04  0.7818609E-02  0.8886005E-01
       -2   -1    0    0    0  501  0.00000000000E+00  0.00000000000E+00  0.80119407351E+03  0.80119407351E+03  0.25500000920E-02 0. -1.
        2   -1    0    0  501    0  0.00000000000E+00  0.00000000000E+00 -0.69989655375E+03  0.69989655375E+03  0.25500000920E-02 0.  1.
    10030    2    1    2    0    0  0.00000000000E+00  0.00000000000E+00  0.10129751976E+03  0.15010906273E+04  0.14976688164E+04 0.  0.
        1    1    3    3  502    0 -0.36711871288E+03 -0.29410834824E+03  0.63462660126E+03  0.78995366503E+03  0.50400001928E-02 0. -1.
       -1    1    3    3    0  502  0.36711871288E+03  0.29410834824E+03 -0.53332908150E+03  0.71113696223E+03  0.50400001928E-02 0.  1.
</event>
<event>
 5   0  0.2605471E-04  0.1489234E+04  0.7818609E-02  0.8891644E-01
        1   -1    0    0  501    0  0.00000000000E+00  0.00000000000E+00  0.50803283590E+03  0.50803283593E+03  0.50400001928E-02 0. -1.
       -1   -1    0    0    0  501  0.00000000000E+00  0.00000000000E+00 -0.10913755542E+04  0.10913755542E+04  0.50400001928E-02 0.  1.
    10030    2    1    2    0    0  0.00000000000E+00  0.00000000000E+00 -0.58334271834E+03  0.15994083902E+04  0.14892341896E+04 0.  0.
        3    1    3    3  502    0  0.73366073770E+03 -0.46272880714E+02 -0.16434532672E+03  0.75326532786E+03  0.10100000352E+00 0.  1.
       -3    1    3    3    0  502 -0.73366073770E+03  0.46272880714E+02 -0.41899739161E+03  0.84614306232E+03  0.10100000352E+00 0. -1.
</event>
<event>
 5   0  0.2565416E-04  0.1491078E+04  0.7818609E-02  0.8890408E-01
        1   -1    0    0  501    0  0.00000000000E+00  0.00000000000E+00  0.44810059994E+03  0.44810059996E+03  0.50400001928E-02 0. -1.
       -1   -1    0    0    0  501  0.00000000000E+00  0.00000000000E+00 -0.12404101044E+04  0.12404101044E+04  0.50400001928E-02 0.  1.
    10030    2    1    2    0    0  0.00000000000E+00  0.00000000000E+00 -0.79230950448E+03  0.16885107044E+04  0.14910781495E+04 0.  0.
        5    1    3    3  502    0  0.39643496684E+03  0.37528930292E+03 -0.97112843480E+03  0.11140535313E+04  0.46999998093E+01 0.  1.
       -5    1    3    3    0  502 -0.39643496684E+03 -0.37528930292E+03  0.17881893032E+03  0.57445717305E+03  0.46999998093E+01 0. -1.
</event>
<event>
 5   0  0.2605471E-04  0.1475964E+04  0.7818609E-02  0.8900596E-01
       -1   -1    0    0    0  501  0.00000000000E+00  0.00000000000E+00  0.29394474638E+03  0.29394474642E+03  0.50400001928E-02 0. -1.
        1   -1    0    0  501    0  0.00000000000E+00  0.00000000000E+00 -0.18527874891E+04  0.18527874891E+04  0.50400001928E-02 0.  1.
    10030    2    1    2    0    0  0.00000000000E+00  0.00000000000E+00 -0.15588427427E+04  0.21467322355E+04  0.14759636156E+04 0.  0.
        3    1    3    3  502    0 -0.20080127795E+03 -0.32098105943E+03  0.14191672015E+03  0.40433941113E+03  0.10100000352E+00 0. -1.
       -3    1    3    3    0  502  0.20080127795E+03  0.32098105943E+03 -0.17007594629E+04  0.17423928244E+04  0.10100000352E+00 0.  1.
</event>
<event>
 5   0  0.2565416E-04  0.1472439E+04  0.7818609E-02  0.8902990E-01
       -1   -1    0    0    0  501  0.00000000000E+00  0.00000000000E+00  0.63403473726E+03  0.63403473728E+03  0.50400001928E-02 0.  1.
        1   -1    0    0  501    0  0.00000000000E+00  0.00000000000E+00 -0.85487306962E+03  0.85487306964E+03  0.50400001928E-02 0. -1.
    10030    2    1    2    0    0  0.00000000000E+00  0.00000000000E+00 -0.22083833236E+03  0.14889078069E+04  0.14724390950E+04 0.  0.
        5    1    3    3  502    0 -0.40948285686E+03 -0.11300597788E+01 -0.72907879589E+03  0.83621496502E+03  0.46999998093E+01 0. -1.
       -5    1    3    3    0  502  0.40948285686E+03  0.11300597788E+01  0.50824046353E+03  0.65269284190E+03  0.46999998093E+01 0.  1.
</event>
<event>
 5   0  0.4726600E-04  0.1502990E+04  0.7818609E-02  0.8882467E-01
        2   -1    0    0  501    0  0.00000000000E+00  0.00000000000E+00  0.31478529389E+04  0.31478529389E+04  0.25500000920E-02 0. -1.
       -2   -1    0    0    0  501  0.00000000000E+00  0.00000000000E+00 -0.17940640391E+03  0.17940640393E+03  0.25500000920E-02 0.  1.
    10030    2    1    2    0    0  0.00000000000E+00  0.00000000000E+00  0.29684465349E+04  0.33272593428E+04  0.15029903204E+04 0.  0.
        2    1    3    3  502    0 -0.57476070368E+03  0.18221240419E+03  0.49124964656E+03  0.77773867204E+03  0.25500000920E-02 0.  1.
       -2    1    3    3    0  502  0.57476070368E+03 -0.18221240419E+03  0.24771968884E+04  0.25495206708E+04  0.25500000920E-02 0. -1.
</event>
<event>
 5   0  0.2605471E-04  0.1513783E+04  0.7818609E-02  0.8875339E-01
       -1   -1    0    0    0  501  0.00000000000E+00  0.00000000000E+00  0.80818981158E+03  0.80818981159E+03  0.50400001928E-02 0. -1.
        1   -1    0    0  501    0  0.00000000000E+00  0.00000000000E+00 -0.70884963981E+03  0.70884963983E+03  0.50400001928E-02 0.  1.
    10030    2    1    2    0    0  0.00000000000E+00  0.00000000000E+00  0.99340171765E+02  0.15170394514E+04  0.15137834150E+04 0.  0.
        3    1    3    3  502    0 -0.47953131014E+03 -0.56908641651E+03 -0.88740779626E+02  0.74945617820E+03  0.10100000352E+00 0. -1.
       -3    1    3    3    0  502  0.47953131014E+03  0.56908641651E+03  0.18808095139E+03  0.76758327323E+03  0.10100000352E+00 0.  1.
</event>
<event>
 5   0  0.4948645E-04  0.1497484E+04  0.7818609E-02  0.8886127E-01
        2   -1    0    0  501    0  0.00000000000E+00  0.00000000000E+00  0.15336795849E+04  0.15336795849E+04  0.25500000920E-02 0. -1.
       -2   -1    0    0    0  501  0.00000000000E+00  0.00000000000E+00 -0.36553589810E+03  0.36553589811E+03  0.25500000920E-02 0.  1.
    10030    2    1    2    0    0  0.00000000000E+00  0.00000000000E+00  0.11681436868E+04  0.18992154831E+04  0.14974844834E+04 0.  0.
        1    1    3    3  502    0 -0.19566408160E+03 -0.40518331627E+03  0.13430838187E+04  0.14164505274E+04  0.50400001928E-02 0. -1.
       -1    1    3    3    0  502  0.19566408160E+03  0.40518331627E+03 -0.17494013186E+03  0.48276495562E+03  0.50400001928E-02 0.  1.
</event>
<event>
 5   0  0.4785496E-04  0.1501741E+04  0.7818609E-02  0.8883296E-01
       -2   -1    0    0    0  501  0.00000000000E+00  0.00000000000E+00  0.81767013719E+03  0.81767013719E+03  0.25500000920E-02 0. -1.
        2   -1    0    0  501    0  0.00000000000E+00  0.00000000000E+00 -0.68952785686E+03  0.68952785686E+03  0.25500000920E-02 0.  1.
    10030    2    1    2    0    0  0.00000000000E+00  0.00000000000E+00  0.12814228033E+03  0.15071979941E+04  0.15017407730E+04 0.  0.
        4    1    3    3  502    0  0.23056730099E+03 -0.89646259805E+02  0.77559521339E+03  0.81409291860E+03  0.12699999809E+01 0. -1.
       -4    1    3    3    0  502 -0.23056730099E+03  0.89646259805E+02 -0.64745293307E+03  0.69310507545E+03  0.12699999809E+01 0.  1.
</event>
<event>
 5   0  0.2605471E-04  0.1492221E+04  0.7818609E-02  0.8889642E-01
       -1   -1    0    0    0  501  0.00000000000E+00  0.00000000000E+00  0.41106227951E+03  0.41106227954E+03  0.50400001928E-02 0. -1.
        1   -1    0    0  501    0  0.00000000000E+00  0.00000000000E+00 -0.13542498837E+04  0.13542498837E+04  0.50400001928E-02 0.  1.
    10030    2    1    2    0    0  0.00000000000E+00  0.00000000000E+00 -0.94318760415E+03  0.17653121632E+04  0.14922212225E+04 0.  0.
        3    1    3    3  502    0 -0.39619822042E+03 -0.30814226254E+03 -0.11246712443E+04  0.12315884466E+04  0.10100000352E+00 0.  1.
       -3    1    3    3    0  502  0.39619822042E+03  0.30814226254E+03  0.18148364016E+03  0.53372371661E+03  0.10100000352E+00 0. -1.
</event>
<event>
 5   0  0.4768387E-04  0.1500092E+04  0.7818609E-02  0.8884392E-01
        2   -1    0    0  501    0  0.00000000000E+00  0.00000000000E+00  0.10224058714E+04  0.10224058714E+04  0.25500000920E-02 0.  1.
       -2   -1    0    0    0  501  0.00000000000E+00  0.00000000000E+00 -0.55024012054E+03  0.55024012055E+03  0.25500000920E-02 0. -1.
    10030    2    1    2    0    0  0.00000000000E+00  0.00000000000E+00  0.47216575085E+03  0.15726459919E+04  0.15000916371E+04 0.  0.
        3    1    3    3  502    0  0.38783437084E+03 -0.42804779682E+03  0.73768911266E+03  0.93692350419E+03  0.10100000352E+00 0.  1.
       -3    1    3    3    0  502 -0.38783437084E+03  0.42804779682E+03 -0.26552336181E+03  0.63572248775E+03  0.10100000352E+00 0. -1.
</event>
<event>
 5   0  0.4768387E-04  0.1490674E+04  0.7818609E-02  0.8890678E-01
       -2   -1    0    0    0  501  0.00000000000E+00  0.00000000000E+00  0.41895100025E+03  0.41895100026E+03  0.25500000920E-02 0. -1.
        2   -1    0    0  501    0  0.00000000000E+00  0.00000000000E+00 -0.13259955571E+04  0.13259955571E+04  0.25500000920E-02 0.  1.
    10030    2    1    2    0    0  0.00000000000E+00  0.00000000000E+00 -0.90704455689E+03  0.17449465574E+04  0.14906738946E+04 0.  0.
        3    1    3    3  502    0 -0.58783676035E+03 -0.34367995568E+03 -0.80830362752E+03  0.10568929620E+04  0.10100000352E+00 0.  1.
       -3    1    3    3    0  502  0.58783676035E+03  0.34367995568E+03 -0.98740929376E+02  0.68805359536E+03  0.10100000352E+00 0. -1.
</event>
<event>
 5   0  0.2603873E-04  0.1497388E+04  0.7818609E-02  0.8886192E-01
       -1   -1    0    0    0  501  0.00000000000E+00  0.00000000000E+00  0.68004015883E+03  0.68004015885E+03  0.50400001928E-02 0. -1.
        1   -1    0    0  501    0  0.00000000000E+00  0.00000000000E+00 -0.82427884393E+03  0.82427884395E+03  0.50400001928E-02 0.  1.
    10030    2    1    2    0    0  0.00000000000E+00  0.00000000000E+00 -0.14423868510E+03  0.15043190028E+04  0.14973880138E+04 0.  0.
        2    1    3    3  502    0  0.15894530359E+03 -0.67617167597E+03 -0.35282449206E+03  0.77907436559E+03  0.25500000920E-02 0.  1.
       -2    1    3    3    0  502 -0.15894530359E+03  0.67617167597E+03  0.20858580695E+03  0.72524463720E+03  0.25500000920E-02 0. -1.
</event>
<event>
 5   0  0.2565416E-04  0.1509721E+04  0.7818609E-02  0.8878015E-01
        1   -1    0    0  501    0  0.00000000000E+00  0.00000000000E+00  0.10820240086E+04  0.10820240086E+04  0.50400001928E-02 0. -1.
       -1   -1    0    0    0  501  0.00000000000E+00  0.00000000000E+00 -0.52661864542E+03  0.52661864544E+03  0.50400001928E-02 0.  1.
    10030    2    1    2    0    0  0.00000000000E+00  0.00000000000E+00  0.55540536314E+03  0.16086426540E+04  0.15097205274E+04 0.  0.
        5    1    3    3  502    0  0.12447032252E+03 -0.65412496728E+03 -0.10114986870E+03  0.67351742364E+03  0.46999998093E+01 0.  1.
       -5    1    3    3    0  502 -0.12447032252E+03  0.65412496728E+03  0.65655523184E+03  0.93512523037E+03  0.46999998093E+01 0. -1.
</event>
<event>
 5   0  0.2542737E-04  0.1515952E+04  0.7818609E-02  0.8873914E-01
       -1   -1    0    0    0  501  0.00000000000E+00  0.00000000000E+00  0.42413704603E+03  0.42413704606E+03  0.50400001928E-02 0. -1.
        1   -1    0    0  501    0  0.00000000000E+00  0.00000000000E+00 -0.13545808352E+04  0.13545808352E+04  0.50400001928E-02 0.  1.
    10030    2    1    2    0    0  0.00000000000E+00  0.00000000000E+00 -0.93044378914E+03  0.17787178812E+04  0.15159523925E+04 0.  0.
        1    1    3    3  502    0 -0.55273520601E+03 -0.51678080890E+03 -0.51702562470E+03  0.91645736891E+03  0.50400001928E-02 0.  1.
       -1    1    3    3    0  502  0.55273520601E+03  0.51678080890E+03 -0.41341816443E+03  0.86226051233E+03  0.50400001928E-02 0. -1.
</event>
<event>
 5   0  0.4569211E-04  0.1522734E+04  0.7818609E-02  0.8869474E-01
        2   -1    0    0  501    0  0.00000000000E+00  0.00000000000E+00  0.58088683989E+03  0.58088683989E+03  0.25500000920E-02 0.  1.
       -2   -1    0    0    0  501  0.00000000000E+00  0.00000000000E+00 -0.99792220745E+03  0.99792220745E+03  0.25500000920E-02 0. -1.
    10030    2    1    2    0    0  0.00000000000E+00  0.00000000000E+00 -0.41703536756E+03  0.15788090473E+04  0.15227342218E+04 0.  0.
        5    1    3    3  502    0  0.64470007500E+03 -0.19629569268E+03 -0.57580498089E+03  0.88642182491E+03  0.46999998093E+01 0. -1.
       -5    1    3    3    0  502 -0.64470007500E+03  0.19629569268E+03  0.15876961333E+03  0.69238722243E+03  0.46999998093E+01 0.  1.
</event>
<event>
 5   0  0.4768387E-04  0.1501027E+04  0.7818609E-02  0.8883770E-01
        2   -1    0    0  501    0  0.00000000000E+00  0.00000000000E+00  0.62237594639E+03  0.62237594640E+03  0.25500000920E-02 0.  1.
       -2   -1    0    0    0  501  0.00000000000E+00  0.00000000000E+00 -0.90503251551E+03  0.90503251551E+03  0.25500000920E-02 0. -1.
    10030    2    1    2    0    0  0.00000000000E+00  0.00000000000E+00 -0.28265656912E+03  0.15274084619E+04  0.15010269396E+04 0.  0.
        3    1    3    3  502    0 -0.26097661977E+03 -0.17854504523E+03  0.55128376332E+03  0.63553200325E+03  0.10100000352E+00 0.  1.
       -3    1    3    3    0  502  0.26097661977E+03  0.17854504523E+03 -0.83394033244E+03  0.89187645867E+03  0.10100000352E+00 0. -1.
</event>
<event>
 5   0  0.4785496E-04  0.1497004E+04  0.7818609E-02  0.8886447E-01
       -2   -1    0    0    0  501  0.00000000000E+00  0.00000000000E+00  0.49609873120E+03  0.49609873121E+03  0.25500000920E-02 0.  1.
        2   -1    0    0  501    0  0.00000000000E+00  0.00000000000E+00 -0.11293228116E+04  0.11293228117E+04  0.25500000920E-02 0. -1.
    10030    2    1    2    0    0  0.00000000000E+00  0.00000000000E+00 -0.63322408045E+03  0.16254215429E+04  0.14970044943E+04 0.  0.
        4    1    3    3  502    0  0.23933385474E+02 -0.29631176451E+03  0.42925074335E+03  0.52214105594E+03  0.12699999809E+01 0.  1.
       -4    1    3    3    0  502 -0.23933385474E+02  0.29631176451E+03 -0.10624748238E+04  0.11032804869E+04  0.12699999809E+01 0. -1.
</event>
<event>
 5   0  0.4768387E-04  0.1498333E+04  0.7818609E-02  0.8885562E-01
       -2   -1    0    0    0  501  0.00000000000E+00  0.00000000000E+00  0.23338883259E+03  0.23338883260E+03  0.25500000920E-02 0. -1.
        2   -1    0    0  501    0  0.00000000000E+00  0.00000000000E+00 -0.24047863787E+04  0.24047863787E+04  0.25500000920E-02 0.  1.
    10030    2    1    2    0    0  0.00000000000E+00  0.00000000000E+00 -0.21713975461E+04  0.26381752113E+04  0.14983327876E+04 0.  0.
        3    1    3    3  502    0  0.34341221989E+03  0.31510255367E+03 -0.21184427990E+04  0.21691061465E+04  0.10100000352E+00 0.  1.
       -3    1    3    3    0  502 -0.34341221989E+03 -0.31510255367E+03 -0.52954747135E+02  0.46906906479E+03  0.10100000352E+00 0. -1.
</event>
<event>
 5   0  0.2565416E-04  0.1507412E+04  0.7818609E-02  0.8879539E-01
       -1   -1    0    0    0  501  0.00000000000E+00  0.00000000000E+00  0.51097459845E+03  0.51097459848E+03  0.50400001928E-02 0.  1.
        1   -1    0    0  501    0  0.00000000000E+00  0.00000000000E+00 -0.11117437207E+04  0.11117437208E+04  0.50400001928E-02 0. -1.
    10030    2    1    2    0    0  0.00000000000E+00  0.00000000000E+00 -0.60076912229E+03  0.16227183192E+04  0.15074120887E+04 0.  0.
        5    1    3    3  502    0  0.11057667985E+03 -0.50202415703E+03  0.29295272159E+03  0.59169151038E+03  0.46999998093E+01 0.  1.
       -5    1    3    3    0  502 -0.11057667985E+03  0.50202415703E+03 -0.89372184388E+03  0.10310268089E+04  0.46999998093E+01 0. -1.
</event>
<event>
 5   0  0.2544374E-04  0.1505764E+04  0.7818609E-02  0.8880629E-01
        1   -1    0    0  501    0  0.00000000000E+00  0.00000000000E+00  0.51336170342E+03  0.51336170345E+03  0.50400001928E-02 0.  1.
       -1   -1    0    0    0  501  0.00000000000E+00  0.00000000000E+00 -0.11041559068E+04  0.11041559068E+04  0.50400001928E-02 0. -1.
    10030    2    1    2    0    0  0.00000000000E+00  0.00000000000E+00 -0.59079420334E+03  0.16175176102E+04  0.15057640681E+04 0.  0.
        4    1    3    3  502    0  0.76364352854E+02 -0.73025920268E+03 -0.47424612010E+03  0.87408295533E+03  0.12699999809E+01 0. -1.
       -4    1    3    3    0  502 -0.76364352854E+02  0.73025920268E+03 -0.11654808325E+03  0.74343465489E+03  0.12699999809E+01 0.  1.
</event>
<event>
 5   0  0.2565416E-04  0.1513609E+04  0.7818609E-02  0.8875453E-01
       -1   -1    0    0    0  501  0.00000000000E+00  0.00000000000E+00  0.47879734610E+03  0.47879734613E+03  0.50400001928E-02 0. -1.
        1   -1    0    0  501    0  0.00000000000E+00  0.00000000000E+00 -0.11962327536E+04  0.11962327536E+04  0.50400001928E-02 0.  1.
    10030    2    1    2    0    0  0.00000000000E+00  0.00000000000E+00 -0.71743540752E+03  0.16750300998E+04  0.15136090219E+04 0.  0.
        5    1    3    3  502    0 -0.70494147231E+03  0.42801753168E+02 -0.57765791415E+02  0.70861374960E+03  0.46999998093E+01 0. -1.
       -5    1    3    3    0  502  0.70494147231E+03 -0.42801753168E+02 -0.65966961610E+03  0.96641635017E+03  0.46999998093E+01 0.  1.
</event>
<event>
 5   0  0.2544374E-04  0.1499190E+04  0.7818609E-02  0.8884992E-01
       -1   -1    0    0    0  501  0.00000000000E+00  0.00000000000E+00  0.68120482668E+03  0.68120482670E+03  0.50400001928E-02 0.  1.
        1   -1    0    0  501    0  0.00000000000E+00  0.00000000000E+00 -0.82485150802E+03  0.82485150803E+03  0.50400001928E-02 0. -1.
    10030    2    1    2    0    0  0.00000000000E+00  0.00000000000E+00 -0.14364668134E+03  0.15060563347E+04  0.14991902195E+04 0.  0.
        4    1    3    3  502    0  0.61880447829E+03 -0.26505686021E+03 -0.40305618569E+03  0.78462094238E+03  0.12699999809E+01 0. -1.
       -4    1    3    3    0  502 -0.61880447829E+03  0.26505686021E+03  0.25940950435E+03  0.72143539235E+03  0.12699999809E+01 0.  1.
</event>
<event>
 5   0  0.4768387E-04  0.1497980E+04  0.7818609E-02  0.8885797E-01
        2   -1    0    0  501    0  0.00000000000E+00  0.00000000000E+00  0.16488952602E+04  0.16488952602E+04  0.25500000920E-02 0.  1.
       -2   -1    0    0    0  501  0.00000000000E+00  0.00000000000E+00 -0.34021919145E+03  0.34021919146E+03  0.25500000920E-02 0. -1.
    10030    2    1    2    0    0  0.00000000000E+00  0.00000000000E+00  0.13086760687E+04  0.19891144517E+04  0.14979797225E+04 0.  0.
        3    1    3    3  502    0  0.20662088771E+03  0.47657431400E+03 -0.62180699271E+02  0.52314598112E+03  0.10100000352E+00 0. -1.
       -3    1    3    3    0  502 -0.20662088771E+03 -0.47657431400E+03  0.13708567680E+04  0.14659684705E+04  0.10100000352E+00 0.  1.
</event>
<event>
 5   0  0.2605471E-04  0.1501885E+04  0.7818609E-02  0.8883201E-01
        1   -1    0    0  501    0  0.00000000000E+00  0.00000000000E+00  0.81728124198E+03  0.81728124200E+03  0.50400001928E-02 0. -1.
       -1   -1    0    0    0  501  0.00000000000E+00  0.00000000000E+00 -0.68998831349E+03  0.68998831351E+03  0.50400001928E-02 0.  1.
    10030    2    1    2    0    0  0.00000000000E+00  0.00000000000E+00  0.12729292849E+03  0.15072695555E+04  0.15018848236E+04 0.  0.
        3    1    3    3  502    0 -0.48062666167E+03 -0.21698990648E-01  0.64270084844E+03  0.80253746278E+03  0.10100000352E+00 0. -1.
       -3    1    3    3    0  502  0.48062666167E+03  0.21698990648E-01 -0.51540791994E+03  0.70473209273E+03  0.10100000352E+00 0.  1.
</event>
<event>
 5   0  0.4569211E-04  0.1479890E+04  0.7818609E-02  0.8897937E-01
        2   -1    0    0  501    0  0.00000000000E+00  0.00000000000E+00  0.12354871436E+04  0.12354871436E+04  0.25500000920E-02 0. -1.
       -2   -1    0    0    0  501  0.00000000000E+00  0.00000000000E+00 -0.44316031177E+03  0.44316031178E+03  0.25500000920E-02 0.  1.
    10030    2    1    2    0    0  0.00000000000E+00  0.00000000000E+00  0.79232683186E+03  0.16786474554E+04  0.14798903578E+04 0.  0.
        5    1    3    3  502    0  0.70962738316E+03  0.15748969354E+03  0.23930596826E+03  0.76528652343E+03  0.46999998093E+01 0.  1.
       -5    1    3    3    0  502 -0.70962738316E+03 -0.15748969354E+03  0.55302086360E+03  0.91336093199E+03  0.46999998093E+01 0. -1.
</event>
<event>
 5   0  0.4768387E-04  0.1507566E+04  0.7818609E-02  0.8879437E-01
        2   -1    0    0  501    0  0.00000000000E+00  0.00000000000E+00  0.16850322403E+04  0.16850322403E+04  0.25500000920E-02 0.  1.
       -2   -1    0    0    0  501  0.00000000000E+00  0.00000000000E+00 -0.33719778145E+03  0.33719778146E+03  0.25500000920E-02 0. -1.
    10030    2    1    2    0    0  0.00000000000E+00  0.00000000000E+00  0.13478344589E+04  0.20222300218E+04  0.15075664272E+04 0.  0.
        3    1    3    3  502    0 -0.44672276983E+03 -0.55420701543E+03  0.10065229873E+04  0.12327997336E+04  0.10100000352E+00 0. -1.
       -3    1    3    3    0  502  0.44672276983E+03  0.55420701543E+03  0.34131147155E+03  0.78943028815E+03  0.10100000352E+00 0.  1.
</event>
<event>
 5   0  0.2605471E-04  0.1493405E+04  0.7818609E-02  0.8888851E-01
       -1   -1    0    0    0  501  0.00000000000E+00  0.00000000000E+00  0.83265836588E+03  0.83265836590E+03  0.50400001928E-02 0. -1.
        1   -1    0    0  501    0  0.00000000000E+00  0.00000000000E+00 -0.66961950419E+03  0.66961950421E+03  0.50400001928E-02 0.  1.
    10030    2    1    2    0    0  0.00000000000E+00  0.00000000000E+00  0.16303886169E+03  0.15022778701E+04  0.14934045428E+04 0.  0.
        3    1    3    3  502    0 -0.40170666959E+03 -0.61728996667E+03 -0.42293645100E+02  0.73770177847E+03  0.10100000352E+00 0. -1.
       -3    1    3    3    0  502  0.40170666959E+03  0.61728996667E+03  0.20533250679E+03  0.76457609163E+03  0.10100000352E+00 0.  1.
</event>
<event>
 5   0  0.4785496E-04  0.1376997E+04  0.7818609E-02  0.8970640E-01
       -2   -1    0    0    0  501  0.00000000000E+00  0.00000000000E+00  0.35954128845E+03  0.35954128845E+03  0.25500000920E-02 0. -1.
        2   -1    0    0  501    0  0.00000000000E+00  0.00000000000E+00 -0.13184306242E+04  0.13184306242E+04  0.25500000920E-02 0.  1.
    10030    2    1    2    0    0  0.00000000000E+00  0.00000000000E+00 -0.95888933578E+03  0.16779719127E+04  0.13769970884E+04 0.  0.
        4    1    3    3  502    0 -0.32779953863E+03 -0.54522838912E+03 -0.80023764955E+03  0.10223054546E+04  0.12699999809E+01 0.  1.
       -4    1    3    3    0  502  0.32779953863E+03  0.54522838912E+03 -0.15865168623E+03  0.65566645809E+03  0.12699999809E+01 0. -1.
</event>
<event>
 5   0  0.4569211E-04  0.1504394E+04  0.7818609E-02  0.8881536E-01
        2   -1    0    0  501    0  0.00000000000E+00  0.00000000000E+00  0.93251273087E+03  0.93251273087E+03  0.25500000920E-02 0.  1.
       -2   -1    0    0    0  501  0.00000000000E+00  0.00000000000E+00 -0.60674776248E+03  0.60674776248E+03  0.25500000920E-02 0. -1.
    10030    2    1    2    0    0  0.00000000000E+00  0.00000000000E+00  0.32576496839E+03  0.15392604934E+04  0.15043935827E+04 0.  0.
        5    1    3    3  502    0 -0.13873148215E+03 -0.28827946237E+03  0.85941446191E+03  0.91704240900E+03  0.46999998093E+01 0.  1.
       -5    1    3    3    0  502  0.13873148215E+03  0.28827946237E+03 -0.53364949352E+03  0.62221808435E+03  0.46999998093E+01 0. -1.
</event>
<event>
 5   0  0.2603873E-04  0.1501913E+04  0.7818609E-02  0.8883182E-01
        1   -1    0    0  501    0  0.00000000000E+00  0.00000000000E+00  0.13865212617E+04  0.13865212618E+04  0.50400001928E-02 0.  1.
       -1   -1    0    0    0  501  0.00000000000E+00  0.00000000000E+00 -0.40672714205E+03  0.40672714208E+03  0.50400001928E-02 0. -1.
    10030    2    1    2    0    0  0.00000000000E+00  0.00000000000E+00  0.97979411970E+03  0.17932484038E+04  0.15019132202E+04 0.  0.
        2    1    3    3  502    0  0.24403528665E+03  0.61222686726E+03  0.60130575005E+02  0.66180861598E+03  0.25500000920E-02 0. -1.
       -2    1    3    3    0  502 -0.24403528665E+03 -0.61222686726E+03  0.91966354469E+03  0.11314397879E+04  0.25500000920E-02 0.  1.
</event>
<event>
 5   0  0.2544374E-04  0.1484188E+04  0.7818609E-02  0.8895036E-01
       -1   -1    0    0    0  501  0.00000000000E+00  0.00000000000E+00  0.51350756187E+03  0.51350756189E+03  0.50400001928E-02 0.  1.
        1   -1    0    0  501    0  0.00000000000E+00  0.00000000000E+00 -0.10724352746E+04  0.10724352746E+04  0.50400001928E-02 0. -1.
    10030    2    1    2    0    0  0.00000000000E+00  0.00000000000E+00 -0.55892771274E+03  0.15859428365E+04  0.14841881594E+04 0.  0.
        4    1    3    3  502    0 -0.43600382537E+03  0.40184136522E+03 -0.75629296659E+03  0.96101846119E+03  0.12699999809E+01 0. -1.
       -4    1    3    3    0  502  0.43600382537E+03 -0.40184136522E+03  0.19736525385E+03  0.62492437532E+03  0.12699999809E+01 0.  1.
</event>
<event>
 5   0  0.2605471E-04  0.1500126E+04  0.7818609E-02  0.8884369E-01
       -1   -1    0    0    0  501  0.00000000000E+00  0.00000000000E+00  0.83778997907E+03  0.83778997909E+03  0.50400001928E-02 0. -1.
        1   -1    0    0  501    0  0.00000000000E+00  0.00000000000E+00 -0.67152170234E+03  0.67152170236E+03  0.50400001928E-02 0.  1.
    10030    2    1    2    0    0  0.00000000000E+00  0.00000000000E+00  0.16626827673E+03  0.15093116814E+04  0.15001255321E+04 0.  0.
        3    1    3    3  502    0  0.54730825782E+03 -0.47262635626E+03 -0.11726421574E+03  0.73257962585E+03  0.10100000352E+00 0.  1.
       -3    1    3    3    0  502 -0.54730825782E+03  0.47262635626E+03  0.28353249247E+03  0.77673205560E+03  0.10100000352E+00 0. -1.
</event>
<event>
 5   0  0.2565416E-04  0.1500439E+04  0.7818609E-02  0.8884161E-01
        1   -1    0    0  501    0  0.00000000000E+00  0.00000000000E+00  0.11200484520E+04  0.11200484520E+04  0.50400001928E-02 0. -1.
       -1   -1    0    0    0  501  0.00000000000E+00  0.00000000000E+00 -0.50250415398E+03  0.50250415400E+03  0.50400001928E-02 0.  1.
    10030    2    1    2    0    0  0.00000000000E+00  0.00000000000E+00  0.61754429805E+03  0.16225526060E+04  0.15004386023E+04 0.  0.
        5    1    3    3  502    0  0.25021515698E+02  0.48713063285E+03  0.92514727878E+03  0.10458689723E+04  0.46999998093E+01 0. -1.
       -5    1    3    3    0  502 -0.25021515698E+02 -0.48713063285E+03 -0.30760298074E+03  0.57668363377E+03  0.46999998093E+01 0.  1.
</event>
<event>
 5   0  0.4768387E-04  0.1495004E+04  0.7818609E-02  0.8887782E-01
        2   -1    0    0  501    0  0.00000000000E+00  0.00000000000E+00  0.11227639436E+04  0.11227639436E+04  0.25500000920E-02 0.  1.
       -2   -1    0    0    0  501  0.00000000000E+00  0.00000000000E+00 -0.49766397950E+03  0.49766397951E+03  0.25500000920E-02 0. -1.
    10030    2    1    2    0    0  0.00000000000E+00  0.00000000000E+00  0.62509996405E+03  0.16204279231E+04  0.14950039093E+04 0.  0.
        3    1    3    3  502    0 -0.31764072748E+03  0.62750689395E+03  0.58696745319E+03  0.91607386984E+03  0.10100000352E+00 0. -1.
       -3    1    3    3    0  502  0.31764072748E+03 -0.62750689395E+03  0.38132510863E+02  0.70435405322E+03  0.10100000352E+00 0.  1.
</event>
<event>
 5   0  0.2542737E-04  0.1498407E+04  0.7818609E-02  0.8885513E-01
        1   -1    0    0  501    0  0.00000000000E+00  0.00000000000E+00  0.11816566187E+04  0.11816566187E+04  0.50400001928E-02 0. -1.
       -1   -1    0    0    0  501  0.00000000000E+00  0.00000000000E+00 -0.47501586876E+03  0.47501586878E+03  0.50400001928E-02 0.  1.
    10030    2    1    2    0    0  0.00000000000E+00  0.00000000000E+00  0.70664074994E+03  0.16566724875E+04  0.14984066809E+04 0.  0.
        1    1    3    3  502    0  0.66673362293E+03  0.12145989784E+03  0.17918775212E+00  0.67770662006E+03  0.50400001928E-02 0.  1.
       -1    1    3    3    0  502 -0.66673362293E+03 -0.12145989784E+03  0.70646156219E+03  0.97896586744E+03  0.50400001928E-02 0. -1.
</event>
<event>
 5   0  0.4948645E-04  0.1473184E+04  0.7818609E-02  0.8902484E-01
       -2   -1    0    0    0  501  0.00000000000E+00  0.00000000000E+00  0.46712089446E+03  0.46712089446E+03  0.25500000920E-02 0. -1.
        2   -1    0    0  501    0  0.00000000000E+00  0.00000000000E+00 -0.11615146830E+04  0.11615146830E+04  0.25500000920E-02 0.  1.
    10030    2    1    2    0    0  0.00000000000E+00  0.00000000000E+00 -0.69439378859E+03  0.16286355775E+04  0.14731840044E+04 0.  0.
        1    1    3    3  502    0  0.18303235240E+02  0.52564386079E+03 -0.91729769637E+03  0.10573890205E+04  0.50400001928E-02 0.  1.
       -1    1    3    3    0  502 -0.18303235240E+02 -0.52564386079E+03  0.22290390778E+03  0.57124655705E+03  0.50400001928E-02 0. -1.
</event>
<event>
 5   0  0.2605471E-04  0.1500080E+04  0.7818609E-02  0.8884399E-01
        1   -1    0    0  501    0  0.00000000000E+00  0.00000000000E+00  0.16177455029E+04  0.16177455029E+04  0.50400001928E-02 0. -1.
       -1   -1    0    0    0  501  0.00000000000E+00  0.00000000000E+00 -0.34774339471E+03  0.34774339475E+03  0.50400001928E-02 0.  1.
    10030    2    1    2    0    0  0.00000000000E+00  0.00000000000E+00  0.12700021081E+04  0.19654888976E+04  0.15000804152E+04 0.  0.
        3    1    3    3  502    0 -0.70237465107E+03 -0.23276351046E+03  0.79574812478E+03  0.10866112877E+04  0.10100000352E+00 0. -1.
       -3    1    3    3    0  502  0.70237465107E+03  0.23276351046E+03  0.47425398337E+03  0.87887760992E+03  0.10100000352E+00 0.  1.
</event>
<event>
 5   0  0.2603873E-04  0.1498275E+04  0.7818609E-02  0.8885601E-01
       -1   -1    0    0    0  501  0.00000000000E+00  0.00000000000E+00  0.59951880743E+03  0.59951880745E+03  0.50400001928E-02 0.  1.
        1   -1    0    0  501    0  0.00000000000E+00  0.00000000000E+00 -0.93609518463E+03  0.93609518465E+03  0.50400001928E-02 0. -1.
    10030    2    1    2    0    0  0.00000000000E+00  0.00000000000E+00 -0.33657637721E+03  0.15356139921E+04  0.14982745660E+04 0.  0.
        2    1    3    3  502    0 -0.30028776304E+03 -0.53231806588E+03 -0.61229507502E+03  0.86512457068E+03  0.25500000920E-02 0. -1.
       -2    1    3    3    0  502  0.30028776304E+03  0.53231806588E+03  0.27571869781E+03  0.67048942141E+03  0.25500000920E-02 0.  1.
</event>
<event>
 5   0  0.2565416E-04  0.1492873E+04  0.7818609E-02  0.8889206E-01
        1   -1    0    0  501    0  0.00000000000E+00  0.00000000000E+00  0.11309164790E+04  0.11309164791E+04  0.50400001928E-02 0.  1.
       -1   -1    0    0    0  501  0.00000000000E+00  0.00000000000E+00 -0.49266867686E+03  0.49266867689E+03  0.50400001928E-02 0. -1.
    10030    2    1    2    0    0  0.00000000000E+00  0.00000000000E+00  0.63824780218E+03  0.16235851559E+04  0.14928725671E+04 0.  0.
        5    1    3    3  502    0 -0.59889185847E+03 -0.16928491565E+03  0.76729297725E+03  0.98797239017E+03  0.46999998093E+01 0.  1.
       -5    1    3    3    0  502  0.59889185847E+03  0.16928491565E+03 -0.12904517506E+03  0.63561276577E+03  0.46999998093E+01 0. -1.
</event>
<event>
 5   0  0.4569211E-04  0.1504504E+04  0.7818609E-02  0.8881463E-01
       -2   -1    0    0    0  501  0.00000000000E+00  0.00000000000E+00  0.35285481043E+03  0.35285481044E+03  0.25500000920E-02 0. -1.
        2   -1    0    0  501    0  0.00000000000E+00  0.00000000000E+00 -0.16037286829E+04  0.16037286829E+04  0.25500000920E-02 0.  1.
    10030    2    1    2    0    0  0.00000000000E+00  0.00000000000E+00 -0.12508738724E+04  0.19565834933E+04  0.15045044106E+04 0.  0.
        5    1    3    3  502    0 -0.68763610095E+03 -0.24800333876E+03 -0.85629469139E+03  0.11258826546E+04  0.46999998093E+01 0.  1.
       -5    1    3    3    0  502  0.68763610095E+03  0.24800333876E+03 -0.39457918103E+03  0.83070083873E+03  0.46999998093E+01 0. -1.
</event>
<event>
 5   0  0.4569211E-04  0.1507982E+04  0.7818609E-02  0.8879162E-01
        2   -1    0    0  501    0  0.00000000000E+00  0.00000000000E+00  0.35239446206E+03  0.35239446207E+03  0.25500000920E-02 0. -1.
       -2   -1    0    0    0  501  0.00000000000E+00  0.00000000000E+00 -0.16132568563E+04  0.16132568563E+04  0.25500000920E-02 0.  1.
    10030    2    1    2    0    0  0.00000000000E+00  0.00000000000E+00 -0.12608623943E+04  0.19656513184E+04  0.15079824695E+04 0.  0.
        5    1    3    3  502    0 -0.57819850491E+02 -0.23697137529E+03  0.29952277577E+03  0.38630888033E+03  0.46999998093E+01 0. -1.
       -5    1    3    3    0  502  0.57819850491E+02  0.23697137529E+03 -0.15603851700E+04  0.15793424381E+04  0.46999998093E+01 0.  1.
</event>
<event>
 5   0  0.4569211E-04  0.1498867E+04  0.7818609E-02  0.8885207E-01
        2   -1    0    0  501    0  0.00000000000E+00  0.00000000000E+00  0.20297889023E+04  0.20297889023E+04  0.25500000920E-02 0.  1.
       -2   -1    0    0    0  501  0.00000000000E+00  0.00000000000E+00 -0.27670400052E+03  0.27670400054E+03  0.25500000920E-02 0. -1.
    10030    2    1    2    0    0  0.00000000000E+00  0.00000000000E+00  0.17530849018E+04  0.23064929028E+04  0.14988671849E+04 0.  0.
        5    1    3    3  502    0  0.25405868763E+03 -0.34623757371E+02  0.19601674562E+04  0.19768720666E+04  0.46999998093E+01 0.  1.
       -5    1    3    3    0  502 -0.25405868763E+03  0.34623757371E+02 -0.20708255443E+03  0.32962083624E+03  0.46999998093E+01 0. -1.
</event>
<event>
 5   0  0.2544374E-04  0.1492936E+04  0.7818609E-02  0.8889164E-01
       -1   -1    0    0    0  501  0.00000000000E+00  0.00000000000E+00  0.49538580861E+03  0.49538580864E+03  0.50400001928E-02 0.  1.
        1   -1    0    0  501    0  0.00000000000E+00  0.00000000000E+00 -0.11248084008E+04  0.11248084008E+04  0.50400001928E-02 0. -1.
    10030    2    1    2    0    0  0.00000000000E+00  0.00000000000E+00 -0.62942259215E+03  0.16201942094E+04  0.14929355233E+04 0.  0.
        4    1    3    3  502    0  0.29460009071E+03  0.50501740502E+03  0.18893938946E+03  0.61443591904E+03  0.12699999809E+01 0.  1.
       -4    1    3    3    0  502 -0.29460009071E+03 -0.50501740502E+03 -0.81836198161E+03  0.10057582904E+04  0.12699999809E+01 0. -1.
</event>
<event>
 5   0  0.4726600E-04  0.1501924E+04  0.7818609E-02  0.8883175E-01
       -2   -1    0    0    0  501  0.00000000000E+00  0.00000000000E+00  0.44674932062E+03  0.44674932063E+03  0.25500000920E-02 0.  1.
        2   -1    0    0  501    0  0.00000000000E+00  0.00000000000E+00 -0.12623272239E+04  0.12623272239E+04  0.25500000920E-02 0. -1.
    10030    2    1    2    0    0  0.00000000000E+00  0.00000000000E+00 -0.81557790323E+03  0.17090765445E+04  0.15019238725E+04 0.  0.
        2    1    3    3  502    0  0.72249151266E+03  0.97749399305E+02 -0.61259930501E+03  0.95227456095E+03  0.25500000920E-02 0. -1.
       -2    1    3    3    0  502 -0.72249151266E+03 -0.97749399305E+02 -0.20297859822E+03  0.75680198353E+03  0.25500000920E-02 0.  1.
</event>
<event>
 5   0  0.4768387E-04  0.1504073E+04  0.7818609E-02  0.8881749E-01
       -2   -1    0    0    0  501  0.00000000000E+00  0.00000000000E+00  0.34417696700E+03  0.34417696701E+03  0.25500000920E-02 0.  1.
        2   -1    0    0  501    0  0.00000000000E+00  0.00000000000E+00 -0.16432222096E+04  0.16432222096E+04  0.25500000920E-02 0. -1.
    10030    2    1    2    0    0  0.00000000000E+00  0.00000000000E+00 -0.12990452426E+04  0.19873991766E+04  0.15040734506E+04 0.  0.
        3    1    3    3  502    0  0.25145814686E+03 -0.69611848853E+03 -0.47349554784E+03  0.87864110633E+03  0.10100000352E+00 0.  1.
       -3    1    3    3    0  502 -0.25145814686E+03  0.69611848853E+03 -0.82554969477E+03  0.11087580703E+04  0.10100000352E+00 0. -1.
</event>
<event>
 5   0  0.2542737E-04  0.1413422E+04  0.7818609E-02  0.8944160E-01
        1   -1    0    0  501    0  0.00000000000E+00  0.00000000000E+00  0.43183235063E+03  0.43183235066E+03  0.50400001928E-02 0.  1.
       -1   -1    0    0    0  501  0.00000000000E+00  0.00000000000E+00 -0.11565605059E+04  0.11565605060E+04  0.50400001928E-02 0. -1.
    10030    2    1    2    0    0  0.00000000000E+00  0.00000000000E+00 -0.72472815532E+03  0.15883928566E+04  0.14134217233E+04 0.  0.
        1    1    3    3  502    0 -0.47458894659E+03  0.40720241911E+03  0.76210820835E+01  0.62538512876E+03  0.50400001928E-02 0.  1.
       -1    1    3    3    0  502  0.47458894659E+03 -0.40720241911E+03 -0.73234923740E+03  0.96300772785E+03  0.50400001928E-02 0. -1.
</event>
<event>
 5   0  0.4768387E-04  0.1509593E+04  0.7818609E-02  0.8878099E-01
       -2   -1    0    0    0  501  0.00000000000E+00  0.00000000000E+00  0.66707079048E+03  0.66707079048E+03  0.25500000920E-02 0. -1.
        2   -1    0    0  501    0  0.00000000000E+00  0.00000000000E+00 -0.85405838749E+03  0.85405838749E+03  0.25500000920E-02 0.  1.
    10030    2    1    2    0    0  0.00000000000E+00  0.00000000000E+00 -0.18698759701E+03  0.15211291780E+04  0.15095925327E+04 0.  0.
        3    1    3    3  502    0 -0.47342581198E+03  0.58338691876E+03 -0.16647031382E+03  0.76953536112E+03  0.10100000352E+00 0.  1.
       -3    1    3    3    0  502  0.47342581198E+03 -0.58338691876E+03 -0.20517283196E+02  0.75159381686E+03  0.10100000352E+00 0. -1.
</event>
<event>
 5   0  0.2544374E-04  0.1500776E+04  0.7818609E-02  0.8883937E-01
       -1   -1    0    0    0  501  0.00000000000E+00  0.00000000000E+00  0.75055927296E+03  0.75055927298E+03  0.50400001928E-02 0.  1.
        1   -1    0    0  501    0  0.00000000000E+00  0.00000000000E+00 -0.75021641115E+03  0.75021641116E+03  0.50400001928E-02 0. -1.
    10030    2    1    2    0    0  0.00000000000E+00  0.00000000000E+00  0.34286181556E+00  0.15007756841E+04  0.15007756450E+04 0.  0.
        4    1    3    3  502    0  0.51593457590E+03 -0.44646299321E+03  0.31252153161E+03  0.75045920045E+03  0.12699999809E+01 0.  1.
       -4    1    3    3    0  502 -0.51593457590E+03  0.44646299321E+03 -0.31217866980E+03  0.75031648369E+03  0.12699999809E+01 0. -1.
</event>
<event>
 5   0  0.4569211E-04  0.1483762E+04  0.7818609E-02  0.8895323E-01
        2   -1    0    0  501    0  0.00000000000E+00  0.00000000000E+00  0.10876148799E+04  0.10876148799E+04  0.25500000920E-02 0.  1.
       -2   -1    0    0    0  501  0.00000000000E+00  0.00000000000E+00 -0.50604999897E+03  0.50604999897E+03  0.25500000920E-02 0. -1.
    10030    2    1    2    0    0  0.00000000000E+00  0.00000000000E+00  0.58156488093E+03  0.15936648789E+04  0.14837621222E+04 0.  0.
        5    1    3    3  502    0  0.35284026194E+03 -0.17450414705E+03  0.96618180665E+03  0.10433011652E+04  0.46999998093E+01 0.  1.
       -5    1    3    3    0  502 -0.35284026194E+03  0.17450414705E+03 -0.38461692573E+03  0.55036371368E+03  0.46999998093E+01 0. -1.
</event>
<event>
 5   0  0.2605471E-04  0.1603303E+04  0.7818609E-02  0.8818521E-01
       -1   -1    0    0    0  501  0.00000000000E+00  0.00000000000E+00  0.60774162432E+03  0.60774162434E+03  0.50400001928E-02 0.  1.
        1   -1    0    0  501    0  0.00000000000E+00  0.00000000000E+00 -0.10574320851E+04  0.10574320851E+04  0.50400001928E-02 0. -1.
    10030    2    1    2    0    0  0.00000000000E+00  0.00000000000E+00 -0.44969046078E+03  0.16651737095E+04  0.16033034560E+04 0.  0.
        3    1    3    3  502    0  0.15476317711E+03  0.67647743271E+03 -0.64167047211E+03  0.94515308968E+03  0.10100000352E+00 0. -1.
       -3    1    3    3    0  502 -0.15476317711E+03 -0.67647743271E+03  0.19198001132E+03  0.72002061978E+03  0.10100000352E+00 0.  1.
</event>
<event>
 5   0  0.4726600E-04  0.1511098E+04  0.7818609E-02  0.8877106E-01
        2   -1    0    0  501    0  0.00000000000E+00  0.00000000000E+00  0.73207223402E+03  0.73207223402E+03  0.25500000920E-02 0.  1.
       -2   -1    0    0    0  501  0.00000000000E+00  0.00000000000E+00 -0.77977904975E+03  0.77977904975E+03  0.25500000920E-02 0. -1.
    10030    2    1    2    0    0  0.00000000000E+00  0.00000000000E+00 -0.47706815728E+02  0.15118512838E+04  0.15110983965E+04 0.  0.
        2    1    3    3  502    0  0.74420320066E+03 -0.12418211429E+03 -0.63810627236E+02  0.75718650116E+03  0.25500000920E-02 0. -1.
       -2    1    3    3    0  502 -0.74420320066E+03  0.12418211429E+03  0.16103811508E+02  0.75466478262E+03  0.25500000920E-02 0.  1.
</event>
<event>
 5   0  0.2565416E-04  0.1535673E+04  0.7818609E-02  0.8861071E-01
       -1   -1    0    0    0  501  0.00000000000E+00  0.00000000000E+00  0.68894921623E+03  0.68894921625E+03  0.50400001928E-02 0. -1.
        1   -1    0    0  501    0  0.00000000000E+00  0.00000000000E+00 -0.85575671450E+03  0.85575671452E+03  0.50400001928E-02 0.  1.
    10030    2    1    2    0    0  0.00000000000E+00  0.00000000000E+00 -0.16680749827E+03  0.15447059308E+04  0.15356730352E+04 0.  0.
        5    1    3    3  502    0 -0.63189548642E+03 -0.38517269585E+03 -0.28930491990E+03  0.79458752699E+03  0.46999998093E+01 0. -1.
       -5    1    3    3    0  502  0.63189548642E+03  0.38517269585E+03  0.12249742163E+03  0.75011840378E+03  0.46999998093E+01 0.  1.
</event>
<event>
 5   0  0.2603873E-04  0.1498373E+04  0.7818609E-02  0.8885536E-01
       -1   -1    0    0    0  501  0.00000000000E+00  0.00000000000E+00  0.68354789371E+03  0.68354789373E+03  0.50400001928E-02 0.  1.
        1   -1    0    0  501    0  0.00000000000E+00  0.00000000000E+00 -0.82112767910E+03  0.82112767912E+03  0.50400001928E-02 0. -1.
    10030    2    1    2    0    0  0.00000000000E+00  0.00000000000E+00 -0.13757978539E+03  0.15046755728E+04  0.14983725779E+04 0.  0.
        2    1    3    3  502    0 -0.11595182916E+03  0.39812357555E+03 -0.69538009487E+03  0.80962996761E+03  0.25500000920E-02 0. -1.
       -2    1    3    3    0  502  0.11595182916E+03 -0.39812357555E+03  0.55780030948E+03  0.69504560524E+03  0.25500000920E-02 0.  1.
</event>
<event>
 5   0  0.2565416E-04  0.1504216E+04  0.7818609E-02  0.8881654E-01
       -1   -1    0    0    0  501  0.00000000000E+00  0.00000000000E+00  0.35926096397E+03  0.35926096401E+03  0.50400001928E-02 0.  1.
        1   -1    0    0  501    0  0.00000000000E+00  0.00000000000E+00 -0.15745271287E+04  0.15745271287E+04  0.50400001928E-02 0. -1.
    10030    2    1    2    0    0  0.00000000000E+00  0.00000000000E+00 -0.12152661647E+04  0.19337880927E+04  0.15042155884E+04 0.  0.
        5    1    3    3  502    0 -0.75671691558E+02 -0.97996386765E+02 -0.15613166363E+04  0.15662251516E+04  0.46999998093E+01 0. -1.
       -5    1    3    3    0  502  0.75671691558E+02  0.97996386765E+02  0.34605047163E+03  0.36756294106E+03  0.46999998093E+01 0.  1.
</event>
<event>
 5   0  0.4569211E-04  0.1537906E+04  0.7818609E-02  0.8859630E-01
        2   -1    0    0  501    0  0.00000000000E+00  0.00000000000E+00  0.12492928860E+04  0.12492928860E+04  0.25500000920E-02 0.  1.
       -2   -1    0    0    0  501  0.00000000000E+00  0.00000000000E+00 -0.47329849858E+03  0.47329849859E+03  0.25500000920E-02 0. -1.
    10030    2    1    2    0    0  0.00000000000E+00  0.00000000000E+00  0.77599438746E+03  0.17225913846E+04  0.15379056502E+04 0.  0.
        5    1    3    3  502    0  0.33067189516E+03 -0.64840901032E+03  0.11025075144E+03  0.73617624595E+03  0.46999998093E+01 0. -1.
       -5    1    3    3    0  502 -0.33067189516E+03  0.64840901032E+03  0.66574363602E+03  0.98641513868E+03  0.46999998093E+01 0.  1.
</event>
<event>
 5   0  0.2565416E-04  0.1498313E+04  0.7818609E-02  0.8885576E-01
       -1   -1    0    0    0  501  0.00000000000E+00  0.00000000000E+00  0.64690486190E+03  0.64690486192E+03  0.50400001928E-02 0. -1.
        1   -1    0    0  501    0  0.00000000000E+00  0.00000000000E+00 -0.86756985677E+03  0.86756985678E+03  0.50400001928E-02 0.  1.
    10030    2    1    2    0    0  0.00000000000E+00  0.00000000000E+00 -0.22066499487E+03  0.15144747187E+04  0.14983125954E+04 0.  0.
        5    1    3    3  502    0  0.34697714236E+03  0.66124585393E+03 -0.49905938485E+02  0.74843296918E+03  0.46999998093E+01 0. -1.
       -5    1    3    3    0  502 -0.34697714236E+03 -0.66124585393E+03 -0.17075905638E+03  0.76604174952E+03  0.46999998093E+01 0.  1.
</event>
<event>
 5   0  0.4948645E-04  0.1489495E+04  0.7818609E-02  0.8891469E-01
        2   -1    0    0  501    0  0.00000000000E+00  0.00000000000E+00  0.11834665266E+04  0.11834665266E+04  0.25500000920E-02 0. -1.
       -2   -1    0    0    0  501  0.00000000000E+00  0.00000000000E+00 -0.46866441169E+03  0.46866441170E+03  0.25500000920E-02 0.  1.
    10030    2    1    2    0    0  0.00000000000E+00  0.00000000000E+00  0.71480211494E+03  0.16521309383E+04  0.14894947378E+04 0.  0.
        1    1    3    3  502    0  0.20431911884E+03 -0.11831601603E+02  0.11516626409E+04  0.11697064279E+04  0.50400001928E-02 0. -1.
       -1    1    3    3    0  502 -0.20431911884E+03  0.11831601603E+02 -0.43686052592E+03  0.48242451042E+03  0.50400001928E-02 0.  1.
</event>
<event>
 5   0  0.4569211E-04  0.1482781E+04  0.7818609E-02  0.8895985E-01
        2   -1    0    0  501    0  0.00000000000E+00  0.00000000000E+00  0.69917180762E+03  0.69917180763E+03  0.25500000920E-02 0. -1.
       -2   -1    0    0    0  501  0.00000000000E+00  0.00000000000E+00 -0.78615887025E+03  0.78615887025E+03  0.25500000920E-02 0.  1.
    10030    2    1    2    0    0  0.00000000000E+00  0.00000000000E+00 -0.86987062629E+02  0.14853306779E+04  0.14827813303E+04 0.  0.
        5    1    3    3  502    0 -0.16954409018E+03  0.28910781741E+03 -0.70592430194E+03  0.78146000453E+03  0.46999998093E+01 0.  1.
       -5    1    3    3    0  502  0.16954409018E+03 -0.28910781741E+03  0.61893723931E+03  0.70387067335E+03  0.46999998093E+01 0. -1.
</event>
<event>
 5   0  0.4569211E-04  0.1506759E+04  0.7818609E-02  0.8879971E-01
        2   -1    0    0  501    0  0.00000000000E+00  0.00000000000E+00  0.64490409665E+03  0.64490409665E+03  0.25500000920E-02 0. -1.
       -2   -1    0    0    0  501  0.00000000000E+00  0.00000000000E+00 -0.88010097181E+03  0.88010097181E+03  0.25500000920E-02 0.  1.
    10030    2    1    2    0    0  0.00000000000E+00  0.00000000000E+00 -0.23519687516E+03  0.15250050685E+04  0.15067590679E+04 0.  0.
        5    1    3    3  502    0  0.42410215196E+03 -0.42238759039E+03 -0.58061468878E+03  0.83391211685E+03  0.46999998093E+01 0.  1.
       -5    1    3    3    0  502 -0.42410215196E+03  0.42238759039E+03  0.34541781362E+03  0.69109295161E+03  0.46999998093E+01 0. -1.
</event>
<event>
 5   0  0.2565416E-04  0.1453939E+04  0.7818609E-02  0.8915674E-01
        1   -1    0    0  501    0  0.00000000000E+00  0.00000000000E+00  0.63703120861E+03  0.63703120863E+03  0.50400001928E-02 0. -1.
       -1   -1    0    0    0  501  0.00000000000E+00  0.00000000000E+00 -0.82960610729E+03  0.82960610730E+03  0.50400001928E-02 0.  1.
    10030    2    1    2    0    0  0.00000000000E+00  0.00000000000E+00 -0.19257489867E+03  0.14666373159E+04  0.14539394502E+04 0.  0.
        5    1    3    3  502    0  0.59053786892E+03 -0.15739954050E+03 -0.49336636449E+03  0.78545658670E+03  0.46999998093E+01 0.  1.
       -5    1    3    3    0  502 -0.59053786892E+03  0.15739954050E+03  0.30079146582E+03  0.68118072924E+03  0.46999998093E+01 0. -1.
</event>
<event>
 5   0  0.2565416E-04  0.1492277E+04  0.7818609E-02  0.8889605E-01
        1   -1    0    0  501    0  0.00000000000E+00  0.00000000000E+00  0.10109585340E+04  0.10109585340E+04  0.50400001928E-02 0.  1.
       -1   -1    0    0    0  501  0.00000000000E+00  0.00000000000E+00 -0.55068816308E+03  0.55068816310E+03  0.50400001928E-02 0. -1.
    10030    2    1    2    0    0  0.00000000000E+00  0.00000000000E+00  0.46027037095E+03  0.15616466971E+04  0.14922773175E+04 0.  0.
        5    1    3    3  502    0  0.58603015949E+03 -0.10403589907E+02  0.71329115918E+03  0.92322583925E+03  0.46999998093E+01 0. -1.
       -5    1    3    3    0  502 -0.58603015949E+03  0.10403589907E+02 -0.25302078822E+03  0.63842085788E+03  0.46999998093E+01 0.  1.
</event>
<event>
 5   0  0.4569211E-04  0.1496468E+04  0.7818609E-02  0.8886805E-01
       -2   -1    0    0    0  501  0.00000000000E+00  0.00000000000E+00  0.92195642107E+03  0.92195642107E+03  0.25500000920E-02 0.  1.
        2   -1    0    0  501    0  0.00000000000E+00  0.00000000000E+00 -0.60724600788E+03  0.60724600789E+03  0.25500000920E-02 0. -1.
    10030    2    1    2    0    0  0.00000000000E+00  0.00000000000E+00  0.31471041319E+03  0.15292024290E+04  0.14964683173E+04 0.  0.
        5    1    3    3  502    0 -0.14711104011E+03 -0.46654427704E+03 -0.42117999992E+03  0.64553845965E+03  0.46999998093E+01 0. -1.
       -5    1    3    3    0  502  0.14711104011E+03  0.46654427704E+03  0.73589041310E+03  0.88366396931E+03  0.46999998093E+01 0.  1.
</event>
<event>
 5   0  0.2544374E-04  0.1496065E+04  0.7818609E-02  0.8887074E-01
       -1   -1    0    0    0  501  0.00000000000E+00  0.00000000000E+00  0.66354996282E+03  0.66354996284E+03  0.50400001928E-02 0. -1.
        1   -1    0    0  501    0  0.00000000000E+00  0.00000000000E+00 -0.84327082209E+03  0.84327082211E+03  0.50400001928E-02 0.  1.
    10030    2    1    2    0    0  0.00000000000E+00  0.00000000000E+00 -0.17972085927E+03  0.15068207849E+04  0.14960646011E+04 0.  0.
        4    1    3    3  502    0 -0.46193590988E+03 -0.30150896930E+03 -0.59872376802E+03  0.81410331451E+03  0.12699999809E+01 0.  1.
       -4    1    3    3    0  502  0.46193590988E+03  0.30150896930E+03  0.41900290875E+03  0.69271747043E+03  0.12699999809E+01 0. -1.
</event>
<event>
 5   0  0.4948645E-04  0.1475009E+04  0.7818609E-02  0.8901244E-01
       -2   -1    0    0    0  501  0.00000000000E+00  0.00000000000E+00  0.42997289978E+03  0.42997289979E+03  0.25500000920E-02 0.  1.
        2   -1    0    0  501    0  0.00000000000E+00  0.00000000000E+00 -0.12649936172E+04  0.12649936172E+04  0.25500000920E-02 0. -1.
    10030    2    1    2    0    0  0.00000000000E+00  0.00000000000E+00 -0.83502071737E+03  0.16949665169E+04  0.14750091170E+04 0.  0.
        1    1    3    3  502    0  0.20073816742E+03 -0.41240715274E+03  0.24613911576E+03  0.52053812139E+03  0.50400001928E-02 0.  1.
       -1    1    3    3    0  502 -0.20073816742E+03  0.41240715274E+03 -0.10811598331E+04  0.11744283956E+04  0.50400001928E-02 0. -1.
</event>
<event>
 5   0  0.2565416E-04  0.1418040E+04  0.7818609E-02  0.8940862E-01
       -1   -1    0    0    0  501  0.00000000000E+00  0.00000000000E+00  0.31950275107E+03  0.31950275111E+03  0.50400001928E-02 0.  1.
        1   -1    0    0  501    0  0.00000000000E+00  0.00000000000E+00 -0.15734126841E+04  0.15734126842E+04  0.50400001928E-02 0. -1.
    10030    2    1    2    0    0  0.00000000000E+00  0.00000000000E+00 -0.12539099331E+04  0.18929154353E+04  0.14180404524E+04 0.  0.
        5    1    3    3  502    0  0.31386438374E+03 -0.51192450095E+02 -0.14728484739E+04  0.15067966802E+04  0.46999998093E+01 0. -1.
       -5    1    3    3    0  502 -0.31386438374E+03  0.51192450095E+02  0.21893854086E+03  0.38611875504E+03  0.46999998093E+01 0.  1.
</event>
<event>
 5   0  0.2542737E-04  0.1497935E+04  0.7818609E-02  0.8885827E-01
        1   -1    0    0  501    0  0.00000000000E+00  0.00000000000E+00  0.13849941782E+04  0.13849941782E+04  0.50400001928E-02 0. -1.
       -1   -1    0    0    0  501  0.00000000000E+00  0.00000000000E+00 -0.40502141614E+03  0.40502141617E+03  0.50400001928E-02 0.  1.
    10030    2    1    2    0    0  0.00000000000E+00  0.00000000000E+00  0.97997276205E+03  0.17900155944E+04  0.14979349831E+04 0.  0.
        1    1    3    3  502    0 -0.31645631210E+03 -0.18308570308E+03  0.12711173553E+04  0.13226504841E+04  0.50400001928E-02 0. -1.
       -1    1    3    3    0  502  0.31645631210E+03  0.18308570308E+03 -0.29114459321E+03  0.46736511029E+03  0.50400001928E-02 0.  1.
</event>
<event>
 5   0  0.2542737E-04  0.1508831E+04  0.7818609E-02  0.8878602E-01
       -1   -1    0    0    0  501  0.00000000000E+00  0.00000000000E+00  0.12468146293E+04  0.12468146293E+04  0.50400001928E-02 0. -1.
        1   -1    0    0  501    0  0.00000000000E+00  0.00000000000E+00 -0.45647722874E+03  0.45647722877E+03  0.50400001928E-02 0.  1.
    10030    2    1    2    0    0  0.00000000000E+00  0.00000000000E+00  0.79033740058E+03  0.17032918581E+04  0.15088306555E+04 0.  0.
        1    1    3    3  502    0  0.64998006596E+03 -0.38036542584E+03  0.44553434527E+03  0.87501588338E+03  0.50400001928E-02 0.  1.
       -1    1    3    3    0  502 -0.64998006596E+03  0.38036542584E+03  0.34480305532E+03  0.82827597472E+03  0.50400001928E-02 0. -1.
</event>
<event>
 5   0  0.2544374E-04  0.1545808E+04  0.7818609E-02  0.8854550E-01
       -1   -1    0    0    0  501  0.00000000000E+00  0.00000000000E+00  0.79743793052E+03  0.79743793054E+03  0.50400001928E-02 0.  1.
        1   -1    0    0  501    0  0.00000000000E+00  0.00000000000E+00 -0.74912487490E+03  0.74912487492E+03  0.50400001928E-02 0. -1.
    10030    2    1    2    0    0  0.00000000000E+00  0.00000000000E+00  0.48313055622E+02  0.15465628055E+04  0.15458079958E+04 0.  0.
        4    1    3    3  502    0 -0.25025493490E+03 -0.41346054238E+03  0.62761091397E+03  0.79213270655E+03  0.12699999809E+01 0.  1.
       -4    1    3    3    0  502  0.25025493490E+03  0.41346054238E+03 -0.57929785835E+03  0.75443009890E+03  0.12699999809E+01 0. -1.
</event>
<event>
 5   0  0.4785496E-04  0.1396349E+04  0.7818609E-02  0.8956466E-01
        2   -1    0    0  501    0  0.00000000000E+00  0.00000000000E+00  0.55608387492E+03  0.55608387493E+03  0.25500000920E-02 0.  1.
       -2   -1    0    0    0  501  0.00000000000E+00  0.00000000000E+00 -0.87657180029E+03  0.87657180030E+03  0.25500000920E-02 0. -1.
    10030    2    1    2    0    0  0.00000000000E+00  0.00000000000E+00 -0.32048792537E+03  0.14326556752E+04  0.13963487292E+04 0.  0.
        4    1    3    3  502    0 -0.41440497241E+03  0.16621684242E+03  0.39044863817E+03  0.59313680699E+03  0.12699999809E+01 0.  1.
       -4    1    3    3    0  502  0.41440497241E+03 -0.16621684242E+03 -0.71093656353E+03  0.83951886824E+03  0.12699999809E+01 0. -1.
</event>
<event>
 5   0  0.4768387E-04  0.1499015E+04  0.7818609E-02  0.8885108E-01
       -2   -1    0    0    0  501  0.00000000000E+00  0.00000000000E+00  0.84614932327E+03  0.84614932327E+03  0.25500000920E-02 0.  1.
        2   -1    0    0  501    0  0.00000000000E+00  0.00000000000E+00 -0.66390378404E+03  0.66390378404E+03  0.25500000920E-02 0. -1.
    10030    2    1    2    0    0  0.00000000000E+00  0.00000000000E+00  0.18224553923E+03  0.15100531073E+04  0.14990153269E+04 0.  0.
        3    1    3    3  502    0 -0.93011323558E+02 -0.66157025076E+03  0.43338241806E+03  0.79633324273E+03  0.10100000352E+00 0.  1.
       -3    1    3    3    0  502  0.93011323558E+02  0.66157025076E+03 -0.25113687882E+03  0.71371986459E+03  0.10100000352E+00 0. -1.
</event>
<event>
 5   0  0.2544374E-04  0.1495354E+04  0.7818609E-02  0.8887548E-01
        1   -1    0    0  501    0  0.00000000000E+00  0.00000000000E+00  0.10579225848E+04  0.10579225849E+04  0.50400001928E-02 0. -1.
       -1   -1    0    0    0  501  0.00000000000E+00  0.00000000000E+00 -0.52841364172E+03  0.52841364174E+03  0.50400001928E-02 0.  1.
    10030    2    1    2    0    0  0.00000000000E+00  0.00000000000E+00  0.52950894313E+03  0.15863362266E+04  0.14953537718E+04 0.  0.
        4    1    3    3  502    0  0.36700988002E+03  0.42133871972E+03 -0.26225792217E+03  0.61725472814E+03  0.12699999809E+01 0.  1.
       -4    1    3    3    0  502 -0.36700988002E+03 -0.42133871972E+03  0.79176686530E+03  0.96908149846E+03  0.12699999809E+01 0. -1.
</event>
<event>
 5   0  0.4569211E-04  0.1477476E+04  0.7818609E-02  0.8899571E-01
       -2   -1    0    0    0  501  0.00000000000E+00  0.00000000000E+00  0.10593171394E+04  0.10593171394E+04  0.25500000920E-02 0.  1.
        2   -1    0    0  501    0  0.00000000000E+00  0.00000000000E+00 -0.51517526658E+03  0.51517526659E+03  0.25500000920E-02 0. -1.
    10030    2    1    2    0    0  0.00000000000E+00  0.00000000000E+00  0.54414187277E+03  0.15744924059E+04  0.14774762126E+04 0.  0.
        5    1    3    3  502    0 -0.31041462254E+03  0.48769817600E+03 -0.21802437424E+03  0.61787010490E+03  0.46999998093E+01 0. -1.
       -5    1    3    3    0  502  0.31041462254E+03 -0.48769817600E+03  0.76216624701E+03  0.95662230104E+03  0.46999998093E+01 0.  1.
</event>
<event>
 5   0  0.4768387E-04  0.1503309E+04  0.7818609E-02  0.8882255E-01
       -2   -1    0    0    0  501  0.00000000000E+00  0.00000000000E+00  0.25083819350E+03  0.25083819351E+03  0.25500000920E-02 0.  1.
        2   -1    0    0  501    0  0.00000000000E+00  0.00000000000E+00 -0.22523870612E+04  0.22523870612E+04  0.25500000920E-02 0. -1.
    10030    2    1    2    0    0  0.00000000000E+00  0.00000000000E+00 -0.20015488677E+04  0.25032252547E+04  0.15033092849E+04 0.  0.
        3    1    3    3  502    0 -0.10882909566E+03 -0.42566619118E+03  0.14757101044E+02  0.43960580138E+03  0.10100000352E+00 0.  1.
       -3    1    3    3    0  502  0.10882909566E+03  0.42566619118E+03 -0.20163059687E+04  0.20636194533E+04  0.10100000352E+00 0. -1.
</event>
<event>
 5   0  0.4785496E-04  0.1507718E+04  0.7818609E-02  0.8879337E-01
       -2   -1    0    0    0  501  0.00000000000E+00  0.00000000000E+00  0.52040551858E+03  0.52040551859E+03  0.25500000920E-02 0.  1.
        2   -1    0    0  501    0  0.00000000000E+00  0.00000000000E+00 -0.10920392549E+04  0.10920392549E+04  0.25500000920E-02 0. -1.
    10030    2    1    2    0    0  0.00000000000E+00  0.00000000000E+00 -0.57163373631E+03  0.16124447735E+04  0.15077178181E+04 0.  0.
        4    1    3    3  502    0  0.27626910866E+03  0.30107368398E+03  0.39169435117E+03  0.56603538867E+03  0.12699999809E+01 0.  1.
       -4    1    3    3    0  502 -0.27626910866E+03 -0.30107368398E+03 -0.96332808748E+03  0.10464093848E+04  0.12699999809E+01 0. -1.
</event>
<event>
 5   0  0.4726600E-04  0.1496617E+04  0.7818609E-02  0.8886706E-01
       -2   -1    0    0    0  501  0.00000000000E+00  0.00000000000E+00  0.62900341706E+03  0.62900341707E+03  0.25500000920E-02 0. -1.
        2   -1    0    0  501    0  0.00000000000E+00  0.00000000000E+00 -0.89024229361E+03  0.89024229361E+03  0.25500000920E-02 0.  1.
    10030    2    1    2    0    0  0.00000000000E+00  0.00000000000E+00 -0.26123887655E+03  0.15192457107E+04  0.14966167775E+04 0.  0.
        2    1    3    3  502    0  0.12759432658E+03  0.63174526951E+03  0.25537059946E+03  0.69325070559E+03  0.25500000920E-02 0.  1.
       -2    1    3    3    0  502 -0.12759432658E+03 -0.63174526951E+03 -0.51660947601E+03  0.82599500509E+03  0.25500000920E-02 0. -1.
</event>
<event>
 5   0  0.4726600E-04  0.1491920E+04  0.7818609E-02  0.8889844E-01
        2   -1    0    0  501    0  0.00000000000E+00  0.00000000000E+00  0.17808870113E+04  0.17808870113E+04  0.25500000920E-02 0.  1.
       -2   -1    0    0    0  501  0.00000000000E+00  0.00000000000E+00 -0.31246025932E+03  0.31246025933E+03  0.25500000920E-02 0. -1.
    10030    2    1    2    0    0  0.00000000000E+00  0.00000000000E+00  0.14684267520E+04  0.20933472706E+04  0.14919201284E+04 0.  0.
        2    1    3    3  502    0  0.52350182854E+03 -0.59995521517E+02 -0.66604723530E+01  0.52697057697E+03  0.25500000920E-02 0. -1.
       -2    1    3    3    0  502 -0.52350182854E+03  0.59995521517E+02  0.14750872243E+04  0.15663766937E+04  0.25500000920E-02 0.  1.
</event>
<event>
 5   0  0.4726600E-04  0.1508372E+04  0.7818609E-02  0.8878905E-01
        2   -1    0    0  501    0  0.00000000000E+00  0.00000000000E+00  0.79315399583E+03  0.79315399583E+03  0.25500000920E-02 0.  1.
       -2   -1    0    0    0  501  0.00000000000E+00  0.00000000000E+00 -0.71713242839E+03  0.71713242839E+03  0.25500000920E-02 0. -1.
    10030    2    1    2    0    0  0.00000000000E+00  0.00000000000E+00  0.76021567439E+02  0.15102864242E+04  0.15083719052E+04 0.  0.
        2    1    3    3  502    0  0.94994099091E+02  0.21863203033E+03  0.75444158081E+03  0.79120537309E+03  0.25500000920E-02 0.  1.
       -2    1    3    3    0  502 -0.94994099091E+02 -0.21863203033E+03 -0.67842001337E+03  0.71908105113E+03  0.25500000920E-02 0. -1.
</event>
<event>
 5   0  0.4768387E-04  0.1508318E+04  0.7818609E-02  0.8878940E-01
        2   -1    0    0  501    0  0.00000000000E+00  0.00000000000E+00  0.11008260571E+04  0.11008260571E+04  0.25500000920E-02 0. -1.
       -2   -1    0    0    0  501  0.00000000000E+00  0.00000000000E+00 -0.51666300043E+03  0.51666300043E+03  0.25500000920E-02 0.  1.
    10030    2    1    2    0    0  0.00000000000E+00  0.00000000000E+00  0.58416305671E+03  0.16174890576E+04  0.15083183930E+04 0.  0.
        3    1    3    3  502    0 -0.59725937699E+02  0.31273932288E+03 -0.44105487679E+03  0.54396919605E+03  0.10100000352E+00 0.  1.
       -3    1    3    3    0  502  0.59725937699E+02 -0.31273932288E+03  0.10252179335E+04  0.10735198615E+04  0.10100000352E+00 0. -1.
</event>
<event>
 5   0  0.4785496E-04  0.1502755E+04  0.7818609E-02  0.8882623E-01
       -2   -1    0    0    0  501  0.00000000000E+00  0.00000000000E+00  0.33363055499E+03  0.33363055500E+03  0.25500000920E-02 0. -1.
        2   -1    0    0  501    0  0.00000000000E+00  0.00000000000E+00 -0.16921948361E+04  0.16921948361E+04  0.25500000920E-02 0.  1.
    10030    2    1    2    0    0  0.00000000000E+00  0.00000000000E+00 -0.13585642811E+04  0.20258253911E+04  0.15027546737E+04 0.  0.
        4    1    3    3  502    0  0.15712588633E+03 -0.11331420507E+03  0.29938439343E+03  0.35659680474E+03  0.12699999809E+01 0. -1.
       -4    1    3    3    0  502 -0.15712588633E+03  0.11331420507E+03 -0.16579486745E+04  0.16692285863E+04  0.12699999809E+01 0.  1.
</event>
<event>
 5   0  0.4948645E-04  0.1506225E+04  0.7818609E-02  0.8880324E-01
       -2   -1    0    0    0  501  0.00000000000E+00  0.00000000000E+00  0.62669520875E+03  0.62669520875E+03  0.25500000920E-02 0. -1.
        2   -1    0    0  501    0  0.00000000000E+00  0.00000000000E+00 -0.90503062064E+03  0.90503062064E+03  0.25500000920E-02 0.  1.
    10030    2    1    2    0    0  0.00000000000E+00  0.00000000000E+00 -0.27833541189E+03  0.15317258294E+04  0.15062248886E+04 0.  0.
        1    1    3    3  502    0 -0.37039963711E+03 -0.59667485792E+03  0.13739543323E+03  0.71560763155E+03  0.50400001928E-02 0. -1.
       -1    1    3    3    0  502  0.37039963711E+03  0.59667485792E+03 -0.41573084512E+03  0.81611819784E+03  0.50400001928E-02 0.  1.
</event>
<event>
 5   0  0.2542737E-04  0.1489701E+04  0.7818609E-02  0.8891330E-01
       -1   -1    0    0    0  501  0.00000000000E+00  0.00000000000E+00  0.51383464485E+03  0.51383464488E+03  0.50400001928E-02 0. -1.
        1   -1    0    0  501    0  0.00000000000E+00  0.00000000000E+00 -0.10797298923E+04  0.10797298923E+04  0.50400001928E-02 0.  1.
    10030    2    1    2    0    0  0.00000000000E+00  0.00000000000E+00 -0.56589524747E+03  0.15935645372E+04  0.14897014812E+04 0.  0.
        1    1    3    3  502    0 -0.13118591485E+03  0.16865503402E+02  0.50117184441E+03  0.51833136806E+03  0.50400001928E-02 0. -1.
       -1    1    3    3    0  502  0.13118591485E+03 -0.16865503402E+02 -0.10670670919E+04  0.10752331692E+04  0.50400001928E-02 0.  1.
</event>
<event>
 5   0  0.2605471E-04  0.1493558E+04  0.7818609E-02  0.8888748E-01
       -1   -1    0    0    0  501  0.00000000000E+00  0.00000000000E+00  0.30952043763E+03  0.30952043767E+03  0.50400001928E-02 0. -1.
        1   -1    0    0  501    0  0.00000000000E+00  0.00000000000E+00 -0.18017514743E+04  0.18017514744E+04  0.50400001928E-02 0.  1.
    10030    2    1    2    0    0  0.00000000000E+00  0.00000000000E+00 -0.14922310367E+04  0.21112719120E+04  0.14935580402E+04 0.  0.
        3    1    3    3  502    0  0.28511348728E+03  0.42432562714E+03  0.23395732138E+02  0.51175121784E+03  0.10100000352E+00 0. -1.
       -3    1    3    3    0  502 -0.28511348728E+03 -0.42432562714E+03 -0.15156267689E+04  0.15995206942E+04  0.10100000352E+00 0.  1.
</event>
<event>
 5   0  0.2542737E-04  0.1499546E+04  0.7818609E-02  0.8884755E-01
        1   -1    0    0  501    0  0.00000000000E+00  0.00000000000E+00  0.12502639740E+04  0.12502639740E+04  0.50400001928E-02 0. -1.
       -1   -1    0    0    0  501  0.00000000000E+00  0.00000000000E+00 -0.44963291838E+03  0.44963291841E+03  0.50400001928E-02 0.  1.
    10030    2    1    2    0    0  0.00000000000E+00  0.00000000000E+00  0.80063105562E+03  0.16998968924E+04  0.14995463840E+04 0.  0.
        1    1    3    3  502    0  0.71728154583E+03 -0.47581814600E+02  0.64186434978E+03  0.96371504534E+03  0.50400001928E-02 0. -1.
       -1    1    3    3    0  502 -0.71728154583E+03  0.47581814600E+02  0.15876670583E+03  0.73618184708E+03  0.50400001928E-02 0.  1.
</event>
<event>
 5   0  0.4785496E-04  0.1494422E+04  0.7818609E-02  0.8888171E-01
       -2   -1    0    0    0  501  0.00000000000E+00  0.00000000000E+00  0.77603870545E+03  0.77603870545E+03  0.25500000920E-02 0.  1.
        2   -1    0    0  501    0  0.00000000000E+00  0.00000000000E+00 -0.71945387565E+03  0.71945387565E+03  0.25500000920E-02 0. -1.
    10030    2    1    2    0    0  0.00000000000E+00  0.00000000000E+00  0.56584829799E+02  0.14954925811E+04  0.14944216999E+04 0.  0.
        4    1    3    3  502    0 -0.25665047252E+02 -0.53180173657E+03 -0.49634527814E+03  0.72789561731E+03  0.12699999809E+01 0. -1.
       -4    1    3    3    0  502  0.25665047252E+02  0.53180173657E+03  0.55293010794E+03  0.76759696380E+03  0.12699999809E+01 0.  1.
</event>
<event>
 5   0  0.4726600E-04  0.1419711E+04  0.7818609E-02  0.8939673E-01
        2   -1    0    0  501    0  0.00000000000E+00  0.00000000000E+00  0.36639108140E+03  0.36639108141E+03  0.25500000920E-02 0. -1.
       -2   -1    0    0    0  501  0.00000000000E+00  0.00000000000E+00 -0.13752917033E+04  0.13752917033E+04  0.25500000920E-02 0.  1.
    10030    2    1    2    0    0  0.00000000000E+00  0.00000000000E+00 -0.10089006218E+04  0.17416827847E+04  0.14197106950E+04 0.  0.
        2    1    3    3  502    0 -0.25451818712E+03  0.56632988874E+03 -0.92655344699E+03  0.11153521151E+04  0.25500000920E-02 0.  1.
       -2    1    3    3    0  502  0.25451818712E+03 -0.56632988874E+03 -0.82347174855E+02  0.62633066959E+03  0.25500000920E-02 0. -1.
</event>
<event>
 5   0  0.4726600E-04  0.1504213E+04  0.7818609E-02  0.8881656E-01
       -2   -1    0    0    0  501  0.00000000000E+00  0.00000000000E+00  0.37215480592E+03  0.37215480593E+03  0.25500000920E-02 0. -1.
        2   -1    0    0  501    0  0.00000000000E+00  0.00000000000E+00 -0.15199710006E+04  0.15199710006E+04  0.25500000920E-02 0.  1.
    10030    2    1    2    0    0  0.00000000000E+00  0.00000000000E+00 -0.11478161947E+04  0.18921258066E+04  0.15042134327E+04 0.  0.
        2    1    3    3  502    0 -0.44587440105E+03 -0.57190174126E+03 -0.32299595748E+03  0.79385261335E+03  0.25500000920E-02 0. -1.
       -2    1    3    3    0  502  0.44587440105E+03  0.57190174126E+03 -0.82482023725E+03  0.10982731932E+04  0.25500000920E-02 0.  1.
</event>
<event>
 5   0  0.4948645E-04  0.1499734E+04  0.7818609E-02  0.8884630E-01
       -2   -1    0    0    0  501  0.00000000000E+00  0.00000000000E+00  0.27079233240E+03  0.27079233241E+03  0.25500000920E-02 0. -1.
        2   -1    0    0  501    0  0.00000000000E+00  0.00000000000E+00 -0.20765017941E+04  0.20765017941E+04  0.25500000920E-02 0.  1.
    10030    2    1    2    0    0  0.00000000000E+00  0.00000000000E+00 -0.18057094617E+04  0.23472941265E+04  0.14997343286E+04 0.  0.
        1    1    3    3  502    0  0.53253592482E+03  0.28181774291E+03 -0.16015543376E+04  0.17111376472E+04  0.50400001928E-02 0.  1.
       -1    1    3    3    0  502 -0.53253592482E+03 -0.28181774291E+03 -0.20415512413E+03  0.63615647932E+03  0.50400001928E-02 0. -1.
</event>
<event>
 5   0  0.4569211E-04  0.1500763E+04  0.7818609E-02  0.8883946E-01
       -2   -1    0    0    0  501  0.00000000000E+00  0.00000000000E+00  0.91108956931E+03  0.91108956931E+03  0.25500000920E-02 0. -1.
        2   -1    0    0  501    0  0.00000000000E+00  0.00000000000E+00 -0.61802091469E+03  0.61802091470E+03  0.25500000920E-02 0.  1.
    10030    2    1    2    0    0  0.00000000000E+00  0.00000000000E+00  0.29306865462E+03  0.15291104840E+04  0.15007630179E+04 0.  0.
        5    1    3    3  502    0  0.26595684720E+03  0.68060607687E+03  0.32032174589E+03  0.79786326355E+03  0.46999998093E+01 0. -1.
       -5    1    3    3    0  502 -0.26595684720E+03 -0.68060607687E+03 -0.27253091266E+02  0.73124722046E+03  0.46999998093E+01 0.  1.
</event>
<event>
 5   0  0.2603873E-04  0.1500487E+04  0.7818609E-02  0.8884129E-01
       -1   -1    0    0    0  501  0.00000000000E+00  0.00000000000E+00  0.59190075370E+03  0.59190075372E+03  0.50400001928E-02 0. -1.
        1   -1    0    0  501    0  0.00000000000E+00  0.00000000000E+00 -0.95094594434E+03  0.95094594436E+03  0.50400001928E-02 0.  1.
    10030    2    1    2    0    0  0.00000000000E+00  0.00000000000E+00 -0.35904519064E+03  0.15428466981E+04  0.15004874158E+04 0.  0.
        2    1    3    3  502    0  0.25386031660E+03 -0.51100390145E+03  0.32135918739E+03  0.65486011863E+03  0.25500000920E-02 0. -1.
       -2    1    3    3    0  502 -0.25386031660E+03  0.51100390145E+03 -0.68040437803E+03  0.88798657945E+03  0.25500000920E-02 0.  1.
</event>
<event>
 5   0  0.2605471E-04  0.1518228E+04  0.7818609E-02  0.8872421E-01
        1   -1    0    0  501    0  0.00000000000E+00  0.00000000000E+00  0.12676530649E+04  0.12676530649E+04  0.50400001928E-02 0. -1.
       -1   -1    0    0    0  501  0.00000000000E+00  0.00000000000E+00 -0.45458319586E+03  0.45458319589E+03  0.50400001928E-02 0.  1.
    10030    2    1    2    0    0  0.00000000000E+00  0.00000000000E+00  0.81306986904E+03  0.17222362608E+04  0.15182276266E+04 0.  0.
        3    1    3    3  502    0  0.39992587752E+02  0.40456015287E+03  0.11337603708E+04  0.12044421584E+04  0.10100000352E+00 0. -1.
       -3    1    3    3    0  502 -0.39992587752E+02 -0.40456015287E+03 -0.32069050176E+03  0.51779410240E+03  0.10100000352E+00 0.  1.
</event>
<event>
 5   0  0.2542737E-04  0.1485551E+04  0.7818609E-02  0.8894118E-01
       -1   -1    0    0    0  501  0.00000000000E+00  0.00000000000E+00  0.72240603504E+03  0.72240603506E+03  0.50400001928E-02 0. -1.
        1   -1    0    0  501    0  0.00000000000E+00  0.00000000000E+00 -0.76371972749E+03  0.76371972751E+03  0.50400001928E-02 0.  1.
    10030    2    1    2    0    0  0.00000000000E+00  0.00000000000E+00 -0.41313692450E+02  0.14861257626E+04  0.14855513996E+04 0.  0.
        1    1    3    3  502    0 -0.94925080389E+02 -0.60950996122E+03  0.39326946022E+03  0.73155589813E+03  0.50400001928E-02 0. -1.
       -1    1    3    3    0  502  0.94925080389E+02  0.60950996122E+03 -0.43458315267E+03  0.75456986444E+03  0.50400001928E-02 0.  1.
</event>
<event>
 5   0  0.2603873E-04  0.1495289E+04  0.7818609E-02  0.8887591E-01
        1   -1    0    0  501    0  0.00000000000E+00  0.00000000000E+00  0.82245068981E+03  0.82245068982E+03  0.50400001928E-02 0.  1.
       -1   -1    0    0    0  501  0.00000000000E+00  0.00000000000E+00 -0.67964277564E+03  0.67964277566E+03  0.50400001928E-02 0. -1.
    10030    2    1    2    0    0  0.00000000000E+00  0.00000000000E+00  0.14280791417E+03  0.15020934655E+04  0.14952894966E+04 0.  0.
        2    1    3    3  502    0 -0.19590908805E+03  0.33168218955E+03 -0.57227625587E+03  0.68985038863E+03  0.25500000920E-02 0. -1.
       -2    1    3    3    0  502  0.19590908805E+03 -0.33168218955E+03  0.71508417004E+03  0.81224307685E+03  0.25500000920E-02 0.  1.
</event>
<event>
 5   0  0.4768387E-04  0.1504255E+04  0.7818609E-02  0.8881628E-01
        2   -1    0    0  501    0  0.00000000000E+00  0.00000000000E+00  0.62862992123E+03  0.62862992123E+03  0.25500000920E-02 0.  1.
       -2   -1    0    0    0  501  0.00000000000E+00  0.00000000000E+00 -0.89988716812E+03  0.89988716813E+03  0.25500000920E-02 0. -1.
    10030    2    1    2    0    0  0.00000000000E+00  0.00000000000E+00 -0.27125724689E+03  0.15285170894E+04  0.15042552970E+04 0.  0.
        3    1    3    3  502    0 -0.63883198393E+03 -0.33074472264E+03 -0.35870907740E+03  0.80384736590E+03  0.10100000352E+00 0. -1.
       -3    1    3    3    0  502  0.63883198393E+03  0.33074472264E+03  0.87451830508E+02  0.72466972347E+03  0.10100000352E+00 0.  1.
</event>
<event>
 5   0  0.2603873E-04  0.1467406E+04  0.7818609E-02  0.8906422E-01
        1   -1    0    0  501    0  0.00000000000E+00  0.00000000000E+00  0.68391338272E+03  0.68391338274E+03  0.50400001928E-02 0.  1.
       -1   -1    0    0    0  501  0.00000000000E+00  0.00000000000E+00 -0.78711730654E+03  0.78711730656E+03  0.50400001928E-02 0. -1.
    10030    2    1    2    0    0  0.00000000000E+00  0.00000000000E+00 -0.10320392382E+03  0.14710306893E+04  0.14674059557E+04 0.  0.
        2    1    3    3  502    0 -0.44305536081E+03 -0.33609114342E+03  0.42818737004E+03  0.70185449581E+03  0.25500000920E-02 0.  1.
       -2    1    3    3    0  502  0.44305536081E+03  0.33609114342E+03 -0.53139129386E+03  0.76917619348E+03  0.25500000920E-02 0. -1.
</event>
<event>
 5   0  0.4569211E-04  0.1490575E+04  0.7818609E-02  0.8890745E-01
        2   -1    0    0  501    0  0.00000000000E+00  0.00000000000E+00  0.13675540353E+04  0.13675540353E+04  0.25500000920E-02 0. -1.
       -2   -1    0    0    0  501  0.00000000000E+00  0.00000000000E+00 -0.40616550149E+03  0.40616550150E+03  0.25500000920E-02 0.  1.
    10030    2    1    2    0    0  0.00000000000E+00  0.00000000000E+00  0.96138853377E+03  0.17737195368E+04  0.14905747490E+04 0.  0.
        5    1    3    3  502    0  0.46568714122E+02 -0.52917837471E+03 -0.14131605665E+03  0.54971876015E+03  0.46999998093E+01 0.  1.
       -5    1    3    3    0  502 -0.46568714122E+02  0.52917837471E+03  0.11027045904E+04  0.12240007766E+04  0.46999998093E+01 0. -1.
</event>
<event>
 5   0  0.4785496E-04  0.1490934E+04  0.7818609E-02  0.8890504E-01
       -2   -1    0    0    0  501  0.00000000000E+00  0.00000000000E+00  0.78434525385E+03  0.78434525385E+03  0.25500000920E-02 0. -1.
        2   -1    0    0  501    0  0.00000000000E+00  0.00000000000E+00 -0.70851576824E+03  0.70851576825E+03  0.25500000920E-02 0.  1.
    10030    2    1    2    0    0  0.00000000000E+00  0.00000000000E+00  0.75829485601E+02  0.14928610221E+04  0.14909339088E+04 0.  0.
        4    1    3    3  502    0 -0.26971695945E+03  0.63929046724E+03 -0.23498079221E+03  0.73256885364E+03  0.12699999809E+01 0. -1.
       -4    1    3    3    0  502  0.26971695945E+03 -0.63929046724E+03  0.31081027781E+03  0.76029216846E+03  0.12699999809E+01 0.  1.
</event>
<event>
 5   0  0.2565416E-04  0.1512452E+04  0.7818609E-02  0.8876214E-01
        1   -1    0    0  501    0  0.00000000000E+00  0.00000000000E+00  0.75447651961E+03  0.75447651962E+03  0.50400001928E-02 0.  1.
       -1   -1    0    0    0  501  0.00000000000E+00  0.00000000000E+00 -0.75797952172E+03  0.75797952174E+03  0.50400001928E-02 0. -1.
    10030    2    1    2    0    0  0.00000000000E+00  0.00000000000E+00 -0.35030021130E+01  0.15124560414E+04  0.15124519847E+04 0.  0.
        5    1    3    3  502    0  0.18477007954E+03 -0.31145144164E+03  0.66211297522E+03  0.75469044299E+03  0.46999998093E+01 0.  1.
       -5    1    3    3    0  502 -0.18477007954E+03  0.31145144164E+03 -0.66561597733E+03  0.75776559837E+03  0.46999998093E+01 0. -1.
</event>
<event>
 5   0  0.2605471E-04  0.1504055E+04  0.7818609E-02  0.8881761E-01
       -1   -1    0    0    0  501  0.00000000000E+00  0.00000000000E+00  0.58422658545E+03  0.58422658547E+03  0.50400001928E-02 0. -1.
        1   -1    0    0  501    0  0.00000000000E+00  0.00000000000E+00 -0.96802457628E+03  0.96802457630E+03  0.50400001928E-02 0.  1.
    10030    2    1    2    0    0  0.00000000000E+00  0.00000000000E+00 -0.38379799083E+03  0.15522511618E+04  0.15040554416E+04 0.  0.
        3    1    3    3  502    0 -0.44005539064E+03  0.36968066916E+03 -0.69244891964E+03  0.89988780439E+03  0.10100000352E+00 0.  1.
       -3    1    3    3    0  502  0.44005539064E+03 -0.36968066916E+03  0.30865092881E+03  0.65236335737E+03  0.10100000352E+00 0. -1.
</event>
<event>
 5   0  0.2544374E-04  0.1541842E+04  0.7818609E-02  0.8857095E-01
       -1   -1    0    0    0  501  0.00000000000E+00  0.00000000000E+00  0.60885297334E+03  0.60885297336E+03  0.50400001928E-02 0.  1.
        1   -1    0    0  501    0  0.00000000000E+00  0.00000000000E+00 -0.97612966802E+03  0.97612966804E+03  0.50400001928E-02 0. -1.
    10030    2    1    2    0    0  0.00000000000E+00  0.00000000000E+00 -0.36727669468E+03  0.15849826414E+04  0.15418423405E+04 0.  0.
        4    1    3    3  502    0 -0.29329577665E+03  0.67809486776E+03  0.42710496199E+02  0.74004112160E+03  0.12699999809E+01 0.  1.
       -4    1    3    3    0  502  0.29329577665E+03 -0.67809486776E+03 -0.40998719088E+03  0.84494151979E+03  0.12699999809E+01 0. -1.
</event>
<event>
 5   0  0.2565416E-04  0.1509935E+04  0.7818609E-02  0.8877873E-01
        1   -1    0    0  501    0  0.00000000000E+00  0.00000000000E+00  0.57814851212E+03  0.57814851214E+03  0.50400001928E-02 0. -1.
       -1   -1    0    0    0  501  0.00000000000E+00  0.00000000000E+00 -0.98586454811E+03  0.98586454812E+03  0.50400001928E-02 0.  1.
    10030    2    1    2    0    0  0.00000000000E+00  0.00000000000E+00 -0.40771603599E+03  0.15640130603E+04  0.15099352591E+04 0.  0.
        5    1    3    3  502    0  0.16366565046E+03 -0.43612627290E+03 -0.81924129855E+03  0.94242822873E+03  0.46999998093E+01 0.  1.
       -5    1    3    3    0  502 -0.16366565046E+03  0.43612627290E+03  0.41152526256E+03  0.62158483153E+03  0.46999998093E+01 0. -1.
</event>
<event>
 5   0  0.4726600E-04  0.1508310E+04  0.7818609E-02  0.8878946E-01
        2   -1    0    0  501    0  0.00000000000E+00  0.00000000000E+00  0.69826463522E+03  0.69826463522E+03  0.25500000920E-02 0. -1.
       -2   -1    0    0    0  501  0.00000000000E+00  0.00000000000E+00 -0.81451893370E+03  0.81451893370E+03  0.25500000920E-02 0.  1.
    10030    2    1    2    0    0  0.00000000000E+00  0.00000000000E+00 -0.11625429848E+03  0.15127835689E+04  0.15083100028E+04 0.  0.
        2    1    3    3  502    0 -0.73625242509E+03 -0.15469860313E+03 -0.11072766805E+03  0.76043402589E+03  0.25500000920E-02 0.  1.
       -2    1    3    3    0  502  0.73625242509E+03  0.15469860313E+03 -0.55266304318E+01  0.75234954304E+03  0.25500000920E-02 0. -1.
</event>
<event>
 5   0  0.2603873E-04  0.1497011E+04  0.7818609E-02  0.8886443E-01
        1   -1    0    0  501    0  0.00000000000E+00  0.00000000000E+00  0.87243067013E+03  0.87243067014E+03  0.50400001928E-02 0. -1.
       -1   -1    0    0    0  501  0.00000000000E+00  0.00000000000E+00 -0.64218378499E+03  0.64218378501E+03  0.50400001928E-02 0.  1.
    10030    2    1    2    0    0  0.00000000000E+00  0.00000000000E+00  0.23024688514E+03  0.15146144552E+04  0.14970114628E+04 0.  0.
        2    1    3    3  502    0 -0.20209623517E+03 -0.63567296726E+03  0.45873110613E+03  0.80954137468E+03  0.25500000920E-02 0. -1.
       -2    1    3    3    0  502  0.20209623517E+03  0.63567296726E+03 -0.22848422100E+03  0.70507308048E+03  0.25500000920E-02 0.  1.
</event>
<event>
 5   0  0.4569211E-04  0.1507820E+04  0.7818609E-02  0.8879269E-01
       -2   -1    0    0    0  501  0.00000000000E+00  0.00000000000E+00  0.42653194741E+03  0.42653194742E+03  0.25500000920E-02 0. -1.
        2   -1    0    0  501    0  0.00000000000E+00  0.00000000000E+00 -0.13325627176E+04  0.13325627176E+04  0.25500000920E-02 0.  1.
    10030    2    1    2    0    0  0.00000000000E+00  0.00000000000E+00 -0.90603077014E+03  0.17590946650E+04  0.15078203752E+04 0.  0.
        5    1    3    3  502    0  0.38708954461E+03 -0.14503390380E+03 -0.11885449895E+04  0.12583856447E+04  0.46999998093E+01 0.  1.
       -5    1    3    3    0  502 -0.38708954461E+03  0.14503390380E+03  0.28251421937E+03  0.50070902023E+03  0.46999998093E+01 0. -1.
</event>
<event>
 5   0  0.2542737E-04  0.1503946E+04  0.7818609E-02  0.8881833E-01
        1   -1    0    0  501    0  0.00000000000E+00  0.00000000000E+00  0.72505029381E+03  0.72505029383E+03  0.50400001928E-02 0.  1.
       -1   -1    0    0    0  501  0.00000000000E+00  0.00000000000E+00 -0.77989514129E+03  0.77989514130E+03  0.50400001928E-02 0. -1.
    10030    2    1    2    0    0  0.00000000000E+00  0.00000000000E+00 -0.54844847474E+02  0.15049454351E+04  0.15039457455E+04 0.  0.
        1    1    3    3  502    0  0.59352298970E+03 -0.57977769344E+02  0.43095655560E+03  0.73576797557E+03  0.50400001928E-02 0. -1.
       -1    1    3    3    0  502 -0.59352298970E+03  0.57977769344E+02 -0.48580140307E+03  0.76917745956E+03  0.50400001928E-02 0.  1.
</event>
<event>
 5   0  0.4768387E-04  0.1472434E+04  0.7818609E-02  0.8902994E-01
        2   -1    0    0  501    0  0.00000000000E+00  0.00000000000E+00  0.22817134701E+04  0.22817134701E+04  0.25500000920E-02 0.  1.
       -2   -1    0    0    0  501  0.00000000000E+00  0.00000000000E+00 -0.23754764907E+03  0.23754764908E+03  0.25500000920E-02 0. -1.
    10030    2    1    2    0    0  0.00000000000E+00  0.00000000000E+00  0.20441658211E+04  0.25192611192E+04  0.14724342711E+04 0.  0.
        3    1    3    3  502    0 -0.23778812502E+03 -0.10817631926E+02 -0.16989229278E+03  0.29244420820E+03  0.10100000352E+00 0. -1.
       -3    1    3    3    0  502  0.23778812502E+03  0.10817631926E+02  0.22140581138E+04  0.22268169110E+04  0.10100000352E+00 0.  1.
</event>
<event>
 5   0  0.4569211E-04  0.1512824E+04  0.7818609E-02  0.8875970E-01
        2   -1    0    0  501    0  0.00000000000E+00  0.00000000000E+00  0.52714386351E+03  0.52714386352E+03  0.25500000920E-02 0. -1.
       -2   -1    0    0    0  501  0.00000000000E+00  0.00000000000E+00 -0.10853941160E+04  0.10853941160E+04  0.25500000920E-02 0.  1.
    10030    2    1    2    0    0  0.00000000000E+00  0.00000000000E+00 -0.55825025252E+03  0.16125379796E+04  0.15128236484E+04 0.  0.
        5    1    3    3  502    0 -0.48023547712E+03  0.58256867393E+03 -0.32825415780E+03  0.82327714376E+03  0.46999998093E+01 0. -1.
       -5    1    3    3    0  502  0.48023547712E+03 -0.58256867393E+03 -0.22999609472E+03  0.78926083579E+03  0.46999998093E+01 0.  1.
</event>
<event>
 5   0  0.4569211E-04  0.1496183E+04  0.7818609E-02  0.8886995E-01
       -2   -1    0    0    0  501  0.00000000000E+00  0.00000000000E+00  0.26471543069E+03  0.26471543070E+03  0.25500000920E-02 0. -1.
        2   -1    0    0  501    0  0.00000000000E+00  0.00000000000E+00 -0.21141218900E+04  0.21141218900E+04  0.25500000920E-02 0.  1.
    10030    2    1    2    0    0  0.00000000000E+00  0.00000000000E+00 -0.18494064593E+04  0.23788373207E+04  0.14961827250E+04 0.  0.
        5    1    3    3  502    0 -0.36184069364E+03  0.56130487105E+03 -0.38875801028E+03  0.77275269420E+03  0.46999998093E+01 0. -1.
       -5    1    3    3    0  502  0.36184069364E+03 -0.56130487105E+03 -0.14606484490E+04  0.16060846265E+04  0.46999998093E+01 0.  1.
</event>
<event>
 5   0  0.4768387E-04  0.1501380E+04  0.7818609E-02  0.8883536E-01
       -2   -1    0    0    0  501  0.00000000000E+00  0.00000000000E+00  0.56733038387E+03  0.56733038387E+03  0.25500000920E-02 0. -1.
        2   -1    0    0  501    0  0.00000000000E+00  0.00000000000E+00 -0.99331076516E+03  0.99331076517E+03  0.25500000920E-02 0.  1.
    10030    2    1    2    0    0  0.00000000000E+00  0.00000000000E+00 -0.42598038130E+03  0.15606411490E+04  0.15013798689E+04 0.  0.
        3    1    3    3  502    0 -0.23042736166E+03 -0.47588640808E+03  0.34093262081E+03  0.62912614358E+03  0.10100000352E+00 0. -1.
       -3    1    3    3    0  502  0.23042736166E+03  0.47588640808E+03 -0.76691300211E+03  0.93151500546E+03  0.10100000352E+00 0.  1.
</event>
<event>
 5   0  0.2542737E-04  0.1508716E+04  0.7818609E-02  0.8878677E-01
       -1   -1    0    0    0  501  0.00000000000E+00  0.00000000000E+00  0.14001829959E+04  0.14001829959E+04  0.50400001928E-02 0. -1.
        1   -1    0    0  501    0  0.00000000000E+00  0.00000000000E+00 -0.40641550950E+03  0.40641550954E+03  0.50400001928E-02 0.  1.
    10030    2    1    2    0    0  0.00000000000E+00  0.00000000000E+00  0.99376748637E+03  0.18065985054E+04  0.15087161240E+04 0.  0.
        1    1    3    3  502    0  0.27657396038E+03  0.56004683099E+03 -0.96075708308E+01  0.62469025437E+03  0.50400001928E-02 0.  1.
       -1    1    3    3    0  502 -0.27657396038E+03 -0.56004683099E+03  0.10033750572E+04  0.11819082510E+04  0.50400001928E-02 0. -1.
</event>
<event>
 5   0  0.2603873E-04  0.1497430E+04  0.7818609E-02  0.8886164E-01
       -1   -1    0    0    0  501  0.00000000000E+00  0.00000000000E+00  0.36509746263E+03  0.36509746267E+03  0.50400001928E-02 0.  1.
        1   -1    0    0  501    0  0.00000000000E+00  0.00000000000E+00 -0.15354089059E+04  0.15354089059E+04  0.50400001928E-02 0. -1.
    10030    2    1    2    0    0  0.00000000000E+00  0.00000000000E+00 -0.11703114433E+04  0.19005063686E+04  0.14974296587E+04 0.  0.
        2    1    3    3  502    0  0.37391064735E+03 -0.22314319682E+03 -0.13581804183E+04  0.14262735036E+04  0.25500000920E-02 0. -1.
       -2    1    3    3    0  502 -0.37391064735E+03  0.22314319682E+03  0.18786897498E+03  0.47423286500E+03  0.25500000920E-02 0.  1.
</event>
<event>
 5   0  0.2565416E-04  0.1501066E+04  0.7818609E-02  0.8883745E-01
       -1   -1    0    0    0  501  0.00000000000E+00  0.00000000000E+00  0.90764249653E+03  0.90764249655E+03  0.50400001928E-02 0. -1.
        1   -1    0    0  501    0  0.00000000000E+00  0.00000000000E+00 -0.62061835736E+03  0.62061835738E+03  0.50400001928E-02 0.  1.
    10030    2    1    2    0    0  0.00000000000E+00  0.00000000000E+00  0.28702413917E+03  0.15282608539E+04  0.15010657485E+04 0.  0.
        5    1    3    3  502    0  0.68814274132E+03  0.11192302230E+03 -0.13938954205E+03  0.71099840350E+03  0.46999998093E+01 0.  1.
       -5    1    3    3    0  502 -0.68814274132E+03 -0.11192302230E+03  0.42641368122E+03  0.81726245043E+03  0.46999998093E+01 0. -1.
</event>
<event>
 5   0  0.4726600E-04  0.1500267E+04  0.7818609E-02  0.8884275E-01
        2   -1    0    0  501    0  0.00000000000E+00  0.00000000000E+00  0.15152354896E+04  0.15152354896E+04  0.25500000920E-02 0. -1.
       -2   -1    0    0    0  501  0.00000000000E+00  0.00000000000E+00 -0.37136170781E+03  0.37136170782E+03  0.25500000920E-02 0.  1.
    10030    2    1    2    0    0  0.00000000000E+00  0.00000000000E+00  0.11438737818E+04  0.18865971974E+04  0.15002672284E+04 0.  0.
        2    1    3    3  502    0 -0.13316633816E+03 -0.73162222291E+03  0.69576203651E+03  0.10183757470E+04  0.25500000920E-02 0.  1.
       -2    1    3    3    0  502  0.13316633816E+03  0.73162222291E+03  0.44811174529E+03  0.86822145041E+03  0.25500000920E-02 0. -1.
</event>
<event>
 5   0  0.2605471E-04  0.1396920E+04  0.7818609E-02  0.8956051E-01
        1   -1    0    0  501    0  0.00000000000E+00  0.00000000000E+00  0.12264552062E+04  0.12264552062E+04  0.50400001928E-02 0. -1.
       -1   -1    0    0    0  501  0.00000000000E+00  0.00000000000E+00 -0.39776922165E+03  0.39776922168E+03  0.50400001928E-02 0.  1.
    10030    2    1    2    0    0  0.00000000000E+00  0.00000000000E+00  0.82868598450E+03  0.16242244278E+04  0.13969196581E+04 0.  0.
        3    1    3    3  502    0  0.45127818181E+03  0.92403295239E+00 -0.20549972730E+03  0.49586590862E+03  0.10100000352E+00 0.  1.
       -3    1    3    3    0  502 -0.45127818181E+03 -0.92403295239E+00  0.10341857118E+04  0.11283585192E+04  0.10100000352E+00 0. -1.
</event>
<event>
 5   0  0.2544374E-04  0.1492559E+04  0.7818609E-02  0.8889416E-01
       -1   -1    0    0    0  501  0.00000000000E+00  0.00000000000E+00  0.10972789564E+04  0.10972789564E+04  0.50400001928E-02 0.  1.
        1   -1    0    0  501    0  0.00000000000E+00  0.00000000000E+00 -0.50755859936E+03  0.50755859938E+03  0.50400001928E-02 0. -1.
    10030    2    1    2    0    0  0.00000000000E+00  0.00000000000E+00  0.58972035704E+03  0.16048375558E+04  0.14925593727E+04 0.  0.
        4    1    3    3  502    0 -0.44442118440E+03  0.27423529132E+03  0.86808391067E+03  0.10130579811E+04  0.12699999809E+01 0. -1.
       -4    1    3    3    0  502  0.44442118440E+03 -0.27423529132E+03 -0.27836355364E+03  0.59177957471E+03  0.12699999809E+01 0.  1.
</event>
<event>
 5   0  0.4785496E-04  0.1408625E+04  0.7818609E-02  0.8947599E-01
       -2   -1    0    0    0  501  0.00000000000E+00  0.00000000000E+00  0.76142710676E+03  0.76142710676E+03  0.25500000920E-02 0. -1.
        2   -1    0    0  501    0  0.00000000000E+00  0.00000000000E+00 -0.65148216580E+03  0.65148216580E+03  0.25500000920E-02 0.  1.
    10030    2    1    2    0    0  0.00000000000E+00  0.00000000000E+00  0.10994494096E+03  0.14129092726E+04  0.14086251178E+04 0.  0.
        4    1    3    3  502    0 -0.11310546969E+03  0.42258188303E+03  0.60863520200E+03  0.74953766894E+03  0.12699999809E+01 0. -1.
       -4    1    3    3    0  502  0.11310546969E+03 -0.42258188303E+03 -0.49869026104E+03  0.66337160363E+03  0.12699999809E+01 0.  1.
</event>
<event>
 5   0  0.2544374E-04  0.1499918E+04  0.7818609E-02  0.8884507E-01
       -1   -1    0    0    0  501  0.00000000000E+00  0.00000000000E+00  0.71278783860E+03  0.71278783862E+03  0.50400001928E-02 0. -1.
        1   -1    0    0  501    0  0.00000000000E+00  0.00000000000E+00 -0.78906904095E+03  0.78906904097E+03  0.50400001928E-02 0.  1.
    10030    2    1    2    0    0  0.00000000000E+00  0.00000000000E+00 -0.76281202347E+02  0.15018568796E+04  0.14999184194E+04 0.  0.
        4    1    3    3  502    0  0.55781586898E+03 -0.70709925177E+02  0.45876557461E+03  0.72568994932E+03  0.12699999809E+01 0. -1.
       -4    1    3    3    0  502 -0.55781586898E+03  0.70709925177E+02 -0.53504677696E+03  0.77616693026E+03  0.12699999809E+01 0.  1.
</event>
<event>
 5   0  0.2544374E-04  0.1497681E+04  0.7818609E-02  0.8885997E-01
       -1   -1    0    0    0  501  0.00000000000E+00  0.00000000000E+00  0.12713009145E+04  0.12713009145E+04  0.50400001928E-02 0.  1.
        1   -1    0    0  501    0  0.00000000000E+00  0.00000000000E+00 -0.44109301349E+03  0.44109301352E+03  0.50400001928E-02 0. -1.
    10030    2    1    2    0    0  0.00000000000E+00  0.00000000000E+00  0.83020790101E+03  0.17123939280E+04  0.14976808091E+04 0.  0.
        4    1    3    3  502    0 -0.40166272190E+02 -0.25950850381E+03 -0.38672126965E+03  0.46745368356E+03  0.12699999809E+01 0. -1.
       -4    1    3    3    0  502  0.40166272190E+02  0.25950850381E+03  0.12169291707E+04  0.12449402445E+04  0.12699999809E+01 0.  1.
</event>
<event>
 5   0  0.2542737E-04  0.1479352E+04  0.7818609E-02  0.8898301E-01
        1   -1    0    0  501    0  0.00000000000E+00  0.00000000000E+00  0.14967666906E+04  0.14967666906E+04  0.50400001928E-02 0.  1.
       -1   -1    0    0    0  501  0.00000000000E+00  0.00000000000E+00 -0.36553498949E+03  0.36553498953E+03  0.50400001928E-02 0. -1.
    10030    2    1    2    0    0  0.00000000000E+00  0.00000000000E+00  0.11312317011E+04  0.18623016801E+04  0.14793520156E+04 0.  0.
        1    1    3    3  502    0  0.19876325599E+03 -0.30202097406E+03  0.13779455902E+04  0.14245903096E+04  0.50400001928E-02 0.  1.
       -1    1    3    3    0  502 -0.19876325599E+03  0.30202097406E+03 -0.24671388915E+03  0.43771137046E+03  0.50400001928E-02 0. -1.
</event>
<event>
 5   0  0.4948645E-04  0.1609555E+04  0.7818609E-02  0.8814700E-01
        2   -1    0    0  501    0  0.00000000000E+00  0.00000000000E+00  0.58573990237E+03  0.58573990238E+03  0.25500000920E-02 0.  1.
       -2   -1    0    0    0  501  0.00000000000E+00  0.00000000000E+00 -0.11057236234E+04  0.11057236234E+04  0.25500000920E-02 0. -1.
    10030    2    1    2    0    0  0.00000000000E+00  0.00000000000E+00 -0.51998372101E+03  0.16914635258E+04  0.16095545312E+04 0.  0.
        1    1    3    3  502    0 -0.39337039052E+03  0.55032610504E+03  0.19816132947E+03  0.70488793333E+03  0.50400001928E-02 0.  1.
       -1    1    3    3    0  502  0.39337039052E+03 -0.55032610504E+03 -0.71814505048E+03  0.98657559243E+03  0.50400001928E-02 0. -1.
</event>
<event>
 5   0  0.2605471E-04  0.1498203E+04  0.7818609E-02  0.8885649E-01
       -1   -1    0    0    0  501  0.00000000000E+00  0.00000000000E+00  0.30735456957E+03  0.30735456961E+03  0.50400001928E-02 0.  1.
        1   -1    0    0  501    0  0.00000000000E+00  0.00000000000E+00 -0.18257522765E+04  0.18257522765E+04  0.50400001928E-02 0. -1.
    10030    2    1    2    0    0  0.00000000000E+00  0.00000000000E+00 -0.15183977069E+04  0.21331068461E+04  0.14982033308E+04 0.  0.
        3    1    3    3  502    0  0.47735220901E+03  0.33228322714E+03 -0.87037523356E+02  0.58809252262E+03  0.10100000352E+00 0.  1.
       -3    1    3    3    0  502 -0.47735220901E+03 -0.33228322714E+03 -0.14313601836E+04  0.15450143235E+04  0.10100000352E+00 0. -1.
</event>
<event>
 5   0  0.4726600E-04  0.1518463E+04  0.7818609E-02  0.8872267E-01
        2   -1    0    0  501    0  0.00000000000E+00  0.00000000000E+00  0.17141161152E+04  0.17141161152E+04  0.25500000920E-02 0. -1.
       -2   -1    0    0    0  501  0.00000000000E+00  0.00000000000E+00 -0.33628539877E+03  0.33628539878E+03  0.25500000920E-02 0.  1.
    10030    2    1    2    0    0  0.00000000000E+00  0.00000000000E+00  0.13778307164E+04  0.20504015140E+04  0.15184626717E+04 0.  0.
        2    1    3    3  502    0 -0.44072842926E+03  0.42795943654E+03  0.86485490273E+02  0.62037937402E+03  0.25500000920E-02 0.  1.
       -2    1    3    3    0  502  0.44072842926E+03 -0.42795943654E+03  0.12913452262E+04  0.14300221400E+04  0.25500000920E-02 0. -1.
</event>
<event>
 5   0  0.4768387E-04  0.1497657E+04  0.7818609E-02  0.8886012E-01
        2   -1    0    0  501    0  0.00000000000E+00  0.00000000000E+00  0.95802321877E+03  0.95802321878E+03  0.25500000920E-02 0. -1.
       -2   -1    0    0    0  501  0.00000000000E+00  0.00000000000E+00 -0.58531369994E+03  0.58531369995E+03  0.25500000920E-02 0.  1.
    10030    2    1    2    0    0  0.00000000000E+00  0.00000000000E+00  0.37270951883E+03  0.15433369187E+04  0.14976569899E+04 0.  0.
        3    1    3    3  502    0 -0.74030485810E+03 -0.95315106818E+02  0.24825220845E+03  0.78661643875E+03  0.10100000352E+00 0.  1.
       -3    1    3    3    0  502  0.74030485810E+03  0.95315106818E+02  0.12445731038E+03  0.75672047998E+03  0.10100000352E+00 0. -1.
</event>
<event>
 5   0  0.1792000E-04  0.1505162E+04  0.7818609E-02  0.8881028E-01
        3   -1    0    0  501    0  0.00000000000E+00  0.00000000000E+00  0.10708759358E+04  0.10708759405E+04  0.10100000352E+00 0.  1.
       -3   -1    0    0    0  501  0.00000000000E+00  0.00000000000E+00 -0.52889220466E+03  0.52889221430E+03  0.10100000352E+00 0. -1.
    10030    2    1    2    0    0  0.00000000000E+00  0.00000000000E+00  0.54198373111E+03  0.15997681548E+04  0.15051617137E+04 0.  0.
        1    1    3    3  502    0  0.44775203689E+02 -0.17183626807E+03  0.10482907187E+04  0.10632243192E+04  0.50400001928E-02 0.  1.
       -1    1    3    3    0  502 -0.44775203689E+02  0.17183626807E+03 -0.50630698759E+03  0.53654383568E+03  0.50400001928E-02 0. -1.
</event>
<event>
 5   0  0.2565416E-04  0.1497651E+04  0.7818609E-02  0.8886017E-01
        1   -1    0    0  501    0  0.00000000000E+00  0.00000000000E+00  0.18777073960E+04  0.18777073961E+04  0.50400001928E-02 0. -1.
       -1   -1    0    0    0  501  0.00000000000E+00  0.00000000000E+00 -0.29862990957E+03  0.29862990961E+03  0.50400001928E-02 0.  1.
    10030    2    1    2    0    0  0.00000000000E+00  0.00000000000E+00  0.15790774865E+04  0.21763373057E+04  0.14976509472E+04 0.  0.
        5    1    3    3  502    0 -0.68724502492E+03 -0.27097244901E+03  0.61164764046E+03  0.95909682435E+03  0.46999998093E+01 0. -1.
       -5    1    3    3    0  502  0.68724502492E+03  0.27097244901E+03  0.96742984602E+03  0.12172404813E+04  0.46999998093E+01 0.  1.
</event>
<event>
 5   0  0.4785496E-04  0.1411581E+04  0.7818609E-02  0.8945478E-01
       -2   -1    0    0    0  501  0.00000000000E+00  0.00000000000E+00  0.55379108433E+03  0.55379108433E+03  0.25500000920E-02 0. -1.
        2   -1    0    0  501    0  0.00000000000E+00  0.00000000000E+00 -0.89950876052E+03  0.89950876052E+03  0.25500000920E-02 0.  1.
    10030    2    1    2    0    0  0.00000000000E+00  0.00000000000E+00 -0.34571767619E+03  0.14532998449E+04  0.14115805777E+04 0.  0.
        4    1    3    3  502    0  0.58234144441E+03 -0.36809007284E+03 -0.14942218350E+02  0.68908398791E+03  0.12699999809E+01 0. -1.
       -4    1    3    3    0  502 -0.58234144441E+03  0.36809007284E+03 -0.33077545784E+03  0.76421585695E+03  0.12699999809E+01 0.  1.
</event>
<event>
 5   0  0.4785496E-04  0.1494846E+04  0.7818609E-02  0.8887888E-01
       -2   -1    0    0    0  501  0.00000000000E+00  0.00000000000E+00  0.34148853624E+03  0.34148853625E+03  0.25500000920E-02 0.  1.
        2   -1    0    0  501    0  0.00000000000E+00  0.00000000000E+00 -0.16358993130E+04  0.16358993130E+04  0.25500000920E-02 0. -1.
    10030    2    1    2    0    0  0.00000000000E+00  0.00000000000E+00 -0.12944107768E+04  0.19773878493E+04  0.14948456266E+04 0.  0.
        4    1    3    3  502    0  0.28305092844E+03 -0.68239300094E+03 -0.79722100912E+03  0.10868951127E+04  0.12699999809E+01 0. -1.
       -4    1    3    3    0  502 -0.28305092844E+03  0.68239300094E+03 -0.49718976767E+03  0.89049273652E+03  0.12699999809E+01 0.  1.
</event>
<event>
 5   0  0.4726600E-04  0.1498795E+04  0.7818609E-02  0.8885254E-01
        2   -1    0    0  501    0  0.00000000000E+00  0.00000000000E+00  0.11510146028E+04  0.11510146028E+04  0.25500000920E-02 0.  1.
       -2   -1    0    0    0  501  0.00000000000E+00  0.00000000000E+00 -0.48791468732E+03  0.48791468732E+03  0.25500000920E-02 0. -1.
    10030    2    1    2    0    0  0.00000000000E+00  0.00000000000E+00  0.66309991551E+03  0.16389292902E+04  0.14987954231E+04 0.  0.
        2    1    3    3  502    0  0.25080588220E+03  0.61814633703E+03  0.70492528351E+03  0.97052982431E+03  0.25500000920E-02 0.  1.
       -2    1    3    3    0  502 -0.25080588220E+03 -0.61814633703E+03 -0.41825367998E+02  0.66839946585E+03  0.25500000920E-02 0. -1.
</event>
<event>
 5   0  0.2565416E-04  0.1494744E+04  0.7818609E-02  0.8887955E-01
       -1   -1    0    0    0  501  0.00000000000E+00  0.00000000000E+00  0.53996118394E+03  0.53996118396E+03  0.50400001928E-02 0. -1.
        1   -1    0    0  501    0  0.00000000000E+00  0.00000000000E+00 -0.10344542565E+04  0.10344542565E+04  0.50400001928E-02 0.  1.
    10030    2    1    2    0    0  0.00000000000E+00  0.00000000000E+00 -0.49449307258E+03  0.15744154405E+04  0.14947443194E+04 0.  0.
        5    1    3    3  502    0  0.39237528714E+03 -0.11429789527E+03  0.41182079039E+03  0.58020757338E+03  0.46999998093E+01 0. -1.
       -5    1    3    3    0  502 -0.39237528714E+03  0.11429789527E+03 -0.90631386297E+03  0.99420786711E+03  0.46999998093E+01 0.  1.
</event>
<event>
 5   0  0.4768387E-04  0.1408169E+04  0.7818609E-02  0.8947926E-01
       -2   -1    0    0    0  501  0.00000000000E+00  0.00000000000E+00  0.44298787513E+03  0.44298787514E+03  0.25500000920E-02 0.  1.
        2   -1    0    0  501    0  0.00000000000E+00  0.00000000000E+00 -0.11190718365E+04  0.11190718365E+04  0.25500000920E-02 0. -1.
    10030    2    1    2    0    0  0.00000000000E+00  0.00000000000E+00 -0.67608396136E+03  0.15620597116E+04  0.14081693861E+04 0.  0.
        3    1    3    3  502    0  0.16996217334E+03  0.63709841561E+03 -0.61191094324E+03  0.89956464147E+03  0.10100000352E+00 0. -1.
       -3    1    3    3    0  502 -0.16996217334E+03 -0.63709841561E+03 -0.64173018126E+02  0.66249507017E+03  0.10100000352E+00 0.  1.
</event>
<event>
 5   0  0.2565416E-04  0.1439106E+04  0.7818609E-02  0.8925988E-01
       -1   -1    0    0    0  501  0.00000000000E+00  0.00000000000E+00  0.44686850200E+03  0.44686850203E+03  0.50400001928E-02 0.  1.
        1   -1    0    0  501    0  0.00000000000E+00  0.00000000000E+00 -0.11586320465E+04  0.11586320465E+04  0.50400001928E-02 0. -1.
    10030    2    1    2    0    0  0.00000000000E+00  0.00000000000E+00 -0.71176354452E+03  0.16055005486E+04  0.14391055097E+04 0.  0.
        5    1    3    3  502    0  0.37987862369E+03 -0.27684854041E+03 -0.96364722697E+03  0.10721897925E+04  0.46999998093E+01 0. -1.
       -5    1    3    3    0  502 -0.37987862369E+03  0.27684854041E+03  0.25188368245E+03  0.53331075608E+03  0.46999998093E+01 0.  1.
</event>
<event>
 5   0  0.2605471E-04  0.1499649E+04  0.7818609E-02  0.8884686E-01
       -1   -1    0    0    0  501  0.00000000000E+00  0.00000000000E+00  0.24851964357E+03  0.24851964362E+03  0.50400001928E-02 0. -1.
        1   -1    0    0  501    0  0.00000000000E+00  0.00000000000E+00 -0.22623434951E+04  0.22623434951E+04  0.50400001928E-02 0.  1.
    10030    2    1    2    0    0  0.00000000000E+00  0.00000000000E+00 -0.20138238515E+04  0.25108631387E+04  0.14996490244E+04 0.  0.
        3    1    3    3  502    0 -0.65120952998E+03 -0.10198509124E+03 -0.16053706815E+04  0.17354220945E+04  0.10100000352E+00 0.  1.
       -3    1    3    3    0  502  0.65120952998E+03  0.10198509124E+03 -0.40845317000E+03  0.77544104422E+03  0.10100000352E+00 0. -1.
</event>
<event>
 5   0  0.1792000E-04  0.1498502E+04  0.7818609E-02  0.8885449E-01
       -3   -1    0    0    0  501  0.00000000000E+00  0.00000000000E+00  0.44467493247E+03  0.44467494394E+03  0.10100000352E+00 0. -1.
        3   -1    0    0  501    0  0.00000000000E+00  0.00000000000E+00 -0.12624441292E+04  0.12624441332E+04  0.10100000352E+00 0.  1.
    10030    2    1    2    0    0  0.00000000000E+00  0.00000000000E+00 -0.81776919674E+03  0.17071190772E+04  0.14985022805E+04 0.  0.
        2    1    3    3  502    0 -0.71918150443E+03  0.21012495639E+03 -0.40699971192E+03  0.85265661266E+03  0.25500000920E-02 0.  1.
       -2    1    3    3    0  502  0.71918150443E+03 -0.21012495639E+03 -0.41076948482E+03  0.85446246452E+03  0.25500000920E-02 0. -1.
</event>
<event>
 5   0  0.4785496E-04  0.1506296E+04  0.7818609E-02  0.8880277E-01
        2   -1    0    0  501    0  0.00000000000E+00  0.00000000000E+00  0.15227963753E+04  0.15227963753E+04  0.25500000920E-02 0.  1.
       -2   -1    0    0    0  501  0.00000000000E+00  0.00000000000E+00 -0.37249348939E+03  0.37249348940E+03  0.25500000920E-02 0. -1.
    10030    2    1    2    0    0  0.00000000000E+00  0.00000000000E+00  0.11503028859E+04  0.18952898647E+04  0.15062957684E+04 0.  0.
        4    1    3    3  502    0 -0.42741797610E+03  0.39712533605E+03  0.11744191301E+04  0.13113567649E+04  0.12699999809E+01 0.  1.
       -4    1    3    3    0  502  0.42741797610E+03 -0.39712533605E+03 -0.24116244260E+02  0.58393309973E+03  0.12699999809E+01 0. -1.
</event>
<event>
 5   0  0.2544374E-04  0.1491369E+04  0.7818609E-02  0.8890213E-01
       -1   -1    0    0    0  501  0.00000000000E+00  0.00000000000E+00  0.27641562386E+03  0.27641562390E+03  0.50400001928E-02 0.  1.
        1   -1    0    0  501    0  0.00000000000E+00  0.00000000000E+00 -0.20116267931E+04  0.20116267931E+04  0.50400001928E-02 0. -1.
    10030    2    1    2    0    0  0.00000000000E+00  0.00000000000E+00 -0.17352111692E+04  0.22880424170E+04  0.14913685997E+04 0.  0.
        4    1    3    3  502    0  0.47905982196E+03 -0.17733951712E+03 -0.34191907021E+02  0.51197491809E+03  0.12699999809E+01 0.  1.
       -4    1    3    3    0  502 -0.47905982196E+03  0.17733951712E+03 -0.17010192622E+04  0.17760674989E+04  0.12699999809E+01 0. -1.
</event>
<event>
 5   0  0.2605471E-04  0.1509489E+04  0.7818609E-02  0.8878167E-01
       -1   -1    0    0    0  501  0.00000000000E+00  0.00000000000E+00  0.47167814893E+03  0.47167814895E+03  0.50400001928E-02 0. -1.
        1   -1    0    0  501    0  0.00000000000E+00  0.00000000000E+00 -0.12076867969E+04  0.12076867969E+04  0.50400001928E-02 0.  1.
    10030    2    1    2    0    0  0.00000000000E+00  0.00000000000E+00 -0.73600864794E+03  0.16793649458E+04  0.15094892817E+04 0.  0.
        3    1    3    3  502    0  0.58544198862E+03 -0.59462464056E+02 -0.89380249229E+03  0.10701219613E+04  0.10100000352E+00 0.  1.
       -3    1    3    3    0  502 -0.58544198862E+03  0.59462464056E+02  0.15779384435E+03  0.60924298452E+03  0.10100000352E+00 0. -1.
</event>
<event>
 5   0  0.4726600E-04  0.1495848E+04  0.7818609E-02  0.8887219E-01
        2   -1    0    0  501    0  0.00000000000E+00  0.00000000000E+00  0.60728148400E+03  0.60728148400E+03  0.25500000920E-02 0. -1.
       -2   -1    0    0    0  501  0.00000000000E+00  0.00000000000E+00 -0.92113801922E+03  0.92113801922E+03  0.25500000920E-02 0.  1.
    10030    2    1    2    0    0  0.00000000000E+00  0.00000000000E+00 -0.31385653522E+03  0.15284195032E+04  0.14958476704E+04 0.  0.
        2    1    3    3  502    0  0.38594306576E+03 -0.12164979547E+03 -0.79962328953E+03  0.89618532007E+03  0.25500000920E-02 0.  1.
       -2    1    3    3    0  502 -0.38594306576E+03  0.12164979547E+03  0.48576675431E+03  0.63223418315E+03  0.25500000920E-02 0. -1.
</event>
<event>
 5   0  0.2605471E-04  0.1496920E+04  0.7818609E-02  0.8886504E-01
        1   -1    0    0  501    0  0.00000000000E+00  0.00000000000E+00  0.15038656225E+04  0.15038656225E+04  0.50400001928E-02 0. -1.
       -1   -1    0    0    0  501  0.00000000000E+00  0.00000000000E+00 -0.37250165716E+03  0.37250165720E+03  0.50400001928E-02 0.  1.
    10030    2    1    2    0    0  0.00000000000E+00  0.00000000000E+00  0.11313639654E+04  0.18763672797E+04  0.14969200868E+04 0.  0.
        3    1    3    3  502    0  0.64191925923E+01  0.20784861178E+03  0.14669284560E+04  0.14815941943E+04  0.10100000352E+00 0. -1.
       -3    1    3    3    0  502 -0.64191925923E+01 -0.20784861178E+03 -0.33556449059E+03  0.39477308545E+03  0.10100000352E+00 0.  1.
</event>
<event>
 5   0  0.4785496E-04  0.1494803E+04  0.7818609E-02  0.8887916E-01
       -2   -1    0    0    0  501  0.00000000000E+00  0.00000000000E+00  0.30415764394E+03  0.30415764395E+03  0.25500000920E-02 0. -1.
        2   -1    0    0  501    0  0.00000000000E+00  0.00000000000E+00 -0.18365767708E+04  0.18365767708E+04  0.25500000920E-02 0.  1.
    10030    2    1    2    0    0  0.00000000000E+00  0.00000000000E+00 -0.15324191268E+04  0.21407344147E+04  0.14948028145E+04 0.  0.
        4    1    3    3  502    0  0.66146711266E+03  0.25619919924E+03 -0.11033828840E+04  0.13117286962E+04  0.12699999809E+01 0.  1.
       -4    1    3    3    0  502 -0.66146711266E+03 -0.25619919924E+03 -0.42903624288E+03  0.82900571857E+03  0.12699999809E+01 0. -1.
</event>
<event>
 5   0  0.4948645E-04  0.1474301E+04  0.7818609E-02  0.8901725E-01
       -2   -1    0    0    0  501  0.00000000000E+00  0.00000000000E+00  0.53110714282E+03  0.53110714283E+03  0.25500000920E-02 0. -1.
        2   -1    0    0  501    0  0.00000000000E+00  0.00000000000E+00 -0.10231285191E+04  0.10231285191E+04  0.25500000920E-02 0.  1.
    10030    2    1    2    0    0  0.00000000000E+00  0.00000000000E+00 -0.49202137627E+03  0.15542356619E+04  0.14743010066E+04 0.  0.
        1    1    3    3  502    0 -0.20771780893E+03 -0.63026289684E+03 -0.58436866859E+03  0.88423116216E+03  0.50400001928E-02 0.  1.
       -1    1    3    3    0  502  0.20771780893E+03  0.63026289684E+03  0.92347292326E+02  0.67000449976E+03  0.50400001928E-02 0. -1.
</event>
<event>
 5   0  0.4768387E-04  0.1502634E+04  0.7818609E-02  0.8882703E-01
        2   -1    0    0  501    0  0.00000000000E+00  0.00000000000E+00  0.17952554929E+04  0.17952554929E+04  0.25500000920E-02 0.  1.
       -2   -1    0    0    0  501  0.00000000000E+00  0.00000000000E+00 -0.31442733424E+03  0.31442733425E+03  0.25500000920E-02 0. -1.
    10030    2    1    2    0    0  0.00000000000E+00  0.00000000000E+00  0.14808281587E+04  0.21096828272E+04  0.15026342189E+04 0.  0.
        3    1    3    3  502    0 -0.72966310214E+03 -0.15141089827E+03  0.87466871635E+03  0.11490774022E+04  0.10100000352E+00 0. -1.
       -3    1    3    3    0  502  0.72966310214E+03  0.15141089827E+03  0.60615944236E+03  0.96060542498E+03  0.10100000352E+00 0.  1.
</event>
<event>
 5   0  0.4768387E-04  0.1499993E+04  0.7818609E-02  0.8884458E-01
        2   -1    0    0  501    0  0.00000000000E+00  0.00000000000E+00  0.14872545198E+04  0.14872545198E+04  0.25500000920E-02 0. -1.
       -2   -1    0    0    0  501  0.00000000000E+00  0.00000000000E+00 -0.37820995727E+03  0.37820995727E+03  0.25500000920E-02 0.  1.
    10030    2    1    2    0    0  0.00000000000E+00  0.00000000000E+00  0.11090445625E+04  0.18654644770E+04  0.14999926245E+04 0.  0.
        3    1    3    3  502    0 -0.70330903319E+03 -0.14008450804E+03  0.82763621060E+03  0.10951022659E+04  0.10100000352E+00 0. -1.
       -3    1    3    3    0  502  0.70330903319E+03  0.14008450804E+03  0.28140835189E+03  0.77036221109E+03  0.10100000352E+00 0.  1.
</event>
<event>
 5   0  0.4569211E-04  0.1486173E+04  0.7818609E-02  0.8893700E-01
        2   -1    0    0  501    0  0.00000000000E+00  0.00000000000E+00  0.24804134075E+04  0.24804134075E+04  0.25500000920E-02 0.  1.
       -2   -1    0    0    0  501  0.00000000000E+00  0.00000000000E+00 -0.22261515148E+03  0.22261515149E+03  0.25500000920E-02 0. -1.
    10030    2    1    2    0    0  0.00000000000E+00  0.00000000000E+00  0.22577982560E+04  0.27030285590E+04  0.14861730807E+04 0.  0.
        5    1    3    3  502    0 -0.46592701388E+02 -0.59671642439E+02 -0.21555534267E+03  0.22851210140E+03  0.46999998093E+01 0. -1.
       -5    1    3    3    0  502  0.46592701388E+02  0.59671642439E+02  0.24733535987E+04  0.24745164576E+04  0.46999998093E+01 0.  1.
</event>
<event>
 5   0  0.2605471E-04  0.1512368E+04  0.7818609E-02  0.8876270E-01
        1   -1    0    0  501    0  0.00000000000E+00  0.00000000000E+00  0.12817176090E+04  0.12817176090E+04  0.50400001928E-02 0.  1.
       -1   -1    0    0    0  501  0.00000000000E+00  0.00000000000E+00 -0.44613103653E+03  0.44613103656E+03  0.50400001928E-02 0. -1.
    10030    2    1    2    0    0  0.00000000000E+00  0.00000000000E+00  0.83558657244E+03  0.17278486455E+04  0.15123676874E+04 0.  0.
        3    1    3    3  502    0  0.22957838156E+03  0.44573177737E+03  0.10645121549E+04  0.11766771812E+04  0.10100000352E+00 0.  1.
       -3    1    3    3    0  502 -0.22957838156E+03 -0.44573177737E+03 -0.22892558242E+03  0.55117146436E+03  0.10100000352E+00 0. -1.
</event>
<event>
 5   0  0.2544374E-04  0.1492473E+04  0.7818609E-02  0.8889474E-01
        1   -1    0    0  501    0  0.00000000000E+00  0.00000000000E+00  0.11595231023E+04  0.11595231023E+04  0.50400001928E-02 0. -1.
       -1   -1    0    0    0  501  0.00000000000E+00  0.00000000000E+00 -0.48025708157E+03  0.48025708160E+03  0.50400001928E-02 0.  1.
    10030    2    1    2    0    0  0.00000000000E+00  0.00000000000E+00  0.67926602069E+03  0.16397801839E+04  0.14924733581E+04 0.  0.
        4    1    3    3  502    0 -0.40104700759E+03 -0.60872273294E+03  0.16423460985E+03  0.74723268656E+03  0.12699999809E+01 0.  1.
       -4    1    3    3    0  502  0.40104700759E+03  0.60872273294E+03  0.51503141084E+03  0.89254749731E+03  0.12699999809E+01 0. -1.
</event>
<event>
 5   0  0.4785496E-04  0.1494726E+04  0.7818609E-02  0.8887968E-01
       -2   -1    0    0    0  501  0.00000000000E+00  0.00000000000E+00  0.11143864326E+04  0.11143864326E+04  0.25500000920E-02 0. -1.
        2   -1    0    0  501    0  0.00000000000E+00  0.00000000000E+00 -0.50121862639E+03  0.50121862640E+03  0.25500000920E-02 0.  1.
    10030    2    1    2    0    0  0.00000000000E+00  0.00000000000E+00  0.61316780617E+03  0.16156050590E+04  0.14947257100E+04 0.  0.
        4    1    3    3  502    0 -0.54712738813E+02  0.32735376475E+03  0.10303602673E+04  0.10824961268E+04  0.12699999809E+01 0. -1.
       -4    1    3    3    0  502  0.54712738813E+02 -0.32735376475E+03 -0.41719246113E+03  0.53310893222E+03  0.12699999809E+01 0.  1.
</event>
<event>
 5   0  0.2605471E-04  0.1493087E+04  0.7818609E-02  0.8889063E-01
       -1   -1    0    0    0  501  0.00000000000E+00  0.00000000000E+00  0.60598186676E+03  0.60598186678E+03  0.50400001928E-02 0.  1.
        1   -1    0    0  501    0  0.00000000000E+00  0.00000000000E+00 -0.91970909060E+03  0.91970909061E+03  0.50400001928E-02 0. -1.
    10030    2    1    2    0    0  0.00000000000E+00  0.00000000000E+00 -0.31372722384E+03  0.15256909574E+04  0.14930867779E+04 0.  0.
        3    1    3    3  502    0  0.34313479243E+03 -0.51489398685E+03 -0.58368045783E+03  0.85061165671E+03  0.10100000352E+00 0. -1.
       -3    1    3    3    0  502 -0.34313479243E+03  0.51489398685E+03  0.26995323399E+03  0.67507930068E+03  0.10100000352E+00 0.  1.
</event>
<event>
 5   0  0.2603873E-04  0.1497496E+04  0.7818609E-02  0.8886120E-01
        1   -1    0    0  501    0  0.00000000000E+00  0.00000000000E+00  0.10607460998E+04  0.10607460998E+04  0.50400001928E-02 0.  1.
       -1   -1    0    0    0  501  0.00000000000E+00  0.00000000000E+00 -0.52851840576E+03  0.52851840578E+03  0.50400001928E-02 0. -1.
    10030    2    1    2    0    0  0.00000000000E+00  0.00000000000E+00  0.53222769402E+03  0.15892645056E+04  0.14974963607E+04 0.  0.
        2    1    3    3  502    0 -0.18426530026E+03 -0.72493358182E+03  0.23025827149E+03  0.78262460383E+03  0.25500000920E-02 0.  1.
       -2    1    3    3    0  502  0.18426530026E+03  0.72493358182E+03  0.30196942252E+03  0.80663990174E+03  0.25500000920E-02 0. -1.
</event>
<event>
 5   0  0.2605471E-04  0.1495253E+04  0.7818609E-02  0.8887616E-01
        1   -1    0    0  501    0  0.00000000000E+00  0.00000000000E+00  0.42888354274E+03  0.42888354277E+03  0.50400001928E-02 0. -1.
       -1   -1    0    0    0  501  0.00000000000E+00  0.00000000000E+00 -0.13032563400E+04  0.13032563401E+04  0.50400001928E-02 0.  1.
    10030    2    1    2    0    0  0.00000000000E+00  0.00000000000E+00 -0.87437279730E+03  0.17321398828E+04  0.14952527495E+04 0.  0.
        3    1    3    3  502    0  0.23680885088E+03  0.70452492308E+03 -0.53066347141E+03  0.91325655168E+03  0.10100000352E+00 0. -1.
       -3    1    3    3    0  502 -0.23680885088E+03 -0.70452492308E+03 -0.34370932589E+03  0.81888333113E+03  0.10100000352E+00 0.  1.
</event>
<event>
 5   0  0.2605471E-04  0.1494291E+04  0.7818609E-02  0.8888258E-01
       -1   -1    0    0    0  501  0.00000000000E+00  0.00000000000E+00  0.23554904363E+03  0.23554904368E+03  0.50400001928E-02 0.  1.
        1   -1    0    0  501    0  0.00000000000E+00  0.00000000000E+00 -0.23698951084E+04  0.23698951085E+04  0.50400001928E-02 0. -1.
    10030    2    1    2    0    0  0.00000000000E+00  0.00000000000E+00 -0.21343460648E+04  0.26054441521E+04  0.14942911716E+04 0.  0.
        3    1    3    3  502    0 -0.57478476257E+03 -0.33484053660E+03 -0.16603319041E+04  0.17886301323E+04  0.10100000352E+00 0. -1.
       -3    1    3    3    0  502  0.57478476257E+03  0.33484053660E+03 -0.47401416075E+03  0.81681401986E+03  0.10100000352E+00 0.  1.
</event>
<event>
 5   0  0.2565416E-04  0.1522038E+04  0.7818609E-02  0.8869929E-01
        1   -1    0    0  501    0  0.00000000000E+00  0.00000000000E+00  0.12234102383E+04  0.12234102383E+04  0.50400001928E-02 0. -1.
       -1   -1    0    0    0  501  0.00000000000E+00  0.00000000000E+00 -0.47338968169E+03  0.47338968172E+03  0.50400001928E-02 0.  1.
    10030    2    1    2    0    0  0.00000000000E+00  0.00000000000E+00  0.75002055659E+03  0.16967999200E+04  0.15220378225E+04 0.  0.
        5    1    3    3  502    0 -0.20723282674E+03  0.72752377139E+03  0.46755662140E+03  0.88930735217E+03  0.46999998093E+01 0.  1.
       -5    1    3    3    0  502  0.20723282674E+03 -0.72752377139E+03  0.28246393519E+03  0.80749256783E+03  0.46999998093E+01 0. -1.
</event>
<event>
 5   0  0.2603873E-04  0.1516188E+04  0.7818609E-02  0.8873759E-01
       -1   -1    0    0    0  501  0.00000000000E+00  0.00000000000E+00  0.66129680378E+03  0.66129680380E+03  0.50400001928E-02 0. -1.
        1   -1    0    0  501    0  0.00000000000E+00  0.00000000000E+00 -0.86905951485E+03  0.86905951486E+03  0.50400001928E-02 0.  1.
    10030    2    1    2    0    0  0.00000000000E+00  0.00000000000E+00 -0.20776271107E+03  0.15303563187E+04  0.15161876922E+04 0.  0.
        2    1    3    3  502    0  0.31197989883E+02 -0.74649153619E+03 -0.23346862874E+03  0.78277105771E+03  0.25500000920E-02 0.  1.
       -2    1    3    3    0  502 -0.31197989883E+02  0.74649153619E+03  0.25705917672E+02  0.74758526095E+03  0.25500000920E-02 0. -1.
</event>
<event>
 5   0  0.1792000E-04  0.1500354E+04  0.7818609E-02  0.8884218E-01
        3   -1    0    0  501    0  0.00000000000E+00  0.00000000000E+00  0.51463564210E+03  0.51463565201E+03  0.10100000352E+00 0.  1.
       -3   -1    0    0    0  501  0.00000000000E+00  0.00000000000E+00 -0.10935218309E+04  0.10935218355E+04  0.10100000352E+00 0. -1.
    10030    2    1    2    0    0  0.00000000000E+00  0.00000000000E+00 -0.57888618878E+03  0.16081574876E+04  0.15003537200E+04 0.  0.
        1    1    3    3  502    0 -0.41563282960E+03  0.59705148411E+03 -0.48575363601E+03  0.87474437331E+03  0.50400001928E-02 0. -1.
       -1    1    3    3    0  502  0.41563282960E+03 -0.59705148411E+03 -0.93132552769E+02  0.73341311424E+03  0.50400001928E-02 0.  1.
</event>
<event>
 5   0  0.1792000E-04  0.1490826E+04  0.7818609E-02  0.8890576E-01
        4   -1    0    0  501    0  0.00000000000E+00  0.00000000000E+00  0.59368807960E+03  0.59368943797E+03  0.12699999809E+01 0.  1.
       -4   -1    0    0    0  501  0.00000000000E+00  0.00000000000E+00 -0.93591074855E+03  0.93591161023E+03  0.12699999809E+01 0. -1.
    10030    2    1    2    0    0  0.00000000000E+00  0.00000000000E+00 -0.34222266895E+03  0.15296010482E+04  0.14908262848E+04 0.  0.
        5    1    3    3  502    0  0.65601557852E+03 -0.13474172678E+03  0.16467254104E+03  0.68967449421E+03  0.46999998093E+01 0.  1.
       -5    1    3    3    0  502 -0.65601557852E+03  0.13474172678E+03 -0.50689520999E+03  0.83992655399E+03  0.46999998093E+01 0. -1.
</event>
<event>
 5   0  0.4569211E-04  0.1497819E+04  0.7818609E-02  0.8885905E-01
       -2   -1    0    0    0  501  0.00000000000E+00  0.00000000000E+00  0.76584538491E+03  0.76584538491E+03  0.25500000920E-02 0. -1.
        2   -1    0    0  501    0  0.00000000000E+00  0.00000000000E+00 -0.73234821248E+03  0.73234821248E+03  0.25500000920E-02 0.  1.
    10030    2    1    2    0    0  0.00000000000E+00  0.00000000000E+00  0.33497172427E+02  0.14981935974E+04  0.14978190794E+04 0.  0.
        5    1    3    3  502    0 -0.52695487392E+01 -0.48217877381E+03 -0.55638619591E+03  0.73628243702E+03  0.46999998093E+01 0.  1.
       -5    1    3    3    0  502  0.52695487392E+01  0.48217877381E+03  0.58988336834E+03  0.76191116038E+03  0.46999998093E+01 0. -1.
</event>
<event>
 5   0  0.2605471E-04  0.1507497E+04  0.7818609E-02  0.8879483E-01
        1   -1    0    0  501    0  0.00000000000E+00  0.00000000000E+00  0.12451032341E+04  0.12451032341E+04  0.50400001928E-02 0.  1.
       -1   -1    0    0    0  501  0.00000000000E+00  0.00000000000E+00 -0.45629668999E+03  0.45629669002E+03  0.50400001928E-02 0. -1.
    10030    2    1    2    0    0  0.00000000000E+00  0.00000000000E+00  0.78880654414E+03  0.17013999242E+04  0.15074965797E+04 0.  0.
        3    1    3    3  502    0 -0.28594057302E+03 -0.69017884628E+03  0.28138489283E+03  0.79830214785E+03  0.10100000352E+00 0. -1.
       -3    1    3    3    0  502  0.28594057302E+03  0.69017884628E+03  0.50742165131E+03  0.90309777631E+03  0.10100000352E+00 0.  1.
</event>
<event>
 5   0  0.4569211E-04  0.1474764E+04  0.7818609E-02  0.8901410E-01
       -2   -1    0    0    0  501  0.00000000000E+00  0.00000000000E+00  0.41619291186E+03  0.41619291187E+03  0.25500000920E-02 0. -1.
        2   -1    0    0  501    0  0.00000000000E+00  0.00000000000E+00 -0.13064420101E+04  0.13064420101E+04  0.25500000920E-02 0.  1.
    10030    2    1    2    0    0  0.00000000000E+00  0.00000000000E+00 -0.89024909824E+03  0.17226349220E+04  0.14747635802E+04 0.  0.
        5    1    3    3  502    0 -0.54912482650E+03 -0.23237421896E+02  0.12905517612E+03  0.56458425530E+03  0.46999998093E+01 0. -1.
       -5    1    3    3    0  502  0.54912482650E+03  0.23237421896E+02 -0.10193042744E+04  0.11580506667E+04  0.46999998093E+01 0.  1.
</event>
<event>
 5   0  0.2605471E-04  0.1419285E+04  0.7818609E-02  0.8939976E-01
       -1   -1    0    0    0  501  0.00000000000E+00  0.00000000000E+00  0.35351346983E+03  0.35351346986E+03  0.50400001928E-02 0. -1.
        1   -1    0    0  501    0  0.00000000000E+00  0.00000000000E+00 -0.14245363333E+04  0.14245363333E+04  0.50400001928E-02 0.  1.
    10030    2    1    2    0    0  0.00000000000E+00  0.00000000000E+00 -0.10710228635E+04  0.17780498032E+04  0.14192854288E+04 0.  0.
        3    1    3    3  502    0 -0.22684777659E+03 -0.32122443242E+03 -0.12755500118E+04  0.13347932022E+04  0.10100000352E+00 0.  1.
       -3    1    3    3    0  502  0.22684777659E+03  0.32122443242E+03  0.20452714833E+03  0.44325660101E+03  0.10100000352E+00 0. -1.
</event>
<event>
 5   0  0.4785496E-04  0.1499475E+04  0.7818609E-02  0.8884802E-01
       -2   -1    0    0    0  501  0.00000000000E+00  0.00000000000E+00  0.49961215242E+03  0.49961215243E+03  0.25500000920E-02 0.  1.
        2   -1    0    0  501    0  0.00000000000E+00  0.00000000000E+00 -0.11250858702E+04  0.11250858702E+04  0.25500000920E-02 0. -1.
    10030    2    1    2    0    0  0.00000000000E+00  0.00000000000E+00 -0.62547371780E+03  0.16246980227E+04  0.14994753393E+04 0.  0.
        4    1    3    3  502    0  0.16248313632E+03 -0.43612920623E+03 -0.94961233468E+03  0.10575323414E+04  0.12699999809E+01 0. -1.
       -4    1    3    3    0  502 -0.16248313632E+03  0.43612920623E+03  0.32413861687E+03  0.56716568123E+03  0.12699999809E+01 0.  1.
</event>
<event>
 5   0  0.2544374E-04  0.1501853E+04  0.7818609E-02  0.8883222E-01
       -1   -1    0    0    0  501  0.00000000000E+00  0.00000000000E+00  0.73613673702E+03  0.73613673704E+03  0.50400001928E-02 0. -1.
        1   -1    0    0  501    0  0.00000000000E+00  0.00000000000E+00 -0.76601326405E+03  0.76601326407E+03  0.50400001928E-02 0.  1.
    10030    2    1    2    0    0  0.00000000000E+00  0.00000000000E+00 -0.29876527030E+02  0.15021500011E+04  0.15018528620E+04 0.  0.
        4    1    3    3  502    0  0.64419687268E+03  0.15159974111E+03 -0.36985604183E+03  0.75813402302E+03  0.12699999809E+01 0.  1.
       -4    1    3    3    0  502 -0.64419687268E+03 -0.15159974111E+03  0.33997951480E+03  0.74401597809E+03  0.12699999809E+01 0. -1.
</event>
<event>
 5   0  0.4785496E-04  0.1484363E+04  0.7818609E-02  0.8894918E-01
       -2   -1    0    0    0  501  0.00000000000E+00  0.00000000000E+00  0.16151166780E+04  0.16151166780E+04  0.25500000920E-02 0.  1.
        2   -1    0    0  501    0  0.00000000000E+00  0.00000000000E+00 -0.34104872178E+03  0.34104872179E+03  0.25500000920E-02 0. -1.
    10030    2    1    2    0    0  0.00000000000E+00  0.00000000000E+00  0.12740679563E+04  0.19561653998E+04  0.14843631342E+04 0.  0.
        4    1    3    3  502    0  0.19714986377E+03  0.25373925996E+03  0.15186933716E+04  0.15523153193E+04  0.12699999809E+01 0.  1.
       -4    1    3    3    0  502 -0.19714986377E+03 -0.25373925996E+03 -0.24462541530E+03  0.40385008052E+03  0.12699999809E+01 0. -1.
</event>
<event>
 5   0  0.4726600E-04  0.1502188E+04  0.7818609E-02  0.8882999E-01
        2   -1    0    0  501    0  0.00000000000E+00  0.00000000000E+00  0.48169987165E+03  0.48169987165E+03  0.25500000920E-02 0.  1.
       -2   -1    0    0    0  501  0.00000000000E+00  0.00000000000E+00 -0.11711487130E+04  0.11711487130E+04  0.25500000920E-02 0. -1.
    10030    2    1    2    0    0  0.00000000000E+00  0.00000000000E+00 -0.68944884140E+03  0.16528485847E+04  0.15021879839E+04 0.  0.
        2    1    3    3  502    0 -0.70944134880E+03  0.12127011814E+03 -0.10840769059E+03  0.72785005071E+03  0.25500000920E-02 0. -1.
       -2    1    3    3    0  502  0.70944134880E+03 -0.12127011814E+03 -0.58104115081E+03  0.92499853399E+03  0.25500000920E-02 0.  1.
</event>
<event>
 5   0  0.2542737E-04  0.1497465E+04  0.7818609E-02  0.8886141E-01
       -1   -1    0    0    0  501  0.00000000000E+00  0.00000000000E+00  0.67534088315E+03  0.67534088317E+03  0.50400001928E-02 0. -1.
        1   -1    0    0  501    0  0.00000000000E+00  0.00000000000E+00 -0.83009960592E+03  0.83009960593E+03  0.50400001928E-02 0.  1.
    10030    2    1    2    0    0  0.00000000000E+00  0.00000000000E+00 -0.15475872277E+03  0.15054404891E+04  0.14974647922E+04 0.  0.
        1    1    3    3  502    0 -0.74645096441E+03  0.34710556757E+02 -0.30157533708E+02  0.74786585822E+03  0.50400001928E-02 0. -1.
       -1    1    3    3    0  502  0.74645096441E+03 -0.34710556757E+02 -0.12460118906E+03  0.75757463089E+03  0.50400001928E-02 0.  1.
</event>
<event>
 5   0  0.1792000E-04  0.1501211E+04  0.7818609E-02  0.8883648E-01
       -3   -1    0    0    0  501  0.00000000000E+00  0.00000000000E+00  0.59399957547E+03  0.59399958406E+03  0.10100000352E+00 0.  1.
        3   -1    0    0  501    0  0.00000000000E+00  0.00000000000E+00 -0.94849986447E+03  0.94849986985E+03  0.10100000352E+00 0. -1.
    10030    2    1    2    0    0  0.00000000000E+00  0.00000000000E+00 -0.35450028900E+03  0.15424994539E+04  0.15012108814E+04 0.  0.
        2    1    3    3  502    0  0.83350070647E+02  0.57535480946E+03  0.31060105346E+03  0.65913079542E+03  0.25500000920E-02 0.  1.
       -2    1    3    3    0  502 -0.83350070647E+02 -0.57535480946E+03 -0.66510134246E+03  0.88336865849E+03  0.25500000920E-02 0. -1.
</event>
<event>
 5   0  0.2542737E-04  0.1495397E+04  0.7818609E-02  0.8887519E-01
        1   -1    0    0  501    0  0.00000000000E+00  0.00000000000E+00  0.93538816439E+03  0.93538816440E+03  0.50400001928E-02 0. -1.
       -1   -1    0    0    0  501  0.00000000000E+00  0.00000000000E+00 -0.59766993106E+03  0.59766993108E+03  0.50400001928E-02 0.  1.
    10030    2    1    2    0    0  0.00000000000E+00  0.00000000000E+00  0.33771823333E+03  0.15330580955E+04  0.14953974452E+04 0.  0.
        1    1    3    3  502    0 -0.50902948607E+03 -0.49946549446E+03 -0.61468995270E+02  0.71578993793E+03  0.50400001928E-02 0.  1.
       -1    1    3    3    0  502  0.50902948607E+03  0.49946549446E+03  0.39918722860E+03  0.81726815755E+03  0.50400001928E-02 0. -1.
</event>
<event>
 5   0  0.4569211E-04  0.1495434E+04  0.7818609E-02  0.8887495E-01
        2   -1    0    0  501    0  0.00000000000E+00  0.00000000000E+00  0.20647265747E+04  0.20647265747E+04  0.25500000920E-02 0.  1.
       -2   -1    0    0    0  501  0.00000000000E+00  0.00000000000E+00 -0.27077704449E+03  0.27077704450E+03  0.25500000920E-02 0. -1.
    10030    2    1    2    0    0  0.00000000000E+00  0.00000000000E+00  0.17939495302E+04  0.23355036192E+04  0.14954337960E+04 0.  0.
        5    1    3    3  502    0 -0.35923465969E+03  0.45138798002E+03  0.15410077495E+03  0.59713464819E+03  0.46999998093E+01 0. -1.
       -5    1    3    3    0  502  0.35923465969E+03 -0.45138798002E+03  0.16398487553E+04  0.17383689710E+04  0.46999998093E+01 0.  1.
</event>
<event>
 5   0  0.4768387E-04  0.1497386E+04  0.7818609E-02  0.8886193E-01
       -2   -1    0    0    0  501  0.00000000000E+00  0.00000000000E+00  0.43373922473E+03  0.43373922474E+03  0.25500000920E-02 0. -1.
        2   -1    0    0  501    0  0.00000000000E+00  0.00000000000E+00 -0.12923460135E+04  0.12923460135E+04  0.25500000920E-02 0.  1.
    10030    2    1    2    0    0  0.00000000000E+00  0.00000000000E+00 -0.85860678878E+03  0.17260852382E+04  0.14973859329E+04 0.  0.
        3    1    3    3  502    0 -0.62397161364E+03 -0.56392868468E+02  0.43204990176E+02  0.62800271625E+03  0.10100000352E+00 0. -1.
       -3    1    3    3    0  502  0.62397161364E+03  0.56392868468E+02 -0.90181177895E+03  0.10980825220E+04  0.10100000352E+00 0.  1.
</event>
<event>
 5   0  0.4569211E-04  0.1494961E+04  0.7818609E-02  0.8887811E-01
        2   -1    0    0  501    0  0.00000000000E+00  0.00000000000E+00  0.11456113025E+04  0.11456113025E+04  0.25500000920E-02 0. -1.
       -2   -1    0    0    0  501  0.00000000000E+00  0.00000000000E+00 -0.48771077707E+03  0.48771077707E+03  0.25500000920E-02 0.  1.
    10030    2    1    2    0    0  0.00000000000E+00  0.00000000000E+00  0.65790052545E+03  0.16333220796E+04  0.14949608404E+04 0.  0.
        5    1    3    3  502    0 -0.35075388677E+03  0.26918401549E+02 -0.39159734715E+03  0.52642517201E+03  0.46999998093E+01 0.  1.
       -5    1    3    3    0  502  0.35075388677E+03 -0.26918401549E+02  0.10494978726E+04  0.11068969076E+04  0.46999998093E+01 0. -1.
</event>
<event>
 5   0  0.2603873E-04  0.1488819E+04  0.7818609E-02  0.8891922E-01
       -1   -1    0    0    0  501  0.00000000000E+00  0.00000000000E+00  0.88990141452E+03  0.88990141453E+03  0.50400001928E-02 0. -1.
        1   -1    0    0  501    0  0.00000000000E+00  0.00000000000E+00 -0.62270478648E+03  0.62270478650E+03  0.50400001928E-02 0.  1.
    10030    2    1    2    0    0  0.00000000000E+00  0.00000000000E+00  0.26719662803E+03  0.15126062010E+04  0.14888194925E+04 0.  0.
        2    1    3    3  502    0  0.65259312359E+03 -0.17651194132E+03  0.45020452452E+03  0.81223048717E+03  0.25500000920E-02 0. -1.
       -2    1    3    3    0  502 -0.65259312359E+03  0.17651194132E+03 -0.18300789648E+03  0.70037571386E+03  0.25500000920E-02 0.  1.
</event>
<event>
 5   0  0.4785496E-04  0.1516069E+04  0.7818609E-02  0.8873837E-01
        2   -1    0    0  501    0  0.00000000000E+00  0.00000000000E+00  0.10052569922E+04  0.10052569922E+04  0.25500000920E-02 0. -1.
       -2   -1    0    0    0  501  0.00000000000E+00  0.00000000000E+00 -0.57161126080E+03  0.57161126080E+03  0.25500000920E-02 0.  1.
    10030    2    1    2    0    0  0.00000000000E+00  0.00000000000E+00  0.43364573139E+03  0.15768682530E+04  0.15160688860E+04 0.  0.
        4    1    3    3  502    0  0.34449123267E+02 -0.21357050389E+03  0.97246739982E+03  0.99623970953E+03  0.12699999809E+01 0. -1.
       -4    1    3    3    0  502 -0.34449123267E+02  0.21357050389E+03 -0.53882166843E+03  0.58062854347E+03  0.12699999809E+01 0.  1.
</event>
<event>
 5   0  0.2542737E-04  0.1501020E+04  0.7818609E-02  0.8883775E-01
       -1   -1    0    0    0  501  0.00000000000E+00  0.00000000000E+00  0.41662767089E+03  0.41662767092E+03  0.50400001928E-02 0. -1.
        1   -1    0    0  501    0  0.00000000000E+00  0.00000000000E+00 -0.13519626636E+04  0.13519626636E+04  0.50400001928E-02 0.  1.
    10030    2    1    2    0    0  0.00000000000E+00  0.00000000000E+00 -0.93533499266E+03  0.17685903345E+04  0.15010197276E+04 0.  0.
        1    1    3    3  502    0  0.16140093714E+03 -0.46690047342E+03  0.19804243708E+03  0.53222844860E+03  0.50400001928E-02 0. -1.
       -1    1    3    3    0  502 -0.16140093714E+03  0.46690047342E+03 -0.11333774297E+04  0.12363618859E+04  0.50400001928E-02 0.  1.
</event>
<event>
 5   0  0.4768387E-04  0.1503679E+04  0.7818609E-02  0.8882010E-01
       -2   -1    0    0    0  501  0.00000000000E+00  0.00000000000E+00  0.10137006962E+04  0.10137006962E+04  0.25500000920E-02 0. -1.
        2   -1    0    0  501    0  0.00000000000E+00  0.00000000000E+00 -0.55762257703E+03  0.55762257704E+03  0.25500000920E-02 0.  1.
    10030    2    1    2    0    0  0.00000000000E+00  0.00000000000E+00  0.45607811915E+03  0.15713232732E+04  0.15036786818E+04 0.  0.
        3    1    3    3  502    0  0.63059774603E+03  0.35676077435E+03  0.43789822098E+03  0.84657346377E+03  0.10100000352E+00 0.  1.
       -3    1    3    3    0  502 -0.63059774603E+03 -0.35676077435E+03  0.18179898170E+02  0.72474980946E+03  0.10100000352E+00 0. -1.
</event>
<event>
 5   0  0.2542737E-04  0.1491731E+04  0.7818609E-02  0.8889971E-01
        1   -1    0    0  501    0  0.00000000000E+00  0.00000000000E+00  0.18737256301E+04  0.18737256301E+04  0.50400001928E-02 0. -1.
       -1   -1    0    0    0  501  0.00000000000E+00  0.00000000000E+00 -0.29690314387E+03  0.29690314391E+03  0.50400001928E-02 0.  1.
    10030    2    1    2    0    0  0.00000000000E+00  0.00000000000E+00  0.15768224862E+04  0.21706287740E+04  0.14917305794E+04 0.  0.
        1    1    3    3  502    0 -0.36108298388E+03 -0.54750173270E+03  0.13052838012E+04  0.14607891259E+04  0.50400001928E-02 0. -1.
       -1    1    3    3    0  502  0.36108298388E+03  0.54750173270E+03  0.27153868498E+03  0.70983964810E+03  0.50400001928E-02 0.  1.
</event>
<event>
 5   0  0.4569211E-04  0.1493647E+04  0.7818609E-02  0.8888688E-01
        2   -1    0    0  501    0  0.00000000000E+00  0.00000000000E+00  0.32110345599E+03  0.32110345600E+03  0.25500000920E-02 0. -1.
       -2   -1    0    0    0  501  0.00000000000E+00  0.00000000000E+00 -0.17369651655E+04  0.17369651655E+04  0.25500000920E-02 0.  1.
    10030    2    1    2    0    0  0.00000000000E+00  0.00000000000E+00 -0.14158617095E+04  0.20580686215E+04  0.14936472376E+04 0.  0.
        5    1    3    3  502    0 -0.73479912510E+03  0.12904830910E+03 -0.75445771173E+03  0.10610427650E+04  0.46999998093E+01 0. -1.
       -5    1    3    3    0  502  0.73479912510E+03 -0.12904830910E+03 -0.66140399781E+03  0.99702585656E+03  0.46999998093E+01 0.  1.
</event>
<event>
 5   0  0.1792000E-04  0.1491449E+04  0.7818609E-02  0.8890159E-01
        3   -1    0    0  501    0  0.00000000000E+00  0.00000000000E+00  0.84996161202E+03  0.84996161802E+03  0.10100000352E+00 0. -1.
       -3   -1    0    0    0  501  0.00000000000E+00  0.00000000000E+00 -0.65427086634E+03  0.65427087413E+03  0.10100000352E+00 0.  1.
    10030    2    1    2    0    0  0.00000000000E+00  0.00000000000E+00  0.19569074568E+03  0.15042324921E+04  0.14914491351E+04 0.  0.
        4    1    3    3  502    0 -0.63900651413E+03 -0.38389503587E+03  0.11798636483E+03  0.75473645656E+03  0.12699999809E+01 0. -1.
       -4    1    3    3    0  502  0.63900651413E+03  0.38389503587E+03  0.77704380851E+02  0.74949603559E+03  0.12699999809E+01 0.  1.
</event>
<event>
 5   0  0.2544374E-04  0.1498329E+04  0.7818609E-02  0.8885565E-01
       -1   -1    0    0    0  501  0.00000000000E+00  0.00000000000E+00  0.36538989233E+03  0.36538989236E+03  0.50400001928E-02 0. -1.
        1   -1    0    0  501    0  0.00000000000E+00  0.00000000000E+00 -0.15360238302E+04  0.15360238302E+04  0.50400001928E-02 0.  1.
    10030    2    1    2    0    0  0.00000000000E+00  0.00000000000E+00 -0.11706339379E+04  0.19014137226E+04  0.14983291788E+04 0.  0.
        4    1    3    3  502    0 -0.52841717566E+03 -0.38963748693E+03 -0.10432282684E+04  0.12326268356E+04  0.12699999809E+01 0.  1.
       -4    1    3    3    0  502  0.52841717566E+03  0.38963748693E+03 -0.12740566944E+03  0.66878688703E+03  0.12699999809E+01 0. -1.
</event>
<event>
 5   0  0.4726600E-04  0.1521004E+04  0.7818609E-02  0.8870605E-01
       -2   -1    0    0    0  501  0.00000000000E+00  0.00000000000E+00  0.41933142703E+03  0.41933142703E+03  0.25500000920E-02 0.  1.
        2   -1    0    0  501    0  0.00000000000E+00  0.00000000000E+00 -0.13792502667E+04  0.13792502667E+04  0.25500000920E-02 0. -1.
    10030    2    1    2    0    0  0.00000000000E+00  0.00000000000E+00 -0.95991883965E+03  0.17985816937E+04  0.15210035931E+04 0.  0.
        2    1    3    3  502    0 -0.22813571720E+03 -0.88114279134E+02 -0.13314826176E+04  0.13537562530E+04  0.25500000920E-02 0. -1.
       -2    1    3    3    0  502  0.22813571720E+03  0.88114279134E+02  0.37156377791E+03  0.44482544072E+03  0.25500000920E-02 0.  1.
</event>
<event>
 5   0  0.4768387E-04  0.1518369E+04  0.7818609E-02  0.8872329E-01
        2   -1    0    0  501    0  0.00000000000E+00  0.00000000000E+00  0.18440412330E+04  0.18440412330E+04  0.25500000920E-02 0. -1.
       -2   -1    0    0    0  501  0.00000000000E+00  0.00000000000E+00 -0.31255316066E+03  0.31255316067E+03  0.25500000920E-02 0.  1.
    10030    2    1    2    0    0  0.00000000000E+00  0.00000000000E+00  0.15314880724E+04  0.21565943937E+04  0.15183687507E+04 0.  0.
        3    1    3    3  502    0  0.61888832724E+03 -0.40191532261E+03  0.10190351281E+04  0.12581698179E+04  0.10100000352E+00 0. -1.
       -3    1    3    3    0  502 -0.61888832724E+03  0.40191532261E+03  0.51245294431E+03  0.89842457584E+03  0.10100000352E+00 0.  1.
</event>
<event>
 5   0  0.2565416E-04  0.1492983E+04  0.7818609E-02  0.8889132E-01
        1   -1    0    0  501    0  0.00000000000E+00  0.00000000000E+00  0.48341859118E+03  0.48341859121E+03  0.50400001928E-02 0.  1.
       -1   -1    0    0    0  501  0.00000000000E+00  0.00000000000E+00 -0.11527273300E+04  0.11527273300E+04  0.50400001928E-02 0. -1.
    10030    2    1    2    0    0  0.00000000000E+00  0.00000000000E+00 -0.66930873882E+03  0.16361459212E+04  0.14929833514E+04 0.  0.
        5    1    3    3  502    0 -0.63090960529E+03  0.10452754058E+03 -0.75661452490E+03  0.99068691628E+03  0.46999998093E+01 0. -1.
       -5    1    3    3    0  502  0.63090960529E+03 -0.10452754058E+03  0.87305786081E+02  0.64545900495E+03  0.46999998093E+01 0.  1.
</event>
<event>
 5   0  0.4569211E-04  0.1504917E+04  0.7818609E-02  0.8881190E-01
        2   -1    0    0  501    0  0.00000000000E+00  0.00000000000E+00  0.12925322048E+04  0.12925322048E+04  0.25500000920E-02 0.  1.
       -2   -1    0    0    0  501  0.00000000000E+00  0.00000000000E+00 -0.43805018874E+03  0.43805018874E+03  0.25500000920E-02 0. -1.
    10030    2    1    2    0    0  0.00000000000E+00  0.00000000000E+00  0.85448201603E+03  0.17305823935E+04  0.15049172419E+04 0.  0.
        5    1    3    3  502    0 -0.86094845484E+02 -0.29209145976E+03  0.12184899091E+04  0.12559735235E+04  0.46999998093E+01 0.  1.
       -5    1    3    3    0  502  0.86094845484E+02  0.29209145976E+03 -0.36400789304E+03  0.47460886999E+03  0.46999998093E+01 0. -1.
</event>
<event>
 5   0  0.4785496E-04  0.1516087E+04  0.7818609E-02  0.8873825E-01
       -2   -1    0    0    0  501  0.00000000000E+00  0.00000000000E+00  0.69784467956E+03  0.69784467957E+03  0.25500000920E-02 0. -1.
        2   -1    0    0  501    0  0.00000000000E+00  0.00000000000E+00 -0.82343517930E+03  0.82343517931E+03  0.25500000920E-02 0.  1.
    10030    2    1    2    0    0  0.00000000000E+00  0.00000000000E+00 -0.12559049974E+03  0.15212798589E+04  0.15160868825E+04 0.  0.
        4    1    3    3  502    0  0.27570597438E+03  0.28128384738E+03 -0.71269718326E+03  0.81429311371E+03  0.12699999809E+01 0.  1.
       -4    1    3    3    0  502 -0.27570597438E+03 -0.28128384738E+03  0.58710668352E+03  0.70698674517E+03  0.12699999809E+01 0. -1.
</event>
<event>
 5   0  0.4726600E-04  0.1499502E+04  0.7818609E-02  0.8884784E-01
        2   -1    0    0  501    0  0.00000000000E+00  0.00000000000E+00  0.11908595800E+04  0.11908595800E+04  0.25500000920E-02 0. -1.
       -2   -1    0    0    0  501  0.00000000000E+00  0.00000000000E+00 -0.47203428818E+03  0.47203428818E+03  0.25500000920E-02 0.  1.
    10030    2    1    2    0    0  0.00000000000E+00  0.00000000000E+00  0.71882529182E+03  0.16628938682E+04  0.14995019896E+04 0.  0.
        2    1    3    3  502    0  0.40170970477E+03 -0.24564108503E+03  0.10064400495E+04  0.11111398665E+04  0.25500000920E-02 0. -1.
       -2    1    3    3    0  502 -0.40170970477E+03  0.24564108503E+03 -0.28761475769E+03  0.55175400172E+03  0.25500000920E-02 0.  1.
</event>
<event>
 5   0  0.2603873E-04  0.1516450E+04  0.7818609E-02  0.8873587E-01
       -1   -1    0    0    0  501  0.00000000000E+00  0.00000000000E+00  0.15221942906E+04  0.15221942906E+04  0.50400001928E-02 0. -1.
        1   -1    0    0  501    0  0.00000000000E+00  0.00000000000E+00 -0.37768186578E+03  0.37768186582E+03  0.50400001928E-02 0.  1.
    10030    2    1    2    0    0  0.00000000000E+00  0.00000000000E+00  0.11445124248E+04  0.18998761564E+04  0.15164500385E+04 0.  0.
        2    1    3    3  502    0 -0.23321433080E+03 -0.46396430867E+03 -0.11993713940E+03  0.53295095574E+03  0.25500000920E-02 0.  1.
       -2    1    3    3    0  502  0.23321433080E+03  0.46396430867E+03  0.12644495642E+04  0.13669252007E+04  0.25500000920E-02 0. -1.
</event>
<event>
 5   0  0.4726600E-04  0.1497022E+04  0.7818609E-02  0.8886435E-01
       -2   -1    0    0    0  501  0.00000000000E+00  0.00000000000E+00  0.45475835914E+03  0.45475835914E+03  0.25500000920E-02 0.  1.
        2   -1    0    0  501    0  0.00000000000E+00  0.00000000000E+00 -0.12320146829E+04  0.12320146829E+04  0.25500000920E-02 0. -1.
    10030    2    1    2    0    0  0.00000000000E+00  0.00000000000E+00 -0.77725632372E+03  0.16867730420E+04  0.14970223453E+04 0.  0.
        2    1    3    3  502    0 -0.46831010130E+03 -0.58016040358E+03 -0.31415563893E+03  0.80906996628E+03  0.25500000920E-02 0.  1.
       -2    1    3    3    0  502  0.46831010130E+03  0.58016040358E+03 -0.46310068479E+03  0.87770307572E+03  0.25500000920E-02 0. -1.
</event>
<event>
 5   0  0.4569211E-04  0.1502499E+04  0.7818609E-02  0.8882793E-01
       -2   -1    0    0    0  501  0.00000000000E+00  0.00000000000E+00  0.80150491807E+03  0.80150491808E+03  0.25500000920E-02 0. -1.
        2   -1    0    0  501    0  0.00000000000E+00  0.00000000000E+00 -0.70414498964E+03  0.70414498965E+03  0.25500000920E-02 0.  1.
    10030    2    1    2    0    0  0.00000000000E+00  0.00000000000E+00  0.97359928430E+02  0.15056499077E+04  0.15024988150E+04 0.  0.
        5    1    3    3  502    0 -0.35669938845E+03 -0.52491168282E+03 -0.35414175270E+03  0.72677726952E+03  0.46999998093E+01 0.  1.
       -5    1    3    3    0  502  0.35669938845E+03  0.52491168282E+03  0.45150168113E+03  0.77887263821E+03  0.46999998093E+01 0. -1.
</event>
<event>
 5   0  0.4785496E-04  0.1491409E+04  0.7818609E-02  0.8890186E-01
       -2   -1    0    0    0  501  0.00000000000E+00  0.00000000000E+00  0.52369638496E+03  0.52369638496E+03  0.25500000920E-02 0. -1.
        2   -1    0    0  501    0  0.00000000000E+00  0.00000000000E+00 -0.10618277079E+04  0.10618277079E+04  0.25500000920E-02 0.  1.
    10030    2    1    2    0    0  0.00000000000E+00  0.00000000000E+00 -0.53813132293E+03  0.15855240929E+04  0.14914091753E+04 0.  0.
        4    1    3    3  502    0  0.39821255051E+03  0.54523494836E+03  0.67486042091E+02  0.67853545455E+03  0.12699999809E+01 0. -1.
       -4    1    3    3    0  502 -0.39821255051E+03 -0.54523494836E+03 -0.60561736502E+03  0.90698863830E+03  0.12699999809E+01 0.  1.
</event>
<event>
 5   0  0.4726600E-04  0.1508046E+04  0.7818609E-02  0.8879120E-01
       -2   -1    0    0    0  501  0.00000000000E+00  0.00000000000E+00  0.83113296797E+03  0.83113296798E+03  0.25500000920E-02 0.  1.
        2   -1    0    0  501    0  0.00000000000E+00  0.00000000000E+00 -0.68406682847E+03  0.68406682848E+03  0.25500000920E-02 0. -1.
    10030    2    1    2    0    0  0.00000000000E+00  0.00000000000E+00  0.14706613950E+03  0.15151997965E+04  0.15080457466E+04 0.  0.
        2    1    3    3  502    0 -0.14849291863E+03  0.67960375061E+03  0.36584118766E+03  0.78597148760E+03  0.25500000920E-02 0.  1.
       -2    1    3    3    0  502  0.14849291863E+03 -0.67960375061E+03 -0.21877504816E+03  0.72922830885E+03  0.25500000920E-02 0. -1.
</event>
<event>
 5   0  0.4569211E-04  0.1487520E+04  0.7818609E-02  0.8892794E-01
        2   -1    0    0  501    0  0.00000000000E+00  0.00000000000E+00  0.10492194753E+04  0.10492194753E+04  0.25500000920E-02 0. -1.
       -2   -1    0    0    0  501  0.00000000000E+00  0.00000000000E+00 -0.52722931918E+03  0.52722931918E+03  0.25500000920E-02 0.  1.
    10030    2    1    2    0    0  0.00000000000E+00  0.00000000000E+00  0.52199015613E+03  0.15764487945E+04  0.14875204464E+04 0.  0.
        5    1    3    3  502    0  0.71149149209E+03  0.15685251893E+03  0.10261398817E+03  0.73578160930E+03  0.46999998093E+01 0.  1.
       -5    1    3    3    0  502 -0.71149149209E+03 -0.15685251893E+03  0.41937616796E+03  0.84066718520E+03  0.46999998093E+01 0. -1.
</event>
<event>
 5   0  0.2542737E-04  0.1479518E+04  0.7818609E-02  0.8898189E-01
       -1   -1    0    0    0  501  0.00000000000E+00  0.00000000000E+00  0.39694126393E+03  0.39694126396E+03  0.50400001928E-02 0. -1.
        1   -1    0    0  501    0  0.00000000000E+00  0.00000000000E+00 -0.13786507446E+04  0.13786507446E+04  0.50400001928E-02 0.  1.
    10030    2    1    2    0    0  0.00000000000E+00  0.00000000000E+00 -0.98170948069E+03  0.17755920086E+04  0.14795179879E+04 0.  0.
        1    1    3    3  502    0 -0.65084433365E+03  0.13151253893E+02 -0.91255832365E+03  0.11209522720E+04  0.50400001928E-02 0.  1.
       -1    1    3    3    0  502  0.65084433365E+03 -0.13151253893E+02 -0.69151157043E+02  0.65463973654E+03  0.50400001928E-02 0. -1.
</event>
<event>
 5   0  0.4768387E-04  0.1480504E+04  0.7818609E-02  0.8897522E-01
        2   -1    0    0  501    0  0.00000000000E+00  0.00000000000E+00  0.61339509978E+03  0.61339509979E+03  0.25500000920E-02 0.  1.
       -2   -1    0    0    0  501  0.00000000000E+00  0.00000000000E+00 -0.89334457240E+03  0.89334457241E+03  0.25500000920E-02 0. -1.
    10030    2    1    2    0    0  0.00000000000E+00  0.00000000000E+00 -0.27994947262E+03  0.15067396722E+04  0.14805042156E+04 0.  0.
        3    1    3    3  502    0  0.35188843443E+02 -0.84098600941E+02  0.60766027764E+03  0.61446061924E+03  0.10100000352E+00 0.  1.
       -3    1    3    3    0  502 -0.35188843443E+02  0.84098600941E+02 -0.88760975026E+03  0.89227905295E+03  0.10100000352E+00 0. -1.
</event>
<event>
 5   0  0.2542737E-04  0.1501577E+04  0.7818609E-02  0.8883405E-01
        1   -1    0    0  501    0  0.00000000000E+00  0.00000000000E+00  0.17526417054E+04  0.17526417054E+04  0.50400001928E-02 0.  1.
       -1   -1    0    0    0  501  0.00000000000E+00  0.00000000000E+00 -0.32161910527E+03  0.32161910531E+03  0.50400001928E-02 0. -1.
    10030    2    1    2    0    0  0.00000000000E+00  0.00000000000E+00  0.14310226001E+04  0.20742608107E+04  0.15015765811E+04 0.  0.
        1    1    3    3  502    0 -0.56142858400E+03  0.43210705957E+03  0.10588203962E+04  0.12739777067E+04  0.50400001928E-02 0.  1.
       -1    1    3    3    0  502  0.56142858400E+03 -0.43210705957E+03  0.37220220397E+03  0.80028310399E+03  0.50400001928E-02 0. -1.
</event>
<event>
 5   0  0.4726600E-04  0.1483555E+04  0.7818609E-02  0.8895463E-01
       -2   -1    0    0    0  501  0.00000000000E+00  0.00000000000E+00  0.54125069934E+03  0.54125069935E+03  0.25500000920E-02 0.  1.
        2   -1    0    0  501    0  0.00000000000E+00  0.00000000000E+00 -0.10165964719E+04  0.10165964719E+04  0.25500000920E-02 0. -1.
    10030    2    1    2    0    0  0.00000000000E+00  0.00000000000E+00 -0.47534577251E+03  0.15578471712E+04  0.14835545846E+04 0.  0.
        2    1    3    3  502    0  0.53896967536E+02 -0.13880646363E+03 -0.10007414204E+04  0.10117586214E+04  0.25500000920E-02 0. -1.
       -2    1    3    3    0  502 -0.53896967536E+02  0.13880646363E+03  0.52539564787E+03  0.54608854983E+03  0.25500000920E-02 0.  1.
</event>
<event>
 5   0  0.4569211E-04  0.1502918E+04  0.7818609E-02  0.8882515E-01
        2   -1    0    0  501    0  0.00000000000E+00  0.00000000000E+00  0.82978876557E+03  0.82978876558E+03  0.25500000920E-02 0. -1.
       -2   -1    0    0    0  501  0.00000000000E+00  0.00000000000E+00 -0.68052291156E+03  0.68052291156E+03  0.25500000920E-02 0.  1.
    10030    2    1    2    0    0  0.00000000000E+00  0.00000000000E+00  0.14926585402E+03  0.15103116771E+04  0.15029175183E+04 0.  0.
        5    1    3    3  502    0  0.12090431693E+03 -0.67517253019E+03  0.38305064018E+03  0.78563711872E+03  0.46999998093E+01 0. -1.
       -5    1    3    3    0  502 -0.12090431693E+03  0.67517253019E+03 -0.23378478616E+03  0.72467455842E+03  0.46999998093E+01 0.  1.
</event>
<event>
 5   0  0.2542737E-04  0.1492162E+04  0.7818609E-02  0.8889682E-01
        1   -1    0    0  501    0  0.00000000000E+00  0.00000000000E+00  0.11345044576E+04  0.11345044576E+04  0.50400001928E-02 0. -1.
       -1   -1    0    0    0  501  0.00000000000E+00  0.00000000000E+00 -0.49064308204E+03  0.49064308207E+03  0.50400001928E-02 0.  1.
    10030    2    1    2    0    0  0.00000000000E+00  0.00000000000E+00  0.64386137553E+03  0.16251475396E+04  0.14921618728E+04 0.  0.
        1    1    3    3  502    0  0.49893372583E+03  0.35012626466E+03  0.79052380095E+03  0.99822399484E+03  0.50400001928E-02 0. -1.
       -1    1    3    3    0  502 -0.49893372583E+03 -0.35012626466E+03 -0.14666242542E+03  0.62692354481E+03  0.50400001928E-02 0.  1.
</event>
<event>
 5   0  0.2544374E-04  0.1514346E+04  0.7818609E-02  0.8874969E-01
       -1   -1    0    0    0  501  0.00000000000E+00  0.00000000000E+00  0.44285306124E+03  0.44285306127E+03  0.50400001928E-02 0. -1.
        1   -1    0    0  501    0  0.00000000000E+00  0.00000000000E+00 -0.12945844912E+04  0.12945844912E+04  0.50400001928E-02 0.  1.
    10030    2    1    2    0    0  0.00000000000E+00  0.00000000000E+00 -0.85173142999E+03  0.17374375525E+04  0.15143456739E+04 0.  0.
        4    1    3    3  502    0 -0.74981608229E+03 -0.87837370008E+02 -0.35926652790E+03  0.83607033903E+03  0.12699999809E+01 0.  1.
       -4    1    3    3    0  502  0.74981608229E+03  0.87837370008E+02 -0.49246490209E+03  0.90136721347E+03  0.12699999809E+01 0. -1.
</event>
<event>
 5   0  0.2605471E-04  0.1506462E+04  0.7818609E-02  0.8880167E-01
        1   -1    0    0  501    0  0.00000000000E+00  0.00000000000E+00  0.15153743509E+04  0.15153743509E+04  0.50400001928E-02 0.  1.
       -1   -1    0    0    0  501  0.00000000000E+00  0.00000000000E+00 -0.37440066134E+03  0.37440066137E+03  0.50400001928E-02 0. -1.
    10030    2    1    2    0    0  0.00000000000E+00  0.00000000000E+00  0.11409736896E+04  0.18897750123E+04  0.15064622919E+04 0.  0.
        3    1    3    3  502    0  0.19019881300E+03  0.72772636180E+03  0.62060038288E+03  0.97514413886E+03  0.10100000352E+00 0.  1.
       -3    1    3    3    0  502 -0.19019881300E+03 -0.72772636180E+03  0.52037330672E+03  0.91463087346E+03  0.10100000352E+00 0. -1.
</event>
<event>
 5   0  0.1792000E-04  0.1494260E+04  0.7818609E-02  0.8888279E-01
        3   -1    0    0  501    0  0.00000000000E+00  0.00000000000E+00  0.41758673123E+03  0.41758674344E+03  0.10100000352E+00 0. -1.
       -3   -1    0    0    0  501  0.00000000000E+00  0.00000000000E+00 -0.13367366714E+04  0.13367366752E+04  0.10100000352E+00 0.  1.
    10030    2    1    2    0    0  0.00000000000E+00  0.00000000000E+00 -0.91914994017E+03  0.17543234187E+04  0.14942603671E+04 0.  0.
        4    1    3    3  502    0  0.21232757006E+03  0.33639862777E+03 -0.12020620056E+04  0.12661760194E+04  0.12699999809E+01 0.  1.
       -4    1    3    3    0  502 -0.21232757006E+03 -0.33639862777E+03  0.28291206544E+03  0.48814739930E+03  0.12699999809E+01 0. -1.
</event>
<event>
 5   0  0.2565416E-04  0.1500877E+04  0.7818609E-02  0.8883870E-01
       -1   -1    0    0    0  501  0.00000000000E+00  0.00000000000E+00  0.29281828120E+03  0.29281828124E+03  0.50400001928E-02 0.  1.
        1   -1    0    0  501    0  0.00000000000E+00  0.00000000000E+00 -0.19232341385E+04  0.19232341385E+04  0.50400001928E-02 0. -1.
    10030    2    1    2    0    0  0.00000000000E+00  0.00000000000E+00 -0.16304158573E+04  0.22160524198E+04  0.15008772299E+04 0.  0.
        5    1    3    3  502    0  0.52673023481E+03  0.32247259050E+03 -0.14445917373E+04  0.15710826488E+04  0.46999998093E+01 0. -1.
       -5    1    3    3    0  502 -0.52673023481E+03 -0.32247259050E+03 -0.18582412002E+03  0.64496977097E+03  0.46999998093E+01 0.  1.
</event>
<event>
 5   0  0.2605471E-04  0.1510198E+04  0.7818609E-02  0.8877700E-01
       -1   -1    0    0    0  501  0.00000000000E+00  0.00000000000E+00  0.91502734585E+03  0.91502734586E+03  0.50400001928E-02 0. -1.
        1   -1    0    0  501    0  0.00000000000E+00  0.00000000000E+00 -0.62312263907E+03  0.62312263909E+03  0.50400001928E-02 0.  1.
    10030    2    1    2    0    0  0.00000000000E+00  0.00000000000E+00  0.29190470678E+03  0.15381499850E+04  0.15101976753E+04 0.  0.
        3    1    3    3  502    0 -0.15034586449E+03  0.40494932406E+03 -0.48485463281E+03  0.64936265613E+03  0.10100000352E+00 0.  1.
       -3    1    3    3    0  502  0.15034586449E+03 -0.40494932406E+03  0.77675933959E+03  0.88878732882E+03  0.10100000352E+00 0. -1.
</event>
<event>
 5   0  0.4569211E-04  0.1505006E+04  0.7818609E-02  0.8881131E-01
       -2   -1    0    0    0  501  0.00000000000E+00  0.00000000000E+00  0.36301824774E+03  0.36301824775E+03  0.25500000920E-02 0. -1.
        2   -1    0    0  501    0  0.00000000000E+00  0.00000000000E+00 -0.15598678013E+04  0.15598678013E+04  0.25500000920E-02 0.  1.
    10030    2    1    2    0    0  0.00000000000E+00  0.00000000000E+00 -0.11968495536E+04  0.19228860491E+04  0.15050056159E+04 0.  0.
        5    1    3    3  502    0 -0.53773850449E+03 -0.56980764270E+02  0.70157796603E+02  0.54530148828E+03  0.46999998093E+01 0. -1.
       -5    1    3    3    0  502  0.53773850449E+03  0.56980764270E+02 -0.12670073502E+04  0.13775845608E+04  0.46999998093E+01 0.  1.
</event>
<event>
 5   0  0.2565416E-04  0.1512076E+04  0.7818609E-02  0.8876462E-01
        1   -1    0    0  501    0  0.00000000000E+00  0.00000000000E+00  0.88561458570E+03  0.88561458571E+03  0.50400001928E-02 0.  1.
       -1   -1    0    0    0  501  0.00000000000E+00  0.00000000000E+00 -0.64541993240E+03  0.64541993242E+03  0.50400001928E-02 0. -1.
    10030    2    1    2    0    0  0.00000000000E+00  0.00000000000E+00  0.24019465329E+03  0.15310345181E+04  0.15120757998E+04 0.  0.
        5    1    3    3  502    0 -0.21070820295E+03  0.51390614809E+03 -0.39924075479E+03  0.68404147983E+03  0.46999998093E+01 0. -1.
       -5    1    3    3    0  502  0.21070820295E+03 -0.51390614809E+03  0.63943540808E+03  0.84699303831E+03  0.46999998093E+01 0.  1.
</event>
<event>
 5   0  0.4569211E-04  0.1504084E+04  0.7818609E-02  0.8881742E-01
        2   -1    0    0  501    0  0.00000000000E+00  0.00000000000E+00  0.13932841702E+04  0.13932841702E+04  0.25500000920E-02 0. -1.
       -2   -1    0    0    0  501  0.00000000000E+00  0.00000000000E+00 -0.40592367837E+03  0.40592367838E+03  0.25500000920E-02 0.  1.
    10030    2    1    2    0    0  0.00000000000E+00  0.00000000000E+00  0.98736049183E+03  0.17992078486E+04  0.15040838213E+04 0.  0.
        5    1    3    3  502    0  0.74085291302E+03  0.84898545563E+02  0.37724639025E+03  0.83570792190E+03  0.46999998093E+01 0.  1.
       -5    1    3    3    0  502 -0.74085291302E+03 -0.84898545563E+02  0.61011410157E+03  0.96349992668E+03  0.46999998093E+01 0. -1.
</event>
<event>
 5   0  0.2544374E-04  0.1500731E+04  0.7818609E-02  0.8883967E-01
       -1   -1    0    0    0  501  0.00000000000E+00  0.00000000000E+00  0.85358905488E+03  0.85358905490E+03  0.50400001928E-02 0.  1.
        1   -1    0    0  501    0  0.00000000000E+00  0.00000000000E+00 -0.65962507423E+03  0.65962507425E+03  0.50400001928E-02 0. -1.
    10030    2    1    2    0    0  0.00000000000E+00  0.00000000000E+00  0.19396398065E+03  0.15132141291E+04  0.15007314799E+04 0.  0.
        4    1    3    3  502    0  0.45932634473E+03  0.41784022775E+03  0.52176505261E+03  0.81105581184E+03  0.12699999809E+01 0.  1.
       -4    1    3    3    0  502 -0.45932634473E+03 -0.41784022775E+03 -0.32780107196E+03  0.70215831731E+03  0.12699999809E+01 0. -1.
</event>
<event>
 5   0  0.2565416E-04  0.1499122E+04  0.7818609E-02  0.8885037E-01
       -1   -1    0    0    0  501  0.00000000000E+00  0.00000000000E+00  0.45005840221E+03  0.45005840223E+03  0.50400001928E-02 0. -1.
        1   -1    0    0  501    0  0.00000000000E+00  0.00000000000E+00 -0.12483747696E+04  0.12483747697E+04  0.50400001928E-02 0.  1.
    10030    2    1    2    0    0  0.00000000000E+00  0.00000000000E+00 -0.79831636744E+03  0.16984331719E+04  0.14991218152E+04 0.  0.
        5    1    3    3  502    0 -0.77609217272E+02  0.29094254594E+03 -0.11768195819E+04  0.12147416079E+04  0.46999998093E+01 0.  1.
       -5    1    3    3    0  502  0.77609217272E+02 -0.29094254594E+03  0.37850321450E+03  0.48369156394E+03  0.46999998093E+01 0. -1.
</event>
<event>
 5   0  0.4768387E-04  0.1501511E+04  0.7818609E-02  0.8883449E-01
        2   -1    0    0  501    0  0.00000000000E+00  0.00000000000E+00  0.78552131663E+03  0.78552131663E+03  0.25500000920E-02 0. -1.
       -2   -1    0    0    0  501  0.00000000000E+00  0.00000000000E+00 -0.71752825623E+03  0.71752825623E+03  0.25500000920E-02 0.  1.
    10030    2    1    2    0    0  0.00000000000E+00  0.00000000000E+00  0.67993060402E+02  0.15030495729E+04  0.15015108931E+04 0.  0.
        3    1    3    3  502    0  0.17973790639E+03  0.70768460532E+03  0.20884811971E+03  0.75943450205E+03  0.10100000352E+00 0.  1.
       -3    1    3    3    0  502 -0.17973790639E+03 -0.70768460532E+03 -0.14085505931E+03  0.74361507081E+03  0.10100000352E+00 0. -1.
</event>
<event>
 5   0  0.4569211E-04  0.1508924E+04  0.7818609E-02  0.8878540E-01
        2   -1    0    0  501    0  0.00000000000E+00  0.00000000000E+00  0.53557280474E+03  0.53557280475E+03  0.25500000920E-02 0. -1.
       -2   -1    0    0    0  501  0.00000000000E+00  0.00000000000E+00 -0.10628116578E+04  0.10628116578E+04  0.25500000920E-02 0.  1.
    10030    2    1    2    0    0  0.00000000000E+00  0.00000000000E+00 -0.52723885304E+03  0.15983844625E+04  0.15089241472E+04 0.  0.
        5    1    3    3  502    0  0.27074258351E+03 -0.31381135021E+03  0.40416183907E+03  0.57891967682E+03  0.46999998093E+01 0. -1.
       -5    1    3    3    0  502 -0.27074258351E+03  0.31381135021E+03 -0.93140069212E+03  0.10194647857E+04  0.46999998093E+01 0.  1.
</event>
<event>
 5   0  0.1792000E-04  0.1502598E+04  0.7818609E-02  0.8882727E-01
        3   -1    0    0  501    0  0.00000000000E+00  0.00000000000E+00  0.20857764523E+04  0.20857764548E+04  0.10100000352E+00 0. -1.
       -3   -1    0    0    0  501  0.00000000000E+00  0.00000000000E+00 -0.27061868321E+03  0.27061870205E+03  0.10100000352E+00 0.  1.
    10030    2    1    2    0    0  0.00000000000E+00  0.00000000000E+00  0.18151577691E+04  0.23563951569E+04  0.15025978864E+04 0.  0.
        2    1    3    3  502    0 -0.37662057261E+03  0.53643015975E+03  0.33170101603E+03  0.73459236046E+03  0.25500000920E-02 0.  1.
       -2    1    3    3    0  502  0.37662057261E+03 -0.53643015975E+03  0.14834567531E+04  0.16218027964E+04  0.25500000920E-02 0. -1.
</event>
<event>
 5   0  0.4785496E-04  0.1499772E+04  0.7818609E-02  0.8884604E-01
       -2   -1    0    0    0  501  0.00000000000E+00  0.00000000000E+00  0.61903722129E+03  0.61903722130E+03  0.25500000920E-02 0.  1.
        2   -1    0    0  501    0  0.00000000000E+00  0.00000000000E+00 -0.90839339740E+03  0.90839339740E+03  0.25500000920E-02 0. -1.
    10030    2    1    2    0    0  0.00000000000E+00  0.00000000000E+00 -0.28935617611E+03  0.15274306187E+04  0.14997724155E+04 0.  0.
        4    1    3    3  502    0 -0.45728840895E+03 -0.46872124388E+03  0.22745804534E+03  0.69321790853E+03  0.12699999809E+01 0.  1.
       -4    1    3    3    0  502  0.45728840895E+03  0.46872124388E+03 -0.51681422144E+03  0.83421271017E+03  0.12699999809E+01 0. -1.
</event>
<event>
 5   0  0.2542737E-04  0.1498608E+04  0.7818609E-02  0.8885379E-01
        1   -1    0    0  501    0  0.00000000000E+00  0.00000000000E+00  0.66647528587E+03  0.66647528589E+03  0.50400001928E-02 0.  1.
       -1   -1    0    0    0  501  0.00000000000E+00  0.00000000000E+00 -0.84242711290E+03  0.84242711292E+03  0.50400001928E-02 0. -1.
    10030    2    1    2    0    0  0.00000000000E+00  0.00000000000E+00 -0.17595182703E+03  0.15089023988E+04  0.14986084891E+04 0.  0.
        1    1    3    3  502    0 -0.70135737996E+03  0.26225712151E+03 -0.59929981861E+02  0.75118078713E+03  0.50400001928E-02 0. -1.
       -1    1    3    3    0  502  0.70135737996E+03 -0.26225712151E+03 -0.11602184517E+03  0.75772161167E+03  0.50400001928E-02 0.  1.
</event>
<event>
 5   0  0.2603873E-04  0.1495179E+04  0.7818609E-02  0.8887665E-01
        1   -1    0    0  501    0  0.00000000000E+00  0.00000000000E+00  0.96107937851E+03  0.96107937852E+03  0.50400001928E-02 0.  1.
       -1   -1    0    0    0  501  0.00000000000E+00  0.00000000000E+00 -0.58152362460E+03  0.58152362462E+03  0.50400001928E-02 0. -1.
    10030    2    1    2    0    0  0.00000000000E+00  0.00000000000E+00  0.37955575390E+03  0.15426030031E+04  0.14951794056E+04 0.  0.
        2    1    3    3  502    0 -0.27278191937E+02  0.22375585324E+03  0.92518314616E+03  0.95224715046E+03  0.25500000920E-02 0.  1.
       -2    1    3    3    0  502  0.27278191937E+02 -0.22375585324E+03 -0.54562739225E+03  0.59035585268E+03  0.25500000920E-02 0. -1.
</event>
<event>
 5   0  0.2544374E-04  0.1491223E+04  0.7818609E-02  0.8890311E-01
       -1   -1    0    0    0  501  0.00000000000E+00  0.00000000000E+00  0.63891416643E+03  0.63891416645E+03  0.50400001928E-02 0. -1.
        1   -1    0    0  501    0  0.00000000000E+00  0.00000000000E+00 -0.87012699973E+03  0.87012699974E+03  0.50400001928E-02 0.  1.
    10030    2    1    2    0    0  0.00000000000E+00  0.00000000000E+00 -0.23121283330E+03  0.15090411662E+04  0.14912229434E+04 0.  0.
        4    1    3    3  502    0 -0.21134304698E+03  0.54454700320E+02 -0.83707948997E+03  0.86506351404E+03  0.12699999809E+01 0.  1.
       -4    1    3    3    0  502  0.21134304698E+03 -0.54454700320E+02  0.60586665667E+03  0.64397765214E+03  0.12699999809E+01 0. -1.
</event>
<event>
 5   0  0.2544374E-04  0.1514818E+04  0.7818609E-02  0.8874658E-01
        1   -1    0    0  501    0  0.00000000000E+00  0.00000000000E+00  0.15105825651E+04  0.15105825651E+04  0.50400001928E-02 0.  1.
       -1   -1    0    0    0  501  0.00000000000E+00  0.00000000000E+00 -0.37976644677E+03  0.37976644680E+03  0.50400001928E-02 0. -1.
    10030    2    1    2    0    0  0.00000000000E+00  0.00000000000E+00  0.11308161183E+04  0.18903490119E+04  0.15148182377E+04 0.  0.
        4    1    3    3  502    0 -0.23470341469E+02  0.69577484825E+03  0.19309409907E+03  0.72245445557E+03  0.12699999809E+01 0. -1.
       -4    1    3    3    0  502  0.23470341469E+02 -0.69577484825E+03  0.93772201922E+03  0.11678945563E+04  0.12699999809E+01 0.  1.
</event>
<event>
 5   0  0.2542737E-04  0.1497953E+04  0.7818609E-02  0.8885815E-01
        1   -1    0    0  501    0  0.00000000000E+00  0.00000000000E+00  0.45254773281E+03  0.45254773284E+03  0.50400001928E-02 0. -1.
       -1   -1    0    0    0  501  0.00000000000E+00  0.00000000000E+00 -0.12395723191E+04  0.12395723191E+04  0.50400001928E-02 0.  1.
    10030    2    1    2    0    0  0.00000000000E+00  0.00000000000E+00 -0.78702458624E+03  0.16921200519E+04  0.14979527932E+04 0.  0.
        1    1    3    3  502    0  0.55437044284E+03  0.33142842163E+03  0.34842680649E+02  0.64682717860E+03  0.50400001928E-02 0. -1.
       -1    1    3    3    0  502 -0.55437044284E+03 -0.33142842163E+03 -0.82186726689E+03  0.10452928733E+04  0.50400001928E-02 0.  1.
</event>
<event>
 5   0  0.2565416E-04  0.1496985E+04  0.7818609E-02  0.8886460E-01
        1   -1    0    0  501    0  0.00000000000E+00  0.00000000000E+00  0.75767091823E+03  0.75767091824E+03  0.50400001928E-02 0. -1.
       -1   -1    0    0    0  501  0.00000000000E+00  0.00000000000E+00 -0.73942506835E+03  0.73942506837E+03  0.50400001928E-02 0.  1.
    10030    2    1    2    0    0  0.00000000000E+00  0.00000000000E+00  0.18245849879E+02  0.14970959866E+04  0.14969847969E+04 0.  0.
        5    1    3    3  502    0  0.10020626623E+03  0.73572779329E+03  0.10337481307E+03  0.74969668772E+03  0.46999998093E+01 0. -1.
       -5    1    3    3    0  502 -0.10020626623E+03 -0.73572779329E+03 -0.85128963194E+02  0.74739929889E+03  0.46999998093E+01 0.  1.
</event>
<event>
 5   0  0.4785496E-04  0.1434097E+04  0.7818609E-02  0.8929500E-01
       -2   -1    0    0    0  501  0.00000000000E+00  0.00000000000E+00  0.39865553471E+03  0.39865553472E+03  0.25500000920E-02 0.  1.
        2   -1    0    0  501    0  0.00000000000E+00  0.00000000000E+00 -0.12897322097E+04  0.12897322097E+04  0.25500000920E-02 0. -1.
    10030    2    1    2    0    0  0.00000000000E+00  0.00000000000E+00 -0.89107667502E+03  0.16883877444E+04  0.14340974635E+04 0.  0.
        4    1    3    3  502    0  0.40648907456E+03  0.58631406867E+03 -0.53010640778E+03  0.88882617610E+03  0.12699999809E+01 0. -1.
       -4    1    3    3    0  502 -0.40648907456E+03 -0.58631406867E+03 -0.36097026724E+03  0.79956156835E+03  0.12699999809E+01 0.  1.
</event>
<event>
 5   0  0.2565416E-04  0.1508546E+04  0.7818609E-02  0.8878790E-01
       -1   -1    0    0    0  501  0.00000000000E+00  0.00000000000E+00  0.43933039882E+03  0.43933039885E+03  0.50400001928E-02 0.  1.
        1   -1    0    0  501    0  0.00000000000E+00  0.00000000000E+00 -0.12949877909E+04  0.12949877909E+04  0.50400001928E-02 0. -1.
    10030    2    1    2    0    0  0.00000000000E+00  0.00000000000E+00 -0.85565739211E+03  0.17343181898E+04  0.15085456608E+04 0.  0.
        5    1    3    3  502    0  0.47661835937E+03  0.40554935952E+03 -0.91187624596E+03  0.11059727490E+04  0.46999998093E+01 0. -1.
       -5    1    3    3    0  502 -0.47661835937E+03 -0.40554935952E+03  0.56218853854E+02  0.62834544083E+03  0.46999998093E+01 0.  1.
</event>
<event>
 5   0  0.4785496E-04  0.1361894E+04  0.7818609E-02  0.8981873E-01
        2   -1    0    0  501    0  0.00000000000E+00  0.00000000000E+00  0.42627521970E+03  0.42627521971E+03  0.25500000920E-02 0.  1.
       -2   -1    0    0    0  501  0.00000000000E+00  0.00000000000E+00 -0.10877685711E+04  0.10877685711E+04  0.25500000920E-02 0. -1.
    10030    2    1    2    0    0  0.00000000000E+00  0.00000000000E+00 -0.66149335138E+03  0.15140437908E+04  0.13618939557E+04 0.  0.
        4    1    3    3  502    0 -0.49475779997E+03  0.11863091256E+03  0.17239517403E+03  0.53719668928E+03  0.12699999809E+01 0.  1.
       -4    1    3    3    0  502  0.49475779997E+03 -0.11863091256E+03 -0.83388852541E+03  0.97684710152E+03  0.12699999809E+01 0. -1.
</event>
<event>
 5   0  0.2542737E-04  0.1514713E+04  0.7818609E-02  0.8874728E-01
        1   -1    0    0  501    0  0.00000000000E+00  0.00000000000E+00  0.16570306757E+04  0.16570306757E+04  0.50400001928E-02 0. -1.
       -1   -1    0    0    0  501  0.00000000000E+00  0.00000000000E+00 -0.34615447472E+03  0.34615447476E+03  0.50400001928E-02 0.  1.
    10030    2    1    2    0    0  0.00000000000E+00  0.00000000000E+00  0.13108762010E+04  0.20031851505E+04  0.15147126238E+04 0.  0.
        1    1    3    3  502    0 -0.18550227321E+03 -0.21724850611E+03 -0.27217062622E+03  0.39456920379E+03  0.50400001928E-02 0.  1.
       -1    1    3    3    0  502  0.18550227321E+03  0.21724850611E+03  0.15830468272E+04  0.16086159467E+04  0.50400001928E-02 0. -1.
</event>
<event>
 5   0  0.4948645E-04  0.1500813E+04  0.7818609E-02  0.8883912E-01
        2   -1    0    0  501    0  0.00000000000E+00  0.00000000000E+00  0.74395324423E+03  0.74395324423E+03  0.25500000920E-02 0. -1.
       -2   -1    0    0    0  501  0.00000000000E+00  0.00000000000E+00 -0.75691607330E+03  0.75691607330E+03  0.25500000920E-02 0.  1.
    10030    2    1    2    0    0  0.00000000000E+00  0.00000000000E+00 -0.12962829067E+02  0.15008693175E+04  0.15008133373E+04 0.  0.
        1    1    3    3  502    0  0.73037970961E+02  0.39633971543E+03 -0.63950617322E+03  0.75590201801E+03  0.50400001928E-02 0.  1.
       -1    1    3    3    0  502 -0.73037970961E+02 -0.39633971543E+03  0.62654334415E+03  0.74496729952E+03  0.50400001928E-02 0. -1.
</event>
<event>
 5   0  0.2605471E-04  0.1471294E+04  0.7818609E-02  0.8903770E-01
        1   -1    0    0  501    0  0.00000000000E+00  0.00000000000E+00  0.10136494980E+04  0.10136494980E+04  0.50400001928E-02 0.  1.
       -1   -1    0    0    0  501  0.00000000000E+00  0.00000000000E+00 -0.53388937904E+03  0.53388937907E+03  0.50400001928E-02 0. -1.
    10030    2    1    2    0    0  0.00000000000E+00  0.00000000000E+00  0.47976011898E+03  0.15475388771E+04  0.14712942617E+04 0.  0.
        3    1    3    3  502    0  0.34929711191E+03 -0.19411272219E+03  0.88953498425E+03  0.97517214876E+03  0.10100000352E+00 0.  1.
       -3    1    3    3    0  502 -0.34929711191E+03  0.19411272219E+03 -0.40977486527E+03  0.57236672834E+03  0.10100000352E+00 0. -1.
</event>
<event>
 5   0  0.4726600E-04  0.1500416E+04  0.7818609E-02  0.8884176E-01
       -2   -1    0    0    0  501  0.00000000000E+00  0.00000000000E+00  0.37119198564E+03  0.37119198564E+03  0.25500000920E-02 0.  1.
        2   -1    0    0  501    0  0.00000000000E+00  0.00000000000E+00 -0.15162289671E+04  0.15162289671E+04  0.25500000920E-02 0. -1.
    10030    2    1    2    0    0  0.00000000000E+00  0.00000000000E+00 -0.11450369815E+04  0.18874209527E+04  0.15004159970E+04 0.  0.
        2    1    3    3  502    0  0.86830323850E+02  0.67634460337E+03 -0.17906423033E+03  0.70501455747E+03  0.25500000920E-02 0.  1.
       -2    1    3    3    0  502 -0.86830323850E+02 -0.67634460337E+03 -0.96597275113E+03  0.11824063953E+04  0.25500000920E-02 0. -1.
</event>
<event>
 5   0  0.2542737E-04  0.1500901E+04  0.7818609E-02  0.8883854E-01
       -1   -1    0    0    0  501  0.00000000000E+00  0.00000000000E+00  0.53091121731E+03  0.53091121733E+03  0.50400001928E-02 0. -1.
        1   -1    0    0  501    0  0.00000000000E+00  0.00000000000E+00 -0.10607719334E+04  0.10607719334E+04  0.50400001928E-02 0.  1.
    10030    2    1    2    0    0  0.00000000000E+00  0.00000000000E+00 -0.52986071606E+03  0.15916831507E+04  0.15009006875E+04 0.  0.
        1    1    3    3  502    0  0.42228914360E+03 -0.57072753036E+03 -0.70825954644E+01  0.71000577314E+03  0.50400001928E-02 0. -1.
       -1    1    3    3    0  502 -0.42228914360E+03  0.57072753036E+03 -0.52277812059E+03  0.88167737757E+03  0.50400001928E-02 0.  1.
</event>
<event>
 5   0  0.2605471E-04  0.1461106E+04  0.7818609E-02  0.8910737E-01
        1   -1    0    0  501    0  0.00000000000E+00  0.00000000000E+00  0.41899780863E+03  0.41899780866E+03  0.50400001928E-02 0.  1.
       -1   -1    0    0    0  501  0.00000000000E+00  0.00000000000E+00 -0.12737713229E+04  0.12737713229E+04  0.50400001928E-02 0. -1.
    10030    2    1    2    0    0  0.00000000000E+00  0.00000000000E+00 -0.85477351422E+03  0.16927691315E+04  0.14611055992E+04 0.  0.
        3    1    3    3  502    0 -0.22788357271E+03  0.19715070090E+03 -0.11984196720E+04  0.12357220732E+04  0.10100000352E+00 0. -1.
       -3    1    3    3    0  502  0.22788357271E+03 -0.19715070090E+03  0.34364615781E+03  0.45704705836E+03  0.10100000352E+00 0.  1.
</event>
<event>
 5   0  0.2542737E-04  0.1380298E+04  0.7818609E-02  0.8968204E-01
       -1   -1    0    0    0  501  0.00000000000E+00  0.00000000000E+00  0.68475338954E+03  0.68475338956E+03  0.50400001928E-02 0.  1.
        1   -1    0    0  501    0  0.00000000000E+00  0.00000000000E+00 -0.69558762676E+03  0.69558762678E+03  0.50400001928E-02 0. -1.
    10030    2    1    2    0    0  0.00000000000E+00  0.00000000000E+00 -0.10834237224E+02  0.13803410163E+04  0.13802984969E+04 0.  0.
        1    1    3    3  502    0 -0.62050476754E+03 -0.39982568412E+02 -0.30489456029E+03  0.69252109372E+03  0.50400001928E-02 0.  1.
       -1    1    3    3    0  502  0.62050476754E+03  0.39982568412E+02  0.29406032307E+03  0.68781992262E+03  0.50400001928E-02 0. -1.
</event>
<event>
 5   0  0.4569211E-04  0.1499301E+04  0.7818609E-02  0.8884918E-01
       -2   -1    0    0    0  501  0.00000000000E+00  0.00000000000E+00  0.72194525384E+03  0.72194525384E+03  0.25500000920E-02 0. -1.
        2   -1    0    0  501    0  0.00000000000E+00  0.00000000000E+00 -0.77841849245E+03  0.77841849245E+03  0.25500000920E-02 0.  1.
    10030    2    1    2    0    0  0.00000000000E+00  0.00000000000E+00 -0.56473238612E+02  0.15003637463E+04  0.14993005518E+04 0.  0.
        5    1    3    3  502    0  0.42131062656E+03 -0.61096557334E+03  0.77535401792E+02  0.74620064620E+03  0.46999998093E+01 0. -1.
       -5    1    3    3    0  502 -0.42131062656E+03  0.61096557334E+03 -0.13400864040E+03  0.75416310010E+03  0.46999998093E+01 0.  1.
</event>
<event>
 5   0  0.4768387E-04  0.1502127E+04  0.7818609E-02  0.8883040E-01
        2   -1    0    0  501    0  0.00000000000E+00  0.00000000000E+00  0.94712562622E+03  0.94712562622E+03  0.25500000920E-02 0. -1.
       -2   -1    0    0    0  501  0.00000000000E+00  0.00000000000E+00 -0.59558736081E+03  0.59558736081E+03  0.25500000920E-02 0.  1.
    10030    2    1    2    0    0  0.00000000000E+00  0.00000000000E+00  0.35153826541E+03  0.15427129870E+04  0.15021265620E+04 0.  0.
        3    1    3    3  502    0 -0.15692355748E+03  0.30082329876E+03 -0.51239234486E+03  0.61454502296E+03  0.10100000352E+00 0.  1.
       -3    1    3    3    0  502  0.15692355748E+03 -0.30082329876E+03  0.86393061027E+03  0.92816796407E+03  0.10100000352E+00 0. -1.
</event>
<event>
 5   0  0.4948645E-04  0.1534111E+04  0.7818609E-02  0.8862081E-01
        2   -1    0    0  501    0  0.00000000000E+00  0.00000000000E+00  0.18963615472E+04  0.18963615472E+04  0.25500000920E-02 0.  1.
       -2   -1    0    0    0  501  0.00000000000E+00  0.00000000000E+00 -0.31026471961E+03  0.31026471962E+03  0.25500000920E-02 0. -1.
    10030    2    1    2    0    0  0.00000000000E+00  0.00000000000E+00  0.15860968276E+04  0.22066262668E+04  0.15341109265E+04 0.  0.
        1    1    3    3  502    0 -0.58123514320E+03  0.34062269118E+03  0.13205927334E+04  0.14825057427E+04  0.50400001928E-02 0.  1.
       -1    1    3    3    0  502  0.58123514320E+03 -0.34062269118E+03  0.26550409415E+03  0.72412052414E+03  0.50400001928E-02 0. -1.
</event>
<event>
 5   0  0.2603873E-04  0.1506282E+04  0.7818609E-02  0.8880286E-01
        1   -1    0    0  501    0  0.00000000000E+00  0.00000000000E+00  0.98373986023E+03  0.98373986024E+03  0.50400001928E-02 0. -1.
       -1   -1    0    0    0  501  0.00000000000E+00  0.00000000000E+00 -0.57659707367E+03  0.57659707369E+03  0.50400001928E-02 0.  1.
    10030    2    1    2    0    0  0.00000000000E+00  0.00000000000E+00  0.40714278656E+03  0.15603369339E+04  0.15062822109E+04 0.  0.
        2    1    3    3  502    0 -0.22805402964E+03 -0.38834869885E+03 -0.42174546394E+03  0.61700290818E+03  0.25500000920E-02 0.  1.
       -2    1    3    3    0  502  0.22805402964E+03  0.38834869885E+03  0.82888825050E+03  0.94333402576E+03  0.25500000920E-02 0. -1.
</event>
<event>
 5   0  0.2542737E-04  0.1496687E+04  0.7818609E-02  0.8886659E-01
       -1   -1    0    0    0  501  0.00000000000E+00  0.00000000000E+00  0.48348700894E+03  0.48348700896E+03  0.50400001928E-02 0. -1.
        1   -1    0    0  501    0  0.00000000000E+00  0.00000000000E+00 -0.11582901996E+04  0.11582901996E+04  0.50400001928E-02 0.  1.
    10030    2    1    2    0    0  0.00000000000E+00  0.00000000000E+00 -0.67480319066E+03  0.16417772086E+04  0.14966873610E+04 0.  0.
        1    1    3    3  502    0  0.21815835764E+03  0.65009070280E+03 -0.86719385057E+01  0.68577415628E+03  0.50400001928E-02 0. -1.
       -1    1    3    3    0  502 -0.21815835764E+03 -0.65009070280E+03 -0.66613125216E+03  0.95600305230E+03  0.50400001928E-02 0.  1.
</event>
<event>
 5   0  0.4569211E-04  0.1500099E+04  0.7818609E-02  0.8884387E-01
       -2   -1    0    0    0  501  0.00000000000E+00  0.00000000000E+00  0.13345419393E+04  0.13345419393E+04  0.25500000920E-02 0.  1.
        2   -1    0    0  501    0  0.00000000000E+00  0.00000000000E+00 -0.42154856839E+03  0.42154856840E+03  0.25500000920E-02 0. -1.
    10030    2    1    2    0    0  0.00000000000E+00  0.00000000000E+00  0.91299337087E+03  0.17560905077E+04  0.15000989887E+04 0.  0.
        5    1    3    3  502    0  0.37763472696E+03  0.64546417973E+03  0.38904287927E+03  0.84297594641E+03  0.46999998093E+01 0. -1.
       -5    1    3    3    0  502 -0.37763472696E+03 -0.64546417973E+03  0.52395049160E+03  0.91311456125E+03  0.46999998093E+01 0.  1.
</event>
<event>
 5   0  0.2605471E-04  0.1505312E+04  0.7818609E-02  0.8880928E-01
       -1   -1    0    0    0  501  0.00000000000E+00  0.00000000000E+00  0.57380821543E+03  0.57380821545E+03  0.50400001928E-02 0.  1.
        1   -1    0    0  501    0  0.00000000000E+00  0.00000000000E+00 -0.98724811594E+03  0.98724811596E+03  0.50400001928E-02 0. -1.
    10030    2    1    2    0    0  0.00000000000E+00  0.00000000000E+00 -0.41343990051E+03  0.15610563314E+04  0.15053120336E+04 0.  0.
        3    1    3    3  502    0  0.35971282820E+03 -0.66015891959E+03 -0.24393698801E+03  0.79038495823E+03  0.10100000352E+00 0. -1.
       -3    1    3    3    0  502 -0.35971282820E+03  0.66015891959E+03 -0.16950291251E+03  0.77067137317E+03  0.10100000352E+00 0.  1.
</event>
<event>
 5   0  0.2544374E-04  0.1505499E+04  0.7818609E-02  0.8880804E-01
       -1   -1    0    0    0  501  0.00000000000E+00  0.00000000000E+00  0.14589456435E+04  0.14589456435E+04  0.50400001928E-02 0.  1.
        1   -1    0    0  501    0  0.00000000000E+00  0.00000000000E+00 -0.38838441980E+03  0.38838441983E+03  0.50400001928E-02 0. -1.
    10030    2    1    2    0    0  0.00000000000E+00  0.00000000000E+00  0.10705612237E+04  0.18473300634E+04  0.15054989303E+04 0.  0.
        4    1    3    3  502    0  0.54483948658E+03 -0.11459310346E+03  0.11569126809E+04  0.12839120724E+04  0.12699999809E+01 0.  1.
       -4    1    3    3    0  502 -0.54483948658E+03  0.11459310346E+03 -0.86351457171E+02  0.56341799098E+03  0.12699999809E+01 0. -1.
</event>
<event>
 5   0  0.4569211E-04  0.1503723E+04  0.7818609E-02  0.8881981E-01
        2   -1    0    0  501    0  0.00000000000E+00  0.00000000000E+00  0.73925110418E+03  0.73925110418E+03  0.25500000920E-02 0.  1.
       -2   -1    0    0    0  501  0.00000000000E+00  0.00000000000E+00 -0.76468748771E+03  0.76468748771E+03  0.25500000920E-02 0. -1.
    10030    2    1    2    0    0  0.00000000000E+00  0.00000000000E+00 -0.25436383528E+02  0.15039385919E+04  0.15037234714E+04 0.  0.
        5    1    3    3  502    0  0.97643820557E+02 -0.49666218299E+03  0.54329869234E+03  0.74256528252E+03  0.46999998093E+01 0.  1.
       -5    1    3    3    0  502 -0.97643820557E+02  0.49666218299E+03 -0.56873507587E+03  0.76137330937E+03  0.46999998093E+01 0. -1.
</event>
<event>
 5   0  0.2565416E-04  0.1511235E+04  0.7818609E-02  0.8877016E-01
        1   -1    0    0  501    0  0.00000000000E+00  0.00000000000E+00  0.21986477857E+04  0.21986477857E+04  0.50400001928E-02 0.  1.
       -1   -1    0    0    0  501  0.00000000000E+00  0.00000000000E+00 -0.25968576752E+03  0.25968576757E+03  0.50400001928E-02 0. -1.
    10030    2    1    2    0    0  0.00000000000E+00  0.00000000000E+00  0.19389620182E+04  0.24583335533E+04  0.15112346447E+04 0.  0.
        5    1    3    3  502    0  0.40616276657E+02  0.56161680649E+03  0.17891086403E+04  0.18756318765E+04  0.46999998093E+01 0.  1.
       -5    1    3    3    0  502 -0.40616276657E+02 -0.56161680649E+03  0.14985337786E+03  0.58270167678E+03  0.46999998093E+01 0. -1.
</event>
<event>
 5   0  0.4569211E-04  0.1501938E+04  0.7818609E-02  0.8883166E-01
        2   -1    0    0  501    0  0.00000000000E+00  0.00000000000E+00  0.13243680244E+04  0.13243680244E+04  0.25500000920E-02 0.  1.
       -2   -1    0    0    0  501  0.00000000000E+00  0.00000000000E+00 -0.42582881956E+03  0.42582881957E+03  0.25500000920E-02 0. -1.
    10030    2    1    2    0    0  0.00000000000E+00  0.00000000000E+00  0.89853920484E+03  0.17501968440E+04  0.15019375120E+04 0.  0.
        5    1    3    3  502    0  0.47079305430E+03  0.32708228563E+02  0.11299602137E+04  0.12245603712E+04  0.46999998093E+01 0.  1.
       -5    1    3    3    0  502 -0.47079305430E+03 -0.32708228563E+02 -0.23142100884E+03  0.52563647278E+03  0.46999998093E+01 0. -1.
</event>
<event>
 5   0  0.4785496E-04  0.1386290E+04  0.7818609E-02  0.8963803E-01
        2   -1    0    0  501    0  0.00000000000E+00  0.00000000000E+00  0.54156975664E+03  0.54156975664E+03  0.25500000920E-02 0.  1.
       -2   -1    0    0    0  501  0.00000000000E+00  0.00000000000E+00 -0.88714348891E+03  0.88714348892E+03  0.25500000920E-02 0. -1.
    10030    2    1    2    0    0  0.00000000000E+00  0.00000000000E+00 -0.34557373227E+03  0.14287132456E+04  0.13862901333E+04 0.  0.
        4    1    3    3  502    0  0.46601303467E+03 -0.30332404208E+03  0.25373149680E+03  0.61119138439E+03  0.12699999809E+01 0. -1.
       -4    1    3    3    0  502 -0.46601303467E+03  0.30332404208E+03 -0.59930522908E+03  0.81752186117E+03  0.12699999809E+01 0.  1.
</event>
<event>
 5   0  0.4948645E-04  0.1449077E+04  0.7818609E-02  0.8919040E-01
       -2   -1    0    0    0  501  0.00000000000E+00  0.00000000000E+00  0.11768430818E+04  0.11768430818E+04  0.25500000920E-02 0. -1.
        2   -1    0    0  501    0  0.00000000000E+00  0.00000000000E+00 -0.44607162270E+03  0.44607162270E+03  0.25500000920E-02 0.  1.
    10030    2    1    2    0    0  0.00000000000E+00  0.00000000000E+00  0.73077145908E+03  0.16229147045E+04  0.14490773660E+04 0.  0.
        1    1    3    3  502    0 -0.33727746958E+03  0.27637968678E+03  0.10134323326E+04  0.11032619433E+04  0.50400001928E-02 0.  1.
       -1    1    3    3    0  502  0.33727746958E+03 -0.27637968678E+03 -0.28266087352E+03  0.51965276118E+03  0.50400001928E-02 0. -1.
</event>
<event>
 5   0  0.4948645E-04  0.1500985E+04  0.7818609E-02  0.8883798E-01
        2   -1    0    0  501    0  0.00000000000E+00  0.00000000000E+00  0.11595096806E+04  0.11595096806E+04  0.25500000920E-02 0. -1.
       -2   -1    0    0    0  501  0.00000000000E+00  0.00000000000E+00 -0.48575616584E+03  0.48575616584E+03  0.25500000920E-02 0.  1.
    10030    2    1    2    0    0  0.00000000000E+00  0.00000000000E+00  0.67375351480E+03  0.16452658465E+04  0.15009849789E+04 0.  0.
        1    1    3    3  502    0 -0.67637593357E+03  0.26456460072E+03  0.12959581558E+03  0.73774921682E+03  0.50400001928E-02 0.  1.
       -1    1    3    3    0  502  0.67637593357E+03 -0.26456460072E+03  0.54415769922E+03  0.90751662966E+03  0.50400001928E-02 0. -1.
</event>
<event>
 5   0  0.2603873E-04  0.1502439E+04  0.7818609E-02  0.8882833E-01
       -1   -1    0    0    0  501  0.00000000000E+00  0.00000000000E+00  0.34500230337E+03  0.34500230340E+03  0.50400001928E-02 0. -1.
        1   -1    0    0  501    0  0.00000000000E+00  0.00000000000E+00 -0.16357295328E+04  0.16357295328E+04  0.50400001928E-02 0.  1.
    10030    2    1    2    0    0  0.00000000000E+00  0.00000000000E+00 -0.12907272294E+04  0.19807318362E+04  0.15024386264E+04 0.  0.
        2    1    3    3  502    0  0.58743813132E+03  0.27698814817E+03 -0.14765672797E+03  0.66603941451E+03  0.25500000920E-02 0. -1.
       -2    1    3    3    0  502 -0.58743813132E+03 -0.27698814817E+03 -0.11430705015E+04  0.13146924217E+04  0.25500000920E-02 0.  1.
</event>
<event>
 5   0  0.4948645E-04  0.1494504E+04  0.7818609E-02  0.8888116E-01
       -2   -1    0    0    0  501  0.00000000000E+00  0.00000000000E+00  0.36378154206E+03  0.36378154207E+03  0.25500000920E-02 0.  1.
        2   -1    0    0  501    0  0.00000000000E+00  0.00000000000E+00 -0.15349483499E+04  0.15349483499E+04  0.25500000920E-02 0. -1.
    10030    2    1    2    0    0  0.00000000000E+00  0.00000000000E+00 -0.11711668078E+04  0.18987298920E+04  0.14945044365E+04 0.  0.
        1    1    3    3  502    0 -0.31299804929E+03  0.67706525200E+03 -0.64241131229E+03  0.98441730405E+03  0.50400001928E-02 0.  1.
       -1    1    3    3    0  502  0.31299804929E+03 -0.67706525200E+03 -0.52875549555E+03  0.91431258792E+03  0.50400001928E-02 0. -1.
</event>
<event>
 5   0  0.2565416E-04  0.1499683E+04  0.7818609E-02  0.8884664E-01
        1   -1    0    0  501    0  0.00000000000E+00  0.00000000000E+00  0.75666795095E+03  0.75666795096E+03  0.50400001928E-02 0.  1.
       -1   -1    0    0    0  501  0.00000000000E+00  0.00000000000E+00 -0.74307656785E+03  0.74307656787E+03  0.50400001928E-02 0. -1.
    10030    2    1    2    0    0  0.00000000000E+00  0.00000000000E+00  0.13591383092E+02  0.14997445188E+04  0.14996829318E+04 0.  0.
        5    1    3    3  502    0  0.49220637485E+03 -0.36009617242E+03  0.44305180416E+03  0.75382581542E+03  0.46999998093E+01 0.  1.
       -5    1    3    3    0  502 -0.49220637485E+03  0.36009617242E+03 -0.42946042107E+03  0.74591870341E+03  0.46999998093E+01 0. -1.
</event>
<event>
 5   0  0.2605471E-04  0.1496287E+04  0.7818609E-02  0.8886926E-01
        1   -1    0    0  501    0  0.00000000000E+00  0.00000000000E+00  0.84548208252E+03  0.84548208253E+03  0.50400001928E-02 0.  1.
       -1   -1    0    0    0  501  0.00000000000E+00  0.00000000000E+00 -0.66201159506E+03  0.66201159508E+03  0.50400001928E-02 0. -1.
    10030    2    1    2    0    0  0.00000000000E+00  0.00000000000E+00  0.18347048746E+03  0.15074936776E+04  0.14962873281E+04 0.  0.
        3    1    3    3  502    0 -0.47923851847E+03 -0.24978346735E+03 -0.42949581482E+03  0.69031007764E+03  0.10100000352E+00 0. -1.
       -3    1    3    3    0  502  0.47923851847E+03  0.24978346735E+03  0.61296630228E+03  0.81718359998E+03  0.10100000352E+00 0.  1.
</event>
<event>
 5   0  0.4785496E-04  0.1496789E+04  0.7818609E-02  0.8886591E-01
        2   -1    0    0  501    0  0.00000000000E+00  0.00000000000E+00  0.55757374351E+03  0.55757374351E+03  0.25500000920E-02 0.  1.
       -2   -1    0    0    0  501  0.00000000000E+00  0.00000000000E+00 -0.10045209933E+04  0.10045209933E+04  0.25500000920E-02 0. -1.
    10030    2    1    2    0    0  0.00000000000E+00  0.00000000000E+00 -0.44694724976E+03  0.15620947368E+04  0.14967892713E+04 0.  0.
        4    1    3    3  502    0  0.30864957498E+03  0.18315052333E+03  0.46190176115E+03  0.58494745420E+03  0.12699999809E+01 0.  1.
       -4    1    3    3    0  502 -0.30864957498E+03 -0.18315052333E+03 -0.90884901091E+03  0.97714728259E+03  0.12699999809E+01 0. -1.
</event>
<event>
 5   0  0.2544374E-04  0.1490733E+04  0.7818609E-02  0.8890639E-01
       -1   -1    0    0    0  501  0.00000000000E+00  0.00000000000E+00  0.34473886070E+03  0.34473886073E+03  0.50400001928E-02 0.  1.
        1   -1    0    0  501    0  0.00000000000E+00  0.00000000000E+00 -0.16115722551E+04  0.16115722551E+04  0.50400001928E-02 0. -1.
    10030    2    1    2    0    0  0.00000000000E+00  0.00000000000E+00 -0.12668333944E+04  0.19563111158E+04  0.14907334882E+04 0.  0.
        4    1    3    3  502    0  0.62680433649E+03 -0.12910795603E+03 -0.13195211507E+03  0.65342598213E+03  0.12699999809E+01 0.  1.
       -4    1    3    3    0  502 -0.62680433649E+03  0.12910795603E+03 -0.11348812793E+04  0.13028851337E+04  0.12699999809E+01 0. -1.
</event>
<event>
 5   0  0.4768387E-04  0.1503731E+04  0.7818609E-02  0.8881976E-01
       -2   -1    0    0    0  501  0.00000000000E+00  0.00000000000E+00  0.94668959604E+03  0.94668959605E+03  0.25500000920E-02 0.  1.
        2   -1    0    0  501    0  0.00000000000E+00  0.00000000000E+00 -0.59713490019E+03  0.59713490020E+03  0.25500000920E-02 0. -1.
    10030    2    1    2    0    0  0.00000000000E+00  0.00000000000E+00  0.34955469585E+03  0.15438244962E+04  0.15037305576E+04 0.  0.
        3    1    3    3  502    0 -0.70445549319E+03  0.18294711329E+03  0.36841752372E+03  0.81575650174E+03  0.10100000352E+00 0.  1.
       -3    1    3    3    0  502  0.70445549319E+03 -0.18294711329E+03 -0.18862827871E+02  0.72806799450E+03  0.10100000352E+00 0. -1.
</event>
<event>
 5   0  0.4768387E-04  0.1523297E+04  0.7818609E-02  0.8869107E-01
        2   -1    0    0  501    0  0.00000000000E+00  0.00000000000E+00  0.58967822391E+03  0.58967822391E+03  0.25500000920E-02 0. -1.
       -2   -1    0    0    0  501  0.00000000000E+00  0.00000000000E+00 -0.98377100200E+03  0.98377100200E+03  0.25500000920E-02 0.  1.
    10030    2    1    2    0    0  0.00000000000E+00  0.00000000000E+00 -0.39409277809E+03  0.15734492259E+04  0.15232968682E+04 0.  0.
        3    1    3    3  502    0 -0.38753651142E+03  0.20388483635E+03 -0.84074488767E+03  0.94794807374E+03  0.10100000352E+00 0.  1.
       -3    1    3    3    0  502  0.38753651142E+03 -0.20388483635E+03  0.44665210958E+03  0.62550115217E+03  0.10100000352E+00 0. -1.
</event>
<event>
 5   0  0.4768387E-04  0.1566010E+04  0.7818609E-02  0.8841706E-01
        2   -1    0    0  501    0  0.00000000000E+00  0.00000000000E+00  0.19180706075E+04  0.19180706075E+04  0.25500000920E-02 0. -1.
       -2   -1    0    0    0  501  0.00000000000E+00  0.00000000000E+00 -0.31964240273E+03  0.31964240274E+03  0.25500000920E-02 0.  1.
    10030    2    1    2    0    0  0.00000000000E+00  0.00000000000E+00  0.15984282047E+04  0.22377130102E+04  0.15660098309E+04 0.  0.
        3    1    3    3  502    0  0.15918945981E+02 -0.41465109340E+03  0.17480339632E+04  0.17966111679E+04  0.10100000352E+00 0. -1.
       -3    1    3    3    0  502 -0.15918945981E+02  0.41465109340E+03 -0.14960575844E+03  0.44110184228E+03  0.10100000352E+00 0.  1.
</event>
<event>
 5   0  0.2603873E-04  0.1497263E+04  0.7818609E-02  0.8886275E-01
       -1   -1    0    0    0  501  0.00000000000E+00  0.00000000000E+00  0.33364285307E+03  0.33364285310E+03  0.50400001928E-02 0. -1.
        1   -1    0    0  501    0  0.00000000000E+00  0.00000000000E+00 -0.16797866951E+04  0.16797866951E+04  0.50400001928E-02 0.  1.
    10030    2    1    2    0    0  0.00000000000E+00  0.00000000000E+00 -0.13461438421E+04  0.20134295482E+04  0.14972626030E+04 0.  0.
        2    1    3    3  502    0  0.22754676532E+03 -0.64508654293E+03 -0.26400849877E+03  0.73322211213E+03  0.25500000920E-02 0. -1.
       -2    1    3    3    0  502 -0.22754676532E+03  0.64508654293E+03 -0.10821353433E+04  0.12802074361E+04  0.25500000920E-02 0.  1.
</event>
<event>
 5   0  0.4569211E-04  0.1510076E+04  0.7818609E-02  0.8877780E-01
        2   -1    0    0  501    0  0.00000000000E+00  0.00000000000E+00  0.16272853410E+04  0.16272853410E+04  0.25500000920E-02 0. -1.
       -2   -1    0    0    0  501  0.00000000000E+00  0.00000000000E+00 -0.35032743665E+03  0.35032743666E+03  0.25500000920E-02 0.  1.
    10030    2    1    2    0    0  0.00000000000E+00  0.00000000000E+00  0.12769579044E+04  0.19776127777E+04  0.15100764249E+04 0.  0.
        5    1    3    3  502    0 -0.24226846907E+03 -0.10458502362E+03  0.15649105983E+04  0.15870095491E+04  0.46999998093E+01 0. -1.
       -5    1    3    3    0  502  0.24226846907E+03  0.10458502362E+03 -0.28795269391E+03  0.39060322860E+03  0.46999998093E+01 0.  1.
</event>
<event>
 5   0  0.4569211E-04  0.1454140E+04  0.7818609E-02  0.8915535E-01
        2   -1    0    0  501    0  0.00000000000E+00  0.00000000000E+00  0.21671951148E+04  0.21671951148E+04  0.25500000920E-02 0. -1.
       -2   -1    0    0    0  501  0.00000000000E+00  0.00000000000E+00 -0.24392393878E+03  0.24392393880E+03  0.25500000920E-02 0.  1.
    10030    2    1    2    0    0  0.00000000000E+00  0.00000000000E+00  0.19232711760E+04  0.24111190536E+04  0.14541399775E+04 0.  0.
        5    1    3    3  502    0 -0.71009551736E+03 -0.55125413376E+02  0.71944856903E+03  0.10123748261E+04  0.46999998093E+01 0.  1.
       -5    1    3    3    0  502  0.71009551736E+03  0.55125413376E+02  0.12038226070E+04  0.13987442275E+04  0.46999998093E+01 0. -1.
</event>
<event>
 5   0  0.4785496E-04  0.1503263E+04  0.7818609E-02  0.8882286E-01
       -2   -1    0    0    0  501  0.00000000000E+00  0.00000000000E+00  0.76291807503E+03  0.76291807503E+03  0.25500000920E-02 0.  1.
        2   -1    0    0  501    0  0.00000000000E+00  0.00000000000E+00 -0.74051161101E+03  0.74051161102E+03  0.25500000920E-02 0. -1.
    10030    2    1    2    0    0  0.00000000000E+00  0.00000000000E+00  0.22406464011E+02  0.15034296860E+04  0.15032627087E+04 0.  0.
        4    1    3    3  502    0 -0.32477929309E+03 -0.53997977653E+03 -0.39858406728E+03  0.74560755084E+03  0.12699999809E+01 0. -1.
       -4    1    3    3    0  502  0.32477929309E+03  0.53997977653E+03  0.42099053129E+03  0.75782213521E+03  0.12699999809E+01 0.  1.
</event>
<event>
 5   0  0.4785496E-04  0.1502884E+04  0.7818609E-02  0.8882537E-01
        2   -1    0    0  501    0  0.00000000000E+00  0.00000000000E+00  0.36370647908E+03  0.36370647908E+03  0.25500000920E-02 0.  1.
       -2   -1    0    0    0  501  0.00000000000E+00  0.00000000000E+00 -0.15525306000E+04  0.15525306000E+04  0.25500000920E-02 0. -1.
    10030    2    1    2    0    0  0.00000000000E+00  0.00000000000E+00 -0.11888241209E+04  0.19162370791E+04  0.15028844775E+04 0.  0.
        4    1    3    3  502    0 -0.24198031071E+03  0.40596651678E+03  0.15047791457E+03  0.49599243865E+03  0.12699999809E+01 0.  1.
       -4    1    3    3    0  502  0.24198031071E+03 -0.40596651678E+03 -0.13393020355E+04  0.14202446404E+04  0.12699999809E+01 0. -1.
</event>
<event>
 5   0  0.2603873E-04  0.1510978E+04  0.7818609E-02  0.8877185E-01
       -1   -1    0    0    0  501  0.00000000000E+00  0.00000000000E+00  0.97505108948E+03  0.97505108949E+03  0.50400001928E-02 0.  1.
        1   -1    0    0  501    0  0.00000000000E+00  0.00000000000E+00 -0.58536778963E+03  0.58536778965E+03  0.50400001928E-02 0. -1.
    10030    2    1    2    0    0  0.00000000000E+00  0.00000000000E+00  0.38968329985E+03  0.15604188791E+04  0.15109778305E+04 0.  0.
        2    1    3    3  502    0  0.69613618972E+03  0.25806849329E+03  0.50413604778E+02  0.74414143375E+03  0.25500000920E-02 0. -1.
       -2    1    3    3    0  502 -0.69613618972E+03 -0.25806849329E+03  0.33926969507E+03  0.81627744540E+03  0.25500000920E-02 0.  1.
</event>
<event>
 5   0  0.4768387E-04  0.1317912E+04  0.7818609E-02  0.9015480E-01
        2   -1    0    0  501    0  0.00000000000E+00  0.00000000000E+00  0.73517095753E+03  0.73517095754E+03  0.25500000920E-02 0. -1.
       -2   -1    0    0    0  501  0.00000000000E+00  0.00000000000E+00 -0.59064246134E+03  0.59064246134E+03  0.25500000920E-02 0.  1.
    10030    2    1    2    0    0  0.00000000000E+00  0.00000000000E+00  0.14452849620E+03  0.13258134189E+04  0.13179122640E+04 0.  0.
        3    1    3    3  502    0 -0.45867128617E+03 -0.22440469470E+03  0.49127828866E+03  0.70858392790E+03  0.10100000352E+00 0.  1.
       -3    1    3    3    0  502  0.45867128617E+03  0.22440469470E+03 -0.34674979247E+03  0.61722949098E+03  0.10100000352E+00 0. -1.
</event>
<event>
 5   0  0.2544374E-04  0.1502855E+04  0.7818609E-02  0.8882557E-01
       -1   -1    0    0    0  501  0.00000000000E+00  0.00000000000E+00  0.67045787517E+03  0.67045787519E+03  0.50400001928E-02 0.  1.
        1   -1    0    0  501    0  0.00000000000E+00  0.00000000000E+00 -0.84217564474E+03  0.84217564475E+03  0.50400001928E-02 0. -1.
    10030    2    1    2    0    0  0.00000000000E+00  0.00000000000E+00 -0.17171776957E+03  0.15126335199E+04  0.15028550074E+04 0.  0.
        4    1    3    3  502    0 -0.57069820899E+02  0.56367481789E+03  0.41096752298E+03  0.69991583967E+03  0.12699999809E+01 0.  1.
       -4    1    3    3    0  502  0.57069820899E+02 -0.56367481789E+03 -0.58268529255E+03  0.81271768027E+03  0.12699999809E+01 0. -1.
</event>
<event>
 5   0  0.4948645E-04  0.1486817E+04  0.7818609E-02  0.8893267E-01
       -2   -1    0    0    0  501  0.00000000000E+00  0.00000000000E+00  0.46164575822E+03  0.46164575823E+03  0.25500000920E-02 0. -1.
        2   -1    0    0  501    0  0.00000000000E+00  0.00000000000E+00 -0.11971439504E+04  0.11971439504E+04  0.25500000920E-02 0.  1.
    10030    2    1    2    0    0  0.00000000000E+00  0.00000000000E+00 -0.73549819213E+03  0.16587897086E+04  0.14868173078E+04 0.  0.
        1    1    3    3  502    0 -0.97956108645E+02 -0.50300313936E+03 -0.96860358846E+03  0.10958104166E+04  0.50400001928E-02 0.  1.
       -1    1    3    3    0  502  0.97956108645E+02  0.50300313936E+03  0.23310539633E+03  0.56297929203E+03  0.50400001928E-02 0. -1.
</event>
<event>
 5   0  0.4726600E-04  0.1495852E+04  0.7818609E-02  0.8887216E-01
        2   -1    0    0  501    0  0.00000000000E+00  0.00000000000E+00  0.13442606363E+04  0.13442606363E+04  0.25500000920E-02 0. -1.
       -2   -1    0    0    0  501  0.00000000000E+00  0.00000000000E+00 -0.41613447140E+03  0.41613447141E+03  0.25500000920E-02 0.  1.
    10030    2    1    2    0    0  0.00000000000E+00  0.00000000000E+00  0.92812616491E+03  0.17603951077E+04  0.14958518501E+04 0.  0.
        2    1    3    3  502    0  0.10601908132E+03  0.67262214450E+03  0.82818890985E+03  0.10721741767E+04  0.25500000920E-02 0. -1.
       -2    1    3    3    0  502 -0.10601908132E+03 -0.67262214450E+03  0.99937255063E+02  0.68822093098E+03  0.25500000920E-02 0.  1.
</event>
<event>
 5   0  0.2544374E-04  0.1497488E+04  0.7818609E-02  0.8886125E-01
       -1   -1    0    0    0  501  0.00000000000E+00  0.00000000000E+00  0.44985102280E+03  0.44985102283E+03  0.50400001928E-02 0.  1.
        1   -1    0    0  501    0  0.00000000000E+00  0.00000000000E+00 -0.12462293875E+04  0.12462293876E+04  0.50400001928E-02 0. -1.
    10030    2    1    2    0    0  0.00000000000E+00  0.00000000000E+00 -0.79637836475E+03  0.16960804104E+04  0.14974879828E+04 0.  0.
        4    1    3    3  502    0  0.85627103857E+02 -0.72952004038E+03 -0.56265072110E+03  0.92526155064E+03  0.12699999809E+01 0. -1.
       -4    1    3    3    0  502 -0.85627103857E+02  0.72952004038E+03 -0.23372764365E+03  0.77081885974E+03  0.12699999809E+01 0.  1.
</event>
<event>
 5   0  0.2603873E-04  0.1491863E+04  0.7818609E-02  0.8889882E-01
       -1   -1    0    0    0  501  0.00000000000E+00  0.00000000000E+00  0.38608559508E+03  0.38608559511E+03  0.50400001928E-02 0.  1.
        1   -1    0    0  501    0  0.00000000000E+00  0.00000000000E+00 -0.14411663381E+04  0.14411663381E+04  0.50400001928E-02 0. -1.
    10030    2    1    2    0    0  0.00000000000E+00  0.00000000000E+00 -0.10550807430E+04  0.18272519332E+04  0.14918626790E+04 0.  0.
        2    1    3    3  502    0 -0.40717243145E+03  0.24064487588E+03 -0.12340291376E+04  0.13215624305E+04  0.25500000920E-02 0. -1.
       -2    1    3    3    0  502  0.40717243145E+03 -0.24064487588E+03  0.17894839460E+03  0.50568950271E+03  0.25500000920E-02 0.  1.
</event>
<event>
 5   0  0.4785496E-04  0.1503832E+04  0.7818609E-02  0.8881908E-01
       -2   -1    0    0    0  501  0.00000000000E+00  0.00000000000E+00  0.35676651154E+03  0.35676651155E+03  0.25500000920E-02 0. -1.
        2   -1    0    0  501    0  0.00000000000E+00  0.00000000000E+00 -0.15847283869E+04  0.15847283869E+04  0.25500000920E-02 0.  1.
    10030    2    1    2    0    0  0.00000000000E+00  0.00000000000E+00 -0.12279618754E+04  0.19414948984E+04  0.15038324619E+04 0.  0.
        4    1    3    3  502    0  0.73491003147E+02 -0.12681801135E+03 -0.15661046940E+04  0.15729492239E+04  0.12699999809E+01 0.  1.
       -4    1    3    3    0  502 -0.73491003147E+02  0.12681801135E+03  0.33814281862E+03  0.36854567455E+03  0.12699999809E+01 0. -1.
</event>
<event>
 5   0  0.4785496E-04  0.1485111E+04  0.7818609E-02  0.8894415E-01
        2   -1    0    0  501    0  0.00000000000E+00  0.00000000000E+00  0.13990365406E+04  0.13990365406E+04  0.25500000920E-02 0.  1.
       -2   -1    0    0    0  501  0.00000000000E+00  0.00000000000E+00 -0.39412045125E+03  0.39412045126E+03  0.25500000920E-02 0. -1.
    10030    2    1    2    0    0  0.00000000000E+00  0.00000000000E+00  0.10049160893E+04  0.17931569918E+04  0.14851113261E+04 0.  0.
        4    1    3    3  502    0  0.47840542798E+03 -0.39455551976E+03  0.99564471612E+03  0.11729688083E+04  0.12699999809E+01 0.  1.
       -4    1    3    3    0  502 -0.47840542798E+03  0.39455551976E+03  0.92713732012E+01  0.62018818350E+03  0.12699999809E+01 0. -1.
</event>
<event>
 5   0  0.2544374E-04  0.1515595E+04  0.7818609E-02  0.8874148E-01
       -1   -1    0    0    0  501  0.00000000000E+00  0.00000000000E+00  0.45630876809E+03  0.45630876812E+03  0.50400001928E-02 0. -1.
        1   -1    0    0  501    0  0.00000000000E+00  0.00000000000E+00 -0.12584840729E+04  0.12584840729E+04  0.50400001928E-02 0.  1.
    10030    2    1    2    0    0  0.00000000000E+00  0.00000000000E+00 -0.80217530479E+03  0.17147928410E+04  0.15155953510E+04 0.  0.
        4    1    3    3  502    0 -0.12612693129E+03 -0.21277879522E+03 -0.12115221688E+04  0.12365154252E+04  0.12699999809E+01 0.  1.
       -4    1    3    3    0  502  0.12612693129E+03  0.21277879522E+03  0.40934686399E+03  0.47827741578E+03  0.12699999809E+01 0. -1.
</event>
<event>
 5   0  0.2603873E-04  0.1503716E+04  0.7818609E-02  0.8881986E-01
        1   -1    0    0  501    0  0.00000000000E+00  0.00000000000E+00  0.64925660946E+03  0.64925660948E+03  0.50400001928E-02 0.  1.
       -1   -1    0    0    0  501  0.00000000000E+00  0.00000000000E+00 -0.87067324793E+03  0.87067324795E+03  0.50400001928E-02 0. -1.
    10030    2    1    2    0    0  0.00000000000E+00  0.00000000000E+00 -0.22141663847E+03  0.15199298574E+04  0.15037158787E+04 0.  0.
        2    1    3    3  502    0  0.34851675329E+03  0.19376053684E+03 -0.75498474372E+03  0.85382025991E+03  0.25500000920E-02 0. -1.
       -2    1    3    3    0  502 -0.34851675329E+03 -0.19376053684E+03  0.53356810525E+03  0.66610959752E+03  0.25500000920E-02 0.  1.
</event>
<event>
 5   0  0.4569211E-04  0.1500052E+04  0.7818609E-02  0.8884418E-01
       -2   -1    0    0    0  501  0.00000000000E+00  0.00000000000E+00  0.72152499437E+03  0.72152499438E+03  0.25500000920E-02 0.  1.
        2   -1    0    0  501    0  0.00000000000E+00  0.00000000000E+00 -0.77965270996E+03  0.77965270996E+03  0.25500000920E-02 0. -1.
    10030    2    1    2    0    0  0.00000000000E+00  0.00000000000E+00 -0.58127715582E+02  0.15011777043E+04  0.15000518887E+04 0.  0.
        5    1    3    3  502    0 -0.36690427332E+03  0.54435232116E+03 -0.39207378903E+03  0.76464510812E+03  0.46999998093E+01 0. -1.
       -5    1    3    3    0  502  0.36690427332E+03 -0.54435232116E+03  0.33394607345E+03  0.73653259622E+03  0.46999998093E+01 0.  1.
</event>
<event>
 5   0  0.4569211E-04  0.1501573E+04  0.7818609E-02  0.8883408E-01
       -2   -1    0    0    0  501  0.00000000000E+00  0.00000000000E+00  0.54588088463E+03  0.54588088464E+03  0.25500000920E-02 0.  1.
        2   -1    0    0  501    0  0.00000000000E+00  0.00000000000E+00 -0.10326062232E+04  0.10326062232E+04  0.25500000920E-02 0. -1.
    10030    2    1    2    0    0  0.00000000000E+00  0.00000000000E+00 -0.48672533860E+03  0.15784871079E+04  0.15015725072E+04 0.  0.
        5    1    3    3  502    0 -0.27274165728E+03  0.21799239945E+03  0.45532426566E+03  0.57380395148E+03  0.46999998093E+01 0.  1.
       -5    1    3    3    0  502  0.27274165728E+03 -0.21799239945E+03 -0.94204960427E+03  0.10046831564E+04  0.46999998093E+01 0. -1.
</event>
<event>
 5   0  0.2565416E-04  0.1338137E+04  0.7818609E-02  0.8999857E-01
        1   -1    0    0  501    0  0.00000000000E+00  0.00000000000E+00  0.68235635354E+03  0.68235635356E+03  0.50400001928E-02 0. -1.
       -1   -1    0    0    0  501  0.00000000000E+00  0.00000000000E+00 -0.65603958161E+03  0.65603958163E+03  0.50400001928E-02 0.  1.
    10030    2    1    2    0    0  0.00000000000E+00  0.00000000000E+00  0.26316771925E+02  0.13383959352E+04  0.13381371779E+04 0.  0.
        5    1    3    3  502    0 -0.11478358793E+03  0.15810630380E+03  0.65317102758E+03  0.68178248483E+03  0.46999998093E+01 0. -1.
       -5    1    3    3    0  502  0.11478358793E+03 -0.15810630380E+03 -0.62685425565E+03  0.65661345036E+03  0.46999998093E+01 0.  1.
</event>
<event>
 5   0  0.4726600E-04  0.1511606E+04  0.7818609E-02  0.8876772E-01
       -2   -1    0    0    0  501  0.00000000000E+00  0.00000000000E+00  0.54328266776E+03  0.54328266777E+03  0.25500000920E-02 0.  1.
        2   -1    0    0  501    0  0.00000000000E+00  0.00000000000E+00 -0.10514565422E+04  0.10514565423E+04  0.25500000920E-02 0. -1.
    10030    2    1    2    0    0  0.00000000000E+00  0.00000000000E+00 -0.50817387449E+03  0.15947392100E+04  0.15116059213E+04 0.  0.
        2    1    3    3  502    0  0.71616674422E+02 -0.10853388478E+03 -0.10395668953E+04  0.10476678300E+04  0.25500000920E-02 0. -1.
       -2    1    3    3    0  502 -0.71616674422E+02  0.10853388478E+03  0.53139302084E+03  0.54707137999E+03  0.25500000920E-02 0.  1.
</event>
<event>
 5   0  0.2544374E-04  0.1503717E+04  0.7818609E-02  0.8881985E-01
        1   -1    0    0  501    0  0.00000000000E+00  0.00000000000E+00  0.75648476721E+03  0.75648476723E+03  0.50400001928E-02 0. -1.
       -1   -1    0    0    0  501  0.00000000000E+00  0.00000000000E+00 -0.74726094462E+03  0.74726094464E+03  0.50400001928E-02 0.  1.
    10030    2    1    2    0    0  0.00000000000E+00  0.00000000000E+00  0.92238225961E+01  0.15037457119E+04  0.15037174226E+04 0.  0.
        4    1    3    3  502    0  0.68028380516E+03  0.16154478823E+03  0.28103551667E+03  0.75356841009E+03  0.12699999809E+01 0.  1.
       -4    1    3    3    0  502 -0.68028380516E+03 -0.16154478823E+03 -0.27181169407E+03  0.75017730177E+03  0.12699999809E+01 0. -1.
</event>
<event>
 5   0  0.4768387E-04  0.1502640E+04  0.7818609E-02  0.8882699E-01
        2   -1    0    0  501    0  0.00000000000E+00  0.00000000000E+00  0.63093971512E+03  0.63093971512E+03  0.25500000920E-02 0. -1.
       -2   -1    0    0    0  501  0.00000000000E+00  0.00000000000E+00 -0.89466813088E+03  0.89466813088E+03  0.25500000920E-02 0.  1.
    10030    2    1    2    0    0  0.00000000000E+00  0.00000000000E+00 -0.26372841576E+03  0.15256078460E+04  0.15026398845E+04 0.  0.
        3    1    3    3  502    0 -0.11776137416E+03  0.55442322506E+03  0.36885643094E+03  0.67624546621E+03  0.10100000352E+00 0. -1.
       -3    1    3    3    0  502  0.11776137416E+03 -0.55442322506E+03 -0.63258484670E+03  0.84936237979E+03  0.10100000352E+00 0.  1.
</event>
<event>
 5   0  0.4569211E-04  0.1497905E+04  0.7818609E-02  0.8885848E-01
        2   -1    0    0  501    0  0.00000000000E+00  0.00000000000E+00  0.81408482657E+03  0.81408482657E+03  0.25500000920E-02 0. -1.
       -2   -1    0    0    0  501  0.00000000000E+00  0.00000000000E+00 -0.68903087643E+03  0.68903087643E+03  0.25500000920E-02 0.  1.
    10030    2    1    2    0    0  0.00000000000E+00  0.00000000000E+00  0.12505395014E+03  0.15031157030E+04  0.14979046452E+04 0.  0.
        5    1    3    3  502    0 -0.22260268296E+03  0.73358213100E+02  0.77632015112E+03  0.81094293814E+03  0.46999998093E+01 0. -1.
       -5    1    3    3    0  502  0.22260268296E+03 -0.73358213100E+02 -0.65126620098E+03  0.69217276487E+03  0.46999998093E+01 0.  1.
</event>
<event>
 5   0  0.4726600E-04  0.1513612E+04  0.7818609E-02  0.8875451E-01
        2   -1    0    0  501    0  0.00000000000E+00  0.00000000000E+00  0.14246573172E+04  0.14246573172E+04  0.25500000920E-02 0.  1.
       -2   -1    0    0    0  501  0.00000000000E+00  0.00000000000E+00 -0.40203025027E+03  0.40203025027E+03  0.25500000920E-02 0. -1.
    10030    2    1    2    0    0  0.00000000000E+00  0.00000000000E+00  0.10226270669E+04  0.18266875675E+04  0.15136120213E+04 0.  0.
        2    1    3    3  502    0 -0.33437908694E+03  0.85249423697E+02 -0.30156153523E+03  0.45827524214E+03  0.25500000920E-02 0. -1.
       -2    1    3    3    0  502  0.33437908694E+03 -0.85249423697E+02  0.13241886021E+04  0.13684123253E+04  0.25500000920E-02 0.  1.
</event>
<event>
 5   0  0.2605471E-04  0.1451882E+04  0.7818609E-02  0.8917097E-01
       -1   -1    0    0    0  501  0.00000000000E+00  0.00000000000E+00  0.49240506046E+03  0.49240506048E+03  0.50400001928E-02 0. -1.
        1   -1    0    0  501    0  0.00000000000E+00  0.00000000000E+00 -0.10702367255E+04  0.10702367255E+04  0.50400001928E-02 0.  1.
    10030    2    1    2    0    0  0.00000000000E+00  0.00000000000E+00 -0.57783166504E+03  0.15626417860E+04  0.14518815097E+04 0.  0.
        3    1    3    3  502    0 -0.13163420768E+03  0.45345671976E+03  0.30454655332E+03  0.56187113706E+03  0.10100000352E+00 0. -1.
       -3    1    3    3    0  502  0.13163420768E+03 -0.45345671976E+03 -0.88237821836E+03  0.10007706489E+04  0.10100000352E+00 0.  1.
</event>
<event>
 5   0  0.4726600E-04  0.1496143E+04  0.7818609E-02  0.8887022E-01
        2   -1    0    0  501    0  0.00000000000E+00  0.00000000000E+00  0.17274490633E+04  0.17274490633E+04  0.25500000920E-02 0. -1.
       -2   -1    0    0    0  501  0.00000000000E+00  0.00000000000E+00 -0.32395226969E+03  0.32395226970E+03  0.25500000920E-02 0.  1.
    10030    2    1    2    0    0  0.00000000000E+00  0.00000000000E+00  0.14034967936E+04  0.20514013330E+04  0.14961431012E+04 0.  0.
        2    1    3    3  502    0 -0.43274648613E+03  0.34517096299E+03  0.13916832568E+04  0.14977298829E+04  0.25500000920E-02 0. -1.
       -2    1    3    3    0  502  0.43274648613E+03 -0.34517096299E+03  0.11813536800E+02  0.55367145006E+03  0.25500000920E-02 0.  1.
</event>
<event>
 5   0  0.2565416E-04  0.1516270E+04  0.7818609E-02  0.8873705E-01
       -1   -1    0    0    0  501  0.00000000000E+00  0.00000000000E+00  0.52781356300E+03  0.52781356302E+03  0.50400001928E-02 0. -1.
        1   -1    0    0  501    0  0.00000000000E+00  0.00000000000E+00 -0.10889613420E+04  0.10889613420E+04  0.50400001928E-02 0.  1.
    10030    2    1    2    0    0  0.00000000000E+00  0.00000000000E+00 -0.56114777899E+03  0.16167749050E+04  0.15162698519E+04 0.  0.
        5    1    3    3  502    0  0.40038981691E+03  0.67311495987E+02 -0.96324880208E+03  0.10453292245E+04  0.46999998093E+01 0.  1.
       -5    1    3    3    0  502 -0.40038981691E+03 -0.67311495987E+02  0.40210102308E+03  0.57144568048E+03  0.46999998093E+01 0. -1.
</event>
<event>
 5   0  0.2544374E-04  0.1489107E+04  0.7818609E-02  0.8891729E-01
        1   -1    0    0  501    0  0.00000000000E+00  0.00000000000E+00  0.20630550848E+04  0.20630550848E+04  0.50400001928E-02 0.  1.
       -1   -1    0    0    0  501  0.00000000000E+00  0.00000000000E+00 -0.26870830624E+03  0.26870830629E+03  0.50400001928E-02 0. -1.
    10030    2    1    2    0    0  0.00000000000E+00  0.00000000000E+00  0.17943467786E+04  0.23317633911E+04  0.14891071655E+04 0.  0.
        4    1    3    3  502    0 -0.26480705181E+03  0.60329842692E+02 -0.18837349207E+03  0.33052783548E+03  0.12699999809E+01 0. -1.
       -4    1    3    3    0  502  0.26480705181E+03 -0.60329842692E+02  0.19827202707E+04  0.20012355556E+04  0.12699999809E+01 0.  1.
</event>
<event>
 5   0  0.4768387E-04  0.1314825E+04  0.7818609E-02  0.9017891E-01
       -2   -1    0    0    0  501  0.00000000000E+00  0.00000000000E+00  0.38082099575E+03  0.38082099575E+03  0.25500000920E-02 0.  1.
        2   -1    0    0  501    0  0.00000000000E+00  0.00000000000E+00 -0.11348930434E+04  0.11348930434E+04  0.25500000920E-02 0. -1.
    10030    2    1    2    0    0  0.00000000000E+00  0.00000000000E+00 -0.75407204768E+03  0.15157140392E+04  0.13148248535E+04 0.  0.
        3    1    3    3  502    0  0.29151017626E+03 -0.40284606066E+03  0.11870020039E+03  0.51122683735E+03  0.10100000352E+00 0.  1.
       -3    1    3    3    0  502 -0.29151017626E+03  0.40284606066E+03 -0.87277224807E+03  0.10044872018E+04  0.10100000352E+00 0. -1.
</event>
<event>
 5   0  0.2605471E-04  0.1499136E+04  0.7818609E-02  0.8885028E-01
       -1   -1    0    0    0  501  0.00000000000E+00  0.00000000000E+00  0.72364147117E+03  0.72364147119E+03  0.50400001928E-02 0.  1.
        1   -1    0    0  501    0  0.00000000000E+00  0.00000000000E+00 -0.77642349383E+03  0.77642349385E+03  0.50400001928E-02 0. -1.
    10030    2    1    2    0    0  0.00000000000E+00  0.00000000000E+00 -0.52782022659E+02  0.15000649650E+04  0.14991360704E+04 0.  0.
        3    1    3    3  502    0 -0.58211287249E+03  0.32337649358E+03  0.31795079277E+03  0.73791630267E+03  0.10100000352E+00 0. -1.
       -3    1    3    3    0  502  0.58211287249E+03 -0.32337649358E+03 -0.37073281543E+03  0.76214866237E+03  0.10100000352E+00 0.  1.
</event>
<event>
 5   0  0.2603873E-04  0.1501606E+04  0.7818609E-02  0.8883386E-01
        1   -1    0    0  501    0  0.00000000000E+00  0.00000000000E+00  0.72507172651E+03  0.72507172653E+03  0.50400001928E-02 0. -1.
       -1   -1    0    0    0  501  0.00000000000E+00  0.00000000000E+00 -0.77744691616E+03  0.77744691618E+03  0.50400001928E-02 0.  1.
    10030    2    1    2    0    0  0.00000000000E+00  0.00000000000E+00 -0.52375189645E+02  0.15025186427E+04  0.15016055112E+04 0.  0.
        2    1    3    3  502    0  0.12543035714E+03 -0.17143357903E+03  0.69437706343E+03  0.72614168916E+03  0.25500000920E-02 0. -1.
       -2    1    3    3    0  502 -0.12543035714E+03  0.17143357903E+03 -0.74675225308E+03  0.77637695354E+03  0.25500000920E-02 0.  1.
</event>
<event>
 5   0  0.2603873E-04  0.1472280E+04  0.7818609E-02  0.8903099E-01
        1   -1    0    0  501    0  0.00000000000E+00  0.00000000000E+00  0.10696106539E+04  0.10696106539E+04  0.50400001928E-02 0. -1.
       -1   -1    0    0    0  501  0.00000000000E+00  0.00000000000E+00 -0.50663469222E+03  0.50663469225E+03  0.50400001928E-02 0.  1.
    10030    2    1    2    0    0  0.00000000000E+00  0.00000000000E+00  0.56297596163E+03  0.15762453461E+04  0.14722796806E+04 0.  0.
        2    1    3    3  502    0  0.67193086456E+02  0.11338067803E+03 -0.49390059883E+03  0.51118283476E+03  0.25500000920E-02 0.  1.
       -2    1    3    3    0  502 -0.67193086456E+02 -0.11338067803E+03  0.10568765605E+04  0.10650625114E+04  0.25500000920E-02 0. -1.
</event>
<event>
 5   0  0.4785496E-04  0.1496901E+04  0.7818609E-02  0.8886517E-01
        2   -1    0    0  501    0  0.00000000000E+00  0.00000000000E+00  0.43318932351E+03  0.43318932352E+03  0.25500000920E-02 0. -1.
       -2   -1    0    0    0  501  0.00000000000E+00  0.00000000000E+00 -0.12931477004E+04  0.12931477004E+04  0.25500000920E-02 0.  1.
    10030    2    1    2    0    0  0.00000000000E+00  0.00000000000E+00 -0.85995837685E+03  0.17263370239E+04  0.14969005011E+04 0.  0.
        4    1    3    3  502    0  0.11109378972E+03  0.68925977251E+03 -0.74105408859E+03  0.10181275162E+04  0.12699999809E+01 0. -1.
       -4    1    3    3    0  502 -0.11109378972E+03 -0.68925977251E+03 -0.11890428825E+03  0.70820950768E+03  0.12699999809E+01 0.  1.
</event>
<event>
 5   0  0.2544374E-04  0.1494417E+04  0.7818609E-02  0.8888174E-01
       -1   -1    0    0    0  501  0.00000000000E+00  0.00000000000E+00  0.94832322051E+03  0.94832322053E+03  0.50400001928E-02 0.  1.
        1   -1    0    0  501    0  0.00000000000E+00  0.00000000000E+00 -0.58874461881E+03  0.58874461883E+03  0.50400001928E-02 0. -1.
    10030    2    1    2    0    0  0.00000000000E+00  0.00000000000E+00  0.35957860170E+03  0.15370678394E+04  0.14944165323E+04 0.  0.
        4    1    3    3  502    0 -0.54702276712E+03 -0.49671581884E+03  0.29412889777E+03  0.79528229820E+03  0.12699999809E+01 0.  1.
       -4    1    3    3    0  502  0.54702276712E+03  0.49671581884E+03  0.65449703939E+02  0.74178554116E+03  0.12699999809E+01 0. -1.
</event>
<event>
 5   0  0.2542737E-04  0.1500934E+04  0.7818609E-02  0.8883832E-01
        1   -1    0    0  501    0  0.00000000000E+00  0.00000000000E+00  0.10727316248E+04  0.10727316248E+04  0.50400001928E-02 0.  1.
       -1   -1    0    0    0  501  0.00000000000E+00  0.00000000000E+00 -0.52501566780E+03  0.52501566783E+03  0.50400001928E-02 0. -1.
    10030    2    1    2    0    0  0.00000000000E+00  0.00000000000E+00  0.54771595696E+03  0.15977472926E+04  0.15009342562E+04 0.  0.
        1    1    3    3  502    0  0.23817099848E+03  0.46814901927E+03 -0.29673088275E+03  0.60327286162E+03  0.50400001928E-02 0. -1.
       -1    1    3    3    0  502 -0.23817099848E+03 -0.46814901927E+03  0.84444683971E+03  0.99447443098E+03  0.50400001928E-02 0.  1.
</event>
<event>
 5   0  0.4569211E-04  0.1494543E+04  0.7818609E-02  0.8888090E-01
       -2   -1    0    0    0  501  0.00000000000E+00  0.00000000000E+00  0.33081021378E+03  0.33081021379E+03  0.25500000920E-02 0. -1.
        2   -1    0    0  501    0  0.00000000000E+00  0.00000000000E+00 -0.16880215168E+04  0.16880215168E+04  0.25500000920E-02 0.  1.
    10030    2    1    2    0    0  0.00000000000E+00  0.00000000000E+00 -0.13572113030E+04  0.20188317306E+04  0.14945430858E+04 0.  0.
        5    1    3    3  502    0  0.24789656452E+03 -0.69063251964E+03 -0.86947872436E+03  0.11377351739E+04  0.46999998093E+01 0. -1.
       -5    1    3    3    0  502 -0.24789656452E+03  0.69063251964E+03 -0.48773257867E+03  0.88109655667E+03  0.46999998093E+01 0.  1.
</event>
<event>
 5   0  0.4948645E-04  0.1490217E+04  0.7818609E-02  0.8890985E-01
       -2   -1    0    0    0  501  0.00000000000E+00  0.00000000000E+00  0.38507270569E+03  0.38507270570E+03  0.25500000920E-02 0.  1.
        2   -1    0    0  501    0  0.00000000000E+00  0.00000000000E+00 -0.14417701255E+04  0.14417701255E+04  0.25500000920E-02 0. -1.
    10030    2    1    2    0    0  0.00000000000E+00  0.00000000000E+00 -0.10566974199E+04  0.18268428312E+04  0.14902165255E+04 0.  0.
        1    1    3    3  502    0 -0.16216599187E+02  0.56329547307E+03  0.69229464364E+02  0.56776534487E+03  0.50400001928E-02 0.  1.
       -1    1    3    3    0  502  0.16216599187E+02 -0.56329547307E+03 -0.11259268842E+04  0.12590774864E+04  0.50400001928E-02 0. -1.
</event>
<event>
 5   0  0.4948645E-04  0.1501780E+04  0.7818609E-02  0.8883270E-01
       -2   -1    0    0    0  501  0.00000000000E+00  0.00000000000E+00  0.30876701715E+03  0.30876701716E+03  0.25500000920E-02 0.  1.
        2   -1    0    0  501    0  0.00000000000E+00  0.00000000000E+00 -0.18260877479E+04  0.18260877479E+04  0.25500000920E-02 0. -1.
    10030    2    1    2    0    0  0.00000000000E+00  0.00000000000E+00 -0.15173207307E+04  0.21348547650E+04  0.15017798334E+04 0.  0.
        1    1    3    3  502    0 -0.16788343816E+03  0.17331278497E+03  0.25215397877E+03  0.34900401040E+03  0.50400001928E-02 0.  1.
       -1    1    3    3    0  502  0.16788343816E+03 -0.17331278497E+03 -0.17694747095E+04  0.17858507546E+04  0.50400001928E-02 0. -1.
</event>
<event>
 5   0  0.2605471E-04  0.1513527E+04  0.7818609E-02  0.8875507E-01
        1   -1    0    0  501    0  0.00000000000E+00  0.00000000000E+00  0.98748494904E+03  0.98748494905E+03  0.50400001928E-02 0.  1.
       -1   -1    0    0    0  501  0.00000000000E+00  0.00000000000E+00 -0.57994946069E+03  0.57994946071E+03  0.50400001928E-02 0. -1.
    10030    2    1    2    0    0  0.00000000000E+00  0.00000000000E+00  0.40753548835E+03  0.15674344098E+04  0.15135274872E+04 0.  0.
        3    1    3    3  502    0  0.39626167115E+03 -0.53885032899E+03 -0.16282941448E+03  0.68840134914E+03  0.10100000352E+00 0. -1.
       -3    1    3    3    0  502 -0.39626167115E+03  0.53885032899E+03  0.57036490283E+03  0.87903306062E+03  0.10100000352E+00 0.  1.
</event>
<event>
 5   0  0.4569211E-04  0.1508277E+04  0.7818609E-02  0.8878967E-01
       -2   -1    0    0    0  501  0.00000000000E+00  0.00000000000E+00  0.55668206251E+03  0.55668206251E+03  0.25500000920E-02 0. -1.
        2   -1    0    0  501    0  0.00000000000E+00  0.00000000000E+00 -0.10216332325E+04  0.10216332325E+04  0.25500000920E-02 0.  1.
    10030    2    1    2    0    0  0.00000000000E+00  0.00000000000E+00 -0.46495116999E+03  0.15783152950E+04  0.15082770236E+04 0.  0.
        5    1    3    3  502    0  0.14143832935E+03  0.51792174299E+03 -0.78664722820E+03  0.95240941013E+03  0.46999998093E+01 0.  1.
       -5    1    3    3    0  502 -0.14143832935E+03 -0.51792174299E+03  0.32169605821E+03  0.62590588488E+03  0.46999998093E+01 0. -1.
</event>
<event>
 5   0  0.4726600E-04  0.1490402E+04  0.7818609E-02  0.8890861E-01
        2   -1    0    0  501    0  0.00000000000E+00  0.00000000000E+00  0.69259567392E+03  0.69259567392E+03  0.25500000920E-02 0.  1.
       -2   -1    0    0    0  501  0.00000000000E+00  0.00000000000E+00 -0.80180172228E+03  0.80180172229E+03  0.25500000920E-02 0. -1.
    10030    2    1    2    0    0  0.00000000000E+00  0.00000000000E+00 -0.10920604837E+03  0.14943973962E+04  0.14904018306E+04 0.  0.
        2    1    3    3  502    0  0.10462720755E+03 -0.46735577637E+03  0.51785322839E+03  0.70536532409E+03  0.25500000920E-02 0.  1.
       -2    1    3    3    0  502 -0.10462720755E+03  0.46735577637E+03 -0.62705927676E+03  0.78903207212E+03  0.25500000920E-02 0. -1.
</event>
<event>
 5   0  0.2565416E-04  0.1488246E+04  0.7818609E-02  0.8892307E-01
       -1   -1    0    0    0  501  0.00000000000E+00  0.00000000000E+00  0.20086744167E+03  0.20086744173E+03  0.50400001928E-02 0. -1.
        1   -1    0    0  501    0  0.00000000000E+00  0.00000000000E+00 -0.27566402544E+04  0.27566402544E+04  0.50400001928E-02 0.  1.
    10030    2    1    2    0    0  0.00000000000E+00  0.00000000000E+00 -0.25557728128E+04  0.29575076962E+04  0.14882463178E+04 0.  0.
        5    1    3    3  502    0  0.41704423506E+03 -0.57212956553E+03 -0.17329566957E+04  0.18720093837E+04  0.46999998093E+01 0.  1.
       -5    1    3    3    0  502 -0.41704423506E+03  0.57212956553E+03 -0.82281611712E+03  0.10854983125E+04  0.46999998093E+01 0. -1.
</event>
<event>
 5   0  0.4948645E-04  0.1489777E+04  0.7818609E-02  0.8891280E-01
       -2   -1    0    0    0  501  0.00000000000E+00  0.00000000000E+00  0.60541020428E+03  0.60541020428E+03  0.25500000920E-02 0.  1.
        2   -1    0    0  501    0  0.00000000000E+00  0.00000000000E+00 -0.91650064412E+03  0.91650064413E+03  0.25500000920E-02 0. -1.
    10030    2    1    2    0    0  0.00000000000E+00  0.00000000000E+00 -0.31109043985E+03  0.15219108484E+04  0.14897769527E+04 0.  0.
        1    1    3    3  502    0 -0.71611505787E+02 -0.69523832094E+03  0.10764392676E+03  0.70715751121E+03  0.50400001928E-02 0. -1.
       -1    1    3    3    0  502  0.71611505787E+02  0.69523832094E+03 -0.41873436660E+03  0.81475333720E+03  0.50400001928E-02 0.  1.
</event>
<event>
 5   0  0.4785496E-04  0.1504674E+04  0.7818609E-02  0.8881351E-01
       -2   -1    0    0    0  501  0.00000000000E+00  0.00000000000E+00  0.31142830722E+03  0.31142830723E+03  0.25500000920E-02 0.  1.
        2   -1    0    0  501    0  0.00000000000E+00  0.00000000000E+00 -0.18174670936E+04  0.18174670936E+04  0.25500000920E-02 0. -1.
    10030    2    1    2    0    0  0.00000000000E+00  0.00000000000E+00 -0.15060387863E+04  0.21288954008E+04  0.15046736528E+04 0.  0.
        4    1    3    3  502    0  0.94393931872E+02 -0.67017193015E+03 -0.12179203660E+04  0.13933313537E+04  0.12699999809E+01 0. -1.
       -4    1    3    3    0  502 -0.94393931872E+02  0.67017193015E+03 -0.28811842030E+03  0.73556404708E+03  0.12699999809E+01 0.  1.
</event>
<event>
 5   0  0.4948645E-04  0.1487461E+04  0.7818609E-02  0.8892834E-01
       -2   -1    0    0    0  501  0.00000000000E+00  0.00000000000E+00  0.93351447906E+03  0.93351447907E+03  0.25500000920E-02 0.  1.
        2   -1    0    0  501    0  0.00000000000E+00  0.00000000000E+00 -0.59253001655E+03  0.59253001655E+03  0.25500000920E-02 0. -1.
    10030    2    1    2    0    0  0.00000000000E+00  0.00000000000E+00  0.34098446252E+03  0.15260444956E+04  0.14874613941E+04 0.  0.
        1    1    3    3  502    0 -0.71647315893E+03 -0.11071051010E+02  0.37485502012E+03  0.80868574971E+03  0.50400001928E-02 0.  1.
       -1    1    3    3    0  502  0.71647315893E+03  0.11071051010E+02 -0.33870557605E+02  0.71735874591E+03  0.50400001928E-02 0. -1.
</event>
<event>
 5   0  0.4726600E-04  0.1508776E+04  0.7818609E-02  0.8878638E-01
        2   -1    0    0  501    0  0.00000000000E+00  0.00000000000E+00  0.84867485186E+03  0.84867485186E+03  0.25500000920E-02 0.  1.
       -2   -1    0    0    0  501  0.00000000000E+00  0.00000000000E+00 -0.67057626889E+03  0.67057626889E+03  0.25500000920E-02 0. -1.
    10030    2    1    2    0    0  0.00000000000E+00  0.00000000000E+00  0.17809858297E+03  0.15192511208E+04  0.15087759485E+04 0.  0.
        2    1    3    3  502    0  0.28933113530E+02 -0.74702054534E+03 -0.12768490495E+02  0.74768967799E+03  0.25500000920E-02 0. -1.
       -2    1    3    3    0  502 -0.28933113530E+02  0.74702054534E+03  0.19086707346E+03  0.77156144276E+03  0.25500000920E-02 0.  1.
</event>
<event>
 5   0  0.2603873E-04  0.1499401E+04  0.7818609E-02  0.8884851E-01
        1   -1    0    0  501    0  0.00000000000E+00  0.00000000000E+00  0.98527812633E+03  0.98527812635E+03  0.50400001928E-02 0.  1.
       -1   -1    0    0    0  501  0.00000000000E+00  0.00000000000E+00 -0.57044890012E+03  0.57044890014E+03  0.50400001928E-02 0. -1.
    10030    2    1    2    0    0  0.00000000000E+00  0.00000000000E+00  0.41482922621E+03  0.15557270265E+04  0.14994009784E+04 0.  0.
        2    1    3    3  502    0 -0.16311996622E+03 -0.73031456388E+03  0.25477284333E+03  0.79049142140E+03  0.25500000920E-02 0. -1.
       -2    1    3    3    0  502  0.16311996622E+03  0.73031456388E+03  0.16005638288E+03  0.76523560509E+03  0.25500000920E-02 0.  1.
</event>
<event>
 5   0  0.2603873E-04  0.1409681E+04  0.7818609E-02  0.8946841E-01
       -1   -1    0    0    0  501  0.00000000000E+00  0.00000000000E+00  0.17369647597E+03  0.17369647604E+03  0.50400001928E-02 0.  1.
        1   -1    0    0  501    0  0.00000000000E+00  0.00000000000E+00 -0.28601623858E+04  0.28601623858E+04  0.50400001928E-02 0. -1.
    10030    2    1    2    0    0  0.00000000000E+00  0.00000000000E+00 -0.26864659098E+04  0.30338588618E+04  0.14096809954E+04 0.  0.
        2    1    3    3  502    0 -0.38908317263E+03 -0.19478609796E+03 -0.25366105258E+04  0.25736589321E+04  0.25500000920E-02 0. -1.
       -2    1    3    3    0  502  0.38908317263E+03  0.19478609796E+03 -0.14985538399E+03  0.46019992971E+03  0.25500000920E-02 0.  1.
</event>
<event>
 5   0  0.4948645E-04  0.1470454E+04  0.7818609E-02  0.8904342E-01
        2   -1    0    0  501    0  0.00000000000E+00  0.00000000000E+00  0.13598332579E+04  0.13598332579E+04  0.25500000920E-02 0. -1.
       -2   -1    0    0    0  501  0.00000000000E+00  0.00000000000E+00 -0.39751854856E+03  0.39751854857E+03  0.25500000920E-02 0.  1.
    10030    2    1    2    0    0  0.00000000000E+00  0.00000000000E+00  0.96231470937E+03  0.17573518065E+04  0.14704542740E+04 0.  0.
        1    1    3    3  502    0  0.19871471500E+03 -0.67581375936E+03  0.22948232296E+03  0.74086025125E+03  0.50400001928E-02 0.  1.
       -1    1    3    3    0  502 -0.19871471500E+03  0.67581375936E+03  0.73283238641E+03  0.10164915553E+04  0.50400001928E-02 0. -1.
</event>
<event>
 5   0  0.2542737E-04  0.1491198E+04  0.7818609E-02  0.8890327E-01
        1   -1    0    0  501    0  0.00000000000E+00  0.00000000000E+00  0.14944309460E+04  0.14944309460E+04  0.50400001928E-02 0. -1.
       -1   -1    0    0    0  501  0.00000000000E+00  0.00000000000E+00 -0.37199307832E+03  0.37199307836E+03  0.50400001928E-02 0.  1.
    10030    2    1    2    0    0  0.00000000000E+00  0.00000000000E+00  0.11224378677E+04  0.18664240244E+04  0.14911981330E+04 0.  0.
        1    1    3    3  502    0 -0.48534582776E+03 -0.25995182900E+03 -0.68067569471E+02  0.55476906904E+03  0.50400001928E-02 0.  1.
       -1    1    3    3    0  502  0.48534582776E+03  0.25995182900E+03  0.11905054371E+04  0.13116549553E+04  0.50400001928E-02 0. -1.
</event>
<event>
 5   0  0.2565416E-04  0.1465974E+04  0.7818609E-02  0.8907400E-01
        1   -1    0    0  501    0  0.00000000000E+00  0.00000000000E+00  0.90917272679E+03  0.90917272681E+03  0.50400001928E-02 0.  1.
       -1   -1    0    0    0  501  0.00000000000E+00  0.00000000000E+00 -0.59094396185E+03  0.59094396188E+03  0.50400001928E-02 0. -1.
    10030    2    1    2    0    0  0.00000000000E+00  0.00000000000E+00  0.31822876494E+03  0.15001166887E+04  0.14659742606E+04 0.  0.
        5    1    3    3  502    0 -0.14397035820E+03 -0.13511141633E+03  0.88143348340E+03  0.90328823447E+03  0.46999998093E+01 0.  1.
       -5    1    3    3    0  502  0.14397035820E+03  0.13511141633E+03 -0.56320471846E+03  0.59682845422E+03  0.46999998093E+01 0. -1.
</event>
<event>
 5   0  0.4948645E-04  0.1508187E+04  0.7818609E-02  0.8879027E-01
        2   -1    0    0  501    0  0.00000000000E+00  0.00000000000E+00  0.66170061706E+03  0.66170061706E+03  0.25500000920E-02 0.  1.
       -2   -1    0    0    0  501  0.00000000000E+00  0.00000000000E+00 -0.85938663764E+03  0.85938663765E+03  0.25500000920E-02 0. -1.
    10030    2    1    2    0    0  0.00000000000E+00  0.00000000000E+00 -0.19768602058E+03  0.15210872547E+04  0.15081865514E+04 0.  0.
        1    1    3    3  502    0 -0.52039593860E+03  0.53970406938E+03 -0.18055611630E+03  0.77116335920E+03  0.50400001928E-02 0. -1.
       -1    1    3    3    0  502  0.52039593860E+03 -0.53970406938E+03 -0.17129904279E+02  0.74992389551E+03  0.50400001928E-02 0.  1.
</event>
<event>
 5   0  0.2544374E-04  0.1532798E+04  0.7818609E-02  0.8862931E-01
       -1   -1    0    0    0  501  0.00000000000E+00  0.00000000000E+00  0.58262505799E+03  0.58262505802E+03  0.50400001928E-02 0.  1.
        1   -1    0    0  501    0  0.00000000000E+00  0.00000000000E+00 -0.10081402769E+04  0.10081402769E+04  0.50400001928E-02 0. -1.
    10030    2    1    2    0    0  0.00000000000E+00  0.00000000000E+00 -0.42551521892E+03  0.15907653349E+04  0.15327984699E+04 0.  0.
        4    1    3    3  502    0  0.64485669136E+03 -0.30225888264E+03  0.81085192544E+02  0.71678239785E+03  0.12699999809E+01 0.  1.
       -4    1    3    3    0  502 -0.64485669136E+03  0.30225888264E+03 -0.50660041146E+03  0.87398293709E+03  0.12699999809E+01 0. -1.
</event>
<event>
 5   0  0.4726600E-04  0.1500798E+04  0.7818609E-02  0.8883922E-01
       -2   -1    0    0    0  501  0.00000000000E+00  0.00000000000E+00  0.55131050656E+03  0.55131050656E+03  0.25500000920E-02 0.  1.
        2   -1    0    0  501    0  0.00000000000E+00  0.00000000000E+00 -0.10213824963E+04  0.10213824963E+04  0.25500000920E-02 0. -1.
    10030    2    1    2    0    0  0.00000000000E+00  0.00000000000E+00 -0.47007198971E+03  0.15726930028E+04  0.15007983228E+04 0.  0.
        2    1    3    3  502    0  0.44101006690E+03  0.24903194769E+02 -0.87071658464E+03  0.97634902519E+03  0.25500000920E-02 0. -1.
       -2    1    3    3    0  502 -0.44101006690E+03 -0.24903194769E+02  0.40064459493E+03  0.59634397764E+03  0.25500000920E-02 0.  1.
</event>
<event>
 5   0  0.2544374E-04  0.1505143E+04  0.7818609E-02  0.8881040E-01
       -1   -1    0    0    0  501  0.00000000000E+00  0.00000000000E+00  0.45507513977E+03  0.45507513979E+03  0.50400001928E-02 0.  1.
        1   -1    0    0  501    0  0.00000000000E+00  0.00000000000E+00 -0.12445497389E+04  0.12445497389E+04  0.50400001928E-02 0. -1.
    10030    2    1    2    0    0  0.00000000000E+00  0.00000000000E+00 -0.78947459916E+03  0.16996248787E+04  0.15051427127E+04 0.  0.
        4    1    3    3  502    0 -0.15773547214E+03  0.23233815822E+03  0.39369234909E+03  0.48358740428E+03  0.12699999809E+01 0.  1.
       -4    1    3    3    0  502  0.15773547214E+03 -0.23233815822E+03 -0.11831669483E+04  0.12160374745E+04  0.12699999809E+01 0. -1.
</event>
<event>
 5   0  0.2542737E-04  0.1507715E+04  0.7818609E-02  0.8879338E-01
       -1   -1    0    0    0  501  0.00000000000E+00  0.00000000000E+00  0.71475784423E+03  0.71475784424E+03  0.50400001928E-02 0.  1.
        1   -1    0    0  501    0  0.00000000000E+00  0.00000000000E+00 -0.79509643388E+03  0.79509643389E+03  0.50400001928E-02 0. -1.
    10030    2    1    2    0    0  0.00000000000E+00  0.00000000000E+00 -0.80338589653E+02  0.15098542781E+04  0.15077153751E+04 0.  0.
        1    1    3    3  502    0 -0.24458316851E+03  0.70659765460E+03 -0.13622325556E+03  0.76003812219E+03  0.50400001928E-02 0. -1.
       -1    1    3    3    0  502  0.24458316851E+03 -0.70659765460E+03  0.55884665909E+02  0.74981615594E+03  0.50400001928E-02 0.  1.
</event>
<event>
 5   0  0.4569211E-04  0.1494138E+04  0.7818609E-02  0.8888360E-01
        2   -1    0    0  501    0  0.00000000000E+00  0.00000000000E+00  0.85069812465E+03  0.85069812465E+03  0.25500000920E-02 0. -1.
       -2   -1    0    0    0  501  0.00000000000E+00  0.00000000000E+00 -0.65606395481E+03  0.65606395482E+03  0.25500000920E-02 0.  1.
    10030    2    1    2    0    0  0.00000000000E+00  0.00000000000E+00  0.19463416983E+03  0.15067620795E+04  0.14941383818E+04 0.  0.
        5    1    3    3  502    0 -0.61917839574E+03 -0.16096024652E+02 -0.32388304643E+03  0.69897302203E+03  0.46999998093E+01 0.  1.
       -5    1    3    3    0  502  0.61917839574E+03  0.16096024652E+02  0.51851721626E+03  0.80778905744E+03  0.46999998093E+01 0. -1.
</event>
<event>
 5   0  0.2605471E-04  0.1498151E+04  0.7818609E-02  0.8885684E-01
       -1   -1    0    0    0  501  0.00000000000E+00  0.00000000000E+00  0.44624000092E+03  0.44624000095E+03  0.50400001928E-02 0.  1.
        1   -1    0    0  501    0  0.00000000000E+00  0.00000000000E+00 -0.12574259351E+04  0.12574259351E+04  0.50400001928E-02 0. -1.
    10030    2    1    2    0    0  0.00000000000E+00  0.00000000000E+00 -0.81118593420E+03  0.17036659361E+04  0.14981505271E+04 0.  0.
        3    1    3    3  502    0 -0.17744214179E+03 -0.72394635886E+03 -0.32103011541E+03  0.81156909095E+03  0.10100000352E+00 0.  1.
       -3    1    3    3    0  502  0.17744214179E+03  0.72394635886E+03 -0.49015581879E+03  0.89209684512E+03  0.10100000352E+00 0. -1.
</event>
<event>
 5   0  0.2605471E-04  0.1507627E+04  0.7818609E-02  0.8879397E-01
        1   -1    0    0  501    0  0.00000000000E+00  0.00000000000E+00  0.13070382873E+04  0.13070382873E+04  0.50400001928E-02 0.  1.
       -1   -1    0    0    0  501  0.00000000000E+00  0.00000000000E+00 -0.43474972238E+03  0.43474972241E+03  0.50400001928E-02 0. -1.
    10030    2    1    2    0    0  0.00000000000E+00  0.00000000000E+00  0.87228856491E+03  0.17417880097E+04  0.15076266548E+04 0.  0.
        3    1    3    3  502    0  0.21026381673E+03 -0.34315261875E+02 -0.39924409950E+03  0.45253096138E+03  0.10100000352E+00 0. -1.
       -3    1    3    3    0  502 -0.21026381673E+03  0.34315261875E+02  0.12715326644E+04  0.12892570483E+04  0.10100000352E+00 0.  1.
</event>
<event>
 5   0  0.4726600E-04  0.1503256E+04  0.7818609E-02  0.8882290E-01
       -2   -1    0    0    0  501  0.00000000000E+00  0.00000000000E+00  0.25917131981E+03  0.25917131982E+03  0.25500000920E-02 0.  1.
        2   -1    0    0  501    0  0.00000000000E+00  0.00000000000E+00 -0.21798125424E+04  0.21798125424E+04  0.25500000920E-02 0. -1.
    10030    2    1    2    0    0  0.00000000000E+00  0.00000000000E+00 -0.19206412226E+04  0.24389838623E+04  0.15032563236E+04 0.  0.
        2    1    3    3  502    0 -0.33231541460E+03 -0.60791745281E+03 -0.14332015133E+04  0.15918742859E+04  0.25500000920E-02 0. -1.
       -2    1    3    3    0  502  0.33231541460E+03  0.60791745281E+03 -0.48743970932E+03  0.84710957641E+03  0.25500000920E-02 0.  1.
</event>
<event>
 5   0  0.4785496E-04  0.1503265E+04  0.7818609E-02  0.8882285E-01
        2   -1    0    0  501    0  0.00000000000E+00  0.00000000000E+00  0.14812232254E+04  0.14812232254E+04  0.25500000920E-02 0.  1.
       -2   -1    0    0    0  501  0.00000000000E+00  0.00000000000E+00 -0.38140878870E+03  0.38140878871E+03  0.25500000920E-02 0. -1.
    10030    2    1    2    0    0  0.00000000000E+00  0.00000000000E+00  0.10998144367E+04  0.18626320141E+04  0.15032651878E+04 0.  0.
        4    1    3    3  502    0  0.67659205569E+03  0.24391581395E+03  0.82045964285E+03  0.10910670798E+04  0.12699999809E+01 0.  1.
       -4    1    3    3    0  502 -0.67659205569E+03 -0.24391581395E+03  0.27935479381E+03  0.77156493430E+03  0.12699999809E+01 0. -1.
</event>
<event>
 5   0  0.2605471E-04  0.1508718E+04  0.7818609E-02  0.8878676E-01
       -1   -1    0    0    0  501  0.00000000000E+00  0.00000000000E+00  0.44859238970E+03  0.44859238973E+03  0.50400001928E-02 0. -1.
        1   -1    0    0  501    0  0.00000000000E+00  0.00000000000E+00 -0.12685397520E+04  0.12685397520E+04  0.50400001928E-02 0.  1.
    10030    2    1    2    0    0  0.00000000000E+00  0.00000000000E+00 -0.81994736234E+03  0.17171321418E+04  0.15087177056E+04 0.  0.
        3    1    3    3  502    0  0.60766066654E+03  0.10276164172E+03 -0.90509187738E+03  0.10949898435E+04  0.10100000352E+00 0. -1.
       -3    1    3    3    0  502 -0.60766066654E+03 -0.10276164172E+03  0.85144515037E+02  0.62214229828E+03  0.10100000352E+00 0.  1.
</event>
<event>
 5   0  0.4726600E-04  0.1504828E+04  0.7818609E-02  0.8881248E-01
        2   -1    0    0  501    0  0.00000000000E+00  0.00000000000E+00  0.54930540733E+03  0.54930540734E+03  0.25500000920E-02 0. -1.
       -2   -1    0    0    0  501  0.00000000000E+00  0.00000000000E+00 -0.10306235390E+04  0.10306235390E+04  0.25500000920E-02 0.  1.
    10030    2    1    2    0    0  0.00000000000E+00  0.00000000000E+00 -0.48131813166E+03  0.15799289463E+04  0.15048283396E+04 0.  0.
        2    1    3    3  502    0 -0.11312553187E+03  0.70497814457E+03 -0.48985544044E+03  0.86588100962E+03  0.25500000920E-02 0.  1.
       -2    1    3    3    0  502  0.11312553187E+03 -0.70497814457E+03  0.85373087717E+01  0.71404793672E+03  0.25500000920E-02 0. -1.
</event>
<event>
 5   0  0.4785496E-04  0.1507221E+04  0.7818609E-02  0.8879665E-01
       -2   -1    0    0    0  501  0.00000000000E+00  0.00000000000E+00  0.57932131850E+03  0.57932131850E+03  0.25500000920E-02 0.  1.
        2   -1    0    0  501    0  0.00000000000E+00  0.00000000000E+00 -0.98033482064E+03  0.98033482065E+03  0.25500000920E-02 0. -1.
    10030    2    1    2    0    0  0.00000000000E+00  0.00000000000E+00 -0.40101350215E+03  0.15596561391E+04  0.15072210997E+04 0.  0.
        4    1    3    3  502    0  0.31978181851E+03  0.15703889114E+03 -0.88769220410E+03  0.95651486497E+03  0.12699999809E+01 0. -1.
       -4    1    3    3    0  502 -0.31978181851E+03 -0.15703889114E+03  0.48667870195E+03  0.60314127418E+03  0.12699999809E+01 0.  1.
</event>
<event>
 5   0  0.4768387E-04  0.1498227E+04  0.7818609E-02  0.8885633E-01
       -2   -1    0    0    0  501  0.00000000000E+00  0.00000000000E+00  0.12242954845E+04  0.12242954845E+04  0.25500000920E-02 0.  1.
        2   -1    0    0  501    0  0.00000000000E+00  0.00000000000E+00 -0.45836253778E+03  0.45836253779E+03  0.25500000920E-02 0. -1.
    10030    2    1    2    0    0  0.00000000000E+00  0.00000000000E+00  0.76593294667E+03  0.16826580222E+04  0.14982271994E+04 0.  0.
        3    1    3    3  502    0 -0.28614823440E+03 -0.30950234667E+03  0.10784712369E+04  0.11579174123E+04  0.10100000352E+00 0.  1.
       -3    1    3    3    0  502  0.28614823440E+03  0.30950234667E+03 -0.31253829025E+03  0.52474060994E+03  0.10100000352E+00 0. -1.
</event>
<event>
 5   0  0.2605471E-04  0.1498261E+04  0.7818609E-02  0.8885610E-01
        1   -1    0    0  501    0  0.00000000000E+00  0.00000000000E+00  0.79821147218E+03  0.79821147219E+03  0.50400001928E-02 0.  1.
       -1   -1    0    0    0  501  0.00000000000E+00  0.00000000000E+00 -0.70306788224E+03  0.70306788226E+03  0.50400001928E-02 0. -1.
    10030    2    1    2    0    0  0.00000000000E+00  0.00000000000E+00  0.95143589941E+02  0.15012793545E+04  0.14982614583E+04 0.  0.
        3    1    3    3  502    0  0.71419595122E+03  0.45702898393E+02 -0.17430644699E+03  0.73657814204E+03  0.10100000352E+00 0. -1.
       -3    1    3    3    0  502 -0.71419595122E+03 -0.45702898393E+02  0.26945003693E+03  0.76470121241E+03  0.10100000352E+00 0.  1.
</event>
<event>
 5   0  0.4726600E-04  0.1503339E+04  0.7818609E-02  0.8882235E-01
        2   -1    0    0  501    0  0.00000000000E+00  0.00000000000E+00  0.12564007390E+04  0.12564007390E+04  0.25500000920E-02 0. -1.
       -2   -1    0    0    0  501  0.00000000000E+00  0.00000000000E+00 -0.44970313495E+03  0.44970313496E+03  0.25500000920E-02 0.  1.
    10030    2    1    2    0    0  0.00000000000E+00  0.00000000000E+00  0.80669760409E+03  0.17061038740E+04  0.15033394176E+04 0.  0.
        2    1    3    3  502    0  0.23921445165E+03  0.70642638877E+03  0.29721784043E+03  0.80287000274E+03  0.25500000920E-02 0. -1.
       -2    1    3    3    0  502 -0.23921445165E+03 -0.70642638877E+03  0.50947976366E+03  0.90323387127E+03  0.25500000920E-02 0.  1.
</event>
<event>
 5   0  0.2565416E-04  0.1487157E+04  0.7818609E-02  0.8893039E-01
        1   -1    0    0  501    0  0.00000000000E+00  0.00000000000E+00  0.69885940854E+03  0.69885940856E+03  0.50400001928E-02 0. -1.
       -1   -1    0    0    0  501  0.00000000000E+00  0.00000000000E+00 -0.79115902861E+03  0.79115902863E+03  0.50400001928E-02 0.  1.
    10030    2    1    2    0    0  0.00000000000E+00  0.00000000000E+00 -0.92299620075E+02  0.14900184372E+04  0.14871569262E+04 0.  0.
        5    1    3    3  502    0  0.59001937924E+03 -0.28808298826E+03  0.30348032474E+03  0.72335127947E+03  0.46999998093E+01 0. -1.
       -5    1    3    3    0  502 -0.59001937924E+03  0.28808298826E+03 -0.39577994481E+03  0.76666715772E+03  0.46999998093E+01 0.  1.
</event>
<event>
 5   0  0.2544374E-04  0.1459786E+04  0.7818609E-02  0.8911644E-01
        1   -1    0    0  501    0  0.00000000000E+00  0.00000000000E+00  0.17290319501E+04  0.17290319501E+04  0.50400001928E-02 0. -1.
       -1   -1    0    0    0  501  0.00000000000E+00  0.00000000000E+00 -0.30811695430E+03  0.30811695434E+03  0.50400001928E-02 0.  1.
    10030    2    1    2    0    0  0.00000000000E+00  0.00000000000E+00  0.14209149958E+04  0.20371489044E+04  0.14597863657E+04 0.  0.
        4    1    3    3  502    0  0.36845765175E+03  0.49704129923E+03  0.12508131507E+04  0.13954734843E+04  0.12699999809E+01 0. -1.
       -4    1    3    3    0  502 -0.36845765175E+03 -0.49704129923E+03  0.17010184503E+03  0.64167542018E+03  0.12699999809E+01 0.  1.
</event>
<event>
 5   0  0.4726600E-04  0.1504558E+04  0.7818609E-02  0.8881428E-01
        2   -1    0    0  501    0  0.00000000000E+00  0.00000000000E+00  0.91714539789E+03  0.91714539789E+03  0.25500000920E-02 0.  1.
       -2   -1    0    0    0  501  0.00000000000E+00  0.00000000000E+00 -0.61704873040E+03  0.61704873041E+03  0.25500000920E-02 0. -1.
    10030    2    1    2    0    0  0.00000000000E+00  0.00000000000E+00  0.30009666749E+03  0.15341941283E+04  0.15045576139E+04 0.  0.
        2    1    3    3  502    0 -0.44805949431E+03 -0.58187926762E+03  0.31630164739E+03  0.79961711130E+03  0.25500000920E-02 0.  1.
       -2    1    3    3    0  502  0.44805949431E+03  0.58187926762E+03 -0.16204979897E+02  0.73457701700E+03  0.25500000920E-02 0. -1.
</event>
<event>
 5   0  0.2565416E-04  0.1501272E+04  0.7818609E-02  0.8883608E-01
        1   -1    0    0  501    0  0.00000000000E+00  0.00000000000E+00  0.87958265950E+03  0.87958265952E+03  0.50400001928E-02 0. -1.
       -1   -1    0    0    0  501  0.00000000000E+00  0.00000000000E+00 -0.64059283241E+03  0.64059283243E+03  0.50400001928E-02 0.  1.
    10030    2    1    2    0    0  0.00000000000E+00  0.00000000000E+00  0.23898982709E+03  0.15201754919E+04  0.15012719237E+04 0.  0.
        5    1    3    3  502    0  0.12457267793E+03  0.40727946619E+03 -0.50637960617E+03  0.66169276195E+03  0.46999998093E+01 0.  1.
       -5    1    3    3    0  502 -0.12457267793E+03 -0.40727946619E+03  0.74536943327E+03  0.85848273000E+03  0.46999998093E+01 0. -1.
</event>
<event>
 5   0  0.2605471E-04  0.1491693E+04  0.7818609E-02  0.8889996E-01
        1   -1    0    0  501    0  0.00000000000E+00  0.00000000000E+00  0.47732262522E+03  0.47732262524E+03  0.50400001928E-02 0.  1.
       -1   -1    0    0    0  501  0.00000000000E+00  0.00000000000E+00 -0.11654311871E+04  0.11654311871E+04  0.50400001928E-02 0. -1.
    10030    2    1    2    0    0  0.00000000000E+00  0.00000000000E+00 -0.68810856189E+03  0.16427538124E+04  0.14916925605E+04 0.  0.
        3    1    3    3  502    0  0.59044022191E+03 -0.44192137046E+03 -0.46655032711E+03  0.87268744190E+03  0.10100000352E+00 0. -1.
       -3    1    3    3    0  502 -0.59044022191E+03  0.44192137046E+03 -0.22155823478E+03  0.77006637047E+03  0.10100000352E+00 0.  1.
</event>
<event>
 5   0  0.2605471E-04  0.1502941E+04  0.7818609E-02  0.8882500E-01
        1   -1    0    0  501    0  0.00000000000E+00  0.00000000000E+00  0.45086732152E+03  0.45086732155E+03  0.50400001928E-02 0.  1.
       -1   -1    0    0    0  501  0.00000000000E+00  0.00000000000E+00 -0.12524918227E+04  0.12524918227E+04  0.50400001928E-02 0. -1.
    10030    2    1    2    0    0  0.00000000000E+00  0.00000000000E+00 -0.80162450117E+03  0.17033591442E+04  0.15029406287E+04 0.  0.
        3    1    3    3  502    0 -0.97544859004E+02  0.40551853047E+03 -0.11092674948E+04  0.11850884622E+04  0.10100000352E+00 0. -1.
       -3    1    3    3    0  502  0.97544859004E+02 -0.40551853047E+03  0.30764299366E+03  0.51827068200E+03  0.10100000352E+00 0.  1.
</event>
<event>
 5   0  0.2603873E-04  0.1498449E+04  0.7818609E-02  0.8885485E-01
       -1   -1    0    0    0  501  0.00000000000E+00  0.00000000000E+00  0.74925636863E+03  0.74925636864E+03  0.50400001928E-02 0. -1.
        1   -1    0    0  501    0  0.00000000000E+00  0.00000000000E+00 -0.74919308716E+03  0.74919308718E+03  0.50400001928E-02 0.  1.
    10030    2    1    2    0    0  0.00000000000E+00  0.00000000000E+00  0.63281464485E-01  0.14984494558E+04  0.14984494545E+04 0.  0.
        2    1    3    3  502    0  0.50923690041E+02  0.73511183409E+03  0.13551249221E+03  0.74923044944E+03  0.25500000920E-02 0. -1.
       -2    1    3    3    0  502 -0.50923690041E+02 -0.73511183409E+03 -0.13544921074E+03  0.74921900638E+03  0.25500000920E-02 0.  1.
</event>
<event>
 5   0  0.4569211E-04  0.1516352E+04  0.7818609E-02  0.8873651E-01
       -2   -1    0    0    0  501  0.00000000000E+00  0.00000000000E+00  0.67574642418E+03  0.67574642419E+03  0.25500000920E-02 0. -1.
        2   -1    0    0  501    0  0.00000000000E+00  0.00000000000E+00 -0.85066031251E+03  0.85066031252E+03  0.25500000920E-02 0.  1.
    10030    2    1    2    0    0  0.00000000000E+00  0.00000000000E+00 -0.17491388833E+03  0.15264067367E+04  0.15163517592E+04 0.  0.
        5    1    3    3  502    0 -0.49166454400E+03 -0.53810608227E+03  0.12253216381E+03  0.73914031196E+03  0.46999998093E+01 0. -1.
       -5    1    3    3    0  502  0.49166454400E+03  0.53810608227E+03 -0.29744605214E+03  0.78726642474E+03  0.46999998093E+01 0.  1.
</event>
<event>
 5   0  0.2544374E-04  0.1504190E+04  0.7818609E-02  0.8881672E-01
        1   -1    0    0  501    0  0.00000000000E+00  0.00000000000E+00  0.97968245207E+03  0.97968245208E+03  0.50400001928E-02 0. -1.
       -1   -1    0    0    0  501  0.00000000000E+00  0.00000000000E+00 -0.57737743772E+03  0.57737743774E+03  0.50400001928E-02 0.  1.
    10030    2    1    2    0    0  0.00000000000E+00  0.00000000000E+00  0.40230501435E+03  0.15570598898E+04  0.15041895412E+04 0.  0.
        4    1    3    3  502    0  0.46334885295E+03 -0.50061659716E+03 -0.12673940088E+03  0.69381094364E+03  0.12699999809E+01 0.  1.
       -4    1    3    3    0  502 -0.46334885295E+03  0.50061659716E+03  0.52904441523E+03  0.86324894618E+03  0.12699999809E+01 0. -1.
</event>
<event>
 5   0  0.2605471E-04  0.1499125E+04  0.7818609E-02  0.8885035E-01
        1   -1    0    0  501    0  0.00000000000E+00  0.00000000000E+00  0.13398933129E+04  0.13398933129E+04  0.50400001928E-02 0.  1.
       -1   -1    0    0    0  501  0.00000000000E+00  0.00000000000E+00 -0.41931986287E+03  0.41931986290E+03  0.50400001928E-02 0. -1.
    10030    2    1    2    0    0  0.00000000000E+00  0.00000000000E+00  0.92057344998E+03  0.17592131758E+04  0.14991249184E+04 0.  0.
        3    1    3    3  502    0  0.54663381362E+03  0.49717491564E+03  0.60803717164E+03  0.95692248131E+03  0.10100000352E+00 0.  1.
       -3    1    3    3    0  502 -0.54663381362E+03 -0.49717491564E+03  0.31253627834E+03  0.80229069446E+03  0.10100000352E+00 0. -1.
</event>
<event>
 5   0  0.4726600E-04  0.1494893E+04  0.7818609E-02  0.8887856E-01
       -2   -1    0    0    0  501  0.00000000000E+00  0.00000000000E+00  0.30889722543E+03  0.30889722544E+03  0.25500000920E-02 0. -1.
        2   -1    0    0  501    0  0.00000000000E+00  0.00000000000E+00 -0.18086158835E+04  0.18086158835E+04  0.25500000920E-02 0.  1.
    10030    2    1    2    0    0  0.00000000000E+00  0.00000000000E+00 -0.14997186580E+04  0.21175131089E+04  0.14948932113E+04 0.  0.
        2    1    3    3  502    0  0.23146312905E+03  0.34235231388E+03 -0.16320727649E+04  0.16835800536E+04  0.25500000920E-02 0.  1.
       -2    1    3    3    0  502 -0.23146312905E+03 -0.34235231388E+03  0.13235410682E+03  0.43393305535E+03  0.25500000920E-02 0. -1.
</event>
<event>
 5   0  0.1792000E-04  0.1507968E+04  0.7818609E-02  0.8879172E-01
       -4   -1    0    0    0  501  0.00000000000E+00  0.00000000000E+00  0.13125054852E+04  0.13125060996E+04  0.12699999809E+01 0.  1.
        4   -1    0    0  501    0  0.00000000000E+00  0.00000000000E+00 -0.43313313130E+03  0.43313499319E+03  0.12699999809E+01 0. -1.
    10030    2    1    2    0    0  0.00000000000E+00  0.00000000000E+00  0.87937235389E+03  0.17456410928E+04  0.15079678671E+04 0.  0.
        5    1    3    3  502    0 -0.11358138762E+03  0.11261094610E+03  0.12926249961E+04  0.13024912388E+04  0.46999998093E+01 0.  1.
       -5    1    3    3    0  502  0.11358138762E+03 -0.11261094610E+03 -0.41325264219E+03  0.44314985396E+03  0.46999998093E+01 0. -1.
</event>
<event>
 5   0  0.4569211E-04  0.1500529E+04  0.7818609E-02  0.8884101E-01
       -2   -1    0    0    0  501  0.00000000000E+00  0.00000000000E+00  0.34463225429E+03  0.34463225430E+03  0.25500000920E-02 0.  1.
        2   -1    0    0  501    0  0.00000000000E+00  0.00000000000E+00 -0.16333264600E+04  0.16333264600E+04  0.25500000920E-02 0. -1.
    10030    2    1    2    0    0  0.00000000000E+00  0.00000000000E+00 -0.12886942057E+04  0.19779587143E+04  0.15005292132E+04 0.  0.
        5    1    3    3  502    0 -0.66400448993E+03  0.18295148774E+03 -0.25220043793E+03  0.73348507851E+03  0.46999998093E+01 0.  1.
       -5    1    3    3    0  502  0.66400448993E+03 -0.18295148774E+03 -0.10364937678E+04  0.12444736358E+04  0.46999998093E+01 0. -1.
</event>
<event>
 5   0  0.2542737E-04  0.1514743E+04  0.7818609E-02  0.8874708E-01
        1   -1    0    0  501    0  0.00000000000E+00  0.00000000000E+00  0.96634154866E+03  0.96634154867E+03  0.50400001928E-02 0.  1.
       -1   -1    0    0    0  501  0.00000000000E+00  0.00000000000E+00 -0.59359122358E+03  0.59359122360E+03  0.50400001928E-02 0. -1.
    10030    2    1    2    0    0  0.00000000000E+00  0.00000000000E+00  0.37275032508E+03  0.15599327723E+04  0.15147433608E+04 0.  0.
        1    1    3    3  502    0  0.22139608006E+03 -0.49968984674E+03 -0.35358123728E+03  0.65094228514E+03  0.50400001928E-02 0. -1.
       -1    1    3    3    0  502 -0.22139608006E+03  0.49968984674E+03  0.72633156236E+03  0.90899048714E+03  0.50400001928E-02 0.  1.
</event>
<event>
 5   0  0.4768387E-04  0.1461315E+04  0.7818609E-02  0.8910593E-01
        2   -1    0    0  501    0  0.00000000000E+00  0.00000000000E+00  0.63862142098E+03  0.63862142098E+03  0.25500000920E-02 0.  1.
       -2   -1    0    0    0  501  0.00000000000E+00  0.00000000000E+00 -0.83595792813E+03  0.83595792813E+03  0.25500000920E-02 0. -1.
    10030    2    1    2    0    0  0.00000000000E+00  0.00000000000E+00 -0.19733650715E+03  0.14745793491E+04  0.14613153526E+04 0.  0.
        3    1    3    3  502    0 -0.37670993440E+01  0.51870069691E+02 -0.83408788625E+03  0.83570766860E+03  0.10100000352E+00 0. -1.
       -3    1    3    3    0  502  0.37670993440E+01 -0.51870069691E+02  0.63675137911E+03  0.63887168051E+03  0.10100000352E+00 0.  1.
</event>
<event>
 5   0  0.4569211E-04  0.1490575E+04  0.7818609E-02  0.8890744E-01
        2   -1    0    0  501    0  0.00000000000E+00  0.00000000000E+00  0.15052334406E+04  0.15052334406E+04  0.25500000920E-02 0. -1.
       -2   -1    0    0    0  501  0.00000000000E+00  0.00000000000E+00 -0.36901502052E+03  0.36901502053E+03  0.25500000920E-02 0.  1.
    10030    2    1    2    0    0  0.00000000000E+00  0.00000000000E+00  0.11362184201E+04  0.18742484612E+04  0.14905753909E+04 0.  0.
        5    1    3    3  502    0 -0.46313552648E+03 -0.46880795991E+03  0.13043988505E+03  0.67179764273E+03  0.46999998093E+01 0.  1.
       -5    1    3    3    0  502  0.46313552648E+03  0.46880795991E+03  0.10057785350E+04  0.12024508184E+04  0.46999998093E+01 0. -1.
</event>
<event>
 5   0  0.2542737E-04  0.1509814E+04  0.7818609E-02  0.8877953E-01
        1   -1    0    0  501    0  0.00000000000E+00  0.00000000000E+00  0.60182366856E+03  0.60182366858E+03  0.50400001928E-02 0.  1.
       -1   -1    0    0    0  501  0.00000000000E+00  0.00000000000E+00 -0.94692980880E+03  0.94692980882E+03  0.50400001928E-02 0. -1.
    10030    2    1    2    0    0  0.00000000000E+00  0.00000000000E+00 -0.34510614024E+03  0.15487534774E+04  0.15098142554E+04 0.  0.
        1    1    3    3  502    0 -0.75469312069E+03 -0.16649726156E+02 -0.17949909093E+03  0.77592450887E+03  0.50400001928E-02 0.  1.
       -1    1    3    3    0  502  0.75469312069E+03  0.16649726156E+02 -0.16560704931E+03  0.77282896853E+03  0.50400001928E-02 0. -1.
</event>
<event>
 5   0  0.4726600E-04  0.1496446E+04  0.7818609E-02  0.8886820E-01
       -2   -1    0    0    0  501  0.00000000000E+00  0.00000000000E+00  0.43083746317E+03  0.43083746318E+03  0.25500000920E-02 0.  1.
        2   -1    0    0  501    0  0.00000000000E+00  0.00000000000E+00 -0.12994170941E+04  0.12994170941E+04  0.25500000920E-02 0. -1.
    10030    2    1    2    0    0  0.00000000000E+00  0.00000000000E+00 -0.86857963093E+03  0.17302545573E+04  0.14964458753E+04 0.  0.
        2    1    3    3  502    0  0.22881482698E+03 -0.69753610093E+03 -0.26703489951E+03  0.78116609931E+03  0.25500000920E-02 0. -1.
       -2    1    3    3    0  502 -0.22881482698E+03  0.69753610093E+03 -0.60154473142E+03  0.94908845797E+03  0.25500000920E-02 0.  1.
</event>
<event>
 5   0  0.4569211E-04  0.1499751E+04  0.7818609E-02  0.8884619E-01
       -2   -1    0    0    0  501  0.00000000000E+00  0.00000000000E+00  0.43098168239E+03  0.43098168240E+03  0.25500000920E-02 0. -1.
        2   -1    0    0  501    0  0.00000000000E+00  0.00000000000E+00 -0.13047265404E+04  0.13047265404E+04  0.25500000920E-02 0.  1.
    10030    2    1    2    0    0  0.00000000000E+00  0.00000000000E+00 -0.87374485801E+03  0.17357082228E+04  0.14997509653E+04 0.  0.
        5    1    3    3  502    0 -0.29601192456E+03 -0.39045232916E+03 -0.10938196716E+04  0.11985573181E+04  0.46999998093E+01 0.  1.
       -5    1    3    3    0  502  0.29601192456E+03  0.39045232916E+03  0.22007481359E+03  0.53715090468E+03  0.46999998093E+01 0. -1.
</event>
<event>
 5   0  0.2603873E-04  0.1508198E+04  0.7818609E-02  0.8879020E-01
        1   -1    0    0  501    0  0.00000000000E+00  0.00000000000E+00  0.34101918947E+03  0.34101918951E+03  0.50400001928E-02 0.  1.
       -1   -1    0    0    0  501  0.00000000000E+00  0.00000000000E+00 -0.16675460124E+04  0.16675460124E+04  0.50400001928E-02 0. -1.
    10030    2    1    2    0    0  0.00000000000E+00  0.00000000000E+00 -0.13265268230E+04  0.20085652019E+04  0.15081978512E+04 0.  0.
        2    1    3    3  502    0  0.22370124299E+02 -0.51833373061E+03  0.65560042718E+02  0.52294205984E+03  0.25500000920E-02 0.  1.
       -2    1    3    3    0  502 -0.22370124299E+02  0.51833373061E+03 -0.13920868657E+04  0.14856231421E+04  0.25500000920E-02 0. -1.
</event>
<event>
 5   0  0.4569211E-04  0.1503497E+04  0.7818609E-02  0.8882131E-01
        2   -1    0    0  501    0  0.00000000000E+00  0.00000000000E+00  0.62139918586E+03  0.62139918587E+03  0.25500000920E-02 0. -1.
       -2   -1    0    0    0  501  0.00000000000E+00  0.00000000000E+00 -0.90944136005E+03  0.90944136006E+03  0.25500000920E-02 0.  1.
    10030    2    1    2    0    0  0.00000000000E+00  0.00000000000E+00 -0.28804217419E+03  0.15308405459E+04  0.15034974170E+04 0.  0.
        5    1    3    3  502    0 -0.33191852815E+02  0.43777754889E+03  0.47728382305E+03  0.64851585883E+03  0.46999998093E+01 0. -1.
       -5    1    3    3    0  502  0.33191852815E+02 -0.43777754889E+03 -0.76532599725E+03  0.88232468710E+03  0.46999998093E+01 0.  1.
</event>
<event>
 5   0  0.2544374E-04  0.1503272E+04  0.7818609E-02  0.8882280E-01
        1   -1    0    0  501    0  0.00000000000E+00  0.00000000000E+00  0.84255392994E+03  0.84255392996E+03  0.50400001928E-02 0.  1.
       -1   -1    0    0    0  501  0.00000000000E+00  0.00000000000E+00 -0.67052871484E+03  0.67052871486E+03  0.50400001928E-02 0. -1.
    10030    2    1    2    0    0  0.00000000000E+00  0.00000000000E+00  0.17202521510E+03  0.15130826448E+04  0.15032719034E+04 0.  0.
        4    1    3    3  502    0  0.67798901696E+03 -0.27140502129E+03 -0.92982737902E+02  0.73619100453E+03  0.12699999809E+01 0. -1.
       -4    1    3    3    0  502 -0.67798901696E+03  0.27140502129E+03  0.26500795300E+03  0.77689164029E+03  0.12699999809E+01 0.  1.
</event>
<event>
 5   0  0.2565416E-04  0.1497031E+04  0.7818609E-02  0.8886429E-01
       -1   -1    0    0    0  501  0.00000000000E+00  0.00000000000E+00  0.22740135725E+03  0.22740135731E+03  0.50400001928E-02 0.  1.
        1   -1    0    0  501    0  0.00000000000E+00  0.00000000000E+00 -0.24638189271E+04  0.24638189272E+04  0.50400001928E-02 0. -1.
    10030    2    1    2    0    0  0.00000000000E+00  0.00000000000E+00 -0.22364175699E+04  0.26912202845E+04  0.14970314200E+04 0.  0.
        5    1    3    3  502    0 -0.25794208131E+03 -0.69594765156E+03 -0.12922840333E+04  0.14902675477E+04  0.46999998093E+01 0. -1.
       -5    1    3    3    0  502  0.25794208131E+03  0.69594765156E+03 -0.94413353664E+03  0.12009527368E+04  0.46999998093E+01 0.  1.
</event>
<event>
 5   0  0.2565416E-04  0.1495358E+04  0.7818609E-02  0.8887546E-01
       -1   -1    0    0    0  501  0.00000000000E+00  0.00000000000E+00  0.22597662479E+03  0.22597662484E+03  0.50400001928E-02 0. -1.
        1   -1    0    0  501    0  0.00000000000E+00  0.00000000000E+00 -0.24738117922E+04  0.24738117922E+04  0.50400001928E-02 0.  1.
    10030    2    1    2    0    0  0.00000000000E+00  0.00000000000E+00 -0.22478351674E+04  0.26997884171E+04  0.14953576686E+04 0.  0.
        5    1    3    3  502    0 -0.38863755386E+03 -0.55636027684E+02  0.24872968548E+02  0.39341488331E+03  0.46999998093E+01 0. -1.
       -5    1    3    3    0  502  0.38863755386E+03  0.55636027684E+02 -0.22727081360E+04  0.23063735337E+04  0.46999998093E+01 0.  1.
</event>
<event>
 5   0  0.2565416E-04  0.1503634E+04  0.7818609E-02  0.8882040E-01
       -1   -1    0    0    0  501  0.00000000000E+00  0.00000000000E+00  0.60509171194E+03  0.60509171196E+03  0.50400001928E-02 0.  1.
        1   -1    0    0  501    0  0.00000000000E+00  0.00000000000E+00 -0.93412089498E+03  0.93412089500E+03  0.50400001928E-02 0. -1.
    10030    2    1    2    0    0  0.00000000000E+00  0.00000000000E+00 -0.32902918304E+03  0.15392126070E+04  0.15036340134E+04 0.  0.
        5    1    3    3  502    0 -0.30197974586E+03 -0.25299026101E+03  0.49095743561E+03  0.62948958106E+03  0.46999998093E+01 0.  1.
       -5    1    3    3    0  502  0.30197974586E+03  0.25299026101E+03 -0.81998661866E+03  0.90972302590E+03  0.46999998093E+01 0. -1.
</event>
<event>
 5   0  0.4768387E-04  0.1503221E+04  0.7818609E-02  0.8882314E-01
       -2   -1    0    0    0  501  0.00000000000E+00  0.00000000000E+00  0.32833803844E+03  0.32833803845E+03  0.25500000920E-02 0. -1.
        2   -1    0    0  501    0  0.00000000000E+00  0.00000000000E+00 -0.17205396320E+04  0.17205396320E+04  0.25500000920E-02 0.  1.
    10030    2    1    2    0    0  0.00000000000E+00  0.00000000000E+00 -0.13922015935E+04  0.20488776704E+04  0.15032213514E+04 0.  0.
        3    1    3    3  502    0 -0.62757605584E+03 -0.16190166427E+03 -0.12148524017E+04  0.13769278205E+04  0.10100000352E+00 0.  1.
       -3    1    3    3    0  502  0.62757605584E+03  0.16190166427E+03 -0.17734919182E+03  0.67194984991E+03  0.10100000352E+00 0. -1.
</event>
<event>
 5   0  0.2565416E-04  0.1520549E+04  0.7818609E-02  0.8870902E-01
        1   -1    0    0  501    0  0.00000000000E+00  0.00000000000E+00  0.46818208688E+03  0.46818208691E+03  0.50400001928E-02 0. -1.
       -1   -1    0    0    0  501  0.00000000000E+00  0.00000000000E+00 -0.12345986469E+04  0.12345986470E+04  0.50400001928E-02 0.  1.
    10030    2    1    2    0    0  0.00000000000E+00  0.00000000000E+00 -0.76641656006E+03  0.17027807339E+04  0.15205485471E+04 0.  0.
        5    1    3    3  502    0  0.49369438690E+02  0.75831873318E+03 -0.35791267730E+03  0.84000489114E+03  0.46999998093E+01 0.  1.
       -5    1    3    3    0  502 -0.49369438690E+02 -0.75831873318E+03 -0.40850388276E+03  0.86277584273E+03  0.46999998093E+01 0. -1.
</event>
<event>
 5   0  0.2565416E-04  0.1500400E+04  0.7818609E-02  0.8884187E-01
       -1   -1    0    0    0  501  0.00000000000E+00  0.00000000000E+00  0.57094397250E+03  0.57094397253E+03  0.50400001928E-02 0.  1.
        1   -1    0    0  501    0  0.00000000000E+00  0.00000000000E+00 -0.98573614916E+03  0.98573614917E+03  0.50400001928E-02 0. -1.
    10030    2    1    2    0    0  0.00000000000E+00  0.00000000000E+00 -0.41479217666E+03  0.15566801217E+04  0.15004000971E+04 0.  0.
        5    1    3    3  502    0  0.48918258519E+03  0.38899651599E+03 -0.63788164929E+03  0.89304701982E+03  0.46999998093E+01 0. -1.
       -5    1    3    3    0  502 -0.48918258519E+03 -0.38899651599E+03  0.22308947263E+03  0.66363310188E+03  0.46999998093E+01 0.  1.
</event>
<event>
 5   0  0.4768387E-04  0.1495063E+04  0.7818609E-02  0.8887743E-01
       -2   -1    0    0    0  501  0.00000000000E+00  0.00000000000E+00  0.44448613859E+03  0.44448613860E+03  0.25500000920E-02 0. -1.
        2   -1    0    0  501    0  0.00000000000E+00  0.00000000000E+00 -0.12571895527E+04  0.12571895527E+04  0.25500000920E-02 0.  1.
    10030    2    1    2    0    0  0.00000000000E+00  0.00000000000E+00 -0.81270341414E+03  0.17016756913E+04  0.14950629816E+04 0.  0.
        3    1    3    3  502    0 -0.61035422705E+03  0.30767532958E+03 -0.75084555293E+03  0.10153646859E+04  0.10100000352E+00 0.  1.
       -3    1    3    3    0  502  0.61035422705E+03 -0.30767532958E+03 -0.61857861203E+02  0.68631100538E+03  0.10100000352E+00 0. -1.
</event>
<event>
 5   0  0.4948645E-04  0.1498078E+04  0.7818609E-02  0.8885732E-01
        2   -1    0    0  501    0  0.00000000000E+00  0.00000000000E+00  0.80947024807E+03  0.80947024807E+03  0.25500000920E-02 0. -1.
       -2   -1    0    0    0  501  0.00000000000E+00  0.00000000000E+00 -0.69311904012E+03  0.69311904012E+03  0.25500000920E-02 0.  1.
    10030    2    1    2    0    0  0.00000000000E+00  0.00000000000E+00  0.11635120796E+03  0.15025892882E+04  0.14980777568E+04 0.  0.
        1    1    3    3  502    0 -0.12159275717E+03 -0.62119068204E+03  0.45987713200E+03  0.78239992243E+03  0.50400001928E-02 0.  1.
       -1    1    3    3    0  502  0.12159275717E+03  0.62119068204E+03 -0.34352592404E+03  0.72018936577E+03  0.50400001928E-02 0. -1.
</event>
<event>
 5   0  0.4785496E-04  0.1493809E+04  0.7818609E-02  0.8888581E-01
       -2   -1    0    0    0  501  0.00000000000E+00  0.00000000000E+00  0.42887408883E+03  0.42887408883E+03  0.25500000920E-02 0. -1.
        2   -1    0    0  501    0  0.00000000000E+00  0.00000000000E+00 -0.13007689941E+04  0.13007689941E+04  0.25500000920E-02 0.  1.
    10030    2    1    2    0    0  0.00000000000E+00  0.00000000000E+00 -0.87189490528E+03  0.17296430829E+04  0.14938087122E+04 0.  0.
        4    1    3    3  502    0  0.52277921428E+03  0.67224691739E+02 -0.10486887523E+04  0.11736979927E+04  0.12699999809E+01 0.  1.
       -4    1    3    3    0  502 -0.52277921428E+03 -0.67224691739E+02  0.17679384703E+03  0.55594509019E+03  0.12699999809E+01 0. -1.
</event>
<event>
 5   0  0.2603873E-04  0.1499761E+04  0.7818609E-02  0.8884612E-01
        1   -1    0    0  501    0  0.00000000000E+00  0.00000000000E+00  0.13679746735E+04  0.13679746735E+04  0.50400001928E-02 0. -1.
       -1   -1    0    0    0  501  0.00000000000E+00  0.00000000000E+00 -0.41106077785E+03  0.41106077788E+03  0.50400001928E-02 0.  1.
    10030    2    1    2    0    0  0.00000000000E+00  0.00000000000E+00  0.95691389563E+03  0.17790354514E+04  0.14997609588E+04 0.  0.
        2    1    3    3  502    0  0.24468824251E+03  0.57435385064E+03 -0.14308490587E+02  0.62446730473E+03  0.25500000920E-02 0.  1.
       -2    1    3    3    0  502 -0.24468824251E+03 -0.57435385064E+03  0.97122238621E+03  0.11545681466E+04  0.25500000920E-02 0. -1.
</event>
<event>
 5   0  0.4569211E-04  0.1505488E+04  0.7818609E-02  0.8880812E-01
       -2   -1    0    0    0  501  0.00000000000E+00  0.00000000000E+00  0.24427356208E+03  0.24427356209E+03  0.25500000920E-02 0. -1.
        2   -1    0    0  501    0  0.00000000000E+00  0.00000000000E+00 -0.23196268115E+04  0.23196268115E+04  0.25500000920E-02 0.  1.
    10030    2    1    2    0    0  0.00000000000E+00  0.00000000000E+00 -0.20753532494E+04  0.25639003736E+04  0.15054879660E+04 0.  0.
        5    1    3    3  502    0  0.41800312032E+02  0.71128772593E+03 -0.62427738981E+03  0.94732351632E+03  0.46999998093E+01 0.  1.
       -5    1    3    3    0  502 -0.41800312032E+02 -0.71128772593E+03 -0.14510758596E+04  0.16165768573E+04  0.46999998093E+01 0. -1.
</event>
<event>
 5   0  0.2544374E-04  0.1558661E+04  0.7818609E-02  0.8846355E-01
       -1   -1    0    0    0  501  0.00000000000E+00  0.00000000000E+00  0.91215177812E+03  0.91215177813E+03  0.50400001928E-02 0. -1.
        1   -1    0    0  501    0  0.00000000000E+00  0.00000000000E+00 -0.66584966583E+03  0.66584966585E+03  0.50400001928E-02 0.  1.
    10030    2    1    2    0    0  0.00000000000E+00  0.00000000000E+00  0.24630211228E+03  0.15780014440E+04  0.15586609082E+04 0.  0.
        4    1    3    3  502    0  0.27337824873E+03  0.71268777781E+03  0.28224680757E+03  0.81383315784E+03  0.12699999809E+01 0. -1.
       -4    1    3    3    0  502 -0.27337824873E+03 -0.71268777781E+03 -0.35944695281E+02  0.76416828614E+03  0.12699999809E+01 0.  1.
</event>
<event>
 5   0  0.4948645E-04  0.1510071E+04  0.7818609E-02  0.8877783E-01
        2   -1    0    0  501    0  0.00000000000E+00  0.00000000000E+00  0.14657770190E+04  0.14657770190E+04  0.25500000920E-02 0.  1.
       -2   -1    0    0    0  501  0.00000000000E+00  0.00000000000E+00 -0.38892609622E+03  0.38892609623E+03  0.25500000920E-02 0. -1.
    10030    2    1    2    0    0  0.00000000000E+00  0.00000000000E+00  0.10768509228E+04  0.18547031152E+04  0.15100714340E+04 0.  0.
        1    1    3    3  502    0 -0.17611698816E+03  0.36620788030E+03  0.13200163775E+04  0.13811475815E+04  0.50400001928E-02 0.  1.
       -1    1    3    3    0  502  0.17611698816E+03 -0.36620788030E+03 -0.24316545471E+03  0.47355553370E+03  0.50400001928E-02 0. -1.
</event>
<event>
 5   0  0.4569211E-04  0.1508502E+04  0.7818609E-02  0.8878819E-01
        2   -1    0    0  501    0  0.00000000000E+00  0.00000000000E+00  0.39977658105E+03  0.39977658106E+03  0.25500000920E-02 0. -1.
       -2   -1    0    0    0  501  0.00000000000E+00  0.00000000000E+00 -0.14230311542E+04  0.14230311542E+04  0.25500000920E-02 0.  1.
    10030    2    1    2    0    0  0.00000000000E+00  0.00000000000E+00 -0.10232545731E+04  0.18228077352E+04  0.15085019451E+04 0.  0.
        5    1    3    3  502    0 -0.67215054946E+03  0.33841303411E+03 -0.45045656566E+03  0.87706496358E+03  0.46999998093E+01 0.  1.
       -5    1    3    3    0  502  0.67215054946E+03 -0.33841303411E+03 -0.57279800749E+03  0.94574277167E+03  0.46999998093E+01 0. -1.
</event>
<event>
 5   0  0.4726600E-04  0.1491539E+04  0.7818609E-02  0.8890099E-01
        2   -1    0    0  501    0  0.00000000000E+00  0.00000000000E+00  0.20690897475E+04  0.20690897475E+04  0.25500000920E-02 0. -1.
       -2   -1    0    0    0  501  0.00000000000E+00  0.00000000000E+00 -0.26880045353E+03  0.26880045354E+03  0.25500000920E-02 0.  1.
    10030    2    1    2    0    0  0.00000000000E+00  0.00000000000E+00  0.18002892939E+04  0.23378902010E+04  0.14915391547E+04 0.  0.
        2    1    3    3  502    0 -0.50711230323E+02  0.10214906333E+03  0.20553410329E+04  0.20585025678E+04  0.25500000920E-02 0. -1.
       -2    1    3    3    0  502  0.50711230323E+02 -0.10214906333E+03 -0.25505173899E+03  0.27938763320E+03  0.25500000920E-02 0.  1.
</event>
<event>
 5   0  0.2542737E-04  0.1496283E+04  0.7818609E-02  0.8886928E-01
       -1   -1    0    0    0  501  0.00000000000E+00  0.00000000000E+00  0.77308334533E+03  0.77308334535E+03  0.50400001928E-02 0. -1.
        1   -1    0    0  501    0  0.00000000000E+00  0.00000000000E+00 -0.72400461006E+03  0.72400461008E+03  0.50400001928E-02 0.  1.
    10030    2    1    2    0    0  0.00000000000E+00  0.00000000000E+00  0.49078735270E+02  0.14970879554E+04  0.14962832700E+04 0.  0.
        1    1    3    3  502    0 -0.21082647469E+03 -0.70405425528E+03  0.16452783166E+03  0.75313319156E+03  0.50400001928E-02 0. -1.
       -1    1    3    3    0  502  0.21082647469E+03  0.70405425528E+03 -0.11544909639E+03  0.74395476387E+03  0.50400001928E-02 0.  1.
</event>
<event>
 5   0  0.2544374E-04  0.1515966E+04  0.7818609E-02  0.8873905E-01
       -1   -1    0    0    0  501  0.00000000000E+00  0.00000000000E+00  0.18911048994E+04  0.18911048994E+04  0.50400001928E-02 0. -1.
        1   -1    0    0  501    0  0.00000000000E+00  0.00000000000E+00 -0.30381089368E+03  0.30381089372E+03  0.50400001928E-02 0.  1.
    10030    2    1    2    0    0  0.00000000000E+00  0.00000000000E+00  0.15872940057E+04  0.21949157931E+04  0.15159660545E+04 0.  0.
        4    1    3    3  502    0 -0.41260686041E+03 -0.29689203224E+03 -0.20444392023E+02  0.50873262735E+03  0.12699999809E+01 0.  1.
       -4    1    3    3    0  502  0.41260686041E+03  0.29689203224E+03  0.16077383977E+04  0.16861831658E+04  0.12699999809E+01 0. -1.
</event>
<event>
 5   0  0.4726600E-04  0.1482118E+04  0.7818609E-02  0.8896432E-01
       -2   -1    0    0    0  501  0.00000000000E+00  0.00000000000E+00  0.36897248339E+03  0.36897248340E+03  0.25500000920E-02 0.  1.
        2   -1    0    0  501    0  0.00000000000E+00  0.00000000000E+00 -0.14883716770E+04  0.14883716771E+04  0.25500000920E-02 0. -1.
    10030    2    1    2    0    0  0.00000000000E+00  0.00000000000E+00 -0.11193991937E+04  0.18573441605E+04  0.14821176659E+04 0.  0.
        2    1    3    3  502    0  0.39977828782E+03  0.14299913113E+03  0.20143615692E+03  0.46994463103E+03  0.25500000920E-02 0.  1.
       -2    1    3    3    0  502 -0.39977828782E+03 -0.14299913113E+03 -0.13208353506E+04  0.13873995294E+04  0.25500000920E-02 0. -1.
</event>
<event>
 5   0  0.4569211E-04  0.1590559E+04  0.7818609E-02  0.8826369E-01
        2   -1    0    0  501    0  0.00000000000E+00  0.00000000000E+00  0.10550036498E+04  0.10550036498E+04  0.25500000920E-02 0. -1.
       -2   -1    0    0    0  501  0.00000000000E+00  0.00000000000E+00 -0.59949483583E+03  0.59949483584E+03  0.25500000920E-02 0.  1.
    10030    2    1    2    0    0  0.00000000000E+00  0.00000000000E+00  0.45550881398E+03  0.16544984856E+04  0.15905586941E+04 0.  0.
        5    1    3    3  502    0 -0.19299178597E+03 -0.63192566261E+03 -0.23261033181E+03  0.70050376800E+03  0.46999998093E+01 0.  1.
       -5    1    3    3    0  502  0.19299178597E+03  0.63192566261E+03  0.68811914578E+03  0.95399471765E+03  0.46999998093E+01 0. -1.
</event>
<event>
 5   0  0.2544374E-04  0.1488958E+04  0.7818609E-02  0.8891829E-01
        1   -1    0    0  501    0  0.00000000000E+00  0.00000000000E+00  0.77774768629E+03  0.77774768631E+03  0.50400001928E-02 0. -1.
       -1   -1    0    0    0  501  0.00000000000E+00  0.00000000000E+00 -0.71263351366E+03  0.71263351368E+03  0.50400001928E-02 0.  1.
    10030    2    1    2    0    0  0.00000000000E+00  0.00000000000E+00  0.65114172630E+02  0.14903812000E+04  0.14889581142E+04 0.  0.
        4    1    3    3  502    0  0.48265424520E+03  0.95920668796E+02 -0.52662840389E+03  0.72076000429E+03  0.12699999809E+01 0.  1.
       -4    1    3    3    0  502 -0.48265424520E+03 -0.95920668796E+02  0.59174257652E+03  0.76962119570E+03  0.12699999809E+01 0. -1.
</event>
<event>
 5   0  0.2603873E-04  0.1500948E+04  0.7818609E-02  0.8883823E-01
       -1   -1    0    0    0  501  0.00000000000E+00  0.00000000000E+00  0.27563582246E+03  0.27563582251E+03  0.50400001928E-02 0. -1.
        1   -1    0    0  501    0  0.00000000000E+00  0.00000000000E+00 -0.20433159011E+04  0.20433159011E+04  0.50400001928E-02 0.  1.
    10030    2    1    2    0    0  0.00000000000E+00  0.00000000000E+00 -0.17676800786E+04  0.23189517236E+04  0.15009477792E+04 0.  0.
        2    1    3    3  502    0  0.18336671285E+03  0.66983692083E+02 -0.20034003737E+04  0.20128892726E+04  0.25500000920E-02 0.  1.
       -2    1    3    3    0  502 -0.18336671285E+03 -0.66983692083E+02  0.23572029508E+03  0.30606245099E+03  0.25500000920E-02 0. -1.
</event>
<event>
 5   0  0.4785496E-04  0.1499744E+04  0.7818609E-02  0.8884623E-01
        2   -1    0    0  501    0  0.00000000000E+00  0.00000000000E+00  0.10774290517E+04  0.10774290518E+04  0.25500000920E-02 0.  1.
       -2   -1    0    0    0  501  0.00000000000E+00  0.00000000000E+00 -0.52189789975E+03  0.52189789976E+03  0.25500000920E-02 0. -1.
    10030    2    1    2    0    0  0.00000000000E+00  0.00000000000E+00  0.55553115200E+03  0.15993269515E+04  0.14997439238E+04 0.  0.
        4    1    3    3  502    0  0.61292509143E+03 -0.21967277285E+02  0.73786079375E+03  0.95947896946E+03  0.12699999809E+01 0.  1.
       -4    1    3    3    0  502 -0.61292509143E+03  0.21967277285E+02 -0.18232964176E+03  0.63984798205E+03  0.12699999809E+01 0. -1.
</event>
<event>
 5   0  0.2565416E-04  0.1506415E+04  0.7818609E-02  0.8880198E-01
        1   -1    0    0  501    0  0.00000000000E+00  0.00000000000E+00  0.86942526969E+03  0.86942526970E+03  0.50400001928E-02 0. -1.
       -1   -1    0    0    0  501  0.00000000000E+00  0.00000000000E+00 -0.65252475754E+03  0.65252475756E+03  0.50400001928E-02 0.  1.
    10030    2    1    2    0    0  0.00000000000E+00  0.00000000000E+00  0.21690051214E+03  0.15219500273E+04  0.15064149672E+04 0.  0.
        5    1    3    3  502    0 -0.65754685987E+03  0.25071413684E+02 -0.26180274437E+03  0.70820845495E+03  0.46999998093E+01 0.  1.
       -5    1    3    3    0  502  0.65754685987E+03 -0.25071413684E+02  0.47870325651E+03  0.81374157231E+03  0.46999998093E+01 0. -1.
</event>
<event>
 5   0  0.4785496E-04  0.1490210E+04  0.7818609E-02  0.8890989E-01
        2   -1    0    0  501    0  0.00000000000E+00  0.00000000000E+00  0.11698810906E+04  0.11698810906E+04  0.25500000920E-02 0.  1.
       -2   -1    0    0    0  501  0.00000000000E+00  0.00000000000E+00 -0.47456255260E+03  0.47456255261E+03  0.25500000920E-02 0. -1.
    10030    2    1    2    0    0  0.00000000000E+00  0.00000000000E+00  0.69531853801E+03  0.16444436432E+04  0.14902103967E+04 0.  0.
        4    1    3    3  502    0  0.18614983096E+03 -0.44987860397E+03 -0.27475411548E+03  0.55904736360E+03  0.12699999809E+01 0. -1.
       -4    1    3    3    0  502 -0.18614983096E+03  0.44987860397E+03  0.97007265349E+03  0.10853962796E+04  0.12699999809E+01 0.  1.
</event>
<event>
 5   0  0.4785496E-04  0.1534024E+04  0.7818609E-02  0.8862138E-01
        2   -1    0    0  501    0  0.00000000000E+00  0.00000000000E+00  0.47047852357E+03  0.47047852358E+03  0.25500000920E-02 0. -1.
       -2   -1    0    0    0  501  0.00000000000E+00  0.00000000000E+00 -0.12504440097E+04  0.12504440097E+04  0.25500000920E-02 0.  1.
    10030    2    1    2    0    0  0.00000000000E+00  0.00000000000E+00 -0.77996548609E+03  0.17209225332E+04  0.15340235350E+04 0.  0.
        4    1    3    3  502    0  0.42845830714E+03  0.37100091329E+03  0.18978742975E+03  0.59769480508E+03  0.12699999809E+01 0. -1.
       -4    1    3    3    0  502 -0.42845830714E+03 -0.37100091329E+03 -0.96975291584E+03  0.11232277282E+04  0.12699999809E+01 0.  1.
</event>
<event>
 5   0  0.4768387E-04  0.1495623E+04  0.7818609E-02  0.8887369E-01
        2   -1    0    0  501    0  0.00000000000E+00  0.00000000000E+00  0.10497043025E+04  0.10497043025E+04  0.25500000920E-02 0.  1.
       -2   -1    0    0    0  501  0.00000000000E+00  0.00000000000E+00 -0.53274266430E+03  0.53274266431E+03  0.25500000920E-02 0. -1.
    10030    2    1    2    0    0  0.00000000000E+00  0.00000000000E+00  0.51696163818E+03  0.15824469668E+04  0.14956233040E+04 0.  0.
        3    1    3    3  502    0 -0.48134153094E+03 -0.54638966329E+03  0.78329285879E+02  0.73237068537E+03  0.10100000352E+00 0. -1.
       -3    1    3    3    0  502  0.48134153094E+03  0.54638966329E+03  0.43863235231E+03  0.85007628143E+03  0.10100000352E+00 0.  1.
</event>
<event>
 5   0  0.2603873E-04  0.1489861E+04  0.7818609E-02  0.8891223E-01
        1   -1    0    0  501    0  0.00000000000E+00  0.00000000000E+00  0.67621374630E+03  0.67621374632E+03  0.50400001928E-02 0. -1.
       -1   -1    0    0    0  501  0.00000000000E+00  0.00000000000E+00 -0.82063031283E+03  0.82063031285E+03  0.50400001928E-02 0.  1.
    10030    2    1    2    0    0  0.00000000000E+00  0.00000000000E+00 -0.14441656653E+03  0.14968440592E+04  0.14898610649E+04 0.  0.
        2    1    3    3  502    0 -0.41879806666E+03  0.55306035990E+03  0.20045628581E+03  0.72211516038E+03  0.25500000920E-02 0. -1.
       -2    1    3    3    0  502  0.41879806666E+03 -0.55306035990E+03 -0.34487285234E+03  0.77472889879E+03  0.25500000920E-02 0.  1.
</event>
<event>
 5   0  0.2544374E-04  0.1516403E+04  0.7818609E-02  0.8873617E-01
        1   -1    0    0  501    0  0.00000000000E+00  0.00000000000E+00  0.10669758046E+04  0.10669758046E+04  0.50400001928E-02 0. -1.
       -1   -1    0    0    0  501  0.00000000000E+00  0.00000000000E+00 -0.53878436354E+03  0.53878436356E+03  0.50400001928E-02 0.  1.
    10030    2    1    2    0    0  0.00000000000E+00  0.00000000000E+00  0.52819144109E+03  0.16057601682E+04  0.15164034817E+04 0.  0.
        4    1    3    3  502    0 -0.22211265912E+03  0.35350211558E+03  0.93429720058E+03  0.10233331085E+04  0.12699999809E+01 0. -1.
       -4    1    3    3    0  502  0.22211265912E+03 -0.35350211558E+03 -0.40610575949E+03  0.58242705969E+03  0.12699999809E+01 0.  1.
</event>
<event>
 5   0  0.2565416E-04  0.1495330E+04  0.7818609E-02  0.8887564E-01
        1   -1    0    0  501    0  0.00000000000E+00  0.00000000000E+00  0.85826568125E+03  0.85826568127E+03  0.50400001928E-02 0. -1.
       -1   -1    0    0    0  501  0.00000000000E+00  0.00000000000E+00 -0.65131687669E+03  0.65131687671E+03  0.50400001928E-02 0.  1.
    10030    2    1    2    0    0  0.00000000000E+00  0.00000000000E+00  0.20694880456E+03  0.15095825580E+04  0.14953299608E+04 0.  0.
        5    1    3    3  502    0 -0.62841403736E+03  0.18892398085E+03  0.46519721107E+03  0.80437989040E+03  0.46999998093E+01 0. -1.
       -5    1    3    3    0  502  0.62841403736E+03 -0.18892398085E+03 -0.25824840651E+03  0.70520266757E+03  0.46999998093E+01 0.  1.
</event>
<event>
 5   0  0.4948645E-04  0.1501610E+04  0.7818609E-02  0.8883383E-01
       -2   -1    0    0    0  501  0.00000000000E+00  0.00000000000E+00  0.58570340572E+03  0.58570340573E+03  0.25500000920E-02 0. -1.
        2   -1    0    0  501    0  0.00000000000E+00  0.00000000000E+00 -0.96244673391E+03  0.96244673391E+03  0.25500000920E-02 0.  1.
    10030    2    1    2    0    0  0.00000000000E+00  0.00000000000E+00 -0.37674332819E+03  0.15481501396E+04  0.15016102422E+04 0.  0.
        1    1    3    3  502    0  0.19885972546E+03 -0.67932311808E+03 -0.44649755920E+03  0.83689017174E+03  0.50400001928E-02 0.  1.
       -1    1    3    3    0  502 -0.19885972546E+03  0.67932311808E+03  0.69754231014E+02  0.71125996790E+03  0.50400001928E-02 0. -1.
</event>
<event>
 5   0  0.4569211E-04  0.1368891E+04  0.7818609E-02  0.8976650E-01
        2   -1    0    0  501    0  0.00000000000E+00  0.00000000000E+00  0.72296707480E+03  0.72296707480E+03  0.25500000920E-02 0. -1.
       -2   -1    0    0    0  501  0.00000000000E+00  0.00000000000E+00 -0.64797665652E+03  0.64797665652E+03  0.25500000920E-02 0.  1.
    10030    2    1    2    0    0  0.00000000000E+00  0.00000000000E+00  0.74990418282E+02  0.13709437313E+04  0.13688912125E+04 0.  0.
        5    1    3    3  502    0  0.40357293971E+03 -0.45885541087E+03 -0.27122710152E+03  0.66858480117E+03  0.46999998093E+01 0.  1.
       -5    1    3    3    0  502 -0.40357293971E+03  0.45885541087E+03  0.34621751981E+03  0.70235893016E+03  0.46999998093E+01 0. -1.
</event>
<event>
 5   0  0.4785496E-04  0.1514813E+04  0.7818609E-02  0.8874662E-01
       -2   -1    0    0    0  501  0.00000000000E+00  0.00000000000E+00  0.38817814053E+03  0.38817814054E+03  0.25500000920E-02 0.  1.
        2   -1    0    0  501    0  0.00000000000E+00  0.00000000000E+00 -0.14778383908E+04  0.14778383908E+04  0.25500000920E-02 0. -1.
    10030    2    1    2    0    0  0.00000000000E+00  0.00000000000E+00 -0.10896602503E+04  0.18660165314E+04  0.15148129370E+04 0.  0.
        4    1    3    3  502    0  0.20972213463E+03  0.31467782617E+02 -0.14405181393E+04  0.14560452320E+04  0.12699999809E+01 0. -1.
       -4    1    3    3    0  502 -0.20972213463E+03 -0.31467782617E+02  0.35085788902E+03  0.40997129934E+03  0.12699999809E+01 0.  1.
</event>
<event>
 5   0  0.2565416E-04  0.1514397E+04  0.7818609E-02  0.8874935E-01
        1   -1    0    0  501    0  0.00000000000E+00  0.00000000000E+00  0.82724153858E+03  0.82724153860E+03  0.50400001928E-02 0.  1.
       -1   -1    0    0    0  501  0.00000000000E+00  0.00000000000E+00 -0.69308593760E+03  0.69308593762E+03  0.50400001928E-02 0. -1.
    10030    2    1    2    0    0  0.00000000000E+00  0.00000000000E+00  0.13415560098E+03  0.15203274762E+04  0.15143968798E+04 0.  0.
        5    1    3    3  502    0 -0.36338881468E+03  0.51703965637E+03  0.48577938037E+03  0.79711049001E+03  0.46999998093E+01 0.  1.
       -5    1    3    3    0  502  0.36338881468E+03 -0.51703965637E+03 -0.35162377939E+03  0.72321698620E+03  0.46999998093E+01 0. -1.
</event>
<event>
 5   0  0.2542737E-04  0.1503938E+04  0.7818609E-02  0.8881839E-01
       -1   -1    0    0    0  501  0.00000000000E+00  0.00000000000E+00  0.58511724139E+03  0.58511724141E+03  0.50400001928E-02 0. -1.
        1   -1    0    0  501    0  0.00000000000E+00  0.00000000000E+00 -0.96639986682E+03  0.96639986683E+03  0.50400001928E-02 0.  1.
    10030    2    1    2    0    0  0.00000000000E+00  0.00000000000E+00 -0.38128262543E+03  0.15515171082E+04  0.15039377968E+04 0.  0.
        1    1    3    3  502    0 -0.67138601922E+03  0.25785987593E+03  0.35864156071E+02  0.72009522991E+03  0.50400001928E-02 0. -1.
       -1    1    3    3    0  502  0.67138601922E+03 -0.25785987593E+03 -0.41714678150E+03  0.83142187833E+03  0.50400001928E-02 0.  1.
</event>
<event>
 5   0  0.2603873E-04  0.1501177E+04  0.7818609E-02  0.8883670E-01
        1   -1    0    0  501    0  0.00000000000E+00  0.00000000000E+00  0.10058441594E+04  0.10058441594E+04  0.50400001928E-02 0. -1.
       -1   -1    0    0    0  501  0.00000000000E+00  0.00000000000E+00 -0.56010993857E+03  0.56010993859E+03  0.50400001928E-02 0.  1.
    10030    2    1    2    0    0  0.00000000000E+00  0.00000000000E+00  0.44573422082E+03  0.15659540980E+04  0.15011772851E+04 0.  0.
        2    1    3    3  502    0  0.63175671116E+03 -0.29443010337E+03 -0.67679253064E+02  0.70027573796E+03  0.25500000920E-02 0.  1.
       -2    1    3    3    0  502 -0.63175671116E+03  0.29443010337E+03  0.51341347389E+03  0.86567836004E+03  0.25500000920E-02 0. -1.
</event>
<event>
 5   0  0.2603873E-04  0.1518704E+04  0.7818609E-02  0.8872109E-01
       -1   -1    0    0    0  501  0.00000000000E+00  0.00000000000E+00  0.47730933788E+03  0.47730933791E+03  0.50400001928E-02 0. -1.
        1   -1    0    0  501    0  0.00000000000E+00  0.00000000000E+00 -0.12080545787E+04  0.12080545787E+04  0.50400001928E-02 0.  1.
    10030    2    1    2    0    0  0.00000000000E+00  0.00000000000E+00 -0.73074524084E+03  0.16853639166E+04  0.15187043572E+04 0.  0.
        2    1    3    3  502    0  0.58738590446E+03 -0.35142514571E+03 -0.73022824054E+03  0.10008771738E+04  0.25500000920E-02 0.  1.
       -2    1    3    3    0  502 -0.58738590446E+03  0.35142514571E+03 -0.51700030073E+00  0.68448674281E+03  0.25500000920E-02 0. -1.
</event>
<event>
 5   0  0.2605471E-04  0.1492338E+04  0.7818609E-02  0.8889564E-01
        1   -1    0    0  501    0  0.00000000000E+00  0.00000000000E+00  0.14098098333E+04  0.14098098333E+04  0.50400001928E-02 0. -1.
       -1   -1    0    0    0  501  0.00000000000E+00  0.00000000000E+00 -0.39492445046E+03  0.39492445049E+03  0.50400001928E-02 0.  1.
    10030    2    1    2    0    0  0.00000000000E+00  0.00000000000E+00  0.10148853828E+04  0.18047342838E+04  0.14923382642E+04 0.  0.
        3    1    3    3  502    0  0.50567309148E+03  0.54087553596E+03  0.39583792151E+03  0.83960662881E+03  0.10100000352E+00 0.  1.
       -3    1    3    3    0  502 -0.50567309148E+03 -0.54087553596E+03  0.61904746134E+03  0.96512765499E+03  0.10100000352E+00 0. -1.
</event>
<event>
 5   0  0.4948645E-04  0.1494067E+04  0.7818609E-02  0.8888408E-01
        2   -1    0    0  501    0  0.00000000000E+00  0.00000000000E+00  0.11594800060E+04  0.11594800060E+04  0.25500000920E-02 0. -1.
       -2   -1    0    0    0  501  0.00000000000E+00  0.00000000000E+00 -0.48130107338E+03  0.48130107339E+03  0.25500000920E-02 0.  1.
    10030    2    1    2    0    0  0.00000000000E+00  0.00000000000E+00  0.67817893260E+03  0.16407810794E+04  0.14940668947E+04 0.  0.
        1    1    3    3  502    0 -0.47695072608E+03 -0.42268107584E+03  0.76712986766E+03  0.99731114546E+03  0.50400001928E-02 0. -1.
       -1    1    3    3    0  502  0.47695072608E+03  0.42268107584E+03 -0.88950935061E+02  0.64346993391E+03  0.50400001928E-02 0.  1.
</event>
<event>
 5   0  0.2603873E-04  0.1497062E+04  0.7818609E-02  0.8886409E-01
       -1   -1    0    0    0  501  0.00000000000E+00  0.00000000000E+00  0.85830703235E+03  0.85830703236E+03  0.50400001928E-02 0.  1.
        1   -1    0    0  501    0  0.00000000000E+00  0.00000000000E+00 -0.65279540368E+03  0.65279540370E+03  0.50400001928E-02 0. -1.
    10030    2    1    2    0    0  0.00000000000E+00  0.00000000000E+00  0.20551162866E+03  0.15111024361E+04  0.14970623042E+04 0.  0.
        2    1    3    3  502    0 -0.68812821926E+03 -0.20023274333E+03  0.32084998214E+03  0.78521226983E+03  0.25500000920E-02 0.  1.
       -2    1    3    3    0  502  0.68812821926E+03  0.20023274333E+03 -0.11533835348E+03  0.72589016623E+03  0.25500000920E-02 0. -1.
</event>
<event>
 5   0  0.2542737E-04  0.1497080E+04  0.7818609E-02  0.8886397E-01
        1   -1    0    0  501    0  0.00000000000E+00  0.00000000000E+00  0.90007335991E+03  0.90007335993E+03  0.50400001928E-02 0. -1.
       -1   -1    0    0    0  501  0.00000000000E+00  0.00000000000E+00 -0.62251803322E+03  0.62251803324E+03  0.50400001928E-02 0.  1.
    10030    2    1    2    0    0  0.00000000000E+00  0.00000000000E+00  0.27755532669E+03  0.15225913932E+04  0.14970796876E+04 0.  0.
        1    1    3    3  502    0 -0.47776409283E+03 -0.38161924328E+03  0.57789931083E+03  0.84134379936E+03  0.50400001928E-02 0. -1.
       -1    1    3    3    0  502  0.47776409283E+03  0.38161924328E+03 -0.30034398413E+03  0.68124759381E+03  0.50400001928E-02 0.  1.
</event>
<event>
 5   0  0.4785496E-04  0.1493237E+04  0.7818609E-02  0.8888963E-01
        2   -1    0    0  501    0  0.00000000000E+00  0.00000000000E+00  0.14706781909E+04  0.14706781909E+04  0.25500000920E-02 0. -1.
       -2   -1    0    0    0  501  0.00000000000E+00  0.00000000000E+00 -0.37903549489E+03  0.37903549489E+03  0.25500000920E-02 0.  1.
    10030    2    1    2    0    0  0.00000000000E+00  0.00000000000E+00  0.10916426960E+04  0.18497136858E+04  0.14932370688E+04 0.  0.
        4    1    3    3  502    0 -0.62680804559E+03 -0.31015371997E+02  0.44806499041E+02  0.62917367600E+03  0.12699999809E+01 0.  1.
       -4    1    3    3    0  502  0.62680804559E+03  0.31015371997E+02  0.10468361970E+04  0.12205400098E+04  0.12699999809E+01 0. -1.
</event>
<event>
 5   0  0.2565416E-04  0.1462817E+04  0.7818609E-02  0.8909563E-01
       -1   -1    0    0    0  501  0.00000000000E+00  0.00000000000E+00  0.30569582373E+03  0.30569582377E+03  0.50400001928E-02 0.  1.
        1   -1    0    0  501    0  0.00000000000E+00  0.00000000000E+00 -0.17499684290E+04  0.17499684290E+04  0.50400001928E-02 0. -1.
    10030    2    1    2    0    0  0.00000000000E+00  0.00000000000E+00 -0.14442726053E+04  0.20556642528E+04  0.14628165168E+04 0.  0.
        5    1    3    3  502    0  0.48056193708E+03 -0.16154964894E+03 -0.14629430852E+04  0.15483096024E+04  0.46999998093E+01 0. -1.
       -5    1    3    3    0  502 -0.48056193708E+03  0.16154964894E+03  0.18670479893E+02  0.50735465038E+03  0.46999998093E+01 0.  1.
</event>
<event>
 5   0  0.2565416E-04  0.1471872E+04  0.7818609E-02  0.8903376E-01
        1   -1    0    0  501    0  0.00000000000E+00  0.00000000000E+00  0.93000702401E+03  0.93000702402E+03  0.50400001928E-02 0.  1.
       -1   -1    0    0    0  501  0.00000000000E+00  0.00000000000E+00 -0.58236299517E+03  0.58236299519E+03  0.50400001928E-02 0. -1.
    10030    2    1    2    0    0  0.00000000000E+00  0.00000000000E+00  0.34764402884E+03  0.15123700192E+04  0.14718718369E+04 0.  0.
        5    1    3    3  502    0 -0.63515333214E+03  0.20632344271E+03  0.49150602531E+03  0.82921009476E+03  0.46999998093E+01 0. -1.
       -5    1    3    3    0  502  0.63515333214E+03 -0.20632344271E+03 -0.14386199647E+03  0.68315992445E+03  0.46999998093E+01 0.  1.
</event>
<event>
 5   0  0.2603873E-04  0.1496189E+04  0.7818609E-02  0.8886991E-01
       -1   -1    0    0    0  501  0.00000000000E+00  0.00000000000E+00  0.54070734994E+03  0.54070734996E+03  0.50400001928E-02 0. -1.
        1   -1    0    0  501    0  0.00000000000E+00  0.00000000000E+00 -0.10350247549E+04  0.10350247549E+04  0.50400001928E-02 0.  1.
    10030    2    1    2    0    0  0.00000000000E+00  0.00000000000E+00 -0.49431740492E+03  0.15757321048E+04  0.14961891489E+04 0.  0.
        2    1    3    3  502    0 -0.42482144510E+03 -0.31357887061E+03  0.31095896473E+03  0.61278091196E+03  0.25500000920E-02 0. -1.
       -2    1    3    3    0  502  0.42482144510E+03  0.31357887061E+03 -0.80527636966E+03  0.96295119287E+03  0.25500000920E-02 0.  1.
</event>
<event>
 5   0  0.4948645E-04  0.1497778E+04  0.7818609E-02  0.8885932E-01
        2   -1    0    0  501    0  0.00000000000E+00  0.00000000000E+00  0.15140071705E+04  0.15140071705E+04  0.25500000920E-02 0.  1.
       -2   -1    0    0    0  501  0.00000000000E+00  0.00000000000E+00 -0.37043067027E+03  0.37043067028E+03  0.25500000920E-02 0. -1.
    10030    2    1    2    0    0  0.00000000000E+00  0.00000000000E+00  0.11435765002E+04  0.18844378408E+04  0.14977779421E+04 0.  0.
        1    1    3    3  502    0  0.73930933102E+03 -0.82433049153E+02  0.46311100457E+03  0.87626782271E+03  0.50400001928E-02 0. -1.
       -1    1    3    3    0  502 -0.73930933102E+03  0.82433049153E+02  0.68046549564E+03  0.10081700181E+04  0.50400001928E-02 0.  1.
</event>
<event>
 5   0  0.2603873E-04  0.1611344E+04  0.7818609E-02  0.8813609E-01
        1   -1    0    0  501    0  0.00000000000E+00  0.00000000000E+00  0.77626714495E+03  0.77626714496E+03  0.50400001928E-02 0. -1.
       -1   -1    0    0    0  501  0.00000000000E+00  0.00000000000E+00 -0.83619067984E+03  0.83619067985E+03  0.50400001928E-02 0.  1.
    10030    2    1    2    0    0  0.00000000000E+00  0.00000000000E+00 -0.59923534888E+02  0.16124578248E+04  0.16113439753E+04 0.  0.
        2    1    3    3  502    0 -0.59360360454E+03 -0.24820976732E+03  0.45527962737E+03  0.78819595725E+03  0.25500000920E-02 0. -1.
       -2    1    3    3    0  502  0.59360360454E+03  0.24820976732E+03 -0.51520316226E+03  0.82426186757E+03  0.25500000920E-02 0.  1.
</event>
<event>
 5   0  0.4948645E-04  0.1493052E+04  0.7818609E-02  0.8889087E-01
        2   -1    0    0  501    0  0.00000000000E+00  0.00000000000E+00  0.13787778726E+04  0.13787778726E+04  0.25500000920E-02 0.  1.
       -2   -1    0    0    0  501  0.00000000000E+00  0.00000000000E+00 -0.40419910306E+03  0.40419910307E+03  0.25500000920E-02 0. -1.
    10030    2    1    2    0    0  0.00000000000E+00  0.00000000000E+00  0.97457876954E+03  0.17829769757E+04  0.14930516126E+04 0.  0.
        1    1    3    3  502    0 -0.10286633366E+03  0.62930852634E+03  0.95085716087E+03  0.11448755585E+04  0.50400001928E-02 0.  1.
       -1    1    3    3    0  502  0.10286633366E+03 -0.62930852634E+03  0.23721608671E+02  0.63810141723E+03  0.50400001928E-02 0. -1.
</event>
<event>
 5   0  0.4768387E-04  0.1492995E+04  0.7818609E-02  0.8889125E-01
        2   -1    0    0  501    0  0.00000000000E+00  0.00000000000E+00  0.79306415325E+03  0.79306415325E+03  0.25500000920E-02 0. -1.
       -2   -1    0    0    0  501  0.00000000000E+00  0.00000000000E+00 -0.70266511818E+03  0.70266511818E+03  0.25500000920E-02 0.  1.
    10030    2    1    2    0    0  0.00000000000E+00  0.00000000000E+00  0.90399035074E+02  0.14957292714E+04  0.14929949993E+04 0.  0.
        3    1    3    3  502    0 -0.26982432634E+03 -0.53391475937E+03 -0.40214750456E+03  0.72082783172E+03  0.10100000352E+00 0.  1.
       -3    1    3    3    0  502  0.26982432634E+03  0.53391475937E+03  0.49254653963E+03  0.77490143971E+03  0.10100000352E+00 0. -1.
</event>
<event>
 5   0  0.4768387E-04  0.1511405E+04  0.7818609E-02  0.8876904E-01
        2   -1    0    0  501    0  0.00000000000E+00  0.00000000000E+00  0.15626839494E+04  0.15626839494E+04  0.25500000920E-02 0. -1.
       -2   -1    0    0    0  501  0.00000000000E+00  0.00000000000E+00 -0.36545221721E+03  0.36545221722E+03  0.25500000920E-02 0.  1.
    10030    2    1    2    0    0  0.00000000000E+00  0.00000000000E+00  0.11972317322E+04  0.19281361667E+04  0.15114050604E+04 0.  0.
        3    1    3    3  502    0  0.49620423840E+03  0.19083145344E+03  0.12837772281E+04  0.13895032463E+04  0.10100000352E+00 0. -1.
       -3    1    3    3    0  502 -0.49620423840E+03 -0.19083145344E+03 -0.86545495905E+02  0.53863292036E+03  0.10100000352E+00 0.  1.
</event>
<event>
 5   0  0.2542737E-04  0.1502349E+04  0.7818609E-02  0.8882892E-01
        1   -1    0    0  501    0  0.00000000000E+00  0.00000000000E+00  0.86459102487E+03  0.86459102488E+03  0.50400001928E-02 0. -1.
       -1   -1    0    0    0  501  0.00000000000E+00  0.00000000000E+00 -0.65263587143E+03  0.65263587144E+03  0.50400001928E-02 0.  1.
    10030    2    1    2    0    0  0.00000000000E+00  0.00000000000E+00  0.21195515344E+03  0.15172268963E+04  0.15023489834E+04 0.  0.
        1    1    3    3  502    0 -0.61767296559E+03 -0.37899853023E+03 -0.93726359398E+02  0.73071499835E+03  0.50400001928E-02 0.  1.
       -1    1    3    3    0  502  0.61767296559E+03  0.37899853023E+03  0.30568151284E+03  0.78651189798E+03  0.50400001928E-02 0. -1.
</event>
<event>
 5   0  0.2565416E-04  0.1559321E+04  0.7818609E-02  0.8845936E-01
       -1   -1    0    0    0  501  0.00000000000E+00  0.00000000000E+00  0.34964682031E+03  0.34964682035E+03  0.50400001928E-02 0.  1.
        1   -1    0    0  501    0  0.00000000000E+00  0.00000000000E+00 -0.17385273831E+04  0.17385273831E+04  0.50400001928E-02 0. -1.
    10030    2    1    2    0    0  0.00000000000E+00  0.00000000000E+00 -0.13888805628E+04  0.20881742034E+04  0.15593210979E+04 0.  0.
        5    1    3    3  502    0  0.37823218078E+03  0.44724737885E+03 -0.13834990692E+04  0.15023919479E+04  0.46999998093E+01 0. -1.
       -5    1    3    3    0  502 -0.37823218078E+03 -0.44724737885E+03 -0.53814935348E+01  0.58578225556E+03  0.46999998093E+01 0.  1.
</event>
<event>
 5   0  0.4768387E-04  0.1496662E+04  0.7818609E-02  0.8886676E-01
       -2   -1    0    0    0  501  0.00000000000E+00  0.00000000000E+00  0.53794696939E+03  0.53794696940E+03  0.25500000920E-02 0. -1.
        2   -1    0    0  501    0  0.00000000000E+00  0.00000000000E+00 -0.10409933834E+04  0.10409933834E+04  0.25500000920E-02 0.  1.
    10030    2    1    2    0    0  0.00000000000E+00  0.00000000000E+00 -0.50304641404E+03  0.15789403528E+04  0.14966619335E+04 0.  0.
        3    1    3    3  502    0 -0.33964731528E+03 -0.66662935687E+03 -0.23503630067E+03  0.78421748964E+03  0.10100000352E+00 0. -1.
       -3    1    3    3    0  502  0.33964731528E+03  0.66662935687E+03 -0.26801011337E+03  0.79472286320E+03  0.10100000352E+00 0.  1.
</event>
<event>
 5   0  0.2565416E-04  0.1497943E+04  0.7818609E-02  0.8885822E-01
       -1   -1    0    0    0  501  0.00000000000E+00  0.00000000000E+00  0.77410919110E+03  0.77410919112E+03  0.50400001928E-02 0.  1.
        1   -1    0    0  501    0  0.00000000000E+00  0.00000000000E+00 -0.72465049042E+03  0.72465049043E+03  0.50400001928E-02 0. -1.
    10030    2    1    2    0    0  0.00000000000E+00  0.00000000000E+00  0.49458700687E+02  0.14987596816E+04  0.14979433968E+04 0.  0.
        5    1    3    3  502    0  0.12391029738E+03 -0.34243073087E+03 -0.63009191846E+03  0.72777090004E+03  0.46999998093E+01 0. -1.
       -5    1    3    3    0  502 -0.12391029738E+03  0.34243073087E+03  0.67955061915E+03  0.77098878151E+03  0.46999998093E+01 0.  1.
</event>
<event>
 5   0  0.4726600E-04  0.1497727E+04  0.7818609E-02  0.8885966E-01
        2   -1    0    0  501    0  0.00000000000E+00  0.00000000000E+00  0.10475220093E+04  0.10475220093E+04  0.25500000920E-02 0.  1.
       -2   -1    0    0    0  501  0.00000000000E+00  0.00000000000E+00 -0.53535536646E+03  0.53535536647E+03  0.25500000920E-02 0. -1.
    10030    2    1    2    0    0  0.00000000000E+00  0.00000000000E+00  0.51216664279E+03  0.15828773757E+04  0.14977269833E+04 0.  0.
        2    1    3    3  502    0  0.41334338284E+03  0.51183412816E+03 -0.12198303131E+03  0.66910894989E+03  0.25500000920E-02 0. -1.
       -2    1    3    3    0  502 -0.41334338284E+03 -0.51183412816E+03  0.63414967410E+03  0.91376842584E+03  0.25500000920E-02 0.  1.
</event>
<event>
 5   0  0.2542737E-04  0.1504361E+04  0.7818609E-02  0.8881558E-01
        1   -1    0    0  501    0  0.00000000000E+00  0.00000000000E+00  0.15214161642E+04  0.15214161642E+04  0.50400001928E-02 0.  1.
       -1   -1    0    0    0  501  0.00000000000E+00  0.00000000000E+00 -0.37187419985E+03  0.37187419989E+03  0.50400001928E-02 0. -1.
    10030    2    1    2    0    0  0.00000000000E+00  0.00000000000E+00  0.11495419644E+04  0.18932903641E+04  0.15043608859E+04 0.  0.
        1    1    3    3  502    0 -0.63212087474E+03 -0.10212471007E+02  0.61859304353E+02  0.63522253456E+03  0.50400001928E-02 0. -1.
       -1    1    3    3    0  502  0.63212087474E+03  0.10212471007E+02  0.10876826600E+04  0.12580678296E+04  0.50400001928E-02 0.  1.
</event>
<event>
 5   0  0.2542737E-04  0.1503394E+04  0.7818609E-02  0.8882199E-01
        1   -1    0    0  501    0  0.00000000000E+00  0.00000000000E+00  0.61549216953E+03  0.61549216955E+03  0.50400001928E-02 0. -1.
       -1   -1    0    0    0  501  0.00000000000E+00  0.00000000000E+00 -0.91804330287E+03  0.91804330288E+03  0.50400001928E-02 0.  1.
    10030    2    1    2    0    0  0.00000000000E+00  0.00000000000E+00 -0.30255113334E+03  0.15335354724E+04  0.15033941123E+04 0.  0.
        1    1    3    3  502    0 -0.21078213610E+03  0.15109729729E+03 -0.87096249097E+03  0.90875473196E+03  0.50400001928E-02 0.  1.
       -1    1    3    3    0  502  0.21078213610E+03 -0.15109729729E+03  0.56841135764E+03  0.62478074047E+03  0.50400001928E-02 0. -1.
</event>
<event>
 5   0  0.2603873E-04  0.1522084E+04  0.7818609E-02  0.8869899E-01
        1   -1    0    0  501    0  0.00000000000E+00  0.00000000000E+00  0.94670078670E+03  0.94670078671E+03  0.50400001928E-02 0. -1.
       -1   -1    0    0    0  501  0.00000000000E+00  0.00000000000E+00 -0.61179286553E+03  0.61179286555E+03  0.50400001928E-02 0.  1.
    10030    2    1    2    0    0  0.00000000000E+00  0.00000000000E+00  0.33490792117E+03  0.15584936523E+04  0.15220838178E+04 0.  0.
        2    1    3    3  502    0  0.44696450040E+03 -0.61298602996E+03  0.22936224199E+03  0.79255042464E+03  0.25500000920E-02 0.  1.
       -2    1    3    3    0  502 -0.44696450040E+03  0.61298602996E+03  0.10554567918E+03  0.76594322763E+03  0.25500000920E-02 0. -1.
</event>
<event>
 5   0  0.4785496E-04  0.1487188E+04  0.7818609E-02  0.8893017E-01
        2   -1    0    0  501    0  0.00000000000E+00  0.00000000000E+00  0.10809572837E+04  0.10809572837E+04  0.25500000920E-02 0.  1.
       -2   -1    0    0    0  501  0.00000000000E+00  0.00000000000E+00 -0.51152094681E+03  0.51152094681E+03  0.25500000920E-02 0. -1.
    10030    2    1    2    0    0  0.00000000000E+00  0.00000000000E+00  0.56943633690E+03  0.15924782305E+04  0.14871883448E+04 0.  0.
        4    1    3    3  502    0  0.72285689230E+03 -0.11821846422E+03  0.14745127530E+03  0.74715539449E+03  0.12699999809E+01 0. -1.
       -4    1    3    3    0  502 -0.72285689230E+03  0.11821846422E+03  0.42198506160E+03  0.84532283605E+03  0.12699999809E+01 0.  1.
</event>
<event>
 5   0  0.2605471E-04  0.1522018E+04  0.7818609E-02  0.8869942E-01
        1   -1    0    0  501    0  0.00000000000E+00  0.00000000000E+00  0.18512413243E+04  0.18512413243E+04  0.50400001928E-02 0.  1.
       -1   -1    0    0    0  501  0.00000000000E+00  0.00000000000E+00 -0.31283578907E+03  0.31283578911E+03  0.50400001928E-02 0. -1.
    10030    2    1    2    0    0  0.00000000000E+00  0.00000000000E+00  0.15384055352E+04  0.21640771134E+04  0.15220177929E+04 0.  0.
        3    1    3    3  502    0 -0.45906770523E+03 -0.15696270388E+03 -0.64434141181E+02  0.48942028681E+03  0.10100000352E+00 0. -1.
       -3    1    3    3    0  502  0.45906770523E+03  0.15696270388E+03  0.16028396764E+04  0.16746568266E+04  0.10100000352E+00 0.  1.
</event>
<event>
 5   0  0.2565416E-04  0.1423621E+04  0.7818609E-02  0.8936896E-01
       -1   -1    0    0    0  501  0.00000000000E+00  0.00000000000E+00  0.50563158295E+03  0.50563158297E+03  0.50400001928E-02 0.  1.
        1   -1    0    0  501    0  0.00000000000E+00  0.00000000000E+00 -0.10020612893E+04  0.10020612893E+04  0.50400001928E-02 0. -1.
    10030    2    1    2    0    0  0.00000000000E+00  0.00000000000E+00 -0.49642970639E+03  0.15076928723E+04  0.14236205056E+04 0.  0.
        5    1    3    3  502    0  0.62992085175E+03 -0.32350706280E+03 -0.17188460762E+03  0.72871359771E+03  0.46999998093E+01 0.  1.
       -5    1    3    3    0  502 -0.62992085175E+03  0.32350706280E+03 -0.32454509876E+03  0.77897927461E+03  0.46999998093E+01 0. -1.
</event>
<event>
 5   0  0.2544374E-04  0.1492413E+04  0.7818609E-02  0.8889514E-01
        1   -1    0    0  501    0  0.00000000000E+00  0.00000000000E+00  0.44465983699E+03  0.44465983702E+03  0.50400001928E-02 0.  1.
       -1   -1    0    0    0  501  0.00000000000E+00  0.00000000000E+00 -0.12522467504E+04  0.12522467505E+04  0.50400001928E-02 0. -1.
    10030    2    1    2    0    0  0.00000000000E+00  0.00000000000E+00 -0.80758691346E+03  0.16969065875E+04  0.14924125917E+04 0.  0.
        4    1    3    3  502    0 -0.21175395431E+03  0.48382479446E+03  0.19559754817E+03  0.56319284677E+03  0.12699999809E+01 0.  1.
       -4    1    3    3    0  502  0.21175395431E+03 -0.48382479446E+03 -0.10031844616E+04  0.11337137407E+04  0.12699999809E+01 0. -1.
</event>
<event>
 5   0  0.4726600E-04  0.1502352E+04  0.7818609E-02  0.8882890E-01
        2   -1    0    0  501    0  0.00000000000E+00  0.00000000000E+00  0.20664535782E+04  0.20664535782E+04  0.25500000920E-02 0. -1.
       -2   -1    0    0    0  501  0.00000000000E+00  0.00000000000E+00 -0.27305978752E+03  0.27305978753E+03  0.25500000920E-02 0.  1.
    10030    2    1    2    0    0  0.00000000000E+00  0.00000000000E+00  0.17933937906E+04  0.23395133657E+04  0.15023519894E+04 0.  0.
        2    1    3    3  502    0  0.12694527126E+03 -0.73950898069E+03  0.84105458398E+03  0.11271031220E+04  0.25500000920E-02 0. -1.
       -2    1    3    3    0  502 -0.12694527126E+03  0.73950898069E+03  0.95233920665E+03  0.12124102437E+04  0.25500000920E-02 0.  1.
</event>
<event>
 5   0  0.1792000E-04  0.1487239E+04  0.7818609E-02  0.8892984E-01
        3   -1    0    0  501    0  0.00000000000E+00  0.00000000000E+00  0.14071540147E+04  0.14071540183E+04  0.10100000352E+00 0. -1.
       -3   -1    0    0    0  501  0.00000000000E+00  0.00000000000E+00 -0.39297020580E+03  0.39297021878E+03  0.10100000352E+00 0.  1.
    10030    2    1    2    0    0  0.00000000000E+00  0.00000000000E+00  0.10141838089E+04  0.18001242371E+04  0.14872385386E+04 0.  0.
        5    1    3    3  502    0  0.33871716813E+03 -0.38281583293E+03 -0.14659218192E+03  0.53177875073E+03  0.46999998093E+01 0.  1.
       -5    1    3    3    0  502 -0.33871716813E+03  0.38281583293E+03  0.11607759908E+04  0.12683454864E+04  0.46999998093E+01 0. -1.
</event>
<event>
 5   0  0.4785496E-04  0.1373451E+04  0.7818609E-02  0.8973263E-01
        2   -1    0    0  501    0  0.00000000000E+00  0.00000000000E+00  0.19727798694E+04  0.19727798694E+04  0.25500000920E-02 0.  1.
       -2   -1    0    0    0  501  0.00000000000E+00  0.00000000000E+00 -0.23904960344E+03  0.23904960346E+03  0.25500000920E-02 0. -1.
    10030    2    1    2    0    0  0.00000000000E+00  0.00000000000E+00  0.17337302659E+04  0.22118294728E+04  0.13734514851E+04 0.  0.
        4    1    3    3  502    0  0.42132621186E+01 -0.64126186883E+03  0.12625039456E+04  0.14160340256E+04  0.12699999809E+01 0.  1.
       -4    1    3    3    0  502 -0.42132621186E+01  0.64126186883E+03  0.47122632029E+03  0.79579544723E+03  0.12699999809E+01 0. -1.
</event>
<event>
 5   0  0.4785496E-04  0.1454897E+04  0.7818609E-02  0.8915013E-01
       -2   -1    0    0    0  501  0.00000000000E+00  0.00000000000E+00  0.32396293062E+03  0.32396293063E+03  0.25500000920E-02 0.  1.
        2   -1    0    0  501    0  0.00000000000E+00  0.00000000000E+00 -0.16334621405E+04  0.16334621405E+04  0.25500000920E-02 0. -1.
    10030    2    1    2    0    0  0.00000000000E+00  0.00000000000E+00 -0.13094992099E+04  0.19574250711E+04  0.14548968102E+04 0.  0.
        4    1    3    3  502    0 -0.31205192391E+03  0.83589973463E+02 -0.15316561819E+04  0.15653548988E+04  0.12699999809E+01 0. -1.
       -4    1    3    3    0  502  0.31205192391E+03 -0.83589973463E+02  0.22215697202E+03  0.39207017228E+03  0.12699999809E+01 0.  1.
</event>
<event>
 5   0  0.2544374E-04  0.1498947E+04  0.7818609E-02  0.8885154E-01
        1   -1    0    0  501    0  0.00000000000E+00  0.00000000000E+00  0.13875595664E+04  0.13875595664E+04  0.50400001928E-02 0.  1.
       -1   -1    0    0    0  501  0.00000000000E+00  0.00000000000E+00 -0.40481892346E+03  0.40481892350E+03  0.50400001928E-02 0. -1.
    10030    2    1    2    0    0  0.00000000000E+00  0.00000000000E+00  0.98274064297E+03  0.17923784899E+04  0.14989467902E+04 0.  0.
        4    1    3    3  502    0 -0.25610942696E+03  0.85200645429E+02  0.13274249943E+04  0.13545884678E+04  0.12699999809E+01 0.  1.
       -4    1    3    3    0  502  0.25610942696E+03 -0.85200645429E+02 -0.34468435134E+03  0.43779002218E+03  0.12699999809E+01 0. -1.
</event>
<event>
 5   0  0.4726600E-04  0.1505096E+04  0.7818609E-02  0.8881071E-01
       -2   -1    0    0    0  501  0.00000000000E+00  0.00000000000E+00  0.94192187648E+03  0.94192187648E+03  0.25500000920E-02 0.  1.
        2   -1    0    0  501    0  0.00000000000E+00  0.00000000000E+00 -0.60124811839E+03  0.60124811840E+03  0.25500000920E-02 0. -1.
    10030    2    1    2    0    0  0.00000000000E+00  0.00000000000E+00  0.34067375808E+03  0.15431699949E+04  0.15050963503E+04 0.  0.
        2    1    3    3  502    0 -0.59778340285E+03  0.38065643444E+03 -0.89215944751E+02  0.71428551897E+03  0.25500000920E-02 0. -1.
       -2    1    3    3    0  502  0.59778340285E+03 -0.38065643444E+03  0.42988970283E+03  0.82888447591E+03  0.25500000920E-02 0.  1.
</event>
<event>
 5   0  0.4785496E-04  0.1495184E+04  0.7818609E-02  0.8887662E-01
        2   -1    0    0  501    0  0.00000000000E+00  0.00000000000E+00  0.68250670387E+03  0.68250670387E+03  0.25500000920E-02 0.  1.
       -2   -1    0    0    0  501  0.00000000000E+00  0.00000000000E+00 -0.81888421858E+03  0.81888421858E+03  0.25500000920E-02 0. -1.
    10030    2    1    2    0    0  0.00000000000E+00  0.00000000000E+00 -0.13637751471E+03  0.15013909225E+04  0.14951842280E+04 0.  0.
        4    1    3    3  502    0 -0.68753899080E+03  0.47690616572E+02  0.22268263837E+03  0.72427441561E+03  0.12699999809E+01 0.  1.
       -4    1    3    3    0  502  0.68753899080E+03 -0.47690616572E+02 -0.35906015308E+03  0.77711650684E+03  0.12699999809E+01 0. -1.
</event>
<event>
 5   0  0.4569211E-04  0.1491722E+04  0.7818609E-02  0.8889976E-01
       -2   -1    0    0    0  501  0.00000000000E+00  0.00000000000E+00  0.40135755929E+03  0.40135755930E+03  0.25500000920E-02 0. -1.
        2   -1    0    0  501    0  0.00000000000E+00  0.00000000000E+00 -0.13860678790E+04  0.13860678790E+04  0.25500000920E-02 0.  1.
    10030    2    1    2    0    0  0.00000000000E+00  0.00000000000E+00 -0.98471031969E+03  0.17874254383E+04  0.14917222542E+04 0.  0.
        5    1    3    3  502    0 -0.67311272085E+03  0.28728514913E+03 -0.32007144450E+03  0.79879991954E+03  0.46999998093E+01 0.  1.
       -5    1    3    3    0  502  0.67311272085E+03 -0.28728514913E+03 -0.66463887519E+03  0.98862551873E+03  0.46999998093E+01 0. -1.
</event>
<event>
 5   0  0.1792000E-04  0.1496903E+04  0.7818609E-02  0.8886515E-01
        4   -1    0    0  501    0  0.00000000000E+00  0.00000000000E+00  0.63578128097E+03  0.63578254941E+03  0.12699999809E+01 0. -1.
       -4   -1    0    0    0  501  0.00000000000E+00  0.00000000000E+00 -0.88108646292E+03  0.88108737821E+03  0.12699999809E+01 0.  1.
    10030    2    1    2    0    0  0.00000000000E+00  0.00000000000E+00 -0.24530518194E+03  0.15168699276E+04  0.14969033853E+04 0.  0.
        4    1    3    3  502    0 -0.26791161214E+03 -0.50519847020E+03 -0.61197677256E+03  0.83756749535E+03  0.12699999809E+01 0.  1.
       -4    1    3    3    0  502  0.26791161214E+03  0.50519847020E+03  0.36667159062E+03  0.67930243227E+03  0.12699999809E+01 0. -1.
</event>
<event>
 5   0  0.4569211E-04  0.1523867E+04  0.7818609E-02  0.8868735E-01
       -2   -1    0    0    0  501  0.00000000000E+00  0.00000000000E+00  0.78626293432E+03  0.78626293432E+03  0.25500000920E-02 0. -1.
        2   -1    0    0  501    0  0.00000000000E+00  0.00000000000E+00 -0.73835725048E+03  0.73835725049E+03  0.25500000920E-02 0.  1.
    10030    2    1    2    0    0  0.00000000000E+00  0.00000000000E+00  0.47905683835E+02  0.15246201848E+04  0.15238673674E+04 0.  0.
        5    1    3    3  502    0  0.44291559489E+03 -0.29379115934E+03  0.57014687255E+03  0.77947226749E+03  0.46999998093E+01 0. -1.
       -5    1    3    3    0  502 -0.44291559489E+03  0.29379115934E+03 -0.52224118872E+03  0.74514791733E+03  0.46999998093E+01 0.  1.
</event>
<event>
 5   0  0.2565416E-04  0.1494439E+04  0.7818609E-02  0.8888159E-01
       -1   -1    0    0    0  501  0.00000000000E+00  0.00000000000E+00  0.66359999177E+03  0.66359999179E+03  0.50400001928E-02 0. -1.
        1   -1    0    0  501    0  0.00000000000E+00  0.00000000000E+00 -0.84137578056E+03  0.84137578057E+03  0.50400001928E-02 0.  1.
    10030    2    1    2    0    0  0.00000000000E+00  0.00000000000E+00 -0.17777578879E+03  0.15049757724E+04  0.14944389731E+04 0.  0.
        5    1    3    3  502    0  0.31280485460E+03  0.55520700043E+03  0.30400796711E+03  0.70607692530E+03  0.46999998093E+01 0. -1.
       -5    1    3    3    0  502 -0.31280485460E+03 -0.55520700043E+03 -0.48178375589E+03  0.79889884705E+03  0.46999998093E+01 0.  1.
</event>
<event>
 5   0  0.2603873E-04  0.1502309E+04  0.7818609E-02  0.8882919E-01
        1   -1    0    0  501    0  0.00000000000E+00  0.00000000000E+00  0.20260965121E+04  0.20260965121E+04  0.50400001928E-02 0.  1.
       -1   -1    0    0    0  501  0.00000000000E+00  0.00000000000E+00 -0.27848290310E+03  0.27848290314E+03  0.50400001928E-02 0. -1.
    10030    2    1    2    0    0  0.00000000000E+00  0.00000000000E+00  0.17476136090E+04  0.23045794152E+04  0.15023092074E+04 0.  0.
        2    1    3    3  502    0 -0.36561404214E+03 -0.92877559694E+02  0.18702539938E+04  0.19079176791E+04  0.25500000920E-02 0.  1.
       -2    1    3    3    0  502  0.36561404214E+03  0.92877559694E+02 -0.12264038482E+03  0.39666173612E+03  0.25500000920E-02 0. -1.
</event>
<event>
 5   0  0.4948645E-04  0.1471565E+04  0.7818609E-02  0.8903585E-01
        2   -1    0    0  501    0  0.00000000000E+00  0.00000000000E+00  0.89661814054E+03  0.89661814054E+03  0.25500000920E-02 0.  1.
       -2   -1    0    0    0  501  0.00000000000E+00  0.00000000000E+00 -0.60379794854E+03  0.60379794855E+03  0.25500000920E-02 0. -1.
    10030    2    1    2    0    0  0.00000000000E+00  0.00000000000E+00  0.29282019200E+03  0.15004160891E+04  0.14715654167E+04 0.  0.
        1    1    3    3  502    0 -0.21655170766E+03  0.13432500329E+03 -0.55736759068E+03  0.61285926587E+03  0.50400001928E-02 0. -1.
       -1    1    3    3    0  502  0.21655170766E+03 -0.13432500329E+03  0.85018778268E+03  0.88755682322E+03  0.50400001928E-02 0.  1.
</event>
<event>
 5   0  0.2544374E-04  0.1512448E+04  0.7818609E-02  0.8876217E-01
        1   -1    0    0  501    0  0.00000000000E+00  0.00000000000E+00  0.16207952276E+04  0.16207952276E+04  0.50400001928E-02 0.  1.
       -1   -1    0    0    0  501  0.00000000000E+00  0.00000000000E+00 -0.35283595769E+03  0.35283595773E+03  0.50400001928E-02 0. -1.
    10030    2    1    2    0    0  0.00000000000E+00  0.00000000000E+00  0.12679592699E+04  0.19736311854E+04  0.15124481299E+04 0.  0.
        4    1    3    3  502    0 -0.55758345081E+03  0.31246158904E+03  0.10658706022E+03  0.64799225578E+03  0.12699999809E+01 0. -1.
       -4    1    3    3    0  502  0.55758345081E+03 -0.31246158904E+03  0.11613722097E+04  0.13256389296E+04  0.12699999809E+01 0.  1.
</event>
<event>
 5   0  0.4768387E-04  0.1496067E+04  0.7818609E-02  0.8887072E-01
        2   -1    0    0  501    0  0.00000000000E+00  0.00000000000E+00  0.75337295536E+03  0.75337295537E+03  0.25500000920E-02 0.  1.
       -2   -1    0    0    0  501  0.00000000000E+00  0.00000000000E+00 -0.74273229273E+03  0.74273229273E+03  0.25500000920E-02 0. -1.
    10030    2    1    2    0    0  0.00000000000E+00  0.00000000000E+00  0.10640662634E+02  0.14961052481E+04  0.14960674081E+04 0.  0.
        3    1    3    3  502    0  0.30634562009E+03 -0.20152467001E+02 -0.67682641924E+03  0.74320103126E+03  0.10100000352E+00 0. -1.
       -3    1    3    3    0  502 -0.30634562009E+03  0.20152467001E+02  0.68746708188E+03  0.75290421684E+03  0.10100000352E+00 0.  1.
</event>
<event>
 5   0  0.2565416E-04  0.1481054E+04  0.7818609E-02  0.8897150E-01
       -1   -1    0    0    0  501  0.00000000000E+00  0.00000000000E+00  0.50206839554E+03  0.50206839556E+03  0.50400001928E-02 0.  1.
        1   -1    0    0  501    0  0.00000000000E+00  0.00000000000E+00 -0.10922424059E+04  0.10922424059E+04  0.50400001928E-02 0. -1.
    10030    2    1    2    0    0  0.00000000000E+00  0.00000000000E+00 -0.59017401036E+03  0.15943108015E+04  0.14810542087E+04 0.  0.
        5    1    3    3  502    0  0.66098005824E+03 -0.18360375215E+03 -0.59525302373E+03  0.90826935843E+03  0.46999998093E+01 0. -1.
       -5    1    3    3    0  502 -0.66098005824E+03  0.18360375215E+03  0.50790133731E+01  0.68604144304E+03  0.46999998093E+01 0.  1.
</event>
<event>
 5   0  0.2605471E-04  0.1501037E+04  0.7818609E-02  0.8883764E-01
       -1   -1    0    0    0  501  0.00000000000E+00  0.00000000000E+00  0.37914209314E+03  0.37914209317E+03  0.50400001928E-02 0.  1.
        1   -1    0    0  501    0  0.00000000000E+00  0.00000000000E+00 -0.14856647115E+04  0.14856647115E+04  0.50400001928E-02 0. -1.
    10030    2    1    2    0    0  0.00000000000E+00  0.00000000000E+00 -0.11065226184E+04  0.18648068047E+04  0.15010370128E+04 0.  0.
        3    1    3    3  502    0  0.57866251027E+02  0.71567543061E+03 -0.82470230085E+03  0.10934686645E+04  0.10100000352E+00 0. -1.
       -3    1    3    3    0  502 -0.57866251027E+02 -0.71567543061E+03 -0.28182031753E+03  0.77133814022E+03  0.10100000352E+00 0.  1.
</event>
<event>
 5   0  0.1792000E-04  0.1499082E+04  0.7818609E-02  0.8885064E-01
        3   -1    0    0  501    0  0.00000000000E+00  0.00000000000E+00  0.13278517264E+04  0.13278517302E+04  0.10100000352E+00 0. -1.
       -3   -1    0    0    0  501  0.00000000000E+00  0.00000000000E+00 -0.42309807244E+03  0.42309808449E+03  0.10100000352E+00 0.  1.
    10030    2    1    2    0    0  0.00000000000E+00  0.00000000000E+00  0.90475365392E+03  0.17509498147E+04  0.14990817454E+04 0.  0.
        2    1    3    3  502    0  0.26607999283E+03  0.13701675865E+03  0.12550328632E+04  0.12902246480E+04  0.25500000920E-02 0. -1.
       -2    1    3    3    0  502 -0.26607999283E+03 -0.13701675865E+03 -0.35027920926E+03  0.46072516665E+03  0.25500000920E-02 0.  1.
</event>
<event>
 5   0  0.4726600E-04  0.1476768E+04  0.7818609E-02  0.8900051E-01
        2   -1    0    0  501    0  0.00000000000E+00  0.00000000000E+00  0.12960102666E+04  0.12960102666E+04  0.25500000920E-02 0. -1.
       -2   -1    0    0    0  501  0.00000000000E+00  0.00000000000E+00 -0.42068412062E+03  0.42068412063E+03  0.25500000920E-02 0.  1.
    10030    2    1    2    0    0  0.00000000000E+00  0.00000000000E+00  0.87532614596E+03  0.17166943872E+04  0.14767680107E+04 0.  0.
        2    1    3    3  502    0  0.31015836738E+03 -0.56352621016E+03  0.85912908119E+03  0.10732487040E+04  0.25500000920E-02 0. -1.
       -2    1    3    3    0  502 -0.31015836738E+03  0.56352621016E+03  0.16197064773E+02  0.64344568326E+03  0.25500000920E-02 0.  1.
</event>
<event>
 5   0  0.4569211E-04  0.1497137E+04  0.7818609E-02  0.8886359E-01
       -2   -1    0    0    0  501  0.00000000000E+00  0.00000000000E+00  0.11479333605E+04  0.11479333605E+04  0.25500000920E-02 0.  1.
        2   -1    0    0  501    0  0.00000000000E+00  0.00000000000E+00 -0.48814204157E+03  0.48814204158E+03  0.25500000920E-02 0. -1.
    10030    2    1    2    0    0  0.00000000000E+00  0.00000000000E+00  0.65979131890E+03  0.16360754020E+04  0.14971366460E+04 0.  0.
        5    1    3    3  502    0  0.79050531063E+02  0.24375617648E+03 -0.43870025819E+03  0.50808076776E+03  0.46999998093E+01 0. -1.
       -5    1    3    3    0  502 -0.79050531063E+02 -0.24375617648E+03  0.10984915771E+04  0.11279946343E+04  0.46999998093E+01 0.  1.
</event>
<event>
 5   0  0.2544374E-04  0.1505811E+04  0.7818609E-02  0.8880598E-01
       -1   -1    0    0    0  501  0.00000000000E+00  0.00000000000E+00  0.94115870683E+03  0.94115870684E+03  0.50400001928E-02 0. -1.
        1   -1    0    0  501    0  0.00000000000E+00  0.00000000000E+00 -0.60230686617E+03  0.60230686620E+03  0.50400001928E-02 0.  1.
    10030    2    1    2    0    0  0.00000000000E+00  0.00000000000E+00  0.33885184065E+03  0.15434655730E+04  0.15058105476E+04 0.  0.
        4    1    3    3  502    0 -0.45610066940E+03  0.16556103197E+03 -0.42066672636E+03  0.64218407291E+03  0.12699999809E+01 0.  1.
       -4    1    3    3    0  502  0.45610066940E+03 -0.16556103197E+03  0.75951856701E+03  0.90128150012E+03  0.12699999809E+01 0. -1.
</event>
<event>
 5   0  0.4785496E-04  0.1533898E+04  0.7818609E-02  0.8862219E-01
        2   -1    0    0  501    0  0.00000000000E+00  0.00000000000E+00  0.66570203625E+03  0.66570203626E+03  0.25500000920E-02 0. -1.
       -2   -1    0    0    0  501  0.00000000000E+00  0.00000000000E+00 -0.88359502011E+03  0.88359502011E+03  0.25500000920E-02 0.  1.
    10030    2    1    2    0    0  0.00000000000E+00  0.00000000000E+00 -0.21789298386E+03  0.15492970564E+04  0.15338983071E+04 0.  0.
        4    1    3    3  502    0 -0.42342820429E+03 -0.41859119214E+02 -0.75344772557E+03  0.86529111756E+03  0.12699999809E+01 0.  1.
       -4    1    3    3    0  502  0.42342820429E+03  0.41859119214E+02  0.53555474172E+03  0.68400593881E+03  0.12699999809E+01 0. -1.
</event>
<event>
 5   0  0.2565416E-04  0.1509706E+04  0.7818609E-02  0.8878024E-01
       -1   -1    0    0    0  501  0.00000000000E+00  0.00000000000E+00  0.87487302992E+03  0.87487302994E+03  0.50400001928E-02 0.  1.
        1   -1    0    0  501    0  0.00000000000E+00  0.00000000000E+00 -0.65129804313E+03  0.65129804315E+03  0.50400001928E-02 0. -1.
    10030    2    1    2    0    0  0.00000000000E+00  0.00000000000E+00  0.22357498680E+03  0.15261710731E+04  0.15097060540E+04 0.  0.
        5    1    3    3  502    0  0.16552406083E+03  0.24204109520E+03  0.81492984575E+03  0.86609170991E+03  0.46999998093E+01 0.  1.
       -5    1    3    3    0  502 -0.16552406083E+03 -0.24204109520E+03 -0.59135485896E+03  0.66007936317E+03  0.46999998093E+01 0. -1.
</event>
<event>
 5   0  0.4726600E-04  0.1520123E+04  0.7818609E-02  0.8871181E-01
       -2   -1    0    0    0  501  0.00000000000E+00  0.00000000000E+00  0.48285436910E+03  0.48285436910E+03  0.25500000920E-02 0. -1.
        2   -1    0    0  501    0  0.00000000000E+00  0.00000000000E+00 -0.11964134134E+04  0.11964134134E+04  0.25500000920E-02 0.  1.
    10030    2    1    2    0    0  0.00000000000E+00  0.00000000000E+00 -0.71355904434E+03  0.16792677825E+04  0.15201229476E+04 0.  0.
        2    1    3    3  502    0 -0.50431416225E+03 -0.35908717502E+02 -0.98370686162E+03  0.11060295655E+04  0.25500000920E-02 0.  1.
       -2    1    3    3    0  502  0.50431416225E+03  0.35908717502E+02  0.27014781729E+03  0.57323821700E+03  0.25500000920E-02 0. -1.
</event>
<event>
 5   0  0.4768387E-04  0.1506191E+04  0.7818609E-02  0.8880347E-01
       -2   -1    0    0    0  501  0.00000000000E+00  0.00000000000E+00  0.67337927305E+03  0.67337927306E+03  0.25500000920E-02 0. -1.
        2   -1    0    0  501    0  0.00000000000E+00  0.00000000000E+00 -0.84224828898E+03  0.84224828898E+03  0.25500000920E-02 0.  1.
    10030    2    1    2    0    0  0.00000000000E+00  0.00000000000E+00 -0.16886901593E+03  0.15156275620E+04  0.15061906129E+04 0.  0.
        3    1    3    3  502    0  0.42365036647E+03  0.44890703786E+02 -0.70933889518E+03  0.82743971787E+03  0.10100000352E+00 0.  1.
       -3    1    3    3    0  502 -0.42365036647E+03 -0.44890703786E+02  0.54046987925E+03  0.68818784418E+03  0.10100000352E+00 0. -1.
</event>
<event>
 5   0  0.2603873E-04  0.1454806E+04  0.7818609E-02  0.8915076E-01
        1   -1    0    0  501    0  0.00000000000E+00  0.00000000000E+00  0.20012638724E+04  0.20012638724E+04  0.50400001928E-02 0.  1.
       -1   -1    0    0    0  501  0.00000000000E+00  0.00000000000E+00 -0.26439038319E+03  0.26439038323E+03  0.50400001928E-02 0. -1.
    10030    2    1    2    0    0  0.00000000000E+00  0.00000000000E+00  0.17368734892E+04  0.22656542556E+04  0.14548057219E+04 0.  0.
        2    1    3    3  502    0  0.33223219226E+03 -0.36171372604E+03  0.32815693470E+02  0.49223157043E+03  0.25500000920E-02 0. -1.
       -2    1    3    3    0  502 -0.33223219226E+03  0.36171372604E+03  0.17040577957E+04  0.17734226852E+04  0.25500000920E-02 0.  1.
</event>
<event>
 5   0  0.2565416E-04  0.1484534E+04  0.7818609E-02  0.8894803E-01
       -1   -1    0    0    0  501  0.00000000000E+00  0.00000000000E+00  0.56447877962E+03  0.56447877964E+03  0.50400001928E-02 0. -1.
        1   -1    0    0  501    0  0.00000000000E+00  0.00000000000E+00 -0.97605099243E+03  0.97605099244E+03  0.50400001928E-02 0.  1.
    10030    2    1    2    0    0  0.00000000000E+00  0.00000000000E+00 -0.41157221281E+03  0.15405297721E+04  0.14845336952E+04 0.  0.
        5    1    3    3  502    0  0.34270431149E+03  0.37971630201E+03  0.35237517684E+03  0.62114496728E+03  0.46999998093E+01 0. -1.
       -5    1    3    3    0  502 -0.34270431149E+03 -0.37971630201E+03 -0.76394738965E+03  0.91938480480E+03  0.46999998093E+01 0.  1.
</event>
<event>
 5   0  0.4768387E-04  0.1512152E+04  0.7818609E-02  0.8876412E-01
        2   -1    0    0  501    0  0.00000000000E+00  0.00000000000E+00  0.47819519864E+03  0.47819519864E+03  0.25500000920E-02 0. -1.
       -2   -1    0    0    0  501  0.00000000000E+00  0.00000000000E+00 -0.11954346577E+04  0.11954346577E+04  0.25500000920E-02 0.  1.
    10030    2    1    2    0    0  0.00000000000E+00  0.00000000000E+00 -0.71723945911E+03  0.16736298564E+04  0.15121522590E+04 0.  0.
        3    1    3    3  502    0 -0.22482594528E+02 -0.61063066686E+03 -0.85145158866E+03  0.10480196069E+04  0.10100000352E+00 0.  1.
       -3    1    3    3    0  502  0.22482594528E+02  0.61063066686E+03  0.13421212956E+03  0.62561024951E+03  0.10100000352E+00 0. -1.
</event>
<event>
 5   0  0.4768387E-04  0.1484089E+04  0.7818609E-02  0.8895103E-01
        2   -1    0    0  501    0  0.00000000000E+00  0.00000000000E+00  0.25452010093E+04  0.25452010093E+04  0.25500000920E-02 0. -1.
       -2   -1    0    0    0  501  0.00000000000E+00  0.00000000000E+00 -0.21634043499E+03  0.21634043500E+03  0.25500000920E-02 0.  1.
    10030    2    1    2    0    0  0.00000000000E+00  0.00000000000E+00  0.23288605743E+04  0.27615414443E+04  0.14840888026E+04 0.  0.
        3    1    3    3  502    0  0.34946922193E+03 -0.10010435480E+03  0.23681605180E+04  0.23958993861E+04  0.10100000352E+00 0. -1.
       -3    1    3    3    0  502 -0.34946922193E+03  0.10010435480E+03 -0.39299943757E+02  0.36564205817E+03  0.10100000352E+00 0.  1.
</event>
<event>
 5   0  0.4726600E-04  0.1494220E+04  0.7818609E-02  0.8888306E-01
        2   -1    0    0  501    0  0.00000000000E+00  0.00000000000E+00  0.17377816105E+04  0.17377816105E+04  0.25500000920E-02 0.  1.
       -2   -1    0    0    0  501  0.00000000000E+00  0.00000000000E+00 -0.32119876208E+03  0.32119876209E+03  0.25500000920E-02 0. -1.
    10030    2    1    2    0    0  0.00000000000E+00  0.00000000000E+00  0.14165828484E+04  0.20589803726E+04  0.14942199330E+04 0.  0.
        2    1    3    3  502    0  0.40875226966E+03 -0.56036884966E+03  0.10908633914E+04  0.12927005083E+04  0.25500000920E-02 0. -1.
       -2    1    3    3    0  502 -0.40875226966E+03  0.56036884966E+03  0.32571945701E+03  0.76627986422E+03  0.25500000920E-02 0.  1.
</event>
<event>
 5   0  0.2542737E-04  0.1493736E+04  0.7818609E-02  0.8888629E-01
       -1   -1    0    0    0  501  0.00000000000E+00  0.00000000000E+00  0.37920788464E+03  0.37920788467E+03  0.50400001928E-02 0. -1.
        1   -1    0    0  501    0  0.00000000000E+00  0.00000000000E+00 -0.14709923898E+04  0.14709923898E+04  0.50400001928E-02 0.  1.
    10030    2    1    2    0    0  0.00000000000E+00  0.00000000000E+00 -0.10917845052E+04  0.18502002745E+04  0.14937361380E+04 0.  0.
        1    1    3    3  502    0  0.39690041019E+03  0.16249450932E+03  0.21148023462E+03  0.47818227783E+03  0.50400001928E-02 0. -1.
       -1    1    3    3    0  502 -0.39690041019E+03 -0.16249450932E+03 -0.13032647398E+04  0.13720179967E+04  0.50400001928E-02 0.  1.
</event>
<event>
 5   0  0.4785496E-04  0.1499085E+04  0.7818609E-02  0.8885062E-01
       -2   -1    0    0    0  501  0.00000000000E+00  0.00000000000E+00  0.42734307443E+03  0.42734307444E+03  0.25500000920E-02 0.  1.
        2   -1    0    0  501    0  0.00000000000E+00  0.00000000000E+00 -0.13146665023E+04  0.13146665023E+04  0.25500000920E-02 0. -1.
    10030    2    1    2    0    0  0.00000000000E+00  0.00000000000E+00 -0.88732342786E+03  0.17420095767E+04  0.14990845539E+04 0.  0.
        4    1    3    3  502    0  0.50967774891E+03 -0.41071338487E+03 -0.86801664765E+03  0.10871574889E+04  0.12699999809E+01 0. -1.
       -4    1    3    3    0  502 -0.50967774891E+03  0.41071338487E+03 -0.19306780212E+02  0.65485208780E+03  0.12699999809E+01 0.  1.
</event>
<event>
 5   0  0.4768387E-04  0.1513518E+04  0.7818609E-02  0.8875513E-01
       -2   -1    0    0    0  501  0.00000000000E+00  0.00000000000E+00  0.66608064693E+03  0.66608064693E+03  0.25500000920E-02 0.  1.
        2   -1    0    0  501    0  0.00000000000E+00  0.00000000000E+00 -0.85978217641E+03  0.85978217642E+03  0.25500000920E-02 0. -1.
    10030    2    1    2    0    0  0.00000000000E+00  0.00000000000E+00 -0.19370152948E+03  0.15258628233E+04  0.15135181113E+04 0.  0.
        3    1    3    3  502    0  0.67886765065E+03  0.35227768502E+02 -0.43210173337E+03  0.80549003778E+03  0.10100000352E+00 0. -1.
       -3    1    3    3    0  502 -0.67886765065E+03 -0.35227768502E+02  0.23840020389E+03  0.72037278557E+03  0.10100000352E+00 0.  1.
</event>
<event>
 5   0  0.2603873E-04  0.1507239E+04  0.7818609E-02  0.8879653E-01
        1   -1    0    0  501    0  0.00000000000E+00  0.00000000000E+00  0.13050212836E+04  0.13050212837E+04  0.50400001928E-02 0. -1.
       -1   -1    0    0    0  501  0.00000000000E+00  0.00000000000E+00 -0.43519781243E+03  0.43519781246E+03  0.50400001928E-02 0.  1.
    10030    2    1    2    0    0  0.00000000000E+00  0.00000000000E+00  0.86982347121E+03  0.17402190961E+04  0.15072390757E+04 0.  0.
        2    1    3    3  502    0 -0.62631016650E+03 -0.27578905062E+03  0.70500693084E+02  0.68796393280E+03  0.25500000920E-02 0. -1.
       -2    1    3    3    0  502  0.62631016650E+03  0.27578905062E+03  0.79932277813E+03  0.10522551633E+04  0.25500000920E-02 0.  1.
</event>
<event>
 5   0  0.2542737E-04  0.1499460E+04  0.7818609E-02  0.8884812E-01
       -1   -1    0    0    0  501  0.00000000000E+00  0.00000000000E+00  0.74769967579E+03  0.74769967580E+03  0.50400001928E-02 0. -1.
        1   -1    0    0  501    0  0.00000000000E+00  0.00000000000E+00 -0.75176569989E+03  0.75176569991E+03  0.50400001928E-02 0.  1.
    10030    2    1    2    0    0  0.00000000000E+00  0.00000000000E+00 -0.40660241057E+01  0.14994653757E+04  0.14994598629E+04 0.  0.
        1    1    3    3  502    0  0.57748471871E+03  0.34377066060E+03  0.33027545103E+03  0.74883158387E+03  0.50400001928E-02 0. -1.
       -1    1    3    3    0  502 -0.57748471871E+03 -0.34377066060E+03 -0.33434147514E+03  0.75063379184E+03  0.50400001928E-02 0.  1.
</event>
<event>
 5   0  0.4948645E-04  0.1495816E+04  0.7818609E-02  0.8887240E-01
       -2   -1    0    0    0  501  0.00000000000E+00  0.00000000000E+00  0.12863110187E+04  0.12863110187E+04  0.25500000920E-02 0. -1.
        2   -1    0    0  501    0  0.00000000000E+00  0.00000000000E+00 -0.43486111414E+03  0.43486111415E+03  0.25500000920E-02 0.  1.
    10030    2    1    2    0    0  0.00000000000E+00  0.00000000000E+00  0.85144990459E+03  0.17211721329E+04  0.14958163560E+04 0.  0.
        1    1    3    3  502    0  0.16203298946E+03  0.59207400106E+03 -0.65917339666E+02  0.61737460921E+03  0.50400001928E-02 0.  1.
       -1    1    3    3    0  502 -0.16203298946E+03 -0.59207400106E+03  0.91736724425E+03  0.11037975237E+04  0.50400001928E-02 0. -1.
</event>
<event>
 5   0  0.2565416E-04  0.1496032E+04  0.7818609E-02  0.8887096E-01
       -1   -1    0    0    0  501  0.00000000000E+00  0.00000000000E+00  0.33855431614E+03  0.33855431618E+03  0.50400001928E-02 0. -1.
        1   -1    0    0  501    0  0.00000000000E+00  0.00000000000E+00 -0.16526975382E+04  0.16526975382E+04  0.50400001928E-02 0.  1.
    10030    2    1    2    0    0  0.00000000000E+00  0.00000000000E+00 -0.13141432220E+04  0.19912518544E+04  0.14960319313E+04 0.  0.
        5    1    3    3  502    0  0.39572084450E+03 -0.16670034782E+03  0.15814211443E+03  0.45761884914E+03  0.46999998093E+01 0. -1.
       -5    1    3    3    0  502 -0.39572084450E+03  0.16670034782E+03 -0.14722853364E+04  0.15336330052E+04  0.46999998093E+01 0.  1.
</event>
<event>
 5   0  0.2544374E-04  0.1481272E+04  0.7818609E-02  0.8897003E-01
        1   -1    0    0  501    0  0.00000000000E+00  0.00000000000E+00  0.15469684580E+04  0.15469684580E+04  0.50400001928E-02 0.  1.
       -1   -1    0    0    0  501  0.00000000000E+00  0.00000000000E+00 -0.35459120195E+03  0.35459120198E+03  0.50400001928E-02 0. -1.
    10030    2    1    2    0    0  0.00000000000E+00  0.00000000000E+00  0.11923772560E+04  0.19015596600E+04  0.14812716225E+04 0.  0.
        4    1    3    3  502    0 -0.82669576437E+02 -0.30382412585E+03  0.14567662793E+04  0.14904069793E+04  0.12699999809E+01 0.  1.
       -4    1    3    3    0  502  0.82669576437E+02  0.30382412585E+03 -0.26438902330E+03  0.41115268071E+03  0.12699999809E+01 0. -1.
</event>
<event>
 5   0  0.4768387E-04  0.1499226E+04  0.7818609E-02  0.8884968E-01
       -2   -1    0    0    0  501  0.00000000000E+00  0.00000000000E+00  0.19361653075E+04  0.19361653075E+04  0.25500000920E-02 0. -1.
        2   -1    0    0  501    0  0.00000000000E+00  0.00000000000E+00 -0.29022298302E+03  0.29022298303E+03  0.25500000920E-02 0.  1.
    10030    2    1    2    0    0  0.00000000000E+00  0.00000000000E+00  0.16459423244E+04  0.22263882905E+04  0.14992260285E+04 0.  0.
        3    1    3    3  502    0  0.83264774134E+02 -0.48934304159E+03 -0.11198022250E+02  0.49650281053E+03  0.10100000352E+00 0.  1.
       -3    1    3    3    0  502 -0.83264774134E+02  0.48934304159E+03  0.16571403467E+04  0.17298854800E+04  0.10100000352E+00 0. -1.
</event>
<event>
 5   0  0.2544374E-04  0.1499954E+04  0.7818609E-02  0.8884483E-01
       -1   -1    0    0    0  501  0.00000000000E+00  0.00000000000E+00  0.71161958014E+03  0.71161958016E+03  0.50400001928E-02 0. -1.
        1   -1    0    0  501    0  0.00000000000E+00  0.00000000000E+00 -0.79040246546E+03  0.79040246548E+03  0.50400001928E-02 0.  1.
    10030    2    1    2    0    0  0.00000000000E+00  0.00000000000E+00 -0.78782885325E+02  0.15020220456E+04  0.14999544935E+04 0.  0.
        4    1    3    3  502    0 -0.21423314781E+02  0.30294589397E+03 -0.72606918000E+03  0.78702810632E+03  0.12699999809E+01 0.  1.
       -4    1    3    3    0  502  0.21423314781E+02 -0.30294589397E+03  0.64728629468E+03  0.71499393932E+03  0.12699999809E+01 0. -1.
</event>
<event>
 5   0  0.2542737E-04  0.1464959E+04  0.7818609E-02  0.8908095E-01
       -1   -1    0    0    0  501  0.00000000000E+00  0.00000000000E+00  0.34808062547E+03  0.34808062551E+03  0.50400001928E-02 0. -1.
        1   -1    0    0  501    0  0.00000000000E+00  0.00000000000E+00 -0.15413855684E+04  0.15413855685E+04  0.50400001928E-02 0.  1.
    10030    2    1    2    0    0  0.00000000000E+00  0.00000000000E+00 -0.11933049430E+04  0.18894661940E+04  0.14649593207E+04 0.  0.
        1    1    3    3  502    0  0.65555161626E+02 -0.72697914408E+03 -0.67542690760E+03  0.99448361609E+03  0.50400001928E-02 0. -1.
       -1    1    3    3    0  502 -0.65555161626E+02  0.72697914408E+03 -0.51787803538E+03  0.89498257787E+03  0.50400001928E-02 0.  1.
</event>
<event>
 5   0  0.2603873E-04  0.1501816E+04  0.7818609E-02  0.8883246E-01
       -1   -1    0    0    0  501  0.00000000000E+00  0.00000000000E+00  0.49012545842E+03  0.49012545845E+03  0.50400001928E-02 0.  1.
        1   -1    0    0  501    0  0.00000000000E+00  0.00000000000E+00 -0.11504463039E+04  0.11504463040E+04  0.50400001928E-02 0. -1.
    10030    2    1    2    0    0  0.00000000000E+00  0.00000000000E+00 -0.66032084552E+03  0.16405717624E+04  0.15018162633E+04 0.  0.
        2    1    3    3  502    0  0.17937779975E+03 -0.43692402703E+03  0.30754196202E+03  0.56361428197E+03  0.25500000920E-02 0.  1.
       -2    1    3    3    0  502 -0.17937779975E+03  0.43692402703E+03 -0.96786280754E+03  0.10769574804E+04  0.25500000920E-02 0. -1.
</event>
<event>
 5   0  0.4948645E-04  0.1518416E+04  0.7818609E-02  0.8872298E-01
        2   -1    0    0  501    0  0.00000000000E+00  0.00000000000E+00  0.10324950315E+04  0.10324950315E+04  0.25500000920E-02 0. -1.
       -2   -1    0    0    0  501  0.00000000000E+00  0.00000000000E+00 -0.55825597792E+03  0.55825597792E+03  0.25500000920E-02 0.  1.
    10030    2    1    2    0    0  0.00000000000E+00  0.00000000000E+00  0.47423905359E+03  0.15907510094E+04  0.15184156526E+04 0.  0.
        1    1    3    3  502    0  0.31342356068E+02  0.54604066397E+03 -0.31451351069E+03  0.63092115072E+03  0.50400001928E-02 0. -1.
       -1    1    3    3    0  502 -0.31342356068E+02 -0.54604066397E+03  0.78875256428E+03  0.95982985871E+03  0.50400001928E-02 0.  1.
</event>
<event>
 5   0  0.1792000E-04  0.1490507E+04  0.7818609E-02  0.8890790E-01
        3   -1    0    0  501    0  0.00000000000E+00  0.00000000000E+00  0.44791837905E+03  0.44791839043E+03  0.10100000352E+00 0.  1.
       -3   -1    0    0    0  501  0.00000000000E+00  0.00000000000E+00 -0.12399641296E+04  0.12399641337E+04  0.10100000352E+00 0. -1.
    10030    2    1    2    0    0  0.00000000000E+00  0.00000000000E+00 -0.79204575054E+03  0.16878825241E+04  0.14905069421E+04 0.  0.
        2    1    3    3  502    0  0.13872230493E+03 -0.63135106114E+03 -0.81601961960E+03  0.10410264453E+04  0.25500000920E-02 0. -1.
       -2    1    3    3    0  502 -0.13872230493E+03  0.63135106114E+03  0.23973869062E+02  0.64685607881E+03  0.25500000920E-02 0.  1.
</event>
<event>
 5   0  0.4768387E-04  0.1504976E+04  0.7818609E-02  0.8881151E-01
        2   -1    0    0  501    0  0.00000000000E+00  0.00000000000E+00  0.15587725675E+04  0.15587725675E+04  0.25500000920E-02 0.  1.
       -2   -1    0    0    0  501  0.00000000000E+00  0.00000000000E+00 -0.36325900667E+03  0.36325900668E+03  0.25500000920E-02 0. -1.
    10030    2    1    2    0    0  0.00000000000E+00  0.00000000000E+00  0.11955135609E+04  0.19220315742E+04  0.15049759792E+04 0.  0.
        3    1    3    3  502    0  0.45226187440E+02  0.31603393419E+03  0.14679935933E+04  0.15023075770E+04  0.10100000352E+00 0.  1.
       -3    1    3    3    0  502 -0.45226187440E+02 -0.31603393419E+03 -0.27248003245E+03  0.41972399726E+03  0.10100000352E+00 0. -1.
</event>
<event>
 5   0  0.4726600E-04  0.1500061E+04  0.7818609E-02  0.8884412E-01
       -2   -1    0    0    0  501  0.00000000000E+00  0.00000000000E+00  0.23860871097E+03  0.23860871099E+03  0.25500000920E-02 0.  1.
        2   -1    0    0  501    0  0.00000000000E+00  0.00000000000E+00 -0.23576082753E+04  0.23576082753E+04  0.25500000920E-02 0. -1.
    10030    2    1    2    0    0  0.00000000000E+00  0.00000000000E+00 -0.21189995643E+04  0.25962169863E+04  0.15000611608E+04 0.  0.
        2    1    3    3  502    0  0.40595238473E+03  0.40166176876E+03 -0.19010320637E+04  0.19849565291E+04  0.25500000920E-02 0. -1.
       -2    1    3    3    0  502 -0.40595238473E+03 -0.40166176876E+03 -0.21796750057E+03  0.61126045714E+03  0.25500000920E-02 0.  1.
</event>
<event>
 5   0  0.4785496E-04  0.1586586E+04  0.7818609E-02  0.8828832E-01
       -2   -1    0    0    0  501  0.00000000000E+00  0.00000000000E+00  0.41453018744E+03  0.41453018745E+03  0.25500000920E-02 0.  1.
        2   -1    0    0  501    0  0.00000000000E+00  0.00000000000E+00 -0.15181368564E+04  0.15181368564E+04  0.25500000920E-02 0. -1.
    10030    2    1    2    0    0  0.00000000000E+00  0.00000000000E+00 -0.11036066689E+04  0.19326670438E+04  0.15865857123E+04 0.  0.
        4    1    3    3  502    0 -0.78293486440E+03 -0.10172002975E+03 -0.64598591801E+03  0.10201143983E+04  0.12699999809E+01 0.  1.
       -4    1    3    3    0  502  0.78293486440E+03  0.10172002975E+03 -0.45762075090E+03  0.91255264555E+03  0.12699999809E+01 0. -1.
</event>
<event>
 5   0  0.4768387E-04  0.1503738E+04  0.7818609E-02  0.8881971E-01
       -2   -1    0    0    0  501  0.00000000000E+00  0.00000000000E+00  0.29364272668E+03  0.29364272669E+03  0.25500000920E-02 0.  1.
        2   -1    0    0  501    0  0.00000000000E+00  0.00000000000E+00 -0.19251510975E+04  0.19251510975E+04  0.25500000920E-02 0. -1.
    10030    2    1    2    0    0  0.00000000000E+00  0.00000000000E+00 -0.16315083708E+04  0.22187938242E+04  0.15037375004E+04 0.  0.
        3    1    3    3  502    0 -0.63701803660E+03  0.39939045676E+03 -0.81372490434E+03  0.11079047550E+04  0.10100000352E+00 0.  1.
       -3    1    3    3    0  502  0.63701803660E+03 -0.39939045676E+03 -0.81778346650E+03  0.11108890693E+04  0.10100000352E+00 0. -1.
</event>
<event>
 5   0  0.2542737E-04  0.1503497E+04  0.7818609E-02  0.8882131E-01
       -1   -1    0    0    0  501  0.00000000000E+00  0.00000000000E+00  0.44011470901E+03  0.44011470904E+03  0.50400001928E-02 0. -1.
        1   -1    0    0  501    0  0.00000000000E+00  0.00000000000E+00 -0.12840419427E+04  0.12840419427E+04  0.50400001928E-02 0.  1.
    10030    2    1    2    0    0  0.00000000000E+00  0.00000000000E+00 -0.84392723372E+03  0.17241566518E+04  0.15034969185E+04 0.  0.
        1    1    3    3  502    0  0.22513536427E+03 -0.17801176858E+03  0.37481202963E+03  0.47207857352E+03  0.50400001928E-02 0. -1.
       -1    1    3    3    0  502 -0.22513536427E+03  0.17801176858E+03 -0.12187392633E+04  0.12520780783E+04  0.50400001928E-02 0.  1.
</event>
<event>
 5   0  0.2565416E-04  0.1498282E+04  0.7818609E-02  0.8885596E-01
       -1   -1    0    0    0  501  0.00000000000E+00  0.00000000000E+00  0.26654956831E+03  0.26654956836E+03  0.50400001928E-02 0.  1.
        1   -1    0    0  501    0  0.00000000000E+00  0.00000000000E+00 -0.21054699546E+04  0.21054699546E+04  0.50400001928E-02 0. -1.
    10030    2    1    2    0    0  0.00000000000E+00  0.00000000000E+00 -0.18389203863E+04  0.23720195230E+04  0.14982818260E+04 0.  0.
        5    1    3    3  502    0 -0.98237574290E+02  0.71247434188E+03 -0.58767693080E+03  0.92879307374E+03  0.46999998093E+01 0. -1.
       -5    1    3    3    0  502  0.98237574290E+02 -0.71247434188E+03 -0.12512434555E+04  0.14432264492E+04  0.46999998093E+01 0.  1.
</event>
<event>
 5   0  0.1792000E-04  0.1450408E+04  0.7818609E-02  0.8918118E-01
        3   -1    0    0  501    0  0.00000000000E+00  0.00000000000E+00  0.43271819297E+03  0.43271820476E+03  0.10100000352E+00 0. -1.
       -3   -1    0    0    0  501  0.00000000000E+00  0.00000000000E+00 -0.12153881395E+04  0.12153881436E+04  0.10100000352E+00 0.  1.
    10030    2    1    2    0    0  0.00000000000E+00  0.00000000000E+00 -0.78266994648E+03  0.16481063484E+04  0.14504076291E+04 0.  0.
        1    1    3    3  502    0 -0.10519253363E+03 -0.68074288375E+02 -0.12029953015E+04  0.12095029034E+04  0.50400001928E-02 0.  1.
       -1    1    3    3    0  502  0.10519253363E+03  0.68074288375E+02  0.42032535502E+03  0.43860344500E+03  0.50400001928E-02 0. -1.
</event>
<event>
 5   0  0.4785496E-04  0.1495917E+04  0.7818609E-02  0.8887173E-01
       -2   -1    0    0    0  501  0.00000000000E+00  0.00000000000E+00  0.42603642147E+03  0.42603642148E+03  0.25500000920E-02 0. -1.
        2   -1    0    0  501    0  0.00000000000E+00  0.00000000000E+00 -0.13131316739E+04  0.13131316739E+04  0.25500000920E-02 0.  1.
    10030    2    1    2    0    0  0.00000000000E+00  0.00000000000E+00 -0.88709525239E+03  0.17391680953E+04  0.14959170021E+04 0.  0.
        4    1    3    3  502    0 -0.27051841046E+03  0.98386167632E+02 -0.12461530413E+04  0.12789679682E+04  0.12699999809E+01 0.  1.
       -4    1    3    3    0  502  0.27051841046E+03 -0.98386167632E+02  0.35905778890E+03  0.46020012717E+03  0.12699999809E+01 0. -1.
</event>
<event>
 5   0  0.4726600E-04  0.1502129E+04  0.7818609E-02  0.8883038E-01
        2   -1    0    0  501    0  0.00000000000E+00  0.00000000000E+00  0.71695205629E+03  0.71695205629E+03  0.25500000920E-02 0.  1.
       -2   -1    0    0    0  501  0.00000000000E+00  0.00000000000E+00 -0.78680032173E+03  0.78680032174E+03  0.25500000920E-02 0. -1.
    10030    2    1    2    0    0  0.00000000000E+00  0.00000000000E+00 -0.69848265444E+02  0.15037523780E+04  0.15021293001E+04 0.  0.
        2    1    3    3  502    0  0.17245462280E+03 -0.16357082076E+03  0.67830769311E+03  0.71874706043E+03  0.25500000920E-02 0.  1.
       -2    1    3    3    0  502 -0.17245462280E+03  0.16357082076E+03 -0.74815595856E+03  0.78500531760E+03  0.25500000920E-02 0. -1.
</event>
<event>
 5   0  0.2603873E-04  0.1492936E+04  0.7818609E-02  0.8889164E-01
        1   -1    0    0  501    0  0.00000000000E+00  0.00000000000E+00  0.79099304457E+03  0.79099304459E+03  0.50400001928E-02 0. -1.
       -1   -1    0    0    0  501  0.00000000000E+00  0.00000000000E+00 -0.70444961110E+03  0.70444961111E+03  0.50400001928E-02 0.  1.
    10030    2    1    2    0    0  0.00000000000E+00  0.00000000000E+00  0.86543433476E+02  0.14954426557E+04  0.14929363585E+04 0.  0.
        2    1    3    3  502    0 -0.42847660888E+03 -0.34155544984E+03  0.55103731117E+03  0.77710645859E+03  0.25500000920E-02 0. -1.
       -2    1    3    3    0  502  0.42847660888E+03  0.34155544984E+03 -0.46449387769E+03  0.71833619712E+03  0.25500000920E-02 0.  1.
</event>
<event>
 5   0  0.1792000E-04  0.1503822E+04  0.7818609E-02  0.8881915E-01
        4   -1    0    0  501    0  0.00000000000E+00  0.00000000000E+00  0.50881216730E+03  0.50881375226E+03  0.12699999809E+01 0. -1.
       -4   -1    0    0    0  501  0.00000000000E+00  0.00000000000E+00 -0.11111534038E+04  0.11111541295E+04  0.12699999809E+01 0.  1.
    10030    2    1    2    0    0  0.00000000000E+00  0.00000000000E+00 -0.60234123646E+03  0.16199678818E+04  0.15038221214E+04 0.  0.
        4    1    3    3  502    0 -0.48956466819E+03 -0.47525793547E+03 -0.64152356034E+03  0.93653497582E+03  0.12699999809E+01 0. -1.
       -4    1    3    3    0  502  0.48956466819E+03  0.47525793547E+03  0.39182323878E+02  0.68343290598E+03  0.12699999809E+01 0.  1.
</event>
<event>
 5   0  0.4948645E-04  0.1497512E+04  0.7818609E-02  0.8886109E-01
        2   -1    0    0  501    0  0.00000000000E+00  0.00000000000E+00  0.69154926503E+03  0.69154926503E+03  0.25500000920E-02 0. -1.
       -2   -1    0    0    0  501  0.00000000000E+00  0.00000000000E+00 -0.81069549172E+03  0.81069549173E+03  0.25500000920E-02 0.  1.
    10030    2    1    2    0    0  0.00000000000E+00  0.00000000000E+00 -0.11914622670E+03  0.15022447568E+04  0.14975124326E+04 0.  0.
        1    1    3    3  502    0 -0.50252401379E+03 -0.10118629140E+03  0.48792335961E+03  0.70769926867E+03  0.50400001928E-02 0. -1.
       -1    1    3    3    0  502  0.50252401379E+03  0.10118629140E+03 -0.60706958630E+03  0.79454548809E+03  0.50400001928E-02 0.  1.
</event>
<event>
 5   0  0.2544374E-04  0.1515264E+04  0.7818609E-02  0.8874365E-01
        1   -1    0    0  501    0  0.00000000000E+00  0.00000000000E+00  0.10280914393E+04  0.10280914393E+04  0.50400001928E-02 0. -1.
       -1   -1    0    0    0  501  0.00000000000E+00  0.00000000000E+00 -0.55832251404E+03  0.55832251406E+03  0.50400001928E-02 0.  1.
    10030    2    1    2    0    0  0.00000000000E+00  0.00000000000E+00  0.46976892521E+03  0.15864139533E+04  0.15152644615E+04 0.  0.
        4    1    3    3  502    0 -0.56040099915E+02 -0.60969155067E+03 -0.23232120553E+03  0.65485802675E+03  0.12699999809E+01 0.  1.
       -4    1    3    3    0  502  0.56040099915E+02  0.60969155067E+03  0.70209013075E+03  0.93155592658E+03  0.12699999809E+01 0. -1.
</event>
<event>
 5   0  0.2565416E-04  0.1558894E+04  0.7818609E-02  0.8846207E-01
       -1   -1    0    0    0  501  0.00000000000E+00  0.00000000000E+00  0.64179669948E+03  0.64179669950E+03  0.50400001928E-02 0. -1.
        1   -1    0    0  501    0  0.00000000000E+00  0.00000000000E+00 -0.94661974676E+03  0.94661974677E+03  0.50400001928E-02 0.  1.
    10030    2    1    2    0    0  0.00000000000E+00  0.00000000000E+00 -0.30482304727E+03  0.15884164463E+04  0.15588937477E+04 0.  0.
        5    1    3    3  502    0  0.68383643271E+03 -0.30827480502E+03 -0.36819973417E+03  0.83561878650E+03  0.46999998093E+01 0.  1.
       -5    1    3    3    0  502 -0.68383643271E+03  0.30827480502E+03  0.63376686899E+02  0.75279765977E+03  0.46999998093E+01 0. -1.
</event>
<event>
 5   0  0.2542737E-04  0.1494405E+04  0.7818609E-02  0.8888182E-01
        1   -1    0    0  501    0  0.00000000000E+00  0.00000000000E+00  0.83255152318E+03  0.83255152319E+03  0.50400001928E-02 0. -1.
       -1   -1    0    0    0  501  0.00000000000E+00  0.00000000000E+00 -0.67060342554E+03  0.67060342556E+03  0.50400001928E-02 0.  1.
    10030    2    1    2    0    0  0.00000000000E+00  0.00000000000E+00  0.16194809764E+03  0.15031549488E+04  0.14944054382E+04 0.  0.
        1    1    3    3  502    0 -0.26788033045E+03  0.46249413292E+03 -0.44424325456E+03  0.69499119683E+03  0.50400001928E-02 0.  1.
       -1    1    3    3    0  502  0.26788033045E+03 -0.46249413292E+03  0.60619135220E+03  0.80816375193E+03  0.50400001928E-02 0. -1.
</event>
<event>
 5   0  0.2605471E-04  0.1473644E+04  0.7818609E-02  0.8902171E-01
       -1   -1    0    0    0  501  0.00000000000E+00  0.00000000000E+00  0.36819044328E+03  0.36819044332E+03  0.50400001928E-02 0.  1.
        1   -1    0    0  501    0  0.00000000000E+00  0.00000000000E+00 -0.14745270285E+04  0.14745270285E+04  0.50400001928E-02 0. -1.
    10030    2    1    2    0    0  0.00000000000E+00  0.00000000000E+00 -0.11063365852E+04  0.18427174719E+04  0.14736441366E+04 0.  0.
        3    1    3    3  502    0  0.46828603270E+02 -0.42130927175E+03 -0.13067778967E+04  0.13738132705E+04  0.10100000352E+00 0. -1.
       -3    1    3    3    0  502 -0.46828603270E+02  0.42130927175E+03  0.20044131147E+03  0.46890420140E+03  0.10100000352E+00 0.  1.
</event>
<event>
 5   0  0.4768387E-04  0.1512256E+04  0.7818609E-02  0.8876343E-01
       -2   -1    0    0    0  501  0.00000000000E+00  0.00000000000E+00  0.27634331181E+03  0.27634331183E+03  0.25500000920E-02 0.  1.
        2   -1    0    0  501    0  0.00000000000E+00  0.00000000000E+00 -0.20689110527E+04  0.20689110527E+04  0.25500000920E-02 0. -1.
    10030    2    1    2    0    0  0.00000000000E+00  0.00000000000E+00 -0.17925677409E+04  0.23452543645E+04  0.15122562378E+04 0.  0.
        3    1    3    3  502    0  0.65195030859E+03 -0.20339466218E+02 -0.30315054158E+03  0.71927266028E+03  0.10100000352E+00 0.  1.
       -3    1    3    3    0  502 -0.65195030859E+03  0.20339466218E+02 -0.14894171993E+04  0.16259817042E+04  0.10100000352E+00 0. -1.
</event>
<event>
 5   0  0.4948645E-04  0.1504285E+04  0.7818609E-02  0.8881609E-01
       -2   -1    0    0    0  501  0.00000000000E+00  0.00000000000E+00  0.72229248655E+03  0.72229248656E+03  0.25500000920E-02 0. -1.
        2   -1    0    0  501    0  0.00000000000E+00  0.00000000000E+00 -0.78322593814E+03  0.78322593815E+03  0.25500000920E-02 0.  1.
    10030    2    1    2    0    0  0.00000000000E+00  0.00000000000E+00 -0.60933451591E+02  0.15055184247E+04  0.15042848273E+04 0.  0.
        1    1    3    3  502    0 -0.53668115721E+03  0.27961959485E+03  0.41655874520E+03  0.73466657101E+03  0.50400001928E-02 0. -1.
       -1    1    3    3    0  502  0.53668115721E+03 -0.27961959485E+03 -0.47749219679E+03  0.77085185370E+03  0.50400001928E-02 0.  1.
</event>
<event>
 5   0  0.1792000E-04  0.1503649E+04  0.7818609E-02  0.8882030E-01
       -3   -1    0    0    0  501  0.00000000000E+00  0.00000000000E+00  0.10625317938E+04  0.10625317986E+04  0.10100000352E+00 0. -1.
        3   -1    0    0  501    0  0.00000000000E+00  0.00000000000E+00 -0.53197463450E+03  0.53197464409E+03  0.10100000352E+00 0.  1.
    10030    2    1    2    0    0  0.00000000000E+00  0.00000000000E+00  0.53055715927E+03  0.15945064426E+04  0.15036488607E+04 0.  0.
        2    1    3    3  502    0 -0.59860605117E+03  0.30834159493E+03 -0.89347857592E+02  0.67925457917E+03  0.25500000920E-02 0.  1.
       -2    1    3    3    0  502  0.59860605117E+03 -0.30834159493E+03  0.61990501686E+03  0.91525186348E+03  0.25500000920E-02 0. -1.
</event>
<event>
 5   0  0.4785496E-04  0.1501047E+04  0.7818609E-02  0.8883757E-01
        2   -1    0    0  501    0  0.00000000000E+00  0.00000000000E+00  0.28938186240E+04  0.28938186240E+04  0.25500000920E-02 0.  1.
       -2   -1    0    0    0  501  0.00000000000E+00  0.00000000000E+00 -0.19465118172E+03  0.19465118173E+03  0.25500000920E-02 0. -1.
    10030    2    1    2    0    0  0.00000000000E+00  0.00000000000E+00  0.26991674423E+04  0.30884698057E+04  0.15010465880E+04 0.  0.
        4    1    3    3  502    0 -0.51033295727E+03  0.55020512413E+03  0.13272145083E+04  0.15246853347E+04  0.12699999809E+01 0.  1.
       -4    1    3    3    0  502  0.51033295727E+03 -0.55020512413E+03  0.13719529339E+04  0.15637844710E+04  0.12699999809E+01 0. -1.
</event>
<event>
 5   0  0.2603873E-04  0.1500486E+04  0.7818609E-02  0.8884130E-01
        1   -1    0    0  501    0  0.00000000000E+00  0.00000000000E+00  0.11762607994E+04  0.11762607994E+04  0.50400001928E-02 0. -1.
       -1   -1    0    0    0  501  0.00000000000E+00  0.00000000000E+00 -0.47852030392E+03  0.47852030394E+03  0.50400001928E-02 0.  1.
    10030    2    1    2    0    0  0.00000000000E+00  0.00000000000E+00  0.69774049545E+03  0.16547811033E+04  0.15004861549E+04 0.  0.
        2    1    3    3  502    0  0.41178514312E+02 -0.72043817760E+03  0.12248679360E+03  0.73193568870E+03  0.25500000920E-02 0. -1.
       -2    1    3    3    0  502 -0.41178514312E+02  0.72043817760E+03  0.57525370185E+03  0.92284541462E+03  0.25500000920E-02 0.  1.
</event>
<event>
 5   0  0.4569211E-04  0.1510077E+04  0.7818609E-02  0.8877780E-01
        2   -1    0    0  501    0  0.00000000000E+00  0.00000000000E+00  0.29155178655E+04  0.29155178655E+04  0.25500000920E-02 0. -1.
       -2   -1    0    0    0  501  0.00000000000E+00  0.00000000000E+00 -0.19553400278E+03  0.19553400279E+03  0.25500000920E-02 0.  1.
    10030    2    1    2    0    0  0.00000000000E+00  0.00000000000E+00  0.27199838628E+04  0.31110518683E+04  0.15100766582E+04 0.  0.
        5    1    3    3  502    0  0.26958694067E+03  0.66869702562E+03  0.18217144092E+04  0.19592085926E+04  0.46999998093E+01 0. -1.
       -5    1    3    3    0  502 -0.26958694067E+03 -0.66869702562E+03  0.89826945359E+03  0.11518432758E+04  0.46999998093E+01 0.  1.
</event>
<event>
 5   0  0.4569211E-04  0.1492265E+04  0.7818609E-02  0.8889613E-01
       -2   -1    0    0    0  501  0.00000000000E+00  0.00000000000E+00  0.10383556674E+04  0.10383556674E+04  0.25500000920E-02 0.  1.
        2   -1    0    0  501    0  0.00000000000E+00  0.00000000000E+00 -0.53614959236E+03  0.53614959237E+03  0.25500000920E-02 0. -1.
    10030    2    1    2    0    0  0.00000000000E+00  0.00000000000E+00  0.50220607501E+03  0.15745052597E+04  0.14922653488E+04 0.  0.
        5    1    3    3  502    0 -0.60529240029E+03  0.87679943564E+02  0.70200116511E+03  0.93107163428E+03  0.46999998093E+01 0.  1.
       -5    1    3    3    0  502  0.60529240029E+03 -0.87679943564E+02 -0.19979509009E+03  0.64343362546E+03  0.46999998093E+01 0. -1.
</event>
<event>
 5   0  0.4768387E-04  0.1499061E+04  0.7818609E-02  0.8885078E-01
       -2   -1    0    0    0  501  0.00000000000E+00  0.00000000000E+00  0.70277482637E+03  0.70277482637E+03  0.25500000920E-02 0. -1.
        2   -1    0    0  501    0  0.00000000000E+00  0.00000000000E+00 -0.79939696288E+03  0.79939696289E+03  0.25500000920E-02 0.  1.
    10030    2    1    2    0    0  0.00000000000E+00  0.00000000000E+00 -0.96622136520E+02  0.15021717893E+04  0.14990611219E+04 0.  0.
        3    1    3    3  502    0  0.40934982911E+03  0.52359609397E+03 -0.39554981884E+03  0.77342085672E+03  0.10100000352E+00 0.  1.
       -3    1    3    3    0  502 -0.40934982911E+03 -0.52359609397E+03  0.29892768232E+03  0.72875093254E+03  0.10100000352E+00 0. -1.
</event>
<event>
 5   0  0.4569211E-04  0.1445777E+04  0.7818609E-02  0.8921334E-01
        2   -1    0    0  501    0  0.00000000000E+00  0.00000000000E+00  0.20893432092E+04  0.20893432092E+04  0.25500000920E-02 0. -1.
       -2   -1    0    0    0  501  0.00000000000E+00  0.00000000000E+00 -0.25011097403E+03  0.25011097405E+03  0.25500000920E-02 0.  1.
    10030    2    1    2    0    0  0.00000000000E+00  0.00000000000E+00  0.18392322352E+04  0.23394541833E+04  0.14457768364E+04 0.  0.
        5    1    3    3  502    0 -0.77804059941E+01 -0.56615645386E+03  0.16467883129E+04  0.17414153733E+04  0.46999998093E+01 0. -1.
       -5    1    3    3    0  502  0.77804059941E+01  0.56615645386E+03  0.19244392227E+03  0.59803880993E+03  0.46999998093E+01 0.  1.
</event>
<event>
 5   0  0.4726600E-04  0.1486276E+04  0.7818609E-02  0.8893631E-01
        2   -1    0    0  501    0  0.00000000000E+00  0.00000000000E+00  0.59790854823E+03  0.59790854824E+03  0.25500000920E-02 0.  1.
       -2   -1    0    0    0  501  0.00000000000E+00  0.00000000000E+00 -0.92364298757E+03  0.92364298757E+03  0.25500000920E-02 0. -1.
    10030    2    1    2    0    0  0.00000000000E+00  0.00000000000E+00 -0.32573443934E+03  0.15215515358E+04  0.14862759337E+04 0.  0.
        2    1    3    3  502    0  0.14668451488E+03  0.66121157469E+03  0.15022971112E+03  0.69374783569E+03  0.25500000920E-02 0.  1.
       -2    1    3    3    0  502 -0.14668451488E+03 -0.66121157469E+03 -0.47596415045E+03  0.82780370012E+03  0.25500000920E-02 0. -1.
</event>
<event>
 5   0  0.4569211E-04  0.1496224E+04  0.7818609E-02  0.8886968E-01
        2   -1    0    0  501    0  0.00000000000E+00  0.00000000000E+00  0.19356369768E+04  0.19356369768E+04  0.25500000920E-02 0.  1.
       -2   -1    0    0    0  501  0.00000000000E+00  0.00000000000E+00 -0.28914080292E+03  0.28914080293E+03  0.25500000920E-02 0. -1.
    10030    2    1    2    0    0  0.00000000000E+00  0.00000000000E+00  0.16464961739E+04  0.22247777798E+04  0.14962240870E+04 0.  0.
        5    1    3    3  502    0 -0.67092585271E+03  0.31816920040E+03  0.68797521038E+03  0.10122771952E+04  0.46999998093E+01 0.  1.
       -5    1    3    3    0  502  0.67092585271E+03 -0.31816920040E+03  0.95852096354E+03  0.12125005845E+04  0.46999998093E+01 0. -1.
</event>
<event>
 5   0  0.4726600E-04  0.1510728E+04  0.7818609E-02  0.8877350E-01
       -2   -1    0    0    0  501  0.00000000000E+00  0.00000000000E+00  0.52170731839E+03  0.52170731839E+03  0.25500000920E-02 0.  1.
        2   -1    0    0  501    0  0.00000000000E+00  0.00000000000E+00 -0.10936684600E+04  0.10936684600E+04  0.25500000920E-02 0. -1.
    10030    2    1    2    0    0  0.00000000000E+00  0.00000000000E+00 -0.57196114157E+03  0.16153757784E+04  0.15107280887E+04 0.  0.
        2    1    3    3  502    0  0.29173325939E+03  0.66717362802E+03 -0.50075715888E+03  0.88373450579E+03  0.25500000920E-02 0. -1.
       -2    1    3    3    0  502 -0.29173325939E+03 -0.66717362802E+03 -0.71203982697E+02  0.73164127256E+03  0.25500000920E-02 0.  1.
</event>
<event>
 5   0  0.4785496E-04  0.1490523E+04  0.7818609E-02  0.8890779E-01
       -2   -1    0    0    0  501  0.00000000000E+00  0.00000000000E+00  0.99974384297E+03  0.99974384297E+03  0.25500000920E-02 0.  1.
        2   -1    0    0  501    0  0.00000000000E+00  0.00000000000E+00 -0.55555729163E+03  0.55555729163E+03  0.25500000920E-02 0. -1.
    10030    2    1    2    0    0  0.00000000000E+00  0.00000000000E+00  0.44418655134E+03  0.15553011346E+04  0.14905233735E+04 0.  0.
        4    1    3    3  502    0 -0.44288307127E+03  0.46895806685E+03  0.61160756672E+03  0.88889398235E+03  0.12699999809E+01 0.  1.
       -4    1    3    3    0  502  0.44288307127E+03 -0.46895806685E+03 -0.16742101538E+03  0.66640715225E+03  0.12699999809E+01 0. -1.
</event>
<event>
 5   0  0.4948645E-04  0.1492362E+04  0.7818609E-02  0.8889548E-01
        2   -1    0    0  501    0  0.00000000000E+00  0.00000000000E+00  0.80235871802E+03  0.80235871802E+03  0.25500000920E-02 0. -1.
       -2   -1    0    0    0  501  0.00000000000E+00  0.00000000000E+00 -0.69393640825E+03  0.69393640825E+03  0.25500000920E-02 0.  1.
    10030    2    1    2    0    0  0.00000000000E+00  0.00000000000E+00  0.10842230977E+03  0.14962951263E+04  0.14923617885E+04 0.  0.
        1    1    3    3  502    0  0.25148802641E+03  0.63337869204E+03  0.35893839170E+03  0.77022825450E+03  0.50400001928E-02 0. -1.
       -1    1    3    3    0  502 -0.25148802641E+03 -0.63337869204E+03 -0.25051608193E+03  0.72606687178E+03  0.50400001928E-02 0.  1.
</event>
<event>
 5   0  0.2542737E-04  0.1499793E+04  0.7818609E-02  0.8884590E-01
        1   -1    0    0  501    0  0.00000000000E+00  0.00000000000E+00  0.79228964471E+03  0.79228964472E+03  0.50400001928E-02 0. -1.
       -1   -1    0    0    0  501  0.00000000000E+00  0.00000000000E+00 -0.70977207519E+03  0.70977207521E+03  0.50400001928E-02 0.  1.
    10030    2    1    2    0    0  0.00000000000E+00  0.00000000000E+00  0.82517569512E+02  0.15020617199E+04  0.14997934062E+04 0.  0.
        1    1    3    3  502    0 -0.63121244236E+03 -0.33938141219E+02 -0.36279174100E+03  0.72883385774E+03  0.50400001928E-02 0.  1.
       -1    1    3    3    0  502  0.63121244236E+03  0.33938141219E+02  0.44530931052E+03  0.77322786220E+03  0.50400001928E-02 0. -1.
</event>
<event>
 5   0  0.2565416E-04  0.1479970E+04  0.7818609E-02  0.8897883E-01
       -1   -1    0    0    0  501  0.00000000000E+00  0.00000000000E+00  0.53564436780E+03  0.53564436782E+03  0.50400001928E-02 0. -1.
        1   -1    0    0  501    0  0.00000000000E+00  0.00000000000E+00 -0.10222786317E+04  0.10222786317E+04  0.50400001928E-02 0.  1.
    10030    2    1    2    0    0  0.00000000000E+00  0.00000000000E+00 -0.48663426389E+03  0.15579229995E+04  0.14799699881E+04 0.  0.
        5    1    3    3  502    0 -0.18920066154E+03  0.30440208637E+03 -0.92479376364E+03  0.99182816847E+03  0.46999998093E+01 0.  1.
       -5    1    3    3    0  502  0.18920066154E+03 -0.30440208637E+03  0.43815949975E+03  0.56609483105E+03  0.46999998093E+01 0. -1.
</event>
<event>
 5   0  0.2603873E-04  0.1499231E+04  0.7818609E-02  0.8884965E-01
        1   -1    0    0  501    0  0.00000000000E+00  0.00000000000E+00  0.62180051985E+03  0.62180051987E+03  0.50400001928E-02 0.  1.
       -1   -1    0    0    0  501  0.00000000000E+00  0.00000000000E+00 -0.90370344665E+03  0.90370344667E+03  0.50400001928E-02 0. -1.
    10030    2    1    2    0    0  0.00000000000E+00  0.00000000000E+00 -0.28190292680E+03  0.15255039665E+04  0.14992308334E+04 0.  0.
        2    1    3    3  502    0  0.13046844448E+03  0.55396148461E+03  0.35547942638E+03  0.67101487615E+03  0.25500000920E-02 0.  1.
       -2    1    3    3    0  502 -0.13046844448E+03 -0.55396148461E+03 -0.63738235318E+03  0.85448909038E+03  0.25500000920E-02 0. -1.
</event>
<event>
 5   0  0.2565416E-04  0.1496830E+04  0.7818609E-02  0.8886563E-01
        1   -1    0    0  501    0  0.00000000000E+00  0.00000000000E+00  0.63049448779E+03  0.63049448781E+03  0.50400001928E-02 0. -1.
       -1   -1    0    0    0  501  0.00000000000E+00  0.00000000000E+00 -0.88839050071E+03  0.88839050072E+03  0.50400001928E-02 0.  1.
    10030    2    1    2    0    0  0.00000000000E+00  0.00000000000E+00 -0.25789601292E+03  0.15188849885E+04  0.14968304029E+04 0.  0.
        5    1    3    3  502    0 -0.64787001002E+03  0.36462901651E+03 -0.21631746989E+03  0.77427721608E+03  0.46999998093E+01 0.  1.
       -5    1    3    3    0  502  0.64787001002E+03 -0.36462901651E+03 -0.41578543027E+02  0.74460777245E+03  0.46999998093E+01 0. -1.
</event>
<event>
 5   0  0.4948645E-04  0.1462133E+04  0.7818609E-02  0.8910032E-01
        2   -1    0    0  501    0  0.00000000000E+00  0.00000000000E+00  0.43266286740E+03  0.43266286741E+03  0.25500000920E-02 0.  1.
       -2   -1    0    0    0  501  0.00000000000E+00  0.00000000000E+00 -0.12352756830E+04  0.12352756830E+04  0.25500000920E-02 0. -1.
    10030    2    1    2    0    0  0.00000000000E+00  0.00000000000E+00 -0.80261281559E+03  0.16679385504E+04  0.14621325782E+04 0.  0.
        1    1    3    3  502    0  0.46354966868E+03 -0.52973870997E+03 -0.62646233572E+03  0.94231441370E+03  0.50400001928E-02 0. -1.
       -1    1    3    3    0  502 -0.46354966868E+03  0.52973870997E+03 -0.17615047987E+03  0.72562413670E+03  0.50400001928E-02 0.  1.
</event>
<event>
 5   0  0.4785496E-04  0.1485066E+04  0.7818609E-02  0.8894445E-01
       -2   -1    0    0    0  501  0.00000000000E+00  0.00000000000E+00  0.75278782654E+03  0.75278782654E+03  0.25500000920E-02 0.  1.
        2   -1    0    0  501    0  0.00000000000E+00  0.00000000000E+00 -0.73241756668E+03  0.73241756668E+03  0.25500000920E-02 0. -1.
    10030    2    1    2    0    0  0.00000000000E+00  0.00000000000E+00  0.20370259865E+02  0.14852053932E+04  0.14850656930E+04 0.  0.
        4    1    3    3  502    0  0.22017239536E+03  0.28626223606E+03  0.65903847360E+03  0.75150201201E+03  0.12699999809E+01 0.  1.
       -4    1    3    3    0  502 -0.22017239536E+03 -0.28626223606E+03 -0.63866821373E+03  0.73370338121E+03  0.12699999809E+01 0. -1.
</event>
<event>
 5   0  0.2544374E-04  0.1511121E+04  0.7818609E-02  0.8877091E-01
        1   -1    0    0  501    0  0.00000000000E+00  0.00000000000E+00  0.80586101767E+03  0.80586101768E+03  0.50400001928E-02 0.  1.
       -1   -1    0    0    0  501  0.00000000000E+00  0.00000000000E+00 -0.70839952713E+03  0.70839952715E+03  0.50400001928E-02 0. -1.
    10030    2    1    2    0    0  0.00000000000E+00  0.00000000000E+00  0.97461490535E+02  0.15142605448E+04  0.15111208607E+04 0.  0.
        4    1    3    3  502    0 -0.51936920952E+03  0.50106099500E+02  0.59632285520E+03  0.79237463206E+03  0.12699999809E+01 0.  1.
       -4    1    3    3    0  502  0.51936920952E+03 -0.50106099500E+02 -0.49886136467E+03  0.72188591277E+03  0.12699999809E+01 0. -1.
</event>
<event>
 5   0  0.2603873E-04  0.1511314E+04  0.7818609E-02  0.8876964E-01
       -1   -1    0    0    0  501  0.00000000000E+00  0.00000000000E+00  0.65348074230E+03  0.65348074231E+03  0.50400001928E-02 0. -1.
        1   -1    0    0  501    0  0.00000000000E+00  0.00000000000E+00 -0.87380875020E+03  0.87380875021E+03  0.50400001928E-02 0.  1.
    10030    2    1    2    0    0  0.00000000000E+00  0.00000000000E+00 -0.22032800790E+03  0.15272894925E+04  0.15113135885E+04 0.  0.
        2    1    3    3  502    0 -0.63408163505E+03 -0.38791901790E+03 -0.24752919824E+03  0.78346115943E+03  0.25500000920E-02 0.  1.
       -2    1    3    3    0  502  0.63408163505E+03  0.38791901790E+03  0.27201190338E+02  0.74382833309E+03  0.25500000920E-02 0. -1.
</event>
<event>
 5   0  0.2603873E-04  0.1499417E+04  0.7818609E-02  0.8884840E-01
       -1   -1    0    0    0  501  0.00000000000E+00  0.00000000000E+00  0.41158384855E+03  0.41158384858E+03  0.50400001928E-02 0. -1.
        1   -1    0    0  501    0  0.00000000000E+00  0.00000000000E+00 -0.13656102419E+04  0.13656102419E+04  0.50400001928E-02 0.  1.
    10030    2    1    2    0    0  0.00000000000E+00  0.00000000000E+00 -0.95402639338E+03  0.17771940905E+04  0.14994173789E+04 0.  0.
        2    1    3    3  502    0 -0.20379864605E+03 -0.62060403771E+02  0.37495266852E+03  0.43124805563E+03  0.25500000920E-02 0. -1.
       -2    1    3    3    0  502  0.20379864605E+03  0.62060403771E+02 -0.13289790619E+04  0.13459460349E+04  0.25500000920E-02 0.  1.
</event>
<event>
 5   0  0.4726600E-04  0.1493549E+04  0.7818609E-02  0.8888754E-01
       -2   -1    0    0    0  501  0.00000000000E+00  0.00000000000E+00  0.52501729596E+03  0.52501729597E+03  0.25500000920E-02 0.  1.
        2   -1    0    0  501    0  0.00000000000E+00  0.00000000000E+00 -0.10621973985E+04  0.10621973985E+04  0.25500000920E-02 0. -1.
    10030    2    1    2    0    0  0.00000000000E+00  0.00000000000E+00 -0.53718010258E+03  0.15872146945E+04  0.14935488020E+04 0.  0.
        2    1    3    3  502    0  0.31766086231E+03  0.45832520633E+03 -0.79642996844E+03  0.97225054016E+03  0.25500000920E-02 0. -1.
       -2    1    3    3    0  502 -0.31766086231E+03 -0.45832520633E+03  0.25924986585E+03  0.61496415436E+03  0.25500000920E-02 0.  1.
</event>
<event>
 5   0  0.2542737E-04  0.1505528E+04  0.7818609E-02  0.8880785E-01
       -1   -1    0    0    0  501  0.00000000000E+00  0.00000000000E+00  0.99751926353E+03  0.99751926355E+03  0.50400001928E-02 0.  1.
        1   -1    0    0  501    0  0.00000000000E+00  0.00000000000E+00 -0.56806248663E+03  0.56806248665E+03  0.50400001928E-02 0. -1.
    10030    2    1    2    0    0  0.00000000000E+00  0.00000000000E+00  0.42945677690E+03  0.15655817502E+04  0.15055275133E+04 0.  0.
        1    1    3    3  502    0 -0.27682338063E+03 -0.65781650979E+03  0.46364998536E+03  0.85107288381E+03  0.50400001928E-02 0.  1.
       -1    1    3    3    0  502  0.27682338063E+03  0.65781650979E+03 -0.34193208455E+02  0.71450886639E+03  0.50400001928E-02 0. -1.
</event>
<event>
 5   0  0.2603873E-04  0.1497264E+04  0.7818609E-02  0.8886274E-01
        1   -1    0    0  501    0  0.00000000000E+00  0.00000000000E+00  0.18510549632E+04  0.18510549633E+04  0.50400001928E-02 0.  1.
       -1   -1    0    0    0  501  0.00000000000E+00  0.00000000000E+00 -0.30277323740E+03  0.30277323744E+03  0.50400001928E-02 0. -1.
    10030    2    1    2    0    0  0.00000000000E+00  0.00000000000E+00  0.15482817258E+04  0.21538282007E+04  0.14972640434E+04 0.  0.
        2    1    3    3  502    0  0.46482641008E+02  0.39770759557E+03 -0.13578639279E+03  0.42281191086E+03  0.25500000920E-02 0. -1.
       -2    1    3    3    0  502 -0.46482641008E+02 -0.39770759557E+03  0.16840681186E+04  0.17310162898E+04  0.25500000920E-02 0.  1.
</event>
<event>
 5   0  0.2605471E-04  0.1515407E+04  0.7818609E-02  0.8874271E-01
        1   -1    0    0  501    0  0.00000000000E+00  0.00000000000E+00  0.14725890663E+04  0.14725890663E+04  0.50400001928E-02 0. -1.
       -1   -1    0    0    0  501  0.00000000000E+00  0.00000000000E+00 -0.38986772966E+03  0.38986772969E+03  0.50400001928E-02 0.  1.
    10030    2    1    2    0    0  0.00000000000E+00  0.00000000000E+00  0.10827213367E+04  0.18624567960E+04  0.15154074779E+04 0.  0.
        3    1    3    3  502    0 -0.56097575853E+03 -0.86229350858E+02  0.11583031555E+04  0.12898819763E+04  0.10100000352E+00 0. -1.
       -3    1    3    3    0  502  0.56097575853E+03  0.86229350858E+02 -0.75581818840E+02  0.57257481969E+03  0.10100000352E+00 0.  1.
</event>
<event>
 5   0  0.2544374E-04  0.1494211E+04  0.7818609E-02  0.8888312E-01
        1   -1    0    0  501    0  0.00000000000E+00  0.00000000000E+00  0.63966493548E+03  0.63966493550E+03  0.50400001928E-02 0.  1.
       -1   -1    0    0    0  501  0.00000000000E+00  0.00000000000E+00 -0.87259210358E+03  0.87259210360E+03  0.50400001928E-02 0. -1.
    10030    2    1    2    0    0  0.00000000000E+00  0.00000000000E+00 -0.23292716810E+03  0.15122570391E+04  0.14942109244E+04 0.  0.
        4    1    3    3  502    0 -0.60890204866E+03 -0.42426344306E+03 -0.29379136636E+02  0.74271523517E+03  0.12699999809E+01 0. -1.
       -4    1    3    3    0  502  0.60890204866E+03  0.42426344306E+03 -0.20354803147E+03  0.76954180393E+03  0.12699999809E+01 0.  1.
</event>
<event>
 5   0  0.4785496E-04  0.1499340E+04  0.7818609E-02  0.8884892E-01
        2   -1    0    0  501    0  0.00000000000E+00  0.00000000000E+00  0.54978352337E+03  0.54978352338E+03  0.25500000920E-02 0. -1.
       -2   -1    0    0    0  501  0.00000000000E+00  0.00000000000E+00 -0.10222297263E+04  0.10222297263E+04  0.25500000920E-02 0.  1.
    10030    2    1    2    0    0  0.00000000000E+00  0.00000000000E+00 -0.47244620293E+03  0.15720132497E+04  0.14993399356E+04 0.  0.
        4    1    3    3  502    0  0.29522590012E+02  0.63264321302E+03  0.18433557512E+03  0.65961370169E+03  0.12699999809E+01 0. -1.
       -4    1    3    3    0  502 -0.29522590012E+02 -0.63264321302E+03 -0.65678177805E+03  0.91239954799E+03  0.12699999809E+01 0.  1.
</event>
<event>
 5   0  0.4726600E-04  0.1492148E+04  0.7818609E-02  0.8889691E-01
        2   -1    0    0  501    0  0.00000000000E+00  0.00000000000E+00  0.20467377458E+04  0.20467377458E+04  0.25500000920E-02 0.  1.
       -2   -1    0    0    0  501  0.00000000000E+00  0.00000000000E+00 -0.27195778224E+03  0.27195778226E+03  0.25500000920E-02 0. -1.
    10030    2    1    2    0    0  0.00000000000E+00  0.00000000000E+00  0.17747799635E+04  0.23186955280E+04  0.14921477919E+04 0.  0.
        2    1    3    3  502    0 -0.22301102392E+03 -0.63137560440E+02  0.19893739794E+04  0.20028302720E+04  0.25500000920E-02 0.  1.
       -2    1    3    3    0  502  0.22301102392E+03  0.63137560440E+02 -0.21459401589E+03  0.31586525606E+03  0.25500000920E-02 0. -1.
</event>
<event>
 5   0  0.4569211E-04  0.1491517E+04  0.7818609E-02  0.8890114E-01
       -2   -1    0    0    0  501  0.00000000000E+00  0.00000000000E+00  0.28270805972E+03  0.28270805973E+03  0.25500000920E-02 0.  1.
        2   -1    0    0  501    0  0.00000000000E+00  0.00000000000E+00 -0.19672445580E+04  0.19672445580E+04  0.25500000920E-02 0. -1.
    10030    2    1    2    0    0  0.00000000000E+00  0.00000000000E+00 -0.16845364983E+04  0.22499526178E+04  0.14915172034E+04 0.  0.
        5    1    3    3  502    0 -0.42224904101E+02 -0.17531507571E+03 -0.19338376316E+04  0.19422328372E+04  0.46999998093E+01 0. -1.
       -5    1    3    3    0  502  0.42224904101E+02  0.17531507571E+03  0.24930113331E+03  0.30771978059E+03  0.46999998093E+01 0.  1.
</event>
<event>
 5   0  0.4768387E-04  0.1499837E+04  0.7818609E-02  0.8884562E-01
       -2   -1    0    0    0  501  0.00000000000E+00  0.00000000000E+00  0.35484642390E+03  0.35484642391E+03  0.25500000920E-02 0.  1.
        2   -1    0    0  501    0  0.00000000000E+00  0.00000000000E+00 -0.15848473630E+04  0.15848473630E+04  0.25500000920E-02 0. -1.
    10030    2    1    2    0    0  0.00000000000E+00  0.00000000000E+00 -0.12300009391E+04  0.19396937869E+04  0.14998365500E+04 0.  0.
        3    1    3    3  502    0  0.26997284498E+03  0.69102595244E+03 -0.75652467352E+03  0.10595903906E+04  0.10100000352E+00 0. -1.
       -3    1    3    3    0  502 -0.26997284498E+03 -0.69102595244E+03 -0.47347626558E+03  0.88010339633E+03  0.10100000352E+00 0.  1.
</event>
<event>
 5   0  0.4948645E-04  0.1506705E+04  0.7818609E-02  0.8880007E-01
       -2   -1    0    0    0  501  0.00000000000E+00  0.00000000000E+00  0.74581748071E+03  0.74581748071E+03  0.25500000920E-02 0. -1.
        2   -1    0    0  501    0  0.00000000000E+00  0.00000000000E+00 -0.76096345851E+03  0.76096345852E+03  0.25500000920E-02 0.  1.
    10030    2    1    2    0    0  0.00000000000E+00  0.00000000000E+00 -0.15145977804E+02  0.15067809392E+04  0.15067048145E+04 0.  0.
        1    1    3    3  502    0 -0.49904263574E+03  0.25423309117E+02  0.55623732625E+03  0.74772311725E+03  0.50400001928E-02 0. -1.
       -1    1    3    3    0  502  0.49904263574E+03 -0.25423309117E+02 -0.57138330406E+03  0.75905782198E+03  0.50400001928E-02 0.  1.
</event>
<event>
 5   0  0.2605471E-04  0.1497713E+04  0.7818609E-02  0.8885975E-01
       -1   -1    0    0    0  501  0.00000000000E+00  0.00000000000E+00  0.29384333514E+03  0.29384333518E+03  0.50400001928E-02 0.  1.
        1   -1    0    0  501    0  0.00000000000E+00  0.00000000000E+00 -0.19084522797E+04  0.19084522797E+04  0.50400001928E-02 0. -1.
    10030    2    1    2    0    0  0.00000000000E+00  0.00000000000E+00 -0.16146089446E+04  0.22022956149E+04  0.14977129002E+04 0.  0.
        3    1    3    3  502    0  0.64386319136E+02  0.16396539100E+03 -0.18775535764E+04  0.18857989527E+04  0.10100000352E+00 0. -1.
       -3    1    3    3    0  502 -0.64386319136E+02 -0.16396539100E+03  0.26294463186E+03  0.31649666217E+03  0.10100000352E+00 0.  1.
</event>
<event>
 5   0  0.2605471E-04  0.1501211E+04  0.7818609E-02  0.8883648E-01
       -1   -1    0    0    0  501  0.00000000000E+00  0.00000000000E+00  0.10452114246E+04  0.10452114246E+04  0.50400001928E-02 0. -1.
        1   -1    0    0  501    0  0.00000000000E+00  0.00000000000E+00 -0.53903812489E+03  0.53903812491E+03  0.50400001928E-02 0.  1.
    10030    2    1    2    0    0  0.00000000000E+00  0.00000000000E+00  0.50617329974E+03  0.15842495495E+04  0.15012112529E+04 0.  0.
        3    1    3    3  502    0 -0.40701976018E+03  0.62818460896E+03  0.19406629246E+03  0.77326756312E+03  0.10100000352E+00 0. -1.
       -3    1    3    3    0  502  0.40701976018E+03 -0.62818460896E+03  0.31210700728E+03  0.81098198642E+03  0.10100000352E+00 0.  1.
</event>
<event>
 5   0  0.4569211E-04  0.1489680E+04  0.7818609E-02  0.8891344E-01
        2   -1    0    0  501    0  0.00000000000E+00  0.00000000000E+00  0.44561562853E+03  0.44561562853E+03  0.25500000920E-02 0.  1.
       -2   -1    0    0    0  501  0.00000000000E+00  0.00000000000E+00 -0.12449898331E+04  0.12449898331E+04  0.25500000920E-02 0. -1.
    10030    2    1    2    0    0  0.00000000000E+00  0.00000000000E+00 -0.79937420462E+03  0.16906054617E+04  0.14896804047E+04 0.  0.
        5    1    3    3  502    0 -0.16394467914E+03  0.51069817376E+03 -0.98618337486E+03  0.11226175757E+04  0.46999998093E+01 0. -1.
       -5    1    3    3    0  502  0.16394467914E+03 -0.51069817376E+03  0.18680917024E+03  0.56798788595E+03  0.46999998093E+01 0.  1.
</event>
<event>
 5   0  0.2544374E-04  0.1508834E+04  0.7818609E-02  0.8878600E-01
        1   -1    0    0  501    0  0.00000000000E+00  0.00000000000E+00  0.81078154064E+03  0.81078154066E+03  0.50400001928E-02 0.  1.
       -1   -1    0    0    0  501  0.00000000000E+00  0.00000000000E+00 -0.70197079416E+03  0.70197079418E+03  0.50400001928E-02 0. -1.
    10030    2    1    2    0    0  0.00000000000E+00  0.00000000000E+00  0.10881074648E+03  0.15127523348E+04  0.15088339365E+04 0.  0.
        4    1    3    3  502    0  0.33671377503E+03  0.71349334287E+01 -0.62241536603E+03  0.70769313572E+03  0.12699999809E+01 0. -1.
       -4    1    3    3    0  502 -0.33671377503E+03 -0.71349334287E+01  0.73122611251E+03  0.80505919912E+03  0.12699999809E+01 0.  1.
</event>
<event>
 5   0  0.4948645E-04  0.1503600E+04  0.7818609E-02  0.8882063E-01
        2   -1    0    0  501    0  0.00000000000E+00  0.00000000000E+00  0.73872322496E+03  0.73872322497E+03  0.25500000920E-02 0. -1.
       -2   -1    0    0    0  501  0.00000000000E+00  0.00000000000E+00 -0.76510816706E+03  0.76510816706E+03  0.25500000920E-02 0.  1.
    10030    2    1    2    0    0  0.00000000000E+00  0.00000000000E+00 -0.26384942098E+02  0.15038313920E+04  0.15035999104E+04 0.  0.
        1    1    3    3  502    0  0.22226562178E+02 -0.11314062016E+03  0.72982724609E+03  0.73887930622E+03  0.50400001928E-02 0. -1.
       -1    1    3    3    0  502 -0.22226562178E+02  0.11314062016E+03 -0.75621218819E+03  0.76495208581E+03  0.50400001928E-02 0.  1.
</event>
<event>
 5   0  0.4768387E-04  0.1312840E+04  0.7818609E-02  0.9019444E-01
       -2   -1    0    0    0  501  0.00000000000E+00  0.00000000000E+00  0.35244243409E+03  0.35244243410E+03  0.25500000920E-02 0.  1.
        2   -1    0    0  501    0  0.00000000000E+00  0.00000000000E+00 -0.12225752194E+04  0.12225752194E+04  0.25500000920E-02 0. -1.
    10030    2    1    2    0    0  0.00000000000E+00  0.00000000000E+00 -0.87013278531E+03  0.15750176535E+04  0.13128402587E+04 0.  0.
        3    1    3    3  502    0 -0.46054631472E+03  0.34373683591E+03 -0.54495033268E+02  0.57725872815E+03  0.10100000352E+00 0.  1.
       -3    1    3    3    0  502  0.46054631472E+03 -0.34373683591E+03 -0.81563775205E+03  0.99775892536E+03  0.10100000352E+00 0. -1.
</event>
<event>
 5   0  0.2542737E-04  0.1494388E+04  0.7818609E-02  0.8888194E-01
        1   -1    0    0  501    0  0.00000000000E+00  0.00000000000E+00  0.19575799948E+04  0.19575799948E+04  0.50400001928E-02 0.  1.
       -1   -1    0    0    0  501  0.00000000000E+00  0.00000000000E+00 -0.28519831624E+03  0.28519831629E+03  0.50400001928E-02 0. -1.
    10030    2    1    2    0    0  0.00000000000E+00  0.00000000000E+00  0.16723816785E+04  0.22427783111E+04  0.14943875247E+04 0.  0.
        1    1    3    3  502    0 -0.46153863163E+03 -0.50572018497E+03  0.38713345860E+03  0.78653870137E+03  0.50400001928E-02 0. -1.
       -1    1    3    3    0  502  0.46153863163E+03  0.50572018497E+03  0.12852482199E+04  0.14562396097E+04  0.50400001928E-02 0.  1.
</event>
<event>
 5   0  0.4768387E-04  0.1482234E+04  0.7818609E-02  0.8896354E-01
        2   -1    0    0  501    0  0.00000000000E+00  0.00000000000E+00  0.21055417006E+04  0.21055417006E+04  0.25500000920E-02 0. -1.
       -2   -1    0    0    0  501  0.00000000000E+00  0.00000000000E+00 -0.26086132186E+03  0.26086132188E+03  0.25500000920E-02 0.  1.
    10030    2    1    2    0    0  0.00000000000E+00  0.00000000000E+00  0.18446803788E+04  0.23664030225E+04  0.14822339779E+04 0.  0.
        3    1    3    3  502    0  0.16546006317E+03 -0.72138390797E+03  0.98381324606E+03  0.12311215572E+04  0.10100000352E+00 0.  1.
       -3    1    3    3    0  502 -0.16546006317E+03  0.72138390797E+03  0.86086713271E+03  0.11352814653E+04  0.10100000352E+00 0. -1.
</event>
<event>
 5   0  0.4948645E-04  0.1490927E+04  0.7818609E-02  0.8890509E-01
       -2   -1    0    0    0  501  0.00000000000E+00  0.00000000000E+00  0.38503393020E+03  0.38503393020E+03  0.25500000920E-02 0. -1.
        2   -1    0    0  501    0  0.00000000000E+00  0.00000000000E+00 -0.14432907332E+04  0.14432907332E+04  0.25500000920E-02 0.  1.
    10030    2    1    2    0    0  0.00000000000E+00  0.00000000000E+00 -0.10582568030E+04  0.18283246634E+04  0.14909270987E+04 0.  0.
        1    1    3    3  502    0 -0.48281943148E+03  0.29334137557E+02  0.16645623907E+03  0.51154938627E+03  0.50400001928E-02 0. -1.
       -1    1    3    3    0  502  0.48281943148E+03 -0.29334137557E+02 -0.12247130420E+04  0.13167752771E+04  0.50400001928E-02 0.  1.
</event>
<event>
 5   0  0.2603873E-04  0.1492155E+04  0.7818609E-02  0.8889686E-01
        1   -1    0    0  501    0  0.00000000000E+00  0.00000000000E+00  0.12006004907E+04  0.12006004907E+04  0.50400001928E-02 0.  1.
       -1   -1    0    0    0  501  0.00000000000E+00  0.00000000000E+00 -0.46362796178E+03  0.46362796181E+03  0.50400001928E-02 0. -1.
    10030    2    1    2    0    0  0.00000000000E+00  0.00000000000E+00  0.73697252889E+03  0.16642284525E+04  0.14921554322E+04 0.  0.
        2    1    3    3  502    0 -0.47283621516E+03  0.97356507110E+02 -0.26595209520E+03  0.55116503226E+03  0.25500000920E-02 0. -1.
       -2    1    3    3    0  502  0.47283621516E+03 -0.97356507110E+02  0.10029246241E+04  0.11130634202E+04  0.25500000920E-02 0.  1.
</event>
<event>
 5   0  0.4785496E-04  0.1333162E+04  0.7818609E-02  0.9003673E-01
       -2   -1    0    0    0  501  0.00000000000E+00  0.00000000000E+00  0.48651194726E+03  0.48651194726E+03  0.25500000920E-02 0.  1.
        2   -1    0    0  501    0  0.00000000000E+00  0.00000000000E+00 -0.91329813600E+03  0.91329813600E+03  0.25500000920E-02 0. -1.
    10030    2    1    2    0    0  0.00000000000E+00  0.00000000000E+00 -0.42678618874E+03  0.13998100833E+04  0.13331623376E+04 0.  0.
        4    1    3    3  502    0  0.24597441417E+03 -0.52758908021E+03 -0.55439848396E+03  0.80387371017E+03  0.12699999809E+01 0. -1.
       -4    1    3    3    0  502 -0.24597441417E+03  0.52758908021E+03  0.12761229522E+03  0.59593637309E+03  0.12699999809E+01 0.  1.
</event>
<event>
 5   0  0.4726600E-04  0.1497802E+04  0.7818609E-02  0.8885916E-01
        2   -1    0    0  501    0  0.00000000000E+00  0.00000000000E+00  0.10120821866E+04  0.10120821866E+04  0.25500000920E-02 0. -1.
       -2   -1    0    0    0  501  0.00000000000E+00  0.00000000000E+00 -0.55415697856E+03  0.55415697856E+03  0.25500000920E-02 0.  1.
    10030    2    1    2    0    0  0.00000000000E+00  0.00000000000E+00  0.45792520804E+03  0.15662391652E+04  0.14978015978E+04 0.  0.
        2    1    3    3  502    0 -0.21277428314E+03  0.38940178574E+03  0.85980681549E+03  0.96756106075E+03  0.25500000920E-02 0. -1.
       -2    1    3    3    0  502  0.21277428314E+03 -0.38940178574E+03 -0.40188160745E+03  0.59867810442E+03  0.25500000920E-02 0.  1.
</event>
<event>
 5   0  0.2605471E-04  0.1498400E+04  0.7818609E-02  0.8885518E-01
       -1   -1    0    0    0  501  0.00000000000E+00  0.00000000000E+00  0.50987983682E+03  0.50987983684E+03  0.50400001928E-02 0.  1.
        1   -1    0    0  501    0  0.00000000000E+00  0.00000000000E+00 -0.11008485900E+04  0.11008485900E+04  0.50400001928E-02 0. -1.
    10030    2    1    2    0    0  0.00000000000E+00  0.00000000000E+00 -0.59096875318E+03  0.16107284269E+04  0.14983998124E+04 0.  0.
        3    1    3    3  502    0  0.19686064816E+03  0.21549138858E+03 -0.10372183822E+04  0.10775029633E+04  0.10100000352E+00 0. -1.
       -3    1    3    3    0  502 -0.19686064816E+03 -0.21549138858E+03  0.44624962904E+03  0.53322546353E+03  0.10100000352E+00 0.  1.
</event>
<event>
 5   0  0.2544374E-04  0.1486460E+04  0.7818609E-02  0.8893507E-01
       -1   -1    0    0    0  501  0.00000000000E+00  0.00000000000E+00  0.40199405151E+03  0.40199405154E+03  0.50400001928E-02 0.  1.
        1   -1    0    0  501    0  0.00000000000E+00  0.00000000000E+00 -0.13741262479E+04  0.13741262479E+04  0.50400001928E-02 0. -1.
    10030    2    1    2    0    0  0.00000000000E+00  0.00000000000E+00 -0.97213219638E+03  0.17761202994E+04  0.14864596566E+04 0.  0.
        4    1    3    3  502    0 -0.54317092192E+03  0.30190865776E+03 -0.97319277799E+03  0.11546814643E+04  0.12699999809E+01 0. -1.
       -4    1    3    3    0  502  0.54317092192E+03 -0.30190865776E+03  0.10605816081E+01  0.62143883511E+03  0.12699999809E+01 0.  1.
</event>
<event>
 5   0  0.2565416E-04  0.1495361E+04  0.7818609E-02  0.8887544E-01
        1   -1    0    0  501    0  0.00000000000E+00  0.00000000000E+00  0.74273246865E+03  0.74273246866E+03  0.50400001928E-02 0. -1.
       -1   -1    0    0    0  501  0.00000000000E+00  0.00000000000E+00 -0.75266141347E+03  0.75266141348E+03  0.50400001928E-02 0.  1.
    10030    2    1    2    0    0  0.00000000000E+00  0.00000000000E+00 -0.99289448211E+01  0.14953938821E+04  0.14953609192E+04 0.  0.
        5    1    3    3  502    0  0.67026776405E+03 -0.31505107326E+03 -0.10737730267E+03  0.74837693004E+03  0.46999998093E+01 0.  1.
       -5    1    3    3    0  502 -0.67026776405E+03  0.31505107326E+03  0.97448357850E+02  0.74701695211E+03  0.46999998093E+01 0. -1.
</event>
<event>
 5   0  0.2544374E-04  0.1542193E+04  0.7818609E-02  0.8856870E-01
       -1   -1    0    0    0  501  0.00000000000E+00  0.00000000000E+00  0.24725427260E+03  0.24725427266E+03  0.50400001928E-02 0. -1.
        1   -1    0    0  501    0  0.00000000000E+00  0.00000000000E+00 -0.24047703451E+04  0.24047703451E+04  0.50400001928E-02 0.  1.
    10030    2    1    2    0    0  0.00000000000E+00  0.00000000000E+00 -0.21575160725E+04  0.26520246178E+04  0.15421929095E+04 0.  0.
        4    1    3    3  502    0 -0.61287650899E+02  0.45575227608E+03 -0.14352093600E+02  0.46008032863E+03  0.12699999809E+01 0. -1.
       -4    1    3    3    0  502  0.61287650899E+02 -0.45575227608E+03 -0.21431639789E+04  0.21919442891E+04  0.12699999809E+01 0.  1.
</event>
<event>
 5   0  0.2542737E-04  0.1495397E+04  0.7818609E-02  0.8887519E-01
        1   -1    0    0  501    0  0.00000000000E+00  0.00000000000E+00  0.48681693703E+03  0.48681693705E+03  0.50400001928E-02 0. -1.
       -1   -1    0    0    0  501  0.00000000000E+00  0.00000000000E+00 -0.11483849286E+04  0.11483849286E+04  0.50400001928E-02 0.  1.
    10030    2    1    2    0    0  0.00000000000E+00  0.00000000000E+00 -0.66156799158E+03  0.16352018657E+04  0.14953972496E+04 0.  0.
        1    1    3    3  502    0  0.56257906269E+03  0.34980023708E+03  0.48324138143E+02  0.66422182288E+03  0.50400001928E-02 0. -1.
       -1    1    3    3    0  502 -0.56257906269E+03 -0.34980023708E+03 -0.70989212973E+03  0.97098004280E+03  0.50400001928E-02 0.  1.
</event>
<event>
 5   0  0.4569211E-04  0.1493039E+04  0.7818609E-02  0.8889095E-01
        2   -1    0    0  501    0  0.00000000000E+00  0.00000000000E+00  0.59065452710E+03  0.59065452711E+03  0.25500000920E-02 0. -1.
       -2   -1    0    0    0  501  0.00000000000E+00  0.00000000000E+00 -0.94351507624E+03  0.94351507624E+03  0.25500000920E-02 0.  1.
    10030    2    1    2    0    0  0.00000000000E+00  0.00000000000E+00 -0.35286054913E+03  0.15341696033E+04  0.14930391169E+04 0.  0.
        5    1    3    3  502    0  0.21686756239E+03 -0.14101382558E+03  0.54311242568E+03  0.60158925817E+03  0.46999998093E+01 0. -1.
       -5    1    3    3    0  502 -0.21686756239E+03  0.14101382558E+03 -0.89597297481E+03  0.93258034518E+03  0.46999998093E+01 0.  1.
</event>
<event>
 5   0  0.2544374E-04  0.1495604E+04  0.7818609E-02  0.8887381E-01
       -1   -1    0    0    0  501  0.00000000000E+00  0.00000000000E+00  0.36520859089E+03  0.36520859093E+03  0.50400001928E-02 0.  1.
        1   -1    0    0  501    0  0.00000000000E+00  0.00000000000E+00 -0.15312016473E+04  0.15312016473E+04  0.50400001928E-02 0. -1.
    10030    2    1    2    0    0  0.00000000000E+00  0.00000000000E+00 -0.11659930564E+04  0.18964102382E+04  0.14956042204E+04 0.  0.
        4    1    3    3  502    0  0.29732021870E+03 -0.67956903328E+03 -0.70324176958E+03  0.10221369687E+04  0.12699999809E+01 0. -1.
       -4    1    3    3    0  502 -0.29732021870E+03  0.67956903328E+03 -0.46275128682E+03  0.87427326951E+03  0.12699999809E+01 0.  1.
</event>
<event>
 5   0  0.4569211E-04  0.1501336E+04  0.7818609E-02  0.8883565E-01
       -2   -1    0    0    0  501  0.00000000000E+00  0.00000000000E+00  0.50148382711E+03  0.50148382712E+03  0.25500000920E-02 0.  1.
        2   -1    0    0  501    0  0.00000000000E+00  0.00000000000E+00 -0.11236705075E+04  0.11236705075E+04  0.25500000920E-02 0. -1.
    10030    2    1    2    0    0  0.00000000000E+00  0.00000000000E+00 -0.62218668044E+03  0.16251543347E+04  0.15013361869E+04 0.  0.
        5    1    3    3  502    0 -0.28123625339E+03 -0.34529689393E+03  0.34302497197E+03  0.56214944327E+03  0.46999998093E+01 0.  1.
       -5    1    3    3    0  502  0.28123625339E+03  0.34529689393E+03 -0.96521165241E+03  0.10630048914E+04  0.46999998093E+01 0. -1.
</event>
<event>
 5   0  0.4768387E-04  0.1527290E+04  0.7818609E-02  0.8866506E-01
        2   -1    0    0  501    0  0.00000000000E+00  0.00000000000E+00  0.10546981893E+04  0.10546981893E+04  0.25500000920E-02 0. -1.
       -2   -1    0    0    0  501  0.00000000000E+00  0.00000000000E+00 -0.55291031889E+03  0.55291031890E+03  0.25500000920E-02 0.  1.
    10030    2    1    2    0    0  0.00000000000E+00  0.00000000000E+00  0.50178787044E+03  0.16076085082E+04  0.15272897724E+04 0.  0.
        3    1    3    3  502    0  0.69530159918E+02  0.34938396651E+03 -0.46009074836E+03  0.58188238168E+03  0.10100000352E+00 0.  1.
       -3    1    3    3    0  502 -0.69530159918E+02 -0.34938396651E+03  0.96187861879E+03  0.10257261265E+04  0.10100000352E+00 0. -1.
</event>
<event>
 5   0  0.4768387E-04  0.1506347E+04  0.7818609E-02  0.8880243E-01
       -2   -1    0    0    0  501  0.00000000000E+00  0.00000000000E+00  0.34331362884E+03  0.34331362885E+03  0.25500000920E-02 0.  1.
        2   -1    0    0  501    0  0.00000000000E+00  0.00000000000E+00 -0.16523386399E+04  0.16523386399E+04  0.25500000920E-02 0. -1.
    10030    2    1    2    0    0  0.00000000000E+00  0.00000000000E+00 -0.13090250110E+04  0.19956522687E+04  0.15063470709E+04 0.  0.
        3    1    3    3  502    0 -0.63414409412E+02 -0.38517959440E+03 -0.15078562976E+04  0.15575671195E+04  0.10100000352E+00 0. -1.
       -3    1    3    3    0  502  0.63414409412E+02  0.38517959440E+03  0.19883128657E+03  0.43808514924E+03  0.10100000352E+00 0.  1.
</event>
<event>
 5   0  0.2565416E-04  0.1499149E+04  0.7818609E-02  0.8885019E-01
       -1   -1    0    0    0  501  0.00000000000E+00  0.00000000000E+00  0.45199523274E+03  0.45199523277E+03  0.50400001928E-02 0.  1.
        1   -1    0    0  501    0  0.00000000000E+00  0.00000000000E+00 -0.12430708769E+04  0.12430708769E+04  0.50400001928E-02 0. -1.
    10030    2    1    2    0    0  0.00000000000E+00  0.00000000000E+00 -0.79107564412E+03  0.16950661096E+04  0.14991492392E+04 0.  0.
        5    1    3    3  502    0  0.27212664931E+03  0.69767346380E+03 -0.35909456824E+03  0.83052524000E+03  0.46999998093E+01 0.  1.
       -5    1    3    3    0  502 -0.27212664931E+03 -0.69767346380E+03 -0.43198107588E+03  0.86454086964E+03  0.46999998093E+01 0. -1.
</event>
<event>
 5   0  0.4569211E-04  0.1504146E+04  0.7818609E-02  0.8881701E-01
       -2   -1    0    0    0  501  0.00000000000E+00  0.00000000000E+00  0.73593805382E+03  0.73593805382E+03  0.25500000920E-02 0.  1.
        2   -1    0    0  501    0  0.00000000000E+00  0.00000000000E+00 -0.76856120141E+03  0.76856120141E+03  0.25500000920E-02 0. -1.
    10030    2    1    2    0    0  0.00000000000E+00  0.00000000000E+00 -0.32623147593E+02  0.15044992552E+04  0.15041455180E+04 0.  0.
        5    1    3    3  502    0 -0.63007818785E+03 -0.36877241779E+03 -0.19690797732E+03  0.75616563031E+03  0.46999998093E+01 0. -1.
       -5    1    3    3    0  502  0.63007818785E+03  0.36877241779E+03  0.16428482973E+03  0.74833362493E+03  0.46999998093E+01 0.  1.
</event>
<event>
 5   0  0.4768387E-04  0.1515264E+04  0.7818609E-02  0.8874366E-01
       -2   -1    0    0    0  501  0.00000000000E+00  0.00000000000E+00  0.13917334363E+04  0.13917334363E+04  0.25500000920E-02 0.  1.
        2   -1    0    0  501    0  0.00000000000E+00  0.00000000000E+00 -0.41243957332E+03  0.41243957333E+03  0.25500000920E-02 0. -1.
    10030    2    1    2    0    0  0.00000000000E+00  0.00000000000E+00  0.97929386295E+03  0.18041730096E+04  0.15152636004E+04 0.  0.
        3    1    3    3  502    0 -0.57569253395E+03 -0.47390169500E+02 -0.94068808505E+02  0.58524923985E+03  0.10100000352E+00 0. -1.
       -3    1    3    3    0  502  0.57569253395E+03  0.47390169500E+02  0.10733626715E+04  0.12189237698E+04  0.10100000352E+00 0.  1.
</event>
<event>
 5   0  0.2605471E-04  0.1508569E+04  0.7818609E-02  0.8878775E-01
       -1   -1    0    0    0  501  0.00000000000E+00  0.00000000000E+00  0.53204734301E+03  0.53204734303E+03  0.50400001928E-02 0. -1.
        1   -1    0    0  501    0  0.00000000000E+00  0.00000000000E+00 -0.10693499841E+04  0.10693499841E+04  0.50400001928E-02 0.  1.
    10030    2    1    2    0    0  0.00000000000E+00  0.00000000000E+00 -0.53730264105E+03  0.16013973271E+04  0.15085686167E+04 0.  0.
        3    1    3    3  502    0 -0.50217092067E+03  0.49335701957E+02 -0.86380690533E+03  0.10003859380E+04  0.10100000352E+00 0.  1.
       -3    1    3    3    0  502  0.50217092067E+03 -0.49335701957E+02  0.32650426427E+03  0.60101138911E+03  0.10100000352E+00 0. -1.
</event>
<event>
 5   0  0.2605471E-04  0.1478770E+04  0.7818609E-02  0.8898694E-01
        1   -1    0    0  501    0  0.00000000000E+00  0.00000000000E+00  0.15914791925E+04  0.15914791925E+04  0.50400001928E-02 0. -1.
       -1   -1    0    0    0  501  0.00000000000E+00  0.00000000000E+00 -0.34351096037E+03  0.34351096040E+03  0.50400001928E-02 0.  1.
    10030    2    1    2    0    0  0.00000000000E+00  0.00000000000E+00  0.12479682322E+04  0.19349901529E+04  0.14787704972E+04 0.  0.
        3    1    3    3  502    0 -0.69775767227E+03 -0.18161976251E+03  0.40961541512E+03  0.82923838904E+03  0.10100000352E+00 0. -1.
       -3    1    3    3    0  502  0.69775767227E+03  0.18161976251E+03  0.83835281705E+03  0.11057517639E+04  0.10100000352E+00 0.  1.
</event>
<event>
 5   0  0.2544374E-04  0.1486906E+04  0.7818609E-02  0.8893207E-01
       -1   -1    0    0    0  501  0.00000000000E+00  0.00000000000E+00  0.77233770317E+03  0.77233770318E+03  0.50400001928E-02 0. -1.
        1   -1    0    0  501    0  0.00000000000E+00  0.00000000000E+00 -0.71564898954E+03  0.71564898956E+03  0.50400001928E-02 0.  1.
    10030    2    1    2    0    0  0.00000000000E+00  0.00000000000E+00  0.56688713627E+02  0.14879866927E+04  0.14869064488E+04 0.  0.
        4    1    3    3  502    0 -0.23756704094E+03 -0.70333140826E+03  0.68472306567E+02  0.74552212473E+03  0.12699999809E+01 0. -1.
       -4    1    3    3    0  502  0.23756704094E+03  0.70333140826E+03 -0.11783592940E+02  0.74246456801E+03  0.12699999809E+01 0.  1.
</event>
<event>
 5   0  0.4948645E-04  0.1530573E+04  0.7818609E-02  0.8864373E-01
       -2   -1    0    0    0  501  0.00000000000E+00  0.00000000000E+00  0.15155151264E+04  0.15155151264E+04  0.25500000920E-02 0. -1.
        2   -1    0    0  501    0  0.00000000000E+00  0.00000000000E+00 -0.38644490215E+03  0.38644490216E+03  0.25500000920E-02 0.  1.
    10030    2    1    2    0    0  0.00000000000E+00  0.00000000000E+00  0.11290702243E+04  0.19019600286E+04  0.15305725657E+04 0.  0.
        1    1    3    3  502    0 -0.57284386176E+02  0.61555926169E+03  0.11250613344E+04  0.12837280521E+04  0.50400001928E-02 0. -1.
       -1    1    3    3    0  502  0.57284386176E+02 -0.61555926169E+03  0.40088898943E+01  0.61823197650E+03  0.50400001928E-02 0.  1.
</event>
<event>
 5   0  0.4569211E-04  0.1533036E+04  0.7818609E-02  0.8862777E-01
        2   -1    0    0  501    0  0.00000000000E+00  0.00000000000E+00  0.61068287695E+03  0.61068287695E+03  0.25500000920E-02 0. -1.
       -2   -1    0    0    0  501  0.00000000000E+00  0.00000000000E+00 -0.96211909064E+03  0.96211909065E+03  0.25500000920E-02 0.  1.
    10030    2    1    2    0    0  0.00000000000E+00  0.00000000000E+00 -0.35143621369E+03  0.15728019676E+04  0.15330357520E+04 0.  0.
        5    1    3    3  502    0 -0.38537417236E+03 -0.10552945109E+03  0.49537327443E+03  0.63644833945E+03  0.46999998093E+01 0. -1.
       -5    1    3    3    0  502  0.38537417236E+03  0.10552945109E+03 -0.84680948812E+03  0.93635362815E+03  0.46999998093E+01 0.  1.
</event>
<event>
 5   0  0.4726600E-04  0.1497563E+04  0.7818609E-02  0.8886075E-01
        2   -1    0    0  501    0  0.00000000000E+00  0.00000000000E+00  0.11917342918E+04  0.11917342918E+04  0.25500000920E-02 0.  1.
       -2   -1    0    0    0  501  0.00000000000E+00  0.00000000000E+00 -0.47046876743E+03  0.47046876744E+03  0.25500000920E-02 0. -1.
    10030    2    1    2    0    0  0.00000000000E+00  0.00000000000E+00  0.72126552440E+03  0.16622030593E+04  0.14975630383E+04 0.  0.
        2    1    3    3  502    0  0.14223508178E+03  0.82962828053E+02 -0.45012411839E+03  0.47929674659E+03  0.25500000920E-02 0. -1.
       -2    1    3    3    0  502 -0.14223508178E+03 -0.82962828053E+02  0.11713896428E+04  0.11829063127E+04  0.25500000920E-02 0.  1.
</event>
<event>
 5   0  0.4768387E-04  0.1425611E+04  0.7818609E-02  0.8935486E-01
        2   -1    0    0  501    0  0.00000000000E+00  0.00000000000E+00  0.15750994724E+04  0.15750994724E+04  0.25500000920E-02 0. -1.
       -2   -1    0    0    0  501  0.00000000000E+00  0.00000000000E+00 -0.32257730782E+03  0.32257730783E+03  0.25500000920E-02 0.  1.
    10030    2    1    2    0    0  0.00000000000E+00  0.00000000000E+00  0.12525221646E+04  0.18976767802E+04  0.14256105322E+04 0.  0.
        3    1    3    3  502    0 -0.43877792123E+03  0.11277602605E+03  0.13588036600E+04  0.14323379116E+04  0.10100000352E+00 0. -1.
       -3    1    3    3    0  502  0.43877792123E+03 -0.11277602605E+03 -0.10628149546E+03  0.46533886866E+03  0.10100000352E+00 0.  1.
</event>
<event>
 5   0  0.2603873E-04  0.1501702E+04  0.7818609E-02  0.8883322E-01
        1   -1    0    0  501    0  0.00000000000E+00  0.00000000000E+00  0.78922078776E+03  0.78922078777E+03  0.50400001928E-02 0.  1.
       -1   -1    0    0    0  501  0.00000000000E+00  0.00000000000E+00 -0.71434662216E+03  0.71434662218E+03  0.50400001928E-02 0. -1.
    10030    2    1    2    0    0  0.00000000000E+00  0.00000000000E+00  0.74874165598E+02  0.15035674099E+04  0.15017019730E+04 0.  0.
        2    1    3    3  502    0  0.15673063244E+03 -0.64107321374E+03 -0.32111088226E+03  0.73392884889E+03  0.25500000920E-02 0. -1.
       -2    1    3    3    0  502 -0.15673063244E+03  0.64107321374E+03  0.39598504786E+03  0.76963856105E+03  0.25500000920E-02 0.  1.
</event>
<event>
 5   0  0.2542737E-04  0.1497956E+04  0.7818609E-02  0.8885813E-01
        1   -1    0    0  501    0  0.00000000000E+00  0.00000000000E+00  0.12922051311E+04  0.12922051311E+04  0.50400001928E-02 0. -1.
       -1   -1    0    0    0  501  0.00000000000E+00  0.00000000000E+00 -0.43411670658E+03  0.43411670661E+03  0.50400001928E-02 0.  1.
    10030    2    1    2    0    0  0.00000000000E+00  0.00000000000E+00  0.85808842450E+03  0.17263218377E+04  0.14979557213E+04 0.  0.
        1    1    3    3  502    0 -0.47707879619E+03  0.11005917974E+03  0.10822421209E+04  0.11878405655E+04  0.50400001928E-02 0. -1.
       -1    1    3    3    0  502  0.47707879619E+03 -0.11005917974E+03 -0.22415369643E+03  0.53848127216E+03  0.50400001928E-02 0.  1.
</event>
<event>
 5   0  0.4768387E-04  0.1503355E+04  0.7818609E-02  0.8882225E-01
        2   -1    0    0  501    0  0.00000000000E+00  0.00000000000E+00  0.22545597461E+04  0.22545597461E+04  0.25500000920E-02 0.  1.
       -2   -1    0    0    0  501  0.00000000000E+00  0.00000000000E+00 -0.25061155634E+03  0.25061155636E+03  0.25500000920E-02 0. -1.
    10030    2    1    2    0    0  0.00000000000E+00  0.00000000000E+00  0.20039481897E+04  0.25051713024E+04  0.15033545515E+04 0.  0.
        3    1    3    3  502    0  0.62856331527E+03  0.37821287030E+01  0.31508160698E+03  0.70312344227E+03  0.10100000352E+00 0. -1.
       -3    1    3    3    0  502 -0.62856331527E+03 -0.37821287030E+01  0.16888665827E+04  0.18020478602E+04  0.10100000352E+00 0.  1.
</event>
<event>
 5   0  0.4569211E-04  0.1440362E+04  0.7818609E-02  0.8925109E-01
       -2   -1    0    0    0  501  0.00000000000E+00  0.00000000000E+00  0.54930015033E+03  0.54930015034E+03  0.25500000920E-02 0. -1.
        2   -1    0    0  501    0  0.00000000000E+00  0.00000000000E+00 -0.94422153400E+03  0.94422153400E+03  0.25500000920E-02 0.  1.
    10030    2    1    2    0    0  0.00000000000E+00  0.00000000000E+00 -0.39492138366E+03  0.14935216843E+04  0.14403624968E+04 0.  0.
        5    1    3    3  502    0 -0.76445722832E+02 -0.65612365691E+03  0.10000099785E+03  0.66810514985E+03  0.46999998093E+01 0. -1.
       -5    1    3    3    0  502  0.76445722832E+02  0.65612365691E+03 -0.49492238151E+03  0.82541653449E+03  0.46999998093E+01 0.  1.
</event>
<event>
 5   0  0.2605471E-04  0.1501788E+04  0.7818609E-02  0.8883265E-01
        1   -1    0    0  501    0  0.00000000000E+00  0.00000000000E+00  0.74844232825E+03  0.74844232827E+03  0.50400001928E-02 0. -1.
       -1   -1    0    0    0  501  0.00000000000E+00  0.00000000000E+00 -0.75335345608E+03  0.75335345610E+03  0.50400001928E-02 0.  1.
    10030    2    1    2    0    0  0.00000000000E+00  0.00000000000E+00 -0.49111278276E+01  0.15017957844E+04  0.15017877542E+04 0.  0.
        3    1    3    3  502    0 -0.73391333534E+03 -0.64630011713E+02  0.14258238713E+03  0.75042359340E+03  0.10100000352E+00 0.  1.
       -3    1    3    3    0  502  0.73391333534E+03  0.64630011713E+02 -0.14749351495E+03  0.75137219097E+03  0.10100000352E+00 0. -1.
</event>
<event>
 5   0  0.2603873E-04  0.1495673E+04  0.7818609E-02  0.8887335E-01
        1   -1    0    0  501    0  0.00000000000E+00  0.00000000000E+00  0.76820395068E+03  0.76820395070E+03  0.50400001928E-02 0. -1.
       -1   -1    0    0    0  501  0.00000000000E+00  0.00000000000E+00 -0.72800928925E+03  0.72800928927E+03  0.50400001928E-02 0.  1.
    10030    2    1    2    0    0  0.00000000000E+00  0.00000000000E+00  0.40194661427E+02  0.14962132400E+04  0.14956732426E+04 0.  0.
        2    1    3    3  502    0  0.23483105452E+03  0.13934283760E+03  0.71655092922E+03  0.76681633050E+03  0.25500000920E-02 0. -1.
       -2    1    3    3    0  502 -0.23483105452E+03 -0.13934283760E+03 -0.67635626779E+03  0.72939690947E+03  0.25500000920E-02 0.  1.
</event>
<event>
 5   0  0.2603873E-04  0.1510567E+04  0.7818609E-02  0.8877457E-01
       -1   -1    0    0    0  501  0.00000000000E+00  0.00000000000E+00  0.89796333137E+03  0.89796333138E+03  0.50400001928E-02 0. -1.
        1   -1    0    0  501    0  0.00000000000E+00  0.00000000000E+00 -0.63527411147E+03  0.63527411149E+03  0.50400001928E-02 0.  1.
    10030    2    1    2    0    0  0.00000000000E+00  0.00000000000E+00  0.26268921990E+03  0.15332374429E+04  0.15105665924E+04 0.  0.
        2    1    3    3  502    0 -0.45664818094E+02  0.64008943531E+03  0.53563537166E+03  0.83588576504E+03  0.25500000920E-02 0. -1.
       -2    1    3    3    0  502  0.45664818094E+02 -0.64008943531E+03 -0.27294615176E+03  0.69735167783E+03  0.25500000920E-02 0.  1.
</event>
<event>
 5   0  0.4785496E-04  0.1496828E+04  0.7818609E-02  0.8886565E-01
       -2   -1    0    0    0  501  0.00000000000E+00  0.00000000000E+00  0.60042797334E+03  0.60042797334E+03  0.25500000920E-02 0. -1.
        2   -1    0    0  501    0  0.00000000000E+00  0.00000000000E+00 -0.93287326520E+03  0.93287326521E+03  0.25500000920E-02 0.  1.
    10030    2    1    2    0    0  0.00000000000E+00  0.00000000000E+00 -0.33244529187E+03  0.15333012385E+04  0.14968275839E+04 0.  0.
        4    1    3    3  502    0 -0.15095526964E+03 -0.62645205555E+03  0.22369940125E+03  0.68210901354E+03  0.12699999809E+01 0. -1.
       -4    1    3    3    0  502  0.15095526964E+03  0.62645205555E+03 -0.55614469312E+03  0.85119222501E+03  0.12699999809E+01 0.  1.
</event>
<event>
 5   0  0.2565416E-04  0.1503095E+04  0.7818609E-02  0.8882398E-01
        1   -1    0    0  501    0  0.00000000000E+00  0.00000000000E+00  0.14359358674E+04  0.14359358674E+04  0.50400001928E-02 0.  1.
       -1   -1    0    0    0  501  0.00000000000E+00  0.00000000000E+00 -0.39334861166E+03  0.39334861169E+03  0.50400001928E-02 0. -1.
    10030    2    1    2    0    0  0.00000000000E+00  0.00000000000E+00  0.10425872557E+04  0.18292844791E+04  0.15030946476E+04 0.  0.
        5    1    3    3  502    0 -0.31837283867E+02 -0.49396975398E+03 -0.16691740282E+03  0.52240141640E+03  0.46999998093E+01 0. -1.
       -5    1    3    3    0  502  0.31837283867E+02  0.49396975398E+03  0.12095046585E+04  0.13068830627E+04  0.46999998093E+01 0.  1.
</event>
<event>
 5   0  0.4569211E-04  0.1506606E+04  0.7818609E-02  0.8880072E-01
        2   -1    0    0  501    0  0.00000000000E+00  0.00000000000E+00  0.25253613046E+04  0.25253613046E+04  0.25500000920E-02 0. -1.
       -2   -1    0    0    0  501  0.00000000000E+00  0.00000000000E+00 -0.22470672884E+03  0.22470672886E+03  0.25500000920E-02 0.  1.
    10030    2    1    2    0    0  0.00000000000E+00  0.00000000000E+00  0.23006545757E+04  0.27500680334E+04  0.15066063559E+04 0.  0.
        5    1    3    3  502    0 -0.26367564406E+03  0.33971028703E+03  0.21394063464E+02  0.43058996775E+03  0.46999998093E+01 0.  1.
       -5    1    3    3    0  502  0.26367564406E+03 -0.33971028703E+03  0.22792605122E+04  0.23194780657E+04  0.46999998093E+01 0. -1.
</event>
<event>
 5   0  0.2603873E-04  0.1494069E+04  0.7818609E-02  0.8888407E-01
        1   -1    0    0  501    0  0.00000000000E+00  0.00000000000E+00  0.15550077680E+04  0.15550077680E+04  0.50400001928E-02 0.  1.
       -1   -1    0    0    0  501  0.00000000000E+00  0.00000000000E+00 -0.35887944374E+03  0.35887944378E+03  0.50400001928E-02 0. -1.
    10030    2    1    2    0    0  0.00000000000E+00  0.00000000000E+00  0.11961283243E+04  0.19138872118E+04  0.14940687037E+04 0.  0.
        2    1    3    3  502    0  0.13550617897E+03  0.57454276064E+03  0.11845268548E+04  0.13234671051E+04  0.25500000920E-02 0.  1.
       -2    1    3    3    0  502 -0.13550617897E+03 -0.57454276064E+03  0.11601469437E+02  0.59042010674E+03  0.25500000920E-02 0. -1.
</event>
<event>
 5   0  0.4948645E-04  0.1504829E+04  0.7818609E-02  0.8881248E-01
       -2   -1    0    0    0  501  0.00000000000E+00  0.00000000000E+00  0.51560261754E+03  0.51560261754E+03  0.25500000920E-02 0. -1.
        2   -1    0    0  501    0  0.00000000000E+00  0.00000000000E+00 -0.10979918320E+04  0.10979918320E+04  0.25500000920E-02 0.  1.
    10030    2    1    2    0    0  0.00000000000E+00  0.00000000000E+00 -0.58238921448E+03  0.16135944496E+04  0.15048288443E+04 0.  0.
        1    1    3    3  502    0  0.36611522415E+03 -0.30053426926E+03 -0.91805650923E+03  0.10330483815E+04  0.50400001928E-02 0.  1.
       -1    1    3    3    0  502 -0.36611522415E+03  0.30053426926E+03  0.33566729475E+03  0.58054606806E+03  0.50400001928E-02 0. -1.
</event>
<event>
 5   0  0.2565416E-04  0.1482748E+04  0.7818609E-02  0.8896007E-01
        1   -1    0    0  501    0  0.00000000000E+00  0.00000000000E+00  0.11828617391E+04  0.11828617391E+04  0.50400001928E-02 0. -1.
       -1   -1    0    0    0  501  0.00000000000E+00  0.00000000000E+00 -0.46466600532E+03  0.46466600535E+03  0.50400001928E-02 0.  1.
    10030    2    1    2    0    0  0.00000000000E+00  0.00000000000E+00  0.71819573382E+03  0.16475277445E+04  0.14827483120E+04 0.  0.
        5    1    3    3  502    0  0.23189974182E+03 -0.39345481884E+03 -0.28977734906E+03  0.54090404579E+03  0.46999998093E+01 0.  1.
       -5    1    3    3    0  502 -0.23189974182E+03  0.39345481884E+03  0.10079730829E+04  0.11066236987E+04  0.46999998093E+01 0. -1.
</event>
<event>
 5   0  0.1792000E-04  0.1494070E+04  0.7818609E-02  0.8888406E-01
       -4   -1    0    0    0  501  0.00000000000E+00  0.00000000000E+00  0.84846449739E+03  0.84846544787E+03  0.12699999809E+01 0.  1.
        4   -1    0    0  501    0  0.00000000000E+00  0.00000000000E+00 -0.65772924878E+03  0.65773047489E+03  0.12699999809E+01 0. -1.
    10030    2    1    2    0    0  0.00000000000E+00  0.00000000000E+00  0.19073524861E+03  0.15061959228E+04  0.14940703540E+04 0.  0.
        3    1    3    3  502    0 -0.41594732684E+03 -0.21461799958E+03 -0.49158478513E+03  0.67876997254E+03  0.10100000352E+00 0. -1.
       -3    1    3    3    0  502  0.41594732684E+03  0.21461799958E+03  0.68232003373E+03  0.82742595022E+03  0.10100000352E+00 0.  1.
</event>
<event>
 5   0  0.4726600E-04  0.1429860E+04  0.7818609E-02  0.8932484E-01
        2   -1    0    0  501    0  0.00000000000E+00  0.00000000000E+00  0.73797053280E+03  0.73797053280E+03  0.25500000920E-02 0. -1.
       -2   -1    0    0    0  501  0.00000000000E+00  0.00000000000E+00 -0.69260858027E+03  0.69260858027E+03  0.25500000920E-02 0.  1.
    10030    2    1    2    0    0  0.00000000000E+00  0.00000000000E+00  0.45361952530E+02  0.14305791131E+04  0.14298597456E+04 0.  0.
        2    1    3    3  502    0  0.58118772558E+03  0.28607986518E+03 -0.27996726240E+03  0.70569294289E+03  0.25500000920E-02 0.  1.
       -2    1    3    3    0  502 -0.58118772558E+03 -0.28607986518E+03  0.32532921493E+03  0.72488617018E+03  0.25500000920E-02 0. -1.
</event>
<event>
 5   0  0.4726600E-04  0.1499107E+04  0.7818609E-02  0.8885047E-01
        2   -1    0    0  501    0  0.00000000000E+00  0.00000000000E+00  0.13775673114E+04  0.13775673114E+04  0.25500000920E-02 0. -1.
       -2   -1    0    0    0  501  0.00000000000E+00  0.00000000000E+00 -0.40784253473E+03  0.40784253474E+03  0.25500000920E-02 0.  1.
    10030    2    1    2    0    0  0.00000000000E+00  0.00000000000E+00  0.96972477667E+03  0.17854098461E+04  0.14991071263E+04 0.  0.
        2    1    3    3  502    0 -0.27693840989E+03  0.32520264978E+03  0.12184328610E+04  0.12911352691E+04  0.25500000920E-02 0. -1.
       -2    1    3    3    0  502  0.27693840989E+03 -0.32520264978E+03 -0.24870808434E+03  0.49427457705E+03  0.25500000920E-02 0.  1.
</event>
<event>
 5   0  0.4785496E-04  0.1492924E+04  0.7818609E-02  0.8889172E-01
       -2   -1    0    0    0  501  0.00000000000E+00  0.00000000000E+00  0.26120652217E+03  0.26120652218E+03  0.25500000920E-02 0.  1.
        2   -1    0    0  501    0  0.00000000000E+00  0.00000000000E+00 -0.21331979623E+04  0.21331979623E+04  0.25500000920E-02 0. -1.
    10030    2    1    2    0    0  0.00000000000E+00  0.00000000000E+00 -0.18719914401E+04  0.23944044845E+04  0.14929236027E+04 0.  0.
        4    1    3    3  502    0  0.44654702385E+02 -0.56267199865E+03 -0.17194326868E+04  0.18097083184E+04  0.12699999809E+01 0. -1.
       -4    1    3    3    0  502 -0.44654702385E+02  0.56267199865E+03 -0.15255875338E+03  0.58469616609E+03  0.12699999809E+01 0.  1.
</event>
<event>
 5   0  0.4726600E-04  0.1457686E+04  0.7818609E-02  0.8913089E-01
        2   -1    0    0  501    0  0.00000000000E+00  0.00000000000E+00  0.12818676710E+04  0.12818676710E+04  0.25500000920E-02 0.  1.
       -2   -1    0    0    0  501  0.00000000000E+00  0.00000000000E+00 -0.41440476434E+03  0.41440476434E+03  0.25500000920E-02 0. -1.
    10030    2    1    2    0    0  0.00000000000E+00  0.00000000000E+00  0.86746290666E+03  0.16962724353E+04  0.14576859334E+04 0.  0.
        2    1    3    3  502    0 -0.68989362347E+03  0.57929456328E+02  0.16862028413E+03  0.71256005630E+03  0.25500000920E-02 0. -1.
       -2    1    3    3    0  502  0.68989362347E+03 -0.57929456328E+02  0.69884262253E+03  0.98371237904E+03  0.25500000920E-02 0.  1.
</event>
<event>
 5   0  0.4726600E-04  0.1531836E+04  0.7818609E-02  0.8863554E-01
        2   -1    0    0  501    0  0.00000000000E+00  0.00000000000E+00  0.94992500168E+03  0.94992500168E+03  0.25500000920E-02 0. -1.
       -2   -1    0    0    0  501  0.00000000000E+00  0.00000000000E+00 -0.61755468199E+03  0.61755468200E+03  0.25500000920E-02 0.  1.
    10030    2    1    2    0    0  0.00000000000E+00  0.00000000000E+00  0.33237031968E+03  0.15674796837E+04  0.15318363259E+04 0.  0.
        2    1    3    3  502    0 -0.26252836069E+02 -0.16315750111E+03  0.93146476396E+03  0.94601067017E+03  0.25500000920E-02 0. -1.
       -2    1    3    3    0  502  0.26252836069E+02  0.16315750111E+03 -0.59909444428E+03  0.62146901350E+03  0.25500000920E-02 0.  1.
</event>
<event>
 5   0  0.4768387E-04  0.1496764E+04  0.7818609E-02  0.8886608E-01
        2   -1    0    0  501    0  0.00000000000E+00  0.00000000000E+00  0.11104313760E+04  0.11104313760E+04  0.25500000920E-02 0.  1.
       -2   -1    0    0    0  501  0.00000000000E+00  0.00000000000E+00 -0.50437652884E+03  0.50437652885E+03  0.25500000920E-02 0. -1.
    10030    2    1    2    0    0  0.00000000000E+00  0.00000000000E+00  0.60605484720E+03  0.16148079049E+04  0.14967638731E+04 0.  0.
        3    1    3    3  502    0 -0.24467195180E+02 -0.71891580592E+03  0.52579939786E+03  0.89101268040E+03  0.10100000352E+00 0.  1.
       -3    1    3    3    0  502  0.24467195180E+02  0.71891580592E+03  0.80255449341E+02  0.72379522449E+03  0.10100000352E+00 0. -1.
</event>
<event>
 5   0  0.2544374E-04  0.1499561E+04  0.7818609E-02  0.8884745E-01
       -1   -1    0    0    0  501  0.00000000000E+00  0.00000000000E+00  0.49528813849E+03  0.49528813852E+03  0.50400001928E-02 0.  1.
        1   -1    0    0  501    0  0.00000000000E+00  0.00000000000E+00 -0.11350375091E+04  0.11350375091E+04  0.50400001928E-02 0. -1.
    10030    2    1    2    0    0  0.00000000000E+00  0.00000000000E+00 -0.63974937060E+03  0.16303256476E+04  0.14995607557E+04 0.  0.
        4    1    3    3  502    0 -0.32219828659E+03  0.26965092959E+03 -0.99503127180E+03  0.10800982383E+04  0.12699999809E+01 0. -1.
       -4    1    3    3    0  502  0.32219828659E+03 -0.26965092959E+03  0.35528190120E+03  0.55022740928E+03  0.12699999809E+01 0.  1.
</event>
<event>
 5   0  0.2542737E-04  0.1476636E+04  0.7818609E-02  0.8900140E-01
       -1   -1    0    0    0  501  0.00000000000E+00  0.00000000000E+00  0.37776830239E+03  0.37776830242E+03  0.50400001928E-02 0.  1.
        1   -1    0    0  501    0  0.00000000000E+00  0.00000000000E+00 -0.14429841946E+04  0.14429841946E+04  0.50400001928E-02 0. -1.
    10030    2    1    2    0    0  0.00000000000E+00  0.00000000000E+00 -0.10652158922E+04  0.18207524970E+04  0.14766362986E+04 0.  0.
        1    1    3    3  502    0  0.29666054020E+03 -0.12972696014E+03 -0.13507720799E+04  0.13890362746E+04  0.50400001928E-02 0. -1.
       -1    1    3    3    0  502 -0.29666054020E+03  0.12972696014E+03  0.28555618772E+03  0.43171622239E+03  0.50400001928E-02 0.  1.
</event>
<event>
 5   0  0.2605471E-04  0.1497518E+04  0.7818609E-02  0.8886105E-01
       -1   -1    0    0    0  501  0.00000000000E+00  0.00000000000E+00  0.51191628821E+03  0.51191628824E+03  0.50400001928E-02 0. -1.
        1   -1    0    0  501    0  0.00000000000E+00  0.00000000000E+00 -0.10951789492E+04  0.10951789492E+04  0.50400001928E-02 0.  1.
    10030    2    1    2    0    0  0.00000000000E+00  0.00000000000E+00 -0.58326266102E+03  0.16070952375E+04  0.14975178699E+04 0.  0.
        3    1    3    3  502    0  0.35921643805E+03 -0.64740989819E+03 -0.17182032940E+03  0.76006464294E+03  0.10100000352E+00 0. -1.
       -3    1    3    3    0  502 -0.35921643805E+03  0.64740989819E+03 -0.41144233163E+03  0.84703059455E+03  0.10100000352E+00 0.  1.
</event>
<event>
 5   0  0.2603873E-04  0.1514523E+04  0.7818609E-02  0.8874852E-01
        1   -1    0    0  501    0  0.00000000000E+00  0.00000000000E+00  0.77022547093E+03  0.77022547094E+03  0.50400001928E-02 0.  1.
       -1   -1    0    0    0  501  0.00000000000E+00  0.00000000000E+00 -0.74451620046E+03  0.74451620048E+03  0.50400001928E-02 0. -1.
    10030    2    1    2    0    0  0.00000000000E+00  0.00000000000E+00  0.25709270463E+02  0.15147416714E+04  0.15145234777E+04 0.  0.
        2    1    3    3  502    0  0.18100946506E+03 -0.63787940101E+03  0.37868155751E+03  0.76357990982E+03  0.25500000920E-02 0.  1.
       -2    1    3    3    0  502 -0.18100946506E+03  0.63787940101E+03 -0.35297228705E+03  0.75116176161E+03  0.25500000920E-02 0. -1.
</event>
<event>
 5   0  0.2542737E-04  0.1507036E+04  0.7818609E-02  0.8879787E-01
        1   -1    0    0  501    0  0.00000000000E+00  0.00000000000E+00  0.49510107456E+03  0.49510107459E+03  0.50400001928E-02 0.  1.
       -1   -1    0    0    0  501  0.00000000000E+00  0.00000000000E+00 -0.11468157876E+04  0.11468157876E+04  0.50400001928E-02 0. -1.
    10030    2    1    2    0    0  0.00000000000E+00  0.00000000000E+00 -0.65171471302E+03  0.16419168622E+04  0.15070364678E+04 0.  0.
        1    1    3    3  502    0 -0.37885662809E+03 -0.49901310415E+02 -0.10334182553E+04  0.11018056888E+04  0.50400001928E-02 0. -1.
       -1    1    3    3    0  502  0.37885662809E+03  0.49901310415E+02  0.38170354227E+03  0.54011117340E+03  0.50400001928E-02 0.  1.
</event>
<event>
 5   0  0.4785496E-04  0.1478026E+04  0.7818609E-02  0.8899198E-01
        2   -1    0    0  501    0  0.00000000000E+00  0.00000000000E+00  0.63118574143E+03  0.63118574143E+03  0.25500000920E-02 0.  1.
       -2   -1    0    0    0  501  0.00000000000E+00  0.00000000000E+00 -0.86526080831E+03  0.86526080832E+03  0.25500000920E-02 0. -1.
    10030    2    1    2    0    0  0.00000000000E+00  0.00000000000E+00 -0.23407506689E+03  0.14964465497E+04  0.14780260956E+04 0.  0.
        4    1    3    3  502    0  0.66648096384E+03 -0.24401481439E+03 -0.32551287654E+03  0.78083311309E+03  0.12699999809E+01 0.  1.
       -4    1    3    3    0  502 -0.66648096384E+03  0.24401481439E+03  0.91437809652E+02  0.71561343666E+03  0.12699999809E+01 0. -1.
</event>
<event>
 5   0  0.4785496E-04  0.1509926E+04  0.7818609E-02  0.8877879E-01
        2   -1    0    0  501    0  0.00000000000E+00  0.00000000000E+00  0.88082659239E+03  0.88082659239E+03  0.25500000920E-02 0. -1.
       -2   -1    0    0    0  501  0.00000000000E+00  0.00000000000E+00 -0.64708414976E+03  0.64708414976E+03  0.25500000920E-02 0.  1.
    10030    2    1    2    0    0  0.00000000000E+00  0.00000000000E+00  0.23374244263E+03  0.15279107422E+04  0.15099257288E+04 0.  0.
        4    1    3    3  502    0  0.29772494788E+03  0.29510106996E+03  0.75223746000E+03  0.86115480328E+03  0.12699999809E+01 0. -1.
       -4    1    3    3    0  502 -0.29772494788E+03 -0.29510106996E+03 -0.51849501737E+03  0.66675593887E+03  0.12699999809E+01 0.  1.
</event>
<event>
 5   0  0.4726600E-04  0.1496046E+04  0.7818609E-02  0.8887086E-01
        2   -1    0    0  501    0  0.00000000000E+00  0.00000000000E+00  0.15343301499E+04  0.15343301499E+04  0.25500000920E-02 0. -1.
       -2   -1    0    0    0  501  0.00000000000E+00  0.00000000000E+00 -0.36467946814E+03  0.36467946815E+03  0.25500000920E-02 0.  1.
    10030    2    1    2    0    0  0.00000000000E+00  0.00000000000E+00  0.11696506817E+04  0.18990096180E+04  0.14960463937E+04 0.  0.
        2    1    3    3  502    0  0.25889741389E+03  0.68693038915E+03  0.40247341384E+03  0.83718939274E+03  0.25500000920E-02 0. -1.
       -2    1    3    3    0  502 -0.25889741389E+03 -0.68693038915E+03  0.76717726789E+03  0.10618202253E+04  0.25500000920E-02 0.  1.
</event>
<event>
 5   0  0.2565416E-04  0.1506664E+04  0.7818609E-02  0.8880034E-01
       -1   -1    0    0    0  501  0.00000000000E+00  0.00000000000E+00  0.67155958415E+03  0.67155958417E+03  0.50400001928E-02 0.  1.
        1   -1    0    0  501    0  0.00000000000E+00  0.00000000000E+00 -0.84506116419E+03  0.84506116420E+03  0.50400001928E-02 0. -1.
    10030    2    1    2    0    0  0.00000000000E+00  0.00000000000E+00 -0.17350158004E+03  0.15166207484E+04  0.15066637635E+04 0.  0.
        5    1    3    3  502    0  0.54918074151E+03  0.47825719310E+03 -0.28078724639E+03  0.78050816609E+03  0.46999998093E+01 0. -1.
       -5    1    3    3    0  502 -0.54918074151E+03 -0.47825719310E+03  0.10728566635E+03  0.73611258228E+03  0.46999998093E+01 0.  1.
</event>
<event>
 5   0  0.2544374E-04  0.1496875E+04  0.7818609E-02  0.8886534E-01
       -1   -1    0    0    0  501  0.00000000000E+00  0.00000000000E+00  0.52253228742E+03  0.52253228745E+03  0.50400001928E-02 0.  1.
        1   -1    0    0  501    0  0.00000000000E+00  0.00000000000E+00 -0.10720074063E+04  0.10720074064E+04  0.50400001928E-02 0. -1.
    10030    2    1    2    0    0  0.00000000000E+00  0.00000000000E+00 -0.54947511892E+03  0.15945396938E+04  0.14968747205E+04 0.  0.
        4    1    3    3  502    0  0.36957077269E+03 -0.32529074281E+03 -0.87521910148E+03  0.10041945588E+04  0.12699999809E+01 0. -1.
       -4    1    3    3    0  502 -0.36957077269E+03  0.32529074281E+03  0.32574398256E+03  0.59034513503E+03  0.12699999809E+01 0.  1.
</event>
<event>
 5   0  0.2605471E-04  0.1483222E+04  0.7818609E-02  0.8895687E-01
       -1   -1    0    0    0  501  0.00000000000E+00  0.00000000000E+00  0.69911599985E+03  0.69911599987E+03  0.50400001928E-02 0. -1.
        1   -1    0    0  501    0  0.00000000000E+00  0.00000000000E+00 -0.78668952082E+03  0.78668952083E+03  0.50400001928E-02 0.  1.
    10030    2    1    2    0    0  0.00000000000E+00  0.00000000000E+00 -0.87573520967E+02  0.14858055207E+04  0.14832224795E+04 0.  0.
        3    1    3    3  502    0 -0.54130985095E+03  0.26634887809E+03  0.38827532667E+03  0.71743697918E+03  0.10100000352E+00 0. -1.
       -3    1    3    3    0  502  0.54130985095E+03 -0.26634887809E+03 -0.47584884764E+03  0.76836854152E+03  0.10100000352E+00 0.  1.
</event>
<event>
 5   0  0.2544374E-04  0.1553058E+04  0.7818609E-02  0.8849917E-01
        1   -1    0    0  501    0  0.00000000000E+00  0.00000000000E+00  0.96051506844E+03  0.96051506845E+03  0.50400001928E-02 0. -1.
       -1   -1    0    0    0  501  0.00000000000E+00  0.00000000000E+00 -0.62778553234E+03  0.62778553236E+03  0.50400001928E-02 0.  1.
    10030    2    1    2    0    0  0.00000000000E+00  0.00000000000E+00  0.33272953610E+03  0.15883006008E+04  0.15530582263E+04 0.  0.
        4    1    3    3  502    0 -0.11025885850E+03 -0.72294362381E+03  0.43342523937E+03  0.85009620050E+03  0.12699999809E+01 0. -1.
       -4    1    3    3    0  502  0.11025885850E+03  0.72294362381E+03 -0.10069570327E+03  0.73820440031E+03  0.12699999809E+01 0.  1.
</event>
<event>
 5   0  0.2603873E-04  0.1499904E+04  0.7818609E-02  0.8884517E-01
       -1   -1    0    0    0  501  0.00000000000E+00  0.00000000000E+00  0.16641573080E+04  0.16641573080E+04  0.50400001928E-02 0. -1.
        1   -1    0    0  501    0  0.00000000000E+00  0.00000000000E+00 -0.33796573893E+03  0.33796573897E+03  0.50400001928E-02 0.  1.
    10030    2    1    2    0    0  0.00000000000E+00  0.00000000000E+00  0.13261915690E+04  0.20021230470E+04  0.14999042027E+04 0.  0.
        2    1    3    3  502    0 -0.59944267661E+03  0.49708554855E+02  0.65206849541E+02  0.60502429389E+03  0.25500000920E-02 0.  1.
       -2    1    3    3    0  502  0.59944267661E+03 -0.49708554855E+02  0.12609847195E+04  0.13970987531E+04  0.25500000920E-02 0. -1.
</event>
<event>
 5   0  0.4948645E-04  0.1503878E+04  0.7818609E-02  0.8881878E-01
       -2   -1    0    0    0  501  0.00000000000E+00  0.00000000000E+00  0.25108785314E+03  0.25108785315E+03  0.25500000920E-02 0.  1.
        2   -1    0    0  501    0  0.00000000000E+00  0.00000000000E+00 -0.22518516707E+04  0.22518516707E+04  0.25500000920E-02 0. -1.
    10030    2    1    2    0    0  0.00000000000E+00  0.00000000000E+00 -0.20007638175E+04  0.25029395238E+04  0.15038784547E+04 0.  0.
        1    1    3    3  502    0 -0.11204309770E+03 -0.50732108076E+03 -0.19050823449E+04  0.19746561918E+04  0.50400001928E-02 0. -1.
       -1    1    3    3    0  502  0.11204309770E+03  0.50732108076E+03 -0.95681472627E+02  0.52828333208E+03  0.50400001928E-02 0.  1.
</event>
<event>
 5   0  0.4726600E-04  0.1408637E+04  0.7818609E-02  0.8947591E-01
       -2   -1    0    0    0  501  0.00000000000E+00  0.00000000000E+00  0.39086919275E+03  0.39086919275E+03  0.25500000920E-02 0. -1.
        2   -1    0    0  501    0  0.00000000000E+00  0.00000000000E+00 -0.12691311924E+04  0.12691311924E+04  0.25500000920E-02 0.  1.
    10030    2    1    2    0    0  0.00000000000E+00  0.00000000000E+00 -0.87826199970E+03  0.16600003852E+04  0.14086366241E+04 0.  0.
        2    1    3    3  502    0  0.24422940402E+03 -0.61800429923E+03 -0.71420879713E+03  0.97553653010E+03  0.25500000920E-02 0.  1.
       -2    1    3    3    0  502 -0.24422940402E+03  0.61800429923E+03 -0.16405320257E+03  0.68446385510E+03  0.25500000920E-02 0. -1.
</event>
<event>
 5   0  0.4768387E-04  0.1510679E+04  0.7818609E-02  0.8877383E-01
       -2   -1    0    0    0  501  0.00000000000E+00  0.00000000000E+00  0.39816104356E+03  0.39816104357E+03  0.25500000920E-02 0.  1.
        2   -1    0    0  501    0  0.00000000000E+00  0.00000000000E+00 -0.14329314724E+04  0.14329314724E+04  0.25500000920E-02 0. -1.
    10030    2    1    2    0    0  0.00000000000E+00  0.00000000000E+00 -0.10347704288E+04  0.18310925159E+04  0.15106786427E+04 0.  0.
        3    1    3    3  502    0  0.40579803488E+03 -0.16459374942E+03  0.22859699290E+03  0.49398354510E+03  0.10100000352E+00 0.  1.
       -3    1    3    3    0  502 -0.40579803488E+03  0.16459374942E+03 -0.12633674217E+04  0.13371089708E+04  0.10100000352E+00 0. -1.
</event>
<event>
 5   0  0.4569211E-04  0.1506801E+04  0.7818609E-02  0.8879943E-01
       -2   -1    0    0    0  501  0.00000000000E+00  0.00000000000E+00  0.42091029304E+03  0.42091029304E+03  0.25500000920E-02 0. -1.
        2   -1    0    0  501    0  0.00000000000E+00  0.00000000000E+00 -0.13485359582E+04  0.13485359583E+04  0.25500000920E-02 0.  1.
    10030    2    1    2    0    0  0.00000000000E+00  0.00000000000E+00 -0.92762566521E+03  0.17694462513E+04  0.15068014672E+04 0.  0.
        5    1    3    3  502    0 -0.21355223076E+03  0.61090040936E+03 -0.10849120751E+02  0.64725857185E+03  0.46999998093E+01 0. -1.
       -5    1    3    3    0  502  0.21355223076E+03 -0.61090040936E+03 -0.91677654446E+03  0.11221876794E+04  0.46999998093E+01 0.  1.
</event>
<event>
 5   0  0.2565416E-04  0.1584711E+04  0.7818609E-02  0.8829996E-01
        1   -1    0    0  501    0  0.00000000000E+00  0.00000000000E+00  0.37404514391E+03  0.37404514394E+03  0.50400001928E-02 0.  1.
       -1   -1    0    0    0  501  0.00000000000E+00  0.00000000000E+00 -0.16784801393E+04  0.16784801393E+04  0.50400001928E-02 0. -1.
    10030    2    1    2    0    0  0.00000000000E+00  0.00000000000E+00 -0.13044349954E+04  0.20525252833E+04  0.15847111349E+04 0.  0.
        5    1    3    3  502    0  0.51706295177E+03  0.28114435191E+03 -0.13392976562E+04  0.14629205531E+04  0.46999998093E+01 0. -1.
       -5    1    3    3    0  502 -0.51706295177E+03 -0.28114435191E+03  0.34862660830E+02  0.58960473016E+03  0.46999998093E+01 0.  1.
</event>
<event>
 5   0  0.2603873E-04  0.1491645E+04  0.7818609E-02  0.8890028E-01
       -1   -1    0    0    0  501  0.00000000000E+00  0.00000000000E+00  0.17820304577E+03  0.17820304584E+03  0.50400001928E-02 0.  1.
        1   -1    0    0  501    0  0.00000000000E+00  0.00000000000E+00 -0.31214480823E+04  0.31214480823E+04  0.50400001928E-02 0. -1.
    10030    2    1    2    0    0  0.00000000000E+00  0.00000000000E+00 -0.29432450365E+04  0.32996511281E+04  0.14916454748E+04 0.  0.
        2    1    3    3  502    0 -0.43447695262E+03  0.21685614437E+03 -0.21938773394E+03  0.53284874732E+03  0.25500000920E-02 0.  1.
       -2    1    3    3    0  502  0.43447695262E+03 -0.21685614437E+03 -0.27238573026E+04  0.27668023808E+04  0.25500000920E-02 0. -1.
</event>
<event>
 5   0  0.2565416E-04  0.1503184E+04  0.7818609E-02  0.8882338E-01
        1   -1    0    0  501    0  0.00000000000E+00  0.00000000000E+00  0.12652394016E+04  0.12652394016E+04  0.50400001928E-02 0. -1.
       -1   -1    0    0    0  501  0.00000000000E+00  0.00000000000E+00 -0.44646916883E+03  0.44646916886E+03  0.50400001928E-02 0.  1.
    10030    2    1    2    0    0  0.00000000000E+00  0.00000000000E+00  0.81877023274E+03  0.17117085704E+04  0.15031837998E+04 0.  0.
        5    1    3    3  502    0 -0.27255251257E+03 -0.34692086340E+03 -0.28348710966E+03  0.52442920296E+03  0.46999998093E+01 0.  1.
       -5    1    3    3    0  502  0.27255251257E+03  0.34692086340E+03  0.11022573424E+04  0.11872793675E+04  0.46999998093E+01 0. -1.
</event>
<event>
 5   0  0.4726600E-04  0.1506998E+04  0.7818609E-02  0.8879812E-01
        2   -1    0    0  501    0  0.00000000000E+00  0.00000000000E+00  0.19440388980E+04  0.19440388980E+04  0.25500000920E-02 0.  1.
       -2   -1    0    0    0  501  0.00000000000E+00  0.00000000000E+00 -0.29205234418E+03  0.29205234419E+03  0.25500000920E-02 0. -1.
    10030    2    1    2    0    0  0.00000000000E+00  0.00000000000E+00  0.16519865538E+04  0.22360912422E+04  0.15069984968E+04 0.  0.
        2    1    3    3  502    0 -0.15399127438E+03  0.11650957152E+03  0.19067015508E+04  0.19164546947E+04  0.25500000920E-02 0.  1.
       -2    1    3    3    0  502  0.15399127438E+03 -0.11650957152E+03 -0.25471499697E+03  0.31963654755E+03  0.25500000920E-02 0. -1.
</event>
<event>
 5   0  0.4948645E-04  0.1489343E+04  0.7818609E-02  0.8891571E-01
        2   -1    0    0  501    0  0.00000000000E+00  0.00000000000E+00  0.67132614350E+03  0.67132614351E+03  0.25500000920E-02 0. -1.
       -2   -1    0    0    0  501  0.00000000000E+00  0.00000000000E+00 -0.82603061388E+03  0.82603061388E+03  0.25500000920E-02 0.  1.
    10030    2    1    2    0    0  0.00000000000E+00  0.00000000000E+00 -0.15470447038E+03  0.14973567574E+04  0.14893434076E+04 0.  0.
        1    1    3    3  502    0 -0.74177142929E+03  0.60817431999E+02 -0.10223074115E+03  0.75124878556E+03  0.50400001928E-02 0.  1.
       -1    1    3    3    0  502  0.74177142929E+03 -0.60817431999E+02 -0.52473729227E+02  0.74610797183E+03  0.50400001928E-02 0. -1.
</event>
<event>
 5   0  0.4948645E-04  0.1493907E+04  0.7818609E-02  0.8888515E-01
        2   -1    0    0  501    0  0.00000000000E+00  0.00000000000E+00  0.12196802613E+04  0.12196802613E+04  0.25500000920E-02 0. -1.
       -2   -1    0    0    0  501  0.00000000000E+00  0.00000000000E+00 -0.45744706660E+03  0.45744706661E+03  0.25500000920E-02 0.  1.
    10030    2    1    2    0    0  0.00000000000E+00  0.00000000000E+00  0.76223319472E+03  0.16771273279E+04  0.14939065001E+04 0.  0.
        1    1    3    3  502    0  0.56170196125E+03  0.11289468101E+02  0.93373032217E+03  0.10897196245E+04  0.50400001928E-02 0. -1.
       -1    1    3    3    0  502 -0.56170196125E+03 -0.11289468101E+02 -0.17149712745E+03  0.58740770348E+03  0.50400001928E-02 0.  1.
</event>
<event>
 5   0  0.4768387E-04  0.1320542E+04  0.7818609E-02  0.9013432E-01
       -2   -1    0    0    0  501  0.00000000000E+00  0.00000000000E+00  0.16307138052E+03  0.16307138054E+03  0.25500000920E-02 0. -1.
        2   -1    0    0  501    0  0.00000000000E+00  0.00000000000E+00 -0.26734159015E+04  0.26734159015E+04  0.25500000920E-02 0.  1.
    10030    2    1    2    0    0  0.00000000000E+00  0.00000000000E+00 -0.25103445209E+04  0.28364872820E+04  0.13205417400E+04 0.  0.
        3    1    3    3  502    0 -0.29348043274E+03  0.51082030015E+03 -0.61476851777E+03  0.85147430031E+03  0.10100000352E+00 0. -1.
       -3    1    3    3    0  502  0.29348043274E+03 -0.51082030015E+03 -0.18955760032E+04  0.19850129817E+04  0.10100000352E+00 0.  1.
</event>
<event>
 5   0  0.2544374E-04  0.1503914E+04  0.7818609E-02  0.8881854E-01
        1   -1    0    0  501    0  0.00000000000E+00  0.00000000000E+00  0.14126834779E+04  0.14126834779E+04  0.50400001928E-02 0.  1.
       -1   -1    0    0    0  501  0.00000000000E+00  0.00000000000E+00 -0.40025913369E+03  0.40025913372E+03  0.50400001928E-02 0. -1.
    10030    2    1    2    0    0  0.00000000000E+00  0.00000000000E+00  0.10124243442E+04  0.18129426116E+04  0.15039141798E+04 0.  0.
        4    1    3    3  502    0 -0.20034820707E+03  0.69346357261E+03  0.76024237688E+03  0.10483325880E+04  0.12699999809E+01 0.  1.
       -4    1    3    3    0  502  0.20034820707E+03 -0.69346357261E+03  0.25218196730E+03  0.76461002358E+03  0.12699999809E+01 0. -1.
</event>
<event>
 5   0  0.4768387E-04  0.1493870E+04  0.7818609E-02  0.8888539E-01
       -2   -1    0    0    0  501  0.00000000000E+00  0.00000000000E+00  0.90905329241E+03  0.90905329242E+03  0.25500000920E-02 0.  1.
        2   -1    0    0  501    0  0.00000000000E+00  0.00000000000E+00 -0.61372863816E+03  0.61372863816E+03  0.25500000920E-02 0. -1.
    10030    2    1    2    0    0  0.00000000000E+00  0.00000000000E+00  0.29532465426E+03  0.15227819306E+04  0.14938701941E+04 0.  0.
        3    1    3    3  502    0  0.36352184852E+03 -0.16231017655E+03 -0.49656534617E+03  0.63645100438E+03  0.10100000352E+00 0. -1.
       -3    1    3    3    0  502 -0.36352184852E+03  0.16231017655E+03  0.79189000042E+03  0.88633092620E+03  0.10100000352E+00 0.  1.
</event>
<event>
 5   0  0.2603873E-04  0.1487684E+04  0.7818609E-02  0.8892684E-01
       -1   -1    0    0    0  501  0.00000000000E+00  0.00000000000E+00  0.70795604633E+03  0.70795604634E+03  0.50400001928E-02 0. -1.
        1   -1    0    0  501    0  0.00000000000E+00  0.00000000000E+00 -0.78154741672E+03  0.78154741673E+03  0.50400001928E-02 0.  1.
    10030    2    1    2    0    0  0.00000000000E+00  0.00000000000E+00 -0.73591370393E+02  0.14895034631E+04  0.14876844009E+04 0.  0.
        2    1    3    3  502    0  0.21916842410E+03 -0.16626849482E+03  0.65515080328E+03  0.71056497630E+03  0.25500000920E-02 0. -1.
       -2    1    3    3    0  502 -0.21916842410E+03  0.16626849482E+03 -0.72874217367E+03  0.77893848678E+03  0.25500000920E-02 0.  1.
</event>
<event>
 5   0  0.4569211E-04  0.1462139E+04  0.7818609E-02  0.8910028E-01
       -2   -1    0    0    0  501  0.00000000000E+00  0.00000000000E+00  0.81476172140E+03  0.81476172141E+03  0.25500000920E-02 0. -1.
        2   -1    0    0  501    0  0.00000000000E+00  0.00000000000E+00 -0.65597379952E+03  0.65597379953E+03  0.25500000920E-02 0.  1.
    10030    2    1    2    0    0  0.00000000000E+00  0.00000000000E+00  0.15878792188E+03  0.14707355209E+04  0.14621386283E+04 0.  0.
        5    1    3    3  502    0 -0.72827588070E+03  0.34995830111E+02  0.25885458697E+02  0.72959071643E+03  0.46999998093E+01 0.  1.
       -5    1    3    3    0  502  0.72827588070E+03 -0.34995830111E+02  0.13290246319E+03  0.74114480451E+03  0.46999998093E+01 0. -1.
</event>
<event>
 5   0  0.4768387E-04  0.1433369E+04  0.7818609E-02  0.8930013E-01
       -2   -1    0    0    0  501  0.00000000000E+00  0.00000000000E+00  0.90395832956E+03  0.90395832956E+03  0.25500000920E-02 0.  1.
        2   -1    0    0  501    0  0.00000000000E+00  0.00000000000E+00 -0.56820803404E+03  0.56820803404E+03  0.25500000920E-02 0. -1.
    10030    2    1    2    0    0  0.00000000000E+00  0.00000000000E+00  0.33575029552E+03  0.14721663636E+04  0.14333685992E+04 0.  0.
        3    1    3    3  502    0 -0.84221488510E+02  0.61380727246E+02 -0.56038419929E+03  0.56999238049E+03  0.10100000352E+00 0. -1.
       -3    1    3    3    0  502  0.84221488510E+02 -0.61380727246E+02  0.89613449481E+03  0.90217398311E+03  0.10100000352E+00 0.  1.
</event>
<event>
 5   0  0.2603873E-04  0.1497469E+04  0.7818609E-02  0.8886138E-01
       -1   -1    0    0    0  501  0.00000000000E+00  0.00000000000E+00  0.88227331691E+03  0.88227331693E+03  0.50400001928E-02 0.  1.
        1   -1    0    0  501    0  0.00000000000E+00  0.00000000000E+00 -0.63540745231E+03  0.63540745233E+03  0.50400001928E-02 0. -1.
    10030    2    1    2    0    0  0.00000000000E+00  0.00000000000E+00  0.24686586460E+03  0.15176807693E+04  0.14974685847E+04 0.  0.
        2    1    3    3  502    0 -0.80726583981E+02 -0.14418294897E+03 -0.61669620153E+03  0.63845102328E+03  0.25500000920E-02 0. -1.
       -2    1    3    3    0  502  0.80726583981E+02  0.14418294897E+03  0.86356206614E+03  0.87922974598E+03  0.25500000920E-02 0.  1.
</event>
<event>
 5   0  0.2603873E-04  0.1499736E+04  0.7818609E-02  0.8884628E-01
        1   -1    0    0  501    0  0.00000000000E+00  0.00000000000E+00  0.42134875222E+03  0.42134875225E+03  0.50400001928E-02 0. -1.
       -1   -1    0    0    0  501  0.00000000000E+00  0.00000000000E+00 -0.13345290249E+04  0.13345290249E+04  0.50400001928E-02 0.  1.
    10030    2    1    2    0    0  0.00000000000E+00  0.00000000000E+00 -0.91318027263E+03  0.17558777771E+04  0.14997361627E+04 0.  0.
        2    1    3    3  502    0 -0.68513298690E+03 -0.91673672895E+02 -0.11627261996E+03  0.70094978008E+03  0.25500000920E-02 0. -1.
       -2    1    3    3    0  502  0.68513298690E+03  0.91673672895E+02 -0.79690765267E+03  0.10549279970E+04  0.25500000920E-02 0.  1.
</event>
<event>
 5   0  0.2565416E-04  0.1498943E+04  0.7818609E-02  0.8885156E-01
        1   -1    0    0  501    0  0.00000000000E+00  0.00000000000E+00  0.62067278500E+03  0.62067278502E+03  0.50400001928E-02 0. -1.
       -1   -1    0    0    0  501  0.00000000000E+00  0.00000000000E+00 -0.90499826919E+03  0.90499826920E+03  0.50400001928E-02 0.  1.
    10030    2    1    2    0    0  0.00000000000E+00  0.00000000000E+00 -0.28432548419E+03  0.15256710542E+04  0.14989433561E+04 0.  0.
        5    1    3    3  502    0 -0.61136795003E+03 -0.16582913002E+03 -0.54982361794E+03  0.83880758910E+03  0.46999998093E+01 0. -1.
       -5    1    3    3    0  502  0.61136795003E+03  0.16582913002E+03  0.26549813375E+03  0.68686346512E+03  0.46999998093E+01 0.  1.
</event>
<event>
 5   0  0.4726600E-04  0.1500729E+04  0.7818609E-02  0.8883968E-01
       -2   -1    0    0    0  501  0.00000000000E+00  0.00000000000E+00  0.84988038468E+03  0.84988038468E+03  0.25500000920E-02 0.  1.
        2   -1    0    0  501    0  0.00000000000E+00  0.00000000000E+00 -0.66250158050E+03  0.66250158050E+03  0.25500000920E-02 0. -1.
    10030    2    1    2    0    0  0.00000000000E+00  0.00000000000E+00  0.18737880418E+03  0.15123819652E+04  0.15007292868E+04 0.  0.
        2    1    3    3  502    0 -0.46217092724E+03  0.57611542447E+03  0.22714176111E+03  0.77272526032E+03  0.25500000920E-02 0.  1.
       -2    1    3    3    0  502  0.46217092724E+03 -0.57611542447E+03 -0.39762956934E+02  0.73965670486E+03  0.25500000920E-02 0. -1.
</event>
<event>
 5   0  0.4726600E-04  0.1486268E+04  0.7818609E-02  0.8893636E-01
       -2   -1    0    0    0  501  0.00000000000E+00  0.00000000000E+00  0.28337119294E+03  0.28337119295E+03  0.25500000920E-02 0. -1.
        2   -1    0    0  501    0  0.00000000000E+00  0.00000000000E+00 -0.19488519021E+04  0.19488519021E+04  0.25500000920E-02 0.  1.
    10030    2    1    2    0    0  0.00000000000E+00  0.00000000000E+00 -0.16654807092E+04  0.22322230951E+04  0.14862684662E+04 0.  0.
        2    1    3    3  502    0 -0.55369200547E+03 -0.25587195276E+03 -0.19517959815E+03  0.64042202389E+03  0.25500000920E-02 0.  1.
       -2    1    3    3    0  502  0.55369200547E+03  0.25587195276E+03 -0.14703011110E+04  0.15918010712E+04  0.25500000920E-02 0. -1.
</event>
<event>
 5   0  0.2605471E-04  0.1505674E+04  0.7818609E-02  0.8880688E-01
       -1   -1    0    0    0  501  0.00000000000E+00  0.00000000000E+00  0.33676937283E+03  0.33676937287E+03  0.50400001928E-02 0. -1.
        1   -1    0    0  501    0  0.00000000000E+00  0.00000000000E+00 -0.16829437790E+04  0.16829437791E+04  0.50400001928E-02 0.  1.
    10030    2    1    2    0    0  0.00000000000E+00  0.00000000000E+00 -0.13461744062E+04  0.20197131519E+04  0.15056744947E+04 0.  0.
        3    1    3    3  502    0  0.42244453741E+03  0.48967592087E+03 -0.11900437239E+04  0.13544172066E+04  0.10100000352E+00 0.  1.
       -3    1    3    3    0  502 -0.42244453741E+03 -0.48967592087E+03 -0.15613068235E+03  0.66529594530E+03  0.10100000352E+00 0. -1.
</event>
<event>
 5   0  0.4785496E-04  0.1502438E+04  0.7818609E-02  0.8882834E-01
        2   -1    0    0  501    0  0.00000000000E+00  0.00000000000E+00  0.26141581246E+04  0.26141581246E+04  0.25500000920E-02 0.  1.
       -2   -1    0    0    0  501  0.00000000000E+00  0.00000000000E+00 -0.21587437710E+03  0.21587437711E+03  0.25500000920E-02 0. -1.
    10030    2    1    2    0    0  0.00000000000E+00  0.00000000000E+00  0.23982837475E+04  0.28300325017E+04  0.15024376950E+04 0.  0.
        4    1    3    3  502    0  0.18653123647E+02  0.74673644980E+03  0.13494180178E+04  0.15423663197E+04  0.12699999809E+01 0.  1.
       -4    1    3    3    0  502 -0.18653123647E+02 -0.74673644980E+03  0.10488657297E+04  0.12876661820E+04  0.12699999809E+01 0. -1.
</event>
<event>
 5   0  0.2542737E-04  0.1506301E+04  0.7818609E-02  0.8880274E-01
       -1   -1    0    0    0  501  0.00000000000E+00  0.00000000000E+00  0.13161367066E+04  0.13161367066E+04  0.50400001928E-02 0. -1.
        1   -1    0    0  501    0  0.00000000000E+00  0.00000000000E+00 -0.43098530643E+03  0.43098530646E+03  0.50400001928E-02 0.  1.
    10030    2    1    2    0    0  0.00000000000E+00  0.00000000000E+00  0.88515140021E+03  0.17471220131E+04  0.15063008755E+04 0.  0.
        1    1    3    3  502    0 -0.12139109564E+03 -0.19691669195E+03  0.12739110845E+04  0.12947437711E+04  0.50400001928E-02 0. -1.
       -1    1    3    3    0  502  0.12139109564E+03  0.19691669195E+03 -0.38875968428E+03  0.45237824198E+03  0.50400001928E-02 0.  1.
</event>
<event>
 5   0  0.4726600E-04  0.1502275E+04  0.7818609E-02  0.8882942E-01
       -2   -1    0    0    0  501  0.00000000000E+00  0.00000000000E+00  0.34611161348E+03  0.34611161349E+03  0.25500000920E-02 0. -1.
        2   -1    0    0  501    0  0.00000000000E+00  0.00000000000E+00 -0.16301315443E+04  0.16301315443E+04  0.25500000920E-02 0.  1.
    10030    2    1    2    0    0  0.00000000000E+00  0.00000000000E+00 -0.12840199309E+04  0.19762431578E+04  0.15022748870E+04 0.  0.
        2    1    3    3  502    0  0.43844218290E+03 -0.69029519379E+02  0.15515594141E+03  0.47018080400E+03  0.25500000920E-02 0. -1.
       -2    1    3    3    0  502 -0.43844218290E+03  0.69029519379E+02 -0.14391758723E+04  0.15060623538E+04  0.25500000920E-02 0.  1.
</event>
<event>
 5   0  0.2605471E-04  0.1465225E+04  0.7818609E-02  0.8907913E-01
        1   -1    0    0  501    0  0.00000000000E+00  0.00000000000E+00  0.44477286601E+03  0.44477286604E+03  0.50400001928E-02 0.  1.
       -1   -1    0    0    0  501  0.00000000000E+00  0.00000000000E+00 -0.12067312375E+04  0.12067312375E+04  0.50400001928E-02 0. -1.
    10030    2    1    2    0    0  0.00000000000E+00  0.00000000000E+00 -0.76195837151E+03  0.16515041036E+04  0.14652253220E+04 0.  0.
        3    1    3    3  502    0 -0.10240331125E+03 -0.67293641858E+03 -0.68632919949E+03  0.96663211300E+03  0.10100000352E+00 0. -1.
       -3    1    3    3    0  502  0.10240331125E+03  0.67293641858E+03 -0.75629172021E+02  0.68487199057E+03  0.10100000352E+00 0.  1.
</event>
<event>
 5   0  0.4948645E-04  0.1498772E+04  0.7818609E-02  0.8885270E-01
        2   -1    0    0  501    0  0.00000000000E+00  0.00000000000E+00  0.93207712985E+03  0.93207712985E+03  0.25500000920E-02 0.  1.
       -2   -1    0    0    0  501  0.00000000000E+00  0.00000000000E+00 -0.60250299712E+03  0.60250299713E+03  0.25500000920E-02 0. -1.
    10030    2    1    2    0    0  0.00000000000E+00  0.00000000000E+00  0.32957413273E+03  0.15345801270E+04  0.14987718496E+04 0.  0.
        1    1    3    3  502    0  0.57348539306E+03  0.48092771731E+03  0.12644510335E+03  0.75905555101E+03  0.50400001928E-02 0.  1.
       -1    1    3    3    0  502 -0.57348539306E+03 -0.48092771731E+03  0.20312902938E+03  0.77552457597E+03  0.50400001928E-02 0. -1.
</event>
<event>
 5   0  0.4569211E-04  0.1503958E+04  0.7818609E-02  0.8881825E-01
       -2   -1    0    0    0  501  0.00000000000E+00  0.00000000000E+00  0.82334620505E+03  0.82334620505E+03  0.25500000920E-02 0. -1.
        2   -1    0    0  501    0  0.00000000000E+00  0.00000000000E+00 -0.68679767382E+03  0.68679767382E+03  0.25500000920E-02 0.  1.
    10030    2    1    2    0    0  0.00000000000E+00  0.00000000000E+00  0.13654853123E+03  0.15101438789E+04  0.15039577898E+04 0.  0.
        5    1    3    3  502    0 -0.51387528617E+03 -0.65991406759E+02 -0.47896972842E+03  0.70558965854E+03  0.46999998093E+01 0.  1.
       -5    1    3    3    0  502  0.51387528617E+03  0.65991406759E+02  0.61551825965E+03  0.80455422033E+03  0.46999998093E+01 0. -1.
</event>
<event>
 5   0  0.2542737E-04  0.1491696E+04  0.7818609E-02  0.8889994E-01
       -1   -1    0    0    0  501  0.00000000000E+00  0.00000000000E+00  0.57870510514E+03  0.57870510516E+03  0.50400001928E-02 0.  1.
        1   -1    0    0  501    0  0.00000000000E+00  0.00000000000E+00 -0.96126564664E+03  0.96126564665E+03  0.50400001928E-02 0. -1.
    10030    2    1    2    0    0  0.00000000000E+00  0.00000000000E+00 -0.38256054150E+03  0.15399707518E+04  0.14916961314E+04 0.  0.
        1    1    3    3  502    0 -0.24349098077E+03 -0.23260597913E+03  0.49576120813E+03  0.59931008231E+03  0.50400001928E-02 0.  1.
       -1    1    3    3    0  502  0.24349098077E+03  0.23260597913E+03 -0.87832174963E+03  0.94066066950E+03  0.50400001928E-02 0. -1.
</event>
<event>
 5   0  0.2544374E-04  0.1493225E+04  0.7818609E-02  0.8888971E-01
       -1   -1    0    0    0  501  0.00000000000E+00  0.00000000000E+00  0.55126489160E+03  0.55126489162E+03  0.50400001928E-02 0.  1.
        1   -1    0    0  501    0  0.00000000000E+00  0.00000000000E+00 -0.10111837919E+04  0.10111837919E+04  0.50400001928E-02 0. -1.
    10030    2    1    2    0    0  0.00000000000E+00  0.00000000000E+00 -0.45991890034E+03  0.15624486836E+04  0.14932248638E+04 0.  0.
        4    1    3    3  502    0  0.49523516181E+03 -0.52448633471E+02  0.35208290629E+03  0.60989565538E+03  0.12699999809E+01 0.  1.
       -4    1    3    3    0  502 -0.49523516181E+03  0.52448633471E+02 -0.81200180663E+03  0.95255302819E+03  0.12699999809E+01 0. -1.
</event>
<event>
 5   0  0.2544374E-04  0.1429101E+04  0.7818609E-02  0.8933019E-01
       -1   -1    0    0    0  501  0.00000000000E+00  0.00000000000E+00  0.24003979687E+03  0.24003979693E+03  0.50400001928E-02 0. -1.
        1   -1    0    0  501    0  0.00000000000E+00  0.00000000000E+00 -0.21270733435E+04  0.21270733435E+04  0.50400001928E-02 0.  1.
    10030    2    1    2    0    0  0.00000000000E+00  0.00000000000E+00 -0.18870335466E+04  0.23671131404E+04  0.14291007709E+04 0.  0.
        4    1    3    3  502    0  0.47625419757E+03 -0.30802521071E+03 -0.22364912633E+03  0.60968691617E+03  0.12699999809E+01 0. -1.
       -4    1    3    3    0  502 -0.47625419757E+03  0.30802521071E+03 -0.16633844203E+04  0.17574262242E+04  0.12699999809E+01 0.  1.
</event>
<event>
 5   0  0.4726600E-04  0.1335946E+04  0.7818609E-02  0.9001536E-01
       -2   -1    0    0    0  501  0.00000000000E+00  0.00000000000E+00  0.14573351342E+04  0.14573351342E+04  0.25500000920E-02 0. -1.
        2   -1    0    0  501    0  0.00000000000E+00  0.00000000000E+00 -0.30616684446E+03  0.30616684447E+03  0.25500000920E-02 0.  1.
    10030    2    1    2    0    0  0.00000000000E+00  0.00000000000E+00  0.11511682898E+04  0.17635019787E+04  0.13359456567E+04 0.  0.
        2    1    3    3  502    0  0.14633790226E+03 -0.38895213753E+03  0.12659148832E+04  0.13323809660E+04  0.25500000920E-02 0. -1.
       -2    1    3    3    0  502 -0.14633790226E+03  0.38895213753E+03 -0.11474659343E+03  0.43112101275E+03  0.25500000920E-02 0.  1.
</event>
<event>
 5   0  0.4726600E-04  0.1497320E+04  0.7818609E-02  0.8886237E-01
       -2   -1    0    0    0  501  0.00000000000E+00  0.00000000000E+00  0.79344134720E+03  0.79344134721E+03  0.25500000920E-02 0. -1.
        2   -1    0    0  501    0  0.00000000000E+00  0.00000000000E+00 -0.70640595950E+03  0.70640595950E+03  0.25500000920E-02 0.  1.
    10030    2    1    2    0    0  0.00000000000E+00  0.00000000000E+00  0.87035387703E+02  0.14998473067E+04  0.14973198672E+04 0.  0.
        2    1    3    3  502    0 -0.29963196168E+03 -0.30785318159E+03  0.65769114211E+03  0.78556383082E+03  0.25500000920E-02 0. -1.
       -2    1    3    3    0  502  0.29963196168E+03  0.30785318159E+03 -0.57065575441E+03  0.71428347589E+03  0.25500000920E-02 0.  1.
</event>
<event>
 5   0  0.4785496E-04  0.1507024E+04  0.7818609E-02  0.8879795E-01
       -2   -1    0    0    0  501  0.00000000000E+00  0.00000000000E+00  0.40570675882E+03  0.40570675882E+03  0.25500000920E-02 0. -1.
        2   -1    0    0  501    0  0.00000000000E+00  0.00000000000E+00 -0.13994851522E+04  0.13994851522E+04  0.25500000920E-02 0.  1.
    10030    2    1    2    0    0  0.00000000000E+00  0.00000000000E+00 -0.99377839342E+03  0.18051919111E+04  0.15070243331E+04 0.  0.
        4    1    3    3  502    0 -0.77678007029E+02  0.27390851598E+03 -0.13325737297E+04  0.13626496637E+04  0.12699999809E+01 0.  1.
       -4    1    3    3    0  502  0.77678007029E+02 -0.27390851598E+03  0.33879533631E+03  0.44254224737E+03  0.12699999809E+01 0. -1.
</event>
<event>
 5   0  0.4569211E-04  0.1518814E+04  0.7818609E-02  0.8872037E-01
       -2   -1    0    0    0  501  0.00000000000E+00  0.00000000000E+00  0.41243732363E+03  0.41243732364E+03  0.25500000920E-02 0. -1.
        2   -1    0    0  501    0  0.00000000000E+00  0.00000000000E+00 -0.13982703541E+04  0.13982703541E+04  0.25500000920E-02 0.  1.
    10030    2    1    2    0    0  0.00000000000E+00  0.00000000000E+00 -0.98583303051E+03  0.18107076778E+04  0.15188138564E+04 0.  0.
        5    1    3    3  502    0  0.19183699637E+03  0.45926372012E+03 -0.11766867423E+04  0.12776299845E+04  0.46999998093E+01 0.  1.
       -5    1    3    3    0  502 -0.19183699637E+03 -0.45926372012E+03  0.19085371177E+03  0.53307769330E+03  0.46999998093E+01 0. -1.
</event>
<event>
 5   0  0.4726600E-04  0.1498500E+04  0.7818609E-02  0.8885451E-01
       -2   -1    0    0    0  501  0.00000000000E+00  0.00000000000E+00  0.26653520522E+03  0.26653520523E+03  0.25500000920E-02 0.  1.
        2   -1    0    0  501    0  0.00000000000E+00  0.00000000000E+00 -0.21061973197E+04  0.21061973197E+04  0.25500000920E-02 0. -1.
    10030    2    1    2    0    0  0.00000000000E+00  0.00000000000E+00 -0.18396621145E+04  0.23727325250E+04  0.14985002300E+04 0.  0.
        2    1    3    3  502    0 -0.65170896073E+03  0.22525971223E+03 -0.45573072826E+03  0.82653312343E+03  0.25500000920E-02 0.  1.
       -2    1    3    3    0  502  0.65170896073E+03 -0.22525971223E+03 -0.13839313862E+04  0.15461994015E+04  0.25500000920E-02 0. -1.
</event>
<event>
 5   0  0.4948645E-04  0.1501644E+04  0.7818609E-02  0.8883360E-01
       -2   -1    0    0    0  501  0.00000000000E+00  0.00000000000E+00  0.42474384375E+03  0.42474384376E+03  0.25500000920E-02 0.  1.
        2   -1    0    0  501    0  0.00000000000E+00  0.00000000000E+00 -0.13272327610E+04  0.13272327610E+04  0.25500000920E-02 0. -1.
    10030    2    1    2    0    0  0.00000000000E+00  0.00000000000E+00 -0.90248891723E+03  0.17519766047E+04  0.15016443580E+04 0.  0.
        1    1    3    3  502    0  0.30553963602E+03 -0.20573124883E+03  0.31208242632E+03  0.48277868301E+03  0.50400001928E-02 0.  1.
       -1    1    3    3    0  502 -0.30553963602E+03  0.20573124883E+03 -0.12145713436E+04  0.12691979217E+04  0.50400001928E-02 0. -1.
</event>
<event>
 5   0  0.4785496E-04  0.1501369E+04  0.7818609E-02  0.8883543E-01
        2   -1    0    0  501    0  0.00000000000E+00  0.00000000000E+00  0.79628244966E+03  0.79628244966E+03  0.25500000920E-02 0. -1.
       -2   -1    0    0    0  501  0.00000000000E+00  0.00000000000E+00 -0.70769780201E+03  0.70769780202E+03  0.25500000920E-02 0.  1.
    10030    2    1    2    0    0  0.00000000000E+00  0.00000000000E+00  0.88584647641E+02  0.15039802517E+04  0.15013691610E+04 0.  0.
        4    1    3    3  502    0 -0.56779773169E+03 -0.46643425072E+03 -0.10950172161E+03  0.74293163501E+03  0.12699999809E+01 0.  1.
       -4    1    3    3    0  502  0.56779773169E+03  0.46643425072E+03  0.19808636926E+03  0.76104861667E+03  0.12699999809E+01 0. -1.
</event>
<event>
 5   0  0.4785496E-04  0.1507416E+04  0.7818609E-02  0.8879536E-01
        2   -1    0    0  501    0  0.00000000000E+00  0.00000000000E+00  0.44418608029E+03  0.44418608030E+03  0.25500000920E-02 0. -1.
       -2   -1    0    0    0  501  0.00000000000E+00  0.00000000000E+00 -0.12789137135E+04  0.12789137135E+04  0.25500000920E-02 0.  1.
    10030    2    1    2    0    0  0.00000000000E+00  0.00000000000E+00 -0.83472763324E+03  0.17230997938E+04  0.15074158941E+04 0.  0.
        4    1    3    3  502    0  0.11111659648E+03 -0.71111497152E+03 -0.16165393250E+03  0.73767540797E+03  0.12699999809E+01 0.  1.
       -4    1    3    3    0  502 -0.11111659648E+03  0.71111497152E+03 -0.67307370075E+03  0.98542438587E+03  0.12699999809E+01 0. -1.
</event>
<event>
 5   0  0.4569211E-04  0.1554201E+04  0.7818609E-02  0.8849189E-01
        2   -1    0    0  501    0  0.00000000000E+00  0.00000000000E+00  0.10232011802E+04  0.10232011802E+04  0.25500000920E-02 0.  1.
       -2   -1    0    0    0  501  0.00000000000E+00  0.00000000000E+00 -0.59019166134E+03  0.59019166135E+03  0.25500000920E-02 0. -1.
    10030    2    1    2    0    0  0.00000000000E+00  0.00000000000E+00  0.43300951882E+03  0.16133928415E+04  0.15542005075E+04 0.  0.
        5    1    3    3  502    0  0.10038858434E+03 -0.42113585947E+03  0.88639521292E+03  0.98648458857E+03  0.46999998093E+01 0.  1.
       -5    1    3    3    0  502 -0.10038858434E+03  0.42113585947E+03 -0.45338569410E+03  0.62690825294E+03  0.46999998093E+01 0. -1.
</event>
<event>
 5   0  0.2603873E-04  0.1502132E+04  0.7818609E-02  0.8883036E-01
        1   -1    0    0  501    0  0.00000000000E+00  0.00000000000E+00  0.11387765239E+04  0.11387765239E+04  0.50400001928E-02 0. -1.
       -1   -1    0    0    0  501  0.00000000000E+00  0.00000000000E+00 -0.49535652247E+03  0.49535652250E+03  0.50400001928E-02 0.  1.
    10030    2    1    2    0    0  0.00000000000E+00  0.00000000000E+00  0.64342000146E+03  0.16341330464E+04  0.15021323228E+04 0.  0.
        2    1    3    3  502    0 -0.73507962404E+03 -0.11609893347E+03  0.43200664964E+03  0.86049448654E+03  0.25500000920E-02 0.  1.
       -2    1    3    3    0  502  0.73507962404E+03  0.11609893347E+03  0.21141335182E+03  0.77363855990E+03  0.25500000920E-02 0. -1.
</event>
<event>
 5   0  0.4569211E-04  0.1503319E+04  0.7818609E-02  0.8882249E-01
        2   -1    0    0  501    0  0.00000000000E+00  0.00000000000E+00  0.36295446444E+03  0.36295446445E+03  0.25500000920E-02 0.  1.
       -2   -1    0    0    0  501  0.00000000000E+00  0.00000000000E+00 -0.15566462645E+04  0.15566462645E+04  0.25500000920E-02 0. -1.
    10030    2    1    2    0    0  0.00000000000E+00  0.00000000000E+00 -0.11936918001E+04  0.19196007289E+04  0.15033186106E+04 0.  0.
        5    1    3    3  502    0  0.65651882785E+03 -0.80278157048E+01 -0.10640762337E+04  0.12503446478E+04  0.46999998093E+01 0. -1.
       -5    1    3    3    0  502 -0.65651882785E+03  0.80278157048E+01 -0.12961556639E+03  0.66925608118E+03  0.46999998093E+01 0.  1.
</event>
<event>
 5   0  0.4768387E-04  0.1493651E+04  0.7818609E-02  0.8888686E-01
        2   -1    0    0  501    0  0.00000000000E+00  0.00000000000E+00  0.45516819849E+03  0.45516819850E+03  0.25500000920E-02 0.  1.
       -2   -1    0    0    0  501  0.00000000000E+00  0.00000000000E+00 -0.12253670595E+04  0.12253670595E+04  0.25500000920E-02 0. -1.
    10030    2    1    2    0    0  0.00000000000E+00  0.00000000000E+00 -0.77019886104E+03  0.16805352580E+04  0.14936507182E+04 0.  0.
        3    1    3    3  502    0 -0.39967123341E+03 -0.51882310178E+03 -0.78894297914E+03  0.10253514228E+04  0.10100000352E+00 0. -1.
       -3    1    3    3    0  502  0.39967123341E+03  0.51882310178E+03  0.18744118095E+02  0.65518383521E+03  0.10100000352E+00 0.  1.
</event>
<event>
 5   0  0.4569211E-04  0.1500486E+04  0.7818609E-02  0.8884130E-01
        2   -1    0    0  501    0  0.00000000000E+00  0.00000000000E+00  0.12587755699E+04  0.12587755699E+04  0.25500000920E-02 0. -1.
       -2   -1    0    0    0  501  0.00000000000E+00  0.00000000000E+00 -0.44715225085E+03  0.44715225086E+03  0.25500000920E-02 0.  1.
    10030    2    1    2    0    0  0.00000000000E+00  0.00000000000E+00  0.81162331903E+03  0.17059278207E+04  0.15004856939E+04 0.  0.
        5    1    3    3  502    0 -0.41483299417E+03 -0.10307993037E+02 -0.30478386679E+03  0.51488635953E+03  0.46999998093E+01 0.  1.
       -5    1    3    3    0  502  0.41483299417E+03  0.10307993037E+02  0.11164071858E+04  0.11910414612E+04  0.46999998093E+01 0. -1.
</event>
<event>
 5   0  0.2542737E-04  0.1505121E+04  0.7818609E-02  0.8881054E-01
        1   -1    0    0  501    0  0.00000000000E+00  0.00000000000E+00  0.15904299022E+04  0.15904299023E+04  0.50400001928E-02 0. -1.
       -1   -1    0    0    0  501  0.00000000000E+00  0.00000000000E+00 -0.35609716005E+03  0.35609716009E+03  0.50400001928E-02 0.  1.
    10030    2    1    2    0    0  0.00000000000E+00  0.00000000000E+00  0.12343327422E+04  0.19465270623E+04  0.15051213526E+04 0.  0.
        1    1    3    3  502    0  0.99055548843E+01  0.48208051009E+02 -0.35401371974E+03  0.35741831233E+03  0.50400001928E-02 0.  1.
       -1    1    3    3    0  502 -0.99055548843E+01 -0.48208051009E+02  0.15883464619E+04  0.15891087500E+04  0.50400001928E-02 0. -1.
</event>
<event>
 5   0  0.2565416E-04  0.1491965E+04  0.7818609E-02  0.8889814E-01
        1   -1    0    0  501    0  0.00000000000E+00  0.00000000000E+00  0.72307834838E+03  0.72307834839E+03  0.50400001928E-02 0.  1.
       -1   -1    0    0    0  501  0.00000000000E+00  0.00000000000E+00 -0.76961165322E+03  0.76961165324E+03  0.50400001928E-02 0. -1.
    10030    2    1    2    0    0  0.00000000000E+00  0.00000000000E+00 -0.46533304849E+02  0.14926900016E+04  0.14919645078E+04 0.  0.
        5    1    3    3  502    0  0.57297650496E+03 -0.32505955414E+03 -0.37343919597E+03  0.75726132350E+03  0.46999998093E+01 0. -1.
       -5    1    3    3    0  502 -0.57297650496E+03  0.32505955414E+03  0.32690589112E+03  0.73542867814E+03  0.46999998093E+01 0.  1.
</event>
<event>
 5   0  0.2565416E-04  0.1511259E+04  0.7818609E-02  0.8877000E-01
        1   -1    0    0  501    0  0.00000000000E+00  0.00000000000E+00  0.60036777486E+03  0.60036777488E+03  0.50400001928E-02 0.  1.
       -1   -1    0    0    0  501  0.00000000000E+00  0.00000000000E+00 -0.95104414598E+03  0.95104414599E+03  0.50400001928E-02 0. -1.
    10030    2    1    2    0    0  0.00000000000E+00  0.00000000000E+00 -0.35067637112E+03  0.15514119209E+04  0.15112594188E+04 0.  0.
        5    1    3    3  502    0 -0.23989796771E+03 -0.37606726425E+03  0.45076495480E+03  0.63418353544E+03  0.46999998093E+01 0.  1.
       -5    1    3    3    0  502  0.23989796771E+03  0.37606726425E+03 -0.80144132592E+03  0.91722838543E+03  0.46999998093E+01 0. -1.
</event>
<event>
 5   0  0.4948645E-04  0.1503094E+04  0.7818609E-02  0.8882398E-01
       -2   -1    0    0    0  501  0.00000000000E+00  0.00000000000E+00  0.93583712849E+03  0.93583712849E+03  0.25500000920E-02 0. -1.
        2   -1    0    0  501    0  0.00000000000E+00  0.00000000000E+00 -0.60354811653E+03  0.60354811653E+03  0.25500000920E-02 0.  1.
    10030    2    1    2    0    0  0.00000000000E+00  0.00000000000E+00  0.33228901196E+03  0.15393852450E+04  0.15030937912E+04 0.  0.
        1    1    3    3  502    0  0.26303238998E+03  0.14182265276E+03  0.87237589736E+03  0.92213849791E+03  0.50400001928E-02 0. -1.
       -1    1    3    3    0  502 -0.26303238998E+03 -0.14182265276E+03 -0.54008688540E+03  0.61724674711E+03  0.50400001928E-02 0.  1.
</event>
<event>
 5   0  0.4948645E-04  0.1505190E+04  0.7818609E-02  0.8881009E-01
       -2   -1    0    0    0  501  0.00000000000E+00  0.00000000000E+00  0.29690522573E+03  0.29690522574E+03  0.25500000920E-02 0. -1.
        2   -1    0    0  501    0  0.00000000000E+00  0.00000000000E+00 -0.19076758103E+04  0.19076758103E+04  0.25500000920E-02 0.  1.
    10030    2    1    2    0    0  0.00000000000E+00  0.00000000000E+00 -0.16107705846E+04  0.22045810361E+04  0.15051895789E+04 0.  0.
        1    1    3    3  502    0 -0.17115608900E+03 -0.52695853504E+02  0.26524294019E+03  0.32003918060E+03  0.50400001928E-02 0. -1.
       -1    1    3    3    0  502  0.17115608900E+03  0.52695853504E+02 -0.18760135248E+04  0.18845418555E+04  0.50400001928E-02 0.  1.
</event>
<event>
 5   0  0.2544374E-04  0.1501200E+04  0.7818609E-02  0.8883655E-01
       -1   -1    0    0    0  501  0.00000000000E+00  0.00000000000E+00  0.85156947893E+03  0.85156947895E+03  0.50400001928E-02 0. -1.
        1   -1    0    0  501    0  0.00000000000E+00  0.00000000000E+00 -0.66160244453E+03  0.66160244455E+03  0.50400001928E-02 0.  1.
    10030    2    1    2    0    0  0.00000000000E+00  0.00000000000E+00  0.18996703440E+03  0.15131719235E+04  0.15012001185E+04 0.  0.
        4    1    3    3  502    0 -0.36436264874E+03  0.60998251225E+03  0.33890515843E+03  0.78720843768E+03  0.12699999809E+01 0. -1.
       -4    1    3    3    0  502  0.36436264874E+03 -0.60998251225E+03 -0.14893812402E+03  0.72596348582E+03  0.12699999809E+01 0.  1.
</event>
<event>
 5   0  0.4726600E-04  0.1506329E+04  0.7818609E-02  0.8880255E-01
        2   -1    0    0  501    0  0.00000000000E+00  0.00000000000E+00  0.11984345102E+04  0.11984345102E+04  0.25500000920E-02 0. -1.
       -2   -1    0    0    0  501  0.00000000000E+00  0.00000000000E+00 -0.47333145588E+03  0.47333145589E+03  0.25500000920E-02 0.  1.
    10030    2    1    2    0    0  0.00000000000E+00  0.00000000000E+00  0.72510305435E+03  0.16717659661E+04  0.15063289833E+04 0.  0.
        2    1    3    3  502    0  0.41574900202E+03  0.32006668060E+03 -0.23713240279E+03  0.57577920175E+03  0.25500000920E-02 0.  1.
       -2    1    3    3    0  502 -0.41574900202E+03 -0.32006668060E+03  0.96223545713E+03  0.10959867644E+04  0.25500000920E-02 0. -1.
</event>
<event>
 5   0  0.1792000E-04  0.1501702E+04  0.7818609E-02  0.8883322E-01
        3   -1    0    0  501    0  0.00000000000E+00  0.00000000000E+00  0.54944657700E+03  0.54944658629E+03  0.10100000352E+00 0. -1.
       -3   -1    0    0    0  501  0.00000000000E+00  0.00000000000E+00 -0.10260826079E+04  0.10260826129E+04  0.10100000352E+00 0.  1.
    10030    2    1    2    0    0  0.00000000000E+00  0.00000000000E+00 -0.47663603094E+03  0.15755291992E+04  0.15017024844E+04 0.  0.
        4    1    3    3  502    0  0.79222794328E+02 -0.10439528760E+03 -0.10139896431E+04  0.10224241959E+04  0.12699999809E+01 0.  1.
       -4    1    3    3    0  502 -0.79222794328E+02  0.10439528760E+03  0.53735361217E+03  0.55310500326E+03  0.12699999809E+01 0. -1.
</event>
<event>
 5   0  0.4569211E-04  0.1510962E+04  0.7818609E-02  0.8877196E-01
        2   -1    0    0  501    0  0.00000000000E+00  0.00000000000E+00  0.13666991094E+04  0.13666991094E+04  0.25500000920E-02 0.  1.
       -2   -1    0    0    0  501  0.00000000000E+00  0.00000000000E+00 -0.41761310268E+03  0.41761310269E+03  0.25500000920E-02 0. -1.
    10030    2    1    2    0    0  0.00000000000E+00  0.00000000000E+00  0.94908600671E+03  0.17843122121E+04  0.15109618864E+04 0.  0.
        5    1    3    3  502    0  0.49792536404E+03  0.37794989034E+03  0.97549669469E+03  0.11586162778E+04  0.46999998093E+01 0.  1.
       -5    1    3    3    0  502 -0.49792536404E+03 -0.37794989034E+03 -0.26410687982E+02  0.62569593430E+03  0.46999998093E+01 0. -1.
</event>
<event>
 5   0  0.4569211E-04  0.1472139E+04  0.7818609E-02  0.8903195E-01
        2   -1    0    0  501    0  0.00000000000E+00  0.00000000000E+00  0.39703560622E+03  0.39703560623E+03  0.25500000920E-02 0. -1.
       -2   -1    0    0    0  501  0.00000000000E+00  0.00000000000E+00 -0.13646080427E+04  0.13646080427E+04  0.25500000920E-02 0.  1.
    10030    2    1    2    0    0  0.00000000000E+00  0.00000000000E+00 -0.96757243648E+03  0.17616436489E+04  0.14721385553E+04 0.  0.
        5    1    3    3  502    0  0.69466945316E+03 -0.24244428654E+03 -0.45894269503E+03  0.86717666513E+03  0.46999998093E+01 0.  1.
       -5    1    3    3    0  502 -0.69466945316E+03  0.24244428654E+03 -0.50862974145E+03  0.89446698380E+03  0.46999998093E+01 0. -1.
</event>
<event>
 5   0  0.2542737E-04  0.1489252E+04  0.7818609E-02  0.8891631E-01
       -1   -1    0    0    0  501  0.00000000000E+00  0.00000000000E+00  0.62222101218E+03  0.62222101220E+03  0.50400001928E-02 0.  1.
        1   -1    0    0  501    0  0.00000000000E+00  0.00000000000E+00 -0.89111141014E+03  0.89111141015E+03  0.50400001928E-02 0. -1.
    10030    2    1    2    0    0  0.00000000000E+00  0.00000000000E+00 -0.26889039795E+03  0.15133324224E+04  0.14892524885E+04 0.  0.
        1    1    3    3  502    0 -0.61598261166E+03 -0.70161106847E+02  0.28466893722E+03  0.68219759793E+03  0.50400001928E-02 0.  1.
       -1    1    3    3    0  502  0.61598261166E+03  0.70161106847E+02 -0.55355933517E+03  0.83113482442E+03  0.50400001928E-02 0. -1.
</event>
<event>
 5   0  0.2544374E-04  0.1500873E+04  0.7818609E-02  0.8883873E-01
       -1   -1    0    0    0  501  0.00000000000E+00  0.00000000000E+00  0.73914828516E+03  0.73914828517E+03  0.50400001928E-02 0.  1.
        1   -1    0    0  501    0  0.00000000000E+00  0.00000000000E+00 -0.76189712478E+03  0.76189712479E+03  0.50400001928E-02 0. -1.
    10030    2    1    2    0    0  0.00000000000E+00  0.00000000000E+00 -0.22748839621E+02  0.15010454100E+04  0.15008730170E+04 0.  0.
        4    1    3    3  502    0  0.43001360758E+03  0.16563386694E+03 -0.60373212685E+03  0.75950008194E+03  0.12699999809E+01 0. -1.
       -4    1    3    3    0  502 -0.43001360758E+03 -0.16563386694E+03  0.58098328723E+03  0.74154532803E+03  0.12699999809E+01 0.  1.
</event>
<event>
 5   0  0.4768387E-04  0.1502046E+04  0.7818609E-02  0.8883093E-01
       -2   -1    0    0    0  501  0.00000000000E+00  0.00000000000E+00  0.31370203404E+03  0.31370203405E+03  0.25500000920E-02 0. -1.
        2   -1    0    0  501    0  0.00000000000E+00  0.00000000000E+00 -0.17979987670E+04  0.17979987670E+04  0.25500000920E-02 0.  1.
    10030    2    1    2    0    0  0.00000000000E+00  0.00000000000E+00 -0.14842967329E+04  0.21117008010E+04  0.15020464313E+04 0.  0.
        3    1    3    3  502    0  0.43928534648E+03  0.36637690233E+03 -0.14263268478E+04  0.15367537009E+04  0.10100000352E+00 0.  1.
       -3    1    3    3    0  502 -0.43928534648E+03 -0.36637690233E+03 -0.57969885130E+02  0.57494710015E+03  0.10100000352E+00 0. -1.
</event>
<event>
 5   0  0.4948645E-04  0.1453108E+04  0.7818609E-02  0.8916248E-01
        2   -1    0    0  501    0  0.00000000000E+00  0.00000000000E+00  0.83531236945E+03  0.83531236945E+03  0.25500000920E-02 0. -1.
       -2   -1    0    0    0  501  0.00000000000E+00  0.00000000000E+00 -0.63195626613E+03  0.63195626613E+03  0.25500000920E-02 0.  1.
    10030    2    1    2    0    0  0.00000000000E+00  0.00000000000E+00  0.20335610332E+03  0.14672686356E+04  0.14531082355E+04 0.  0.
        1    1    3    3  502    0 -0.19545933270E+03  0.10385154399E+03  0.80044150969E+03  0.83047944248E+03  0.50400001928E-02 0. -1.
       -1    1    3    3    0  502  0.19545933270E+03 -0.10385154399E+03 -0.59708540637E+03  0.63678919310E+03  0.50400001928E-02 0.  1.
</event>
<event>
 5   0  0.4569211E-04  0.1502082E+04  0.7818609E-02  0.8883070E-01
       -2   -1    0    0    0  501  0.00000000000E+00  0.00000000000E+00  0.42979653728E+03  0.42979653729E+03  0.25500000920E-02 0.  1.
        2   -1    0    0  501    0  0.00000000000E+00  0.00000000000E+00 -0.13123944766E+04  0.13123944766E+04  0.25500000920E-02 0. -1.
    10030    2    1    2    0    0  0.00000000000E+00  0.00000000000E+00 -0.88259793933E+03  0.17421910139E+04  0.15020820239E+04 0.  0.
        5    1    3    3  502    0  0.37529874552E+02  0.41977339249E+02 -0.13099257130E+04  0.13111437953E+04  0.46999998093E+01 0. -1.
       -5    1    3    3    0  502 -0.37529874552E+02 -0.41977339249E+02  0.42732777366E+03  0.43104721857E+03  0.46999998093E+01 0.  1.
</event>
<event>
 5   0  0.1792000E-04  0.1503189E+04  0.7818609E-02  0.8882335E-01
       -4   -1    0    0    0  501  0.00000000000E+00  0.00000000000E+00  0.19697378694E+04  0.19697382788E+04  0.12699999809E+01 0. -1.
        4   -1    0    0  501    0  0.00000000000E+00  0.00000000000E+00 -0.28678479735E+03  0.28678760938E+03  0.12699999809E+01 0.  1.
    10030    2    1    2    0    0  0.00000000000E+00  0.00000000000E+00  0.16829530721E+04  0.22565258882E+04  0.15031892899E+04 0.  0.
        2    1    3    3  502    0  0.65182423505E+03 -0.37004517452E+03  0.92487189859E+03  0.11904605384E+04  0.25500000920E-02 0.  1.
       -2    1    3    3    0  502 -0.65182423505E+03  0.37004517452E+03  0.75808117347E+03  0.10660653499E+04  0.25500000920E-02 0. -1.
</event>
<event>
 5   0  0.4768387E-04  0.1509851E+04  0.7818609E-02  0.8877928E-01
        2   -1    0    0  501    0  0.00000000000E+00  0.00000000000E+00  0.13835253420E+04  0.13835253420E+04  0.25500000920E-02 0. -1.
       -2   -1    0    0    0  501  0.00000000000E+00  0.00000000000E+00 -0.41192793959E+03  0.41192793960E+03  0.25500000920E-02 0.  1.
    10030    2    1    2    0    0  0.00000000000E+00  0.00000000000E+00  0.97159740244E+03  0.17954532816E+04  0.15098513086E+04 0.  0.
        3    1    3    3  502    0 -0.30099324463E+03 -0.29624615684E+03  0.12299063521E+04  0.13003954644E+04  0.10100000352E+00 0. -1.
       -3    1    3    3    0  502  0.30099324463E+03  0.29624615684E+03 -0.25830894962E+03  0.49505781724E+03  0.10100000352E+00 0.  1.
</event>
<event>
 5   0  0.4785496E-04  0.1490985E+04  0.7818609E-02  0.8890470E-01
        2   -1    0    0  501    0  0.00000000000E+00  0.00000000000E+00  0.21833353478E+04  0.21833353478E+04  0.25500000920E-02 0.  1.
       -2   -1    0    0    0  501  0.00000000000E+00  0.00000000000E+00 -0.25454592612E+03  0.25454592614E+03  0.25500000920E-02 0. -1.
    10030    2    1    2    0    0  0.00000000000E+00  0.00000000000E+00  0.19287894217E+04  0.24378812739E+04  0.14909850679E+04 0.  0.
        4    1    3    3  502    0 -0.45983925989E+03 -0.42222038991E+03  0.16306481694E+04  0.17460633631E+04  0.12699999809E+01 0. -1.
       -4    1    3    3    0  502  0.45983925989E+03  0.42222038991E+03  0.29814125228E+03  0.69181791087E+03  0.12699999809E+01 0.  1.
</event>
<event>
 5   0  0.2565416E-04  0.1491089E+04  0.7818609E-02  0.8890400E-01
        1   -1    0    0  501    0  0.00000000000E+00  0.00000000000E+00  0.11745273032E+04  0.11745273032E+04  0.50400001928E-02 0.  1.
       -1   -1    0    0    0  501  0.00000000000E+00  0.00000000000E+00 -0.47324286295E+03  0.47324286297E+03  0.50400001928E-02 0. -1.
    10030    2    1    2    0    0  0.00000000000E+00  0.00000000000E+00  0.70128444025E+03  0.16477701662E+04  0.14910890833E+04 0.  0.
        5    1    3    3  502    0 -0.65462877927E+03  0.25983514109E+03  0.80493103767E+02  0.70891069180E+03  0.46999998093E+01 0. -1.
       -5    1    3    3    0  502  0.65462877927E+03 -0.25983514109E+03  0.62079133648E+03  0.93885947439E+03  0.46999998093E+01 0.  1.
</event>
<event>
 5   0  0.4768387E-04  0.1495419E+04  0.7818609E-02  0.8887505E-01
        2   -1    0    0  501    0  0.00000000000E+00  0.00000000000E+00  0.98615696482E+03  0.98615696482E+03  0.25500000920E-02 0.  1.
       -2   -1    0    0    0  501  0.00000000000E+00  0.00000000000E+00 -0.56691762957E+03  0.56691762957E+03  0.25500000920E-02 0. -1.
    10030    2    1    2    0    0  0.00000000000E+00  0.00000000000E+00  0.41923933525E+03  0.15530745944E+04  0.14954193644E+04 0.  0.
        3    1    3    3  502    0 -0.26903768567E+03 -0.21346618115E+03  0.89939557389E+03  0.96273646204E+03  0.10100000352E+00 0.  1.
       -3    1    3    3    0  502  0.26903768567E+03  0.21346618115E+03 -0.48015623864E+03  0.59033813236E+03  0.10100000352E+00 0. -1.
</event>
<event>
 5   0  0.4785496E-04  0.1485484E+04  0.7818609E-02  0.8894164E-01
        2   -1    0    0  501    0  0.00000000000E+00  0.00000000000E+00  0.89593828235E+03  0.89593828235E+03  0.25500000920E-02 0. -1.
       -2   -1    0    0    0  501  0.00000000000E+00  0.00000000000E+00 -0.61574065200E+03  0.61574065201E+03  0.25500000920E-02 0.  1.
    10030    2    1    2    0    0  0.00000000000E+00  0.00000000000E+00  0.28019763035E+03  0.15116789344E+04  0.14854839240E+04 0.  0.
        4    1    3    3  502    0  0.16692773563E+02 -0.61269728186E+03 -0.28680731797E+03  0.67671017314E+03  0.12699999809E+01 0.  1.
       -4    1    3    3    0  502 -0.16692773563E+02  0.61269728186E+03  0.56700494832E+03  0.83496876122E+03  0.12699999809E+01 0. -1.
</event>
<event>
 5   0  0.4948645E-04  0.1495579E+04  0.7818609E-02  0.8887398E-01
       -2   -1    0    0    0  501  0.00000000000E+00  0.00000000000E+00  0.58589647406E+03  0.58589647407E+03  0.25500000920E-02 0. -1.
        2   -1    0    0  501    0  0.00000000000E+00  0.00000000000E+00 -0.95441658763E+03  0.95441658763E+03  0.25500000920E-02 0.  1.
    10030    2    1    2    0    0  0.00000000000E+00  0.00000000000E+00 -0.36852011357E+03  0.15403130617E+04  0.14955792369E+04 0.  0.
        1    1    3    3  502    0 -0.52154477981E+02 -0.36350215362E+03 -0.85515451923E+03  0.93066812400E+03  0.50400001928E-02 0.  1.
       -1    1    3    3    0  502  0.52154477981E+02  0.36350215362E+03  0.48663440566E+03  0.60964493769E+03  0.50400001928E-02 0. -1.
</event>
<event>
 5   0  0.2544374E-04  0.1534713E+04  0.7818609E-02  0.8861692E-01
        1   -1    0    0  501    0  0.00000000000E+00  0.00000000000E+00  0.42522448198E+03  0.42522448201E+03  0.50400001928E-02 0. -1.
       -1   -1    0    0    0  501  0.00000000000E+00  0.00000000000E+00 -0.13847656926E+04  0.13847656926E+04  0.50400001928E-02 0.  1.
    10030    2    1    2    0    0  0.00000000000E+00  0.00000000000E+00 -0.95954121060E+03  0.18099901746E+04  0.15347133600E+04 0.  0.
        4    1    3    3  502    0  0.42210833691E+03  0.13288149223E+03 -0.12191139544E+04  0.12969477190E+04  0.12699999809E+01 0.  1.
       -4    1    3    3    0  502 -0.42210833691E+03 -0.13288149223E+03  0.25957274377E+03  0.51304245563E+03  0.12699999809E+01 0. -1.
</event>
<event>
 5   0  0.4768387E-04  0.1500090E+04  0.7818609E-02  0.8884393E-01
       -2   -1    0    0    0  501  0.00000000000E+00  0.00000000000E+00  0.44433488647E+03  0.44433488647E+03  0.25500000920E-02 0. -1.
        2   -1    0    0  501    0  0.00000000000E+00  0.00000000000E+00 -0.12660881431E+04  0.12660881431E+04  0.25500000920E-02 0.  1.
    10030    2    1    2    0    0  0.00000000000E+00  0.00000000000E+00 -0.82175325664E+03  0.17104230296E+04  0.15000895058E+04 0.  0.
        3    1    3    3  502    0  0.48899825954E+03 -0.24407988037E+03  0.17483480847E+03  0.57381312837E+03  0.10100000352E+00 0. -1.
       -3    1    3    3    0  502 -0.48899825954E+03  0.24407988037E+03 -0.99658806511E+03  0.11366099012E+04  0.10100000352E+00 0.  1.
</event>
<event>
 5   0  0.4569211E-04  0.1498280E+04  0.7818609E-02  0.8885598E-01
        2   -1    0    0  501    0  0.00000000000E+00  0.00000000000E+00  0.54824467993E+03  0.54824467993E+03  0.25500000920E-02 0. -1.
       -2   -1    0    0    0  501  0.00000000000E+00  0.00000000000E+00 -0.10236501063E+04  0.10236501063E+04  0.25500000920E-02 0.  1.
    10030    2    1    2    0    0  0.00000000000E+00  0.00000000000E+00 -0.47540542635E+03  0.15718947862E+04  0.14982799804E+04 0.  0.
        5    1    3    3  502    0  0.14298276778E+03 -0.67899593355E+03 -0.53390227336E+03  0.87553028341E+03  0.46999998093E+01 0.  1.
       -5    1    3    3    0  502 -0.14298276778E+03  0.67899593355E+03  0.58496847011E+02  0.69636450281E+03  0.46999998093E+01 0. -1.
</event>
<event>
 5   0  0.2605471E-04  0.1508770E+04  0.7818609E-02  0.8878642E-01
        1   -1    0    0  501    0  0.00000000000E+00  0.00000000000E+00  0.22845519307E+04  0.22845519307E+04  0.50400001928E-02 0. -1.
       -1   -1    0    0    0  501  0.00000000000E+00  0.00000000000E+00 -0.24910644463E+03  0.24910644468E+03  0.50400001928E-02 0.  1.
    10030    2    1    2    0    0  0.00000000000E+00  0.00000000000E+00  0.20354454861E+04  0.25336583754E+04  0.15087698421E+04 0.  0.
        3    1    3    3  502    0  0.13357927962E+03 -0.74242713134E+03  0.10052541475E+04  0.12568123888E+04  0.10100000352E+00 0.  1.
       -3    1    3    3    0  502 -0.13357927962E+03  0.74242713134E+03  0.10301913385E+04  0.12768459866E+04  0.10100000352E+00 0. -1.
</event>
<event>
 5   0  0.1792000E-04  0.1495735E+04  0.7818609E-02  0.8887294E-01
       -3   -1    0    0    0  501  0.00000000000E+00  0.00000000000E+00  0.71775451224E+03  0.71775451934E+03  0.10100000352E+00 0.  1.
        3   -1    0    0  501    0  0.00000000000E+00  0.00000000000E+00 -0.77924380610E+03  0.77924381264E+03  0.10100000352E+00 0. -1.
    10030    2    1    2    0    0  0.00000000000E+00  0.00000000000E+00 -0.61489293862E+02  0.14969983320E+04  0.14957349607E+04 0.  0.
        3    1    3    3  502    0 -0.16841832089E+03  0.72573769128E+03 -0.95959722788E+02  0.75117787904E+03  0.10100000352E+00 0.  1.
       -3    1    3    3    0  502  0.16841832089E+03 -0.72573769128E+03  0.34470428927E+02  0.74582045295E+03  0.10100000352E+00 0. -1.
</event>
<event>
 5   0  0.2544374E-04  0.1503321E+04  0.7818609E-02  0.8882248E-01
        1   -1    0    0  501    0  0.00000000000E+00  0.00000000000E+00  0.10254226774E+04  0.10254226774E+04  0.50400001928E-02 0. -1.
       -1   -1    0    0    0  501  0.00000000000E+00  0.00000000000E+00 -0.55098570118E+03  0.55098570121E+03  0.50400001928E-02 0.  1.
    10030    2    1    2    0    0  0.00000000000E+00  0.00000000000E+00  0.47443697618E+03  0.15764083786E+04  0.15033206350E+04 0.  0.
        4    1    3    3  502    0 -0.41390433080E+03 -0.61173270271E+03  0.38349189699E+03  0.83222673748E+03  0.12699999809E+01 0. -1.
       -4    1    3    3    0  502  0.41390433080E+03  0.61173270271E+03  0.90945079187E+02  0.74418164110E+03  0.12699999809E+01 0.  1.
</event>
<event>
 5   0  0.4785496E-04  0.1500823E+04  0.7818609E-02  0.8883906E-01
       -2   -1    0    0    0  501  0.00000000000E+00  0.00000000000E+00  0.96414023248E+03  0.96414023248E+03  0.25500000920E-02 0.  1.
        2   -1    0    0  501    0  0.00000000000E+00  0.00000000000E+00 -0.58406191026E+03  0.58406191026E+03  0.25500000920E-02 0. -1.
    10030    2    1    2    0    0  0.00000000000E+00  0.00000000000E+00  0.38007832222E+03  0.15482021427E+04  0.15008232220E+04 0.  0.
        4    1    3    3  502    0  0.55140332894E+03 -0.49832147285E+03  0.29697482837E+03  0.80035341135E+03  0.12699999809E+01 0. -1.
       -4    1    3    3    0  502 -0.55140332894E+03  0.49832147285E+03  0.83103493847E+02  0.74784873140E+03  0.12699999809E+01 0.  1.
</event>
<event>
 5   0  0.2605471E-04  0.1495754E+04  0.7818609E-02  0.8887281E-01
       -1   -1    0    0    0  501  0.00000000000E+00  0.00000000000E+00  0.53488234870E+03  0.53488234873E+03  0.50400001928E-02 0.  1.
        1   -1    0    0  501    0  0.00000000000E+00  0.00000000000E+00 -0.10456881353E+04  0.10456881354E+04  0.50400001928E-02 0. -1.
    10030    2    1    2    0    0  0.00000000000E+00  0.00000000000E+00 -0.51080578664E+03  0.15805704841E+04  0.14957541588E+04 0.  0.
        3    1    3    3  502    0 -0.22104385525E+03  0.71239967064E+03 -0.31276199958E+03  0.80882244977E+03  0.10100000352E+00 0. -1.
       -3    1    3    3    0  502  0.22104385525E+03 -0.71239967064E+03 -0.19804378706E+03  0.77174803431E+03  0.10100000352E+00 0.  1.
</event>
<event>
 5   0  0.4569211E-04  0.1496540E+04  0.7818609E-02  0.8886757E-01
       -2   -1    0    0    0  501  0.00000000000E+00  0.00000000000E+00  0.64791159936E+03  0.64791159937E+03  0.25500000920E-02 0. -1.
        2   -1    0    0  501    0  0.00000000000E+00  0.00000000000E+00 -0.86417311450E+03  0.86417311451E+03  0.25500000920E-02 0.  1.
    10030    2    1    2    0    0  0.00000000000E+00  0.00000000000E+00 -0.21626151514E+03  0.15120847139E+04  0.14965397218E+04 0.  0.
        5    1    3    3  502    0 -0.60582865012E+03  0.35299409718E+03  0.15583475184E+03  0.71828945825E+03  0.46999998093E+01 0. -1.
       -5    1    3    3    0  502  0.60582865012E+03 -0.35299409718E+03 -0.37209626699E+03  0.79379525563E+03  0.46999998093E+01 0.  1.
</event>
<event>
 5   0  0.4726600E-04  0.1496151E+04  0.7818609E-02  0.8887017E-01
        2   -1    0    0  501    0  0.00000000000E+00  0.00000000000E+00  0.91134055830E+03  0.91134055830E+03  0.25500000920E-02 0. -1.
       -2   -1    0    0    0  501  0.00000000000E+00  0.00000000000E+00 -0.61405883444E+03  0.61405883444E+03  0.25500000920E-02 0.  1.
    10030    2    1    2    0    0  0.00000000000E+00  0.00000000000E+00  0.29728172386E+03  0.15253993927E+04  0.14961506890E+04 0.  0.
        2    1    3    3  502    0 -0.28617534900E+03 -0.25790570167E+03  0.80242961700E+03  0.89011514512E+03  0.25500000920E-02 0. -1.
       -2    1    3    3    0  502  0.28617534900E+03  0.25790570167E+03 -0.50514789314E+03  0.63528424762E+03  0.25500000920E-02 0.  1.
</event>
<event>
 5   0  0.4569211E-04  0.1505842E+04  0.7818609E-02  0.8880578E-01
        2   -1    0    0  501    0  0.00000000000E+00  0.00000000000E+00  0.14917459178E+04  0.14917459178E+04  0.25500000920E-02 0.  1.
       -2   -1    0    0    0  501  0.00000000000E+00  0.00000000000E+00 -0.38001757847E+03  0.38001757847E+03  0.25500000920E-02 0. -1.
    10030    2    1    2    0    0  0.00000000000E+00  0.00000000000E+00  0.11117283393E+04  0.18717634963E+04  0.15058415207E+04 0.  0.
        5    1    3    3  502    0 -0.36784789161E+03 -0.32477198304E+03  0.12656591118E+04  0.13574623345E+04  0.46999998093E+01 0.  1.
       -5    1    3    3    0  502  0.36784789161E+03  0.32477198304E+03 -0.15393077243E+03  0.51430116180E+03  0.46999998093E+01 0. -1.
</event>
<event>
 5   0  0.2565416E-04  0.1493801E+04  0.7818609E-02  0.8888586E-01
        1   -1    0    0  501    0  0.00000000000E+00  0.00000000000E+00  0.30202875009E+03  0.30202875013E+03  0.50400001928E-02 0.  1.
       -1   -1    0    0    0  501  0.00000000000E+00  0.00000000000E+00 -0.18470433357E+04  0.18470433357E+04  0.50400001928E-02 0. -1.
    10030    2    1    2    0    0  0.00000000000E+00  0.00000000000E+00 -0.15450145856E+04  0.21490720859E+04  0.14938007767E+04 0.  0.
        5    1    3    3  502    0 -0.26699091182E+03  0.60300784256E+03 -0.26808189026E+03  0.71189366838E+03  0.46999998093E+01 0.  1.
       -5    1    3    3    0  502  0.26699091182E+03 -0.60300784256E+03 -0.12769326954E+04  0.14371784175E+04  0.46999998093E+01 0. -1.
</event>
<event>
 5   0  0.2544374E-04  0.1518753E+04  0.7818609E-02  0.8872077E-01
       -1   -1    0    0    0  501  0.00000000000E+00  0.00000000000E+00  0.64652441300E+03  0.64652441302E+03  0.50400001928E-02 0.  1.
        1   -1    0    0  501    0  0.00000000000E+00  0.00000000000E+00 -0.89192724058E+03  0.89192724059E+03  0.50400001928E-02 0. -1.
    10030    2    1    2    0    0  0.00000000000E+00  0.00000000000E+00 -0.24540282757E+03  0.15384516536E+04  0.15187530881E+04 0.  0.
        4    1    3    3  502    0  0.39484917049E+03  0.64518997717E+03 -0.19046562926E+03  0.78003509082E+03  0.12699999809E+01 0. -1.
       -4    1    3    3    0  502 -0.39484917049E+03 -0.64518997717E+03 -0.54937198318E+02  0.75841656280E+03  0.12699999809E+01 0.  1.
</event>
<event>
 5   0  0.4768387E-04  0.1485419E+04  0.7818609E-02  0.8894207E-01
        2   -1    0    0  501    0  0.00000000000E+00  0.00000000000E+00  0.86591294380E+03  0.86591294381E+03  0.25500000920E-02 0.  1.
       -2   -1    0    0    0  501  0.00000000000E+00  0.00000000000E+00 -0.63703558262E+03  0.63703558262E+03  0.25500000920E-02 0. -1.
    10030    2    1    2    0    0  0.00000000000E+00  0.00000000000E+00  0.22887736118E+03  0.15029485264E+04  0.14854189398E+04 0.  0.
        3    1    3    3  502    0 -0.63235905769E+03 -0.11394766141E+02 -0.27952700607E+03  0.69147897717E+03  0.10100000352E+00 0. -1.
       -3    1    3    3    0  502  0.63235905769E+03  0.11394766141E+02  0.50840436725E+03  0.81146954926E+03  0.10100000352E+00 0.  1.
</event>
<event>
 5   0  0.2603873E-04  0.1482781E+04  0.7818609E-02  0.8895985E-01
       -1   -1    0    0    0  501  0.00000000000E+00  0.00000000000E+00  0.75541260248E+03  0.75541260249E+03  0.50400001928E-02 0.  1.
        1   -1    0    0  501    0  0.00000000000E+00  0.00000000000E+00 -0.72762846709E+03  0.72762846711E+03  0.50400001928E-02 0. -1.
    10030    2    1    2    0    0  0.00000000000E+00  0.00000000000E+00  0.27784135387E+02  0.14830410696E+04  0.14827807849E+04 0.  0.
        2    1    3    3  502    0 -0.38686659102E+02 -0.73983726569E+03  0.42249763866E+02  0.74205180402E+03  0.25500000920E-02 0.  1.
       -2    1    3    3    0  502  0.38686659102E+02  0.73983726569E+03 -0.14465628479E+02  0.74098926558E+03  0.25500000920E-02 0. -1.
</event>
<event>
 5   0  0.4785496E-04  0.1498103E+04  0.7818609E-02  0.8885715E-01
        2   -1    0    0  501    0  0.00000000000E+00  0.00000000000E+00  0.21127258104E+04  0.21127258104E+04  0.25500000920E-02 0. -1.
       -2   -1    0    0    0  501  0.00000000000E+00  0.00000000000E+00 -0.26557073138E+03  0.26557073140E+03  0.25500000920E-02 0.  1.
    10030    2    1    2    0    0  0.00000000000E+00  0.00000000000E+00  0.18471550790E+04  0.23782965418E+04  0.14981029854E+04 0.  0.
        4    1    3    3  502    0 -0.48477183553E+02 -0.67713008273E+01  0.21101824606E+04  0.21107504632E+04  0.12699999809E+01 0. -1.
       -4    1    3    3    0  502  0.48477183553E+02  0.67713008273E+01 -0.26302738157E+03  0.26754607864E+03  0.12699999809E+01 0.  1.
</event>
<event>
 5   0  0.2544374E-04  0.1398557E+04  0.7818609E-02  0.8954864E-01
       -1   -1    0    0    0  501  0.00000000000E+00  0.00000000000E+00  0.85773565532E+03  0.85773565534E+03  0.50400001928E-02 0.  1.
        1   -1    0    0  501    0  0.00000000000E+00  0.00000000000E+00 -0.57009439440E+03  0.57009439443E+03  0.50400001928E-02 0. -1.
    10030    2    1    2    0    0  0.00000000000E+00  0.00000000000E+00  0.28764126092E+03  0.14278300498E+04  0.13985568119E+04 0.  0.
        4    1    3    3  502    0  0.72697938358E+02  0.69482299587E+03  0.17486583676E+03  0.72016918817E+03  0.12699999809E+01 0. -1.
       -4    1    3    3    0  502 -0.72697938358E+02 -0.69482299587E+03  0.11277542415E+03  0.70766086159E+03  0.12699999809E+01 0.  1.
</event>
<event>
 5   0  0.2542737E-04  0.1489918E+04  0.7818609E-02  0.8891185E-01
        1   -1    0    0  501    0  0.00000000000E+00  0.00000000000E+00  0.63252292258E+03  0.63252292260E+03  0.50400001928E-02 0.  1.
       -1   -1    0    0    0  501  0.00000000000E+00  0.00000000000E+00 -0.87738120873E+03  0.87738120874E+03  0.50400001928E-02 0. -1.
    10030    2    1    2    0    0  0.00000000000E+00  0.00000000000E+00 -0.24485828615E+03  0.15099041313E+04  0.14899177513E+04 0.  0.
        1    1    3    3  502    0 -0.55129110742E+02 -0.71877876632E+03 -0.31278277580E+03  0.78582135287E+03  0.50400001928E-02 0. -1.
       -1    1    3    3    0  502  0.55129110742E+02  0.71877876632E+03  0.67924489656E+02  0.72408277847E+03  0.50400001928E-02 0.  1.
</event>
<event>
 5   0  0.2565416E-04  0.1501692E+04  0.7818609E-02  0.8883328E-01
       -1   -1    0    0    0  501  0.00000000000E+00  0.00000000000E+00  0.26091593472E+03  0.26091593477E+03  0.50400001928E-02 0. -1.
        1   -1    0    0  501    0  0.00000000000E+00  0.00000000000E+00 -0.21607343638E+04  0.21607343638E+04  0.50400001928E-02 0.  1.
    10030    2    1    2    0    0  0.00000000000E+00  0.00000000000E+00 -0.18998184290E+04  0.24216502985E+04  0.15016924136E+04 0.  0.
        5    1    3    3  502    0  0.67784017683E+03  0.20865423270E+03 -0.55245941181E+03  0.89902023661E+03  0.46999998093E+01 0. -1.
       -5    1    3    3    0  502 -0.67784017683E+03 -0.20865423270E+03 -0.13473590172E+04  0.15226300619E+04  0.46999998093E+01 0.  1.
</event>
<event>
 5   0  0.2605471E-04  0.1494600E+04  0.7818609E-02  0.8888052E-01
        1   -1    0    0  501    0  0.00000000000E+00  0.00000000000E+00  0.59878672652E+03  0.59878672654E+03  0.50400001928E-02 0.  1.
       -1   -1    0    0    0  501  0.00000000000E+00  0.00000000000E+00 -0.93264747933E+03  0.93264747935E+03  0.50400001928E-02 0. -1.
    10030    2    1    2    0    0  0.00000000000E+00  0.00000000000E+00 -0.33386075282E+03  0.15314342059E+04  0.14945995198E+04 0.  0.
        3    1    3    3  502    0  0.49651125130E+03 -0.44275406133E+03 -0.51576501737E+03  0.84176489879E+03  0.10100000352E+00 0. -1.
       -3    1    3    3    0  502 -0.49651125130E+03  0.44275406133E+03  0.18190426455E+03  0.68966930710E+03  0.10100000352E+00 0.  1.
</event>
<event>
 5   0  0.4726600E-04  0.1542791E+04  0.7818609E-02  0.8856486E-01
        2   -1    0    0  501    0  0.00000000000E+00  0.00000000000E+00  0.94655126760E+03  0.94655126760E+03  0.25500000920E-02 0. -1.
       -2   -1    0    0    0  501  0.00000000000E+00  0.00000000000E+00 -0.62865135113E+03  0.62865135114E+03  0.25500000920E-02 0.  1.
    10030    2    1    2    0    0  0.00000000000E+00  0.00000000000E+00  0.31789991647E+03  0.15752026187E+04  0.15427906317E+04 0.  0.
        2    1    3    3  502    0 -0.13184314032E+03 -0.32517509108E+03 -0.54245348513E+03  0.64604739535E+03  0.25500000920E-02 0.  1.
       -2    1    3    3    0  502  0.13184314032E+03  0.32517509108E+03  0.86035340159E+03  0.92915522339E+03  0.25500000920E-02 0. -1.
</event>
<event>
 5   0  0.2544374E-04  0.1500911E+04  0.7818609E-02  0.8883847E-01
        1   -1    0    0  501    0  0.00000000000E+00  0.00000000000E+00  0.14268901329E+04  0.14268901329E+04  0.50400001928E-02 0.  1.
       -1   -1    0    0    0  501  0.00000000000E+00  0.00000000000E+00 -0.39469292281E+03  0.39469292284E+03  0.50400001928E-02 0. -1.
    10030    2    1    2    0    0  0.00000000000E+00  0.00000000000E+00  0.10321972101E+04  0.18215830557E+04  0.15009109729E+04 0.  0.
        4    1    3    3  502    0  0.57997081916E+03  0.38113883839E+03  0.86267819985E+03  0.11071803171E+04  0.12699999809E+01 0. -1.
       -4    1    3    3    0  502 -0.57997081916E+03 -0.38113883839E+03  0.16951901021E+03  0.71440273861E+03  0.12699999809E+01 0.  1.
</event>
<event>
 5   0  0.4768387E-04  0.1491031E+04  0.7818609E-02  0.8890439E-01
       -2   -1    0    0    0  501  0.00000000000E+00  0.00000000000E+00  0.95526816809E+03  0.95526816810E+03  0.25500000920E-02 0.  1.
        2   -1    0    0  501    0  0.00000000000E+00  0.00000000000E+00 -0.58181910252E+03  0.58181910253E+03  0.25500000920E-02 0. -1.
    10030    2    1    2    0    0  0.00000000000E+00  0.00000000000E+00  0.37344906557E+03  0.15370872706E+04  0.14910308759E+04 0.  0.
        3    1    3    3  502    0 -0.21391581596E+03 -0.18782153270E+03 -0.52358440910E+03  0.59596774083E+03  0.10100000352E+00 0. -1.
       -3    1    3    3    0  502  0.21391581596E+03  0.18782153270E+03  0.89703347467E+03  0.94111952979E+03  0.10100000352E+00 0.  1.
</event>
<event>
 5   0  0.1792000E-04  0.1549178E+04  0.7818609E-02  0.8852393E-01
       -3   -1    0    0    0  501  0.00000000000E+00  0.00000000000E+00  0.16694001279E+04  0.16694001310E+04  0.10100000352E+00 0. -1.
        3   -1    0    0  501    0  0.00000000000E+00  0.00000000000E+00 -0.35940332983E+03  0.35940334402E+03  0.10100000352E+00 0.  1.
    10030    2    1    2    0    0  0.00000000000E+00  0.00000000000E+00  0.13099967981E+04  0.20288034750E+04  0.15491778236E+04 0.  0.
        5    1    3    3  502    0  0.10527237309E+03  0.49995336791E+03  0.14174176864E+04  0.15066952679E+04  0.46999998093E+01 0. -1.
       -5    1    3    3    0  502 -0.10527237309E+03 -0.49995336791E+03 -0.10742088834E+03  0.52210820705E+03  0.46999998093E+01 0.  1.
</event>
<event>
 5   0  0.4785496E-04  0.1510998E+04  0.7818609E-02  0.8877172E-01
       -2   -1    0    0    0  501  0.00000000000E+00  0.00000000000E+00  0.65648931257E+03  0.65648931257E+03  0.25500000920E-02 0.  1.
        2   -1    0    0  501    0  0.00000000000E+00  0.00000000000E+00 -0.86944129524E+03  0.86944129524E+03  0.25500000920E-02 0. -1.
    10030    2    1    2    0    0  0.00000000000E+00  0.00000000000E+00 -0.21295198267E+03  0.15259306078E+04  0.15109982372E+04 0.  0.
        4    1    3    3  502    0  0.44958126681E+03  0.47839120582E+03 -0.48406379428E+03  0.81565975204E+03  0.12699999809E+01 0.  1.
       -4    1    3    3    0  502 -0.44958126681E+03 -0.47839120582E+03  0.27111181161E+03  0.71027085577E+03  0.12699999809E+01 0. -1.
</event>
<event>
 5   0  0.2542737E-04  0.1501916E+04  0.7818609E-02  0.8883180E-01
        1   -1    0    0  501    0  0.00000000000E+00  0.00000000000E+00  0.18537121269E+04  0.18537121270E+04  0.50400001928E-02 0.  1.
       -1   -1    0    0    0  501  0.00000000000E+00  0.00000000000E+00 -0.30422074254E+03  0.30422074258E+03  0.50400001928E-02 0. -1.
    10030    2    1    2    0    0  0.00000000000E+00  0.00000000000E+00  0.15494913844E+04  0.21579328695E+04  0.15019156831E+04 0.  0.
        1    1    3    3  502    0 -0.32922076067E+03 -0.28705832770E+03  0.16524201371E+04  0.17091755622E+04  0.50400001928E-02 0.  1.
       -1    1    3    3    0  502  0.32922076067E+03  0.28705832770E+03 -0.10292875270E+03  0.44875730737E+03  0.50400001928E-02 0. -1.
</event>
<event>
 5   0  0.4569211E-04  0.1507129E+04  0.7818609E-02  0.8879726E-01
       -2   -1    0    0    0  501  0.00000000000E+00  0.00000000000E+00  0.89880801995E+03  0.89880801996E+03  0.25500000920E-02 0.  1.
        2   -1    0    0  501    0  0.00000000000E+00  0.00000000000E+00 -0.63179151502E+03  0.63179151503E+03  0.25500000920E-02 0. -1.
    10030    2    1    2    0    0  0.00000000000E+00  0.00000000000E+00  0.26701650493E+03  0.15305995350E+04  0.15071287678E+04 0.  0.
        5    1    3    3  502    0 -0.24988672353E+03  0.75005701650E+02  0.85146027425E+03  0.89054810005E+03  0.46999998093E+01 0.  1.
       -5    1    3    3    0  502  0.24988672353E+03 -0.75005701650E+02 -0.58444376932E+03  0.64005143494E+03  0.46999998093E+01 0. -1.
</event>
<event>
 5   0  0.1792000E-04  0.1488122E+04  0.7818609E-02  0.8892390E-01
       -3   -1    0    0    0  501  0.00000000000E+00  0.00000000000E+00  0.98151734302E+03  0.98151734822E+03  0.10100000352E+00 0.  1.
        3   -1    0    0  501    0  0.00000000000E+00  0.00000000000E+00 -0.56405176254E+03  0.56405177158E+03  0.10100000352E+00 0. -1.
    10030    2    1    2    0    0  0.00000000000E+00  0.00000000000E+00  0.41746558049E+03  0.15455691198E+04  0.14881217669E+04 0.  0.
        3    1    3    3  502    0  0.59928441298E+03  0.12273585694E+03  0.64866546983E+03  0.89161247196E+03  0.10100000352E+00 0.  1.
       -3    1    3    3    0  502 -0.59928441298E+03 -0.12273585694E+03 -0.23119988934E+03  0.65395664783E+03  0.10100000352E+00 0. -1.
</event>
<event>
 5   0  0.4948645E-04  0.1499739E+04  0.7818609E-02  0.8884626E-01
       -2   -1    0    0    0  501  0.00000000000E+00  0.00000000000E+00  0.36885967485E+03  0.36885967486E+03  0.25500000920E-02 0.  1.
        2   -1    0    0  501    0  0.00000000000E+00  0.00000000000E+00 -0.15244404155E+04  0.15244404155E+04  0.25500000920E-02 0. -1.
    10030    2    1    2    0    0  0.00000000000E+00  0.00000000000E+00 -0.11555807407E+04  0.18933000904E+04  0.14997394387E+04 0.  0.
        1    1    3    3  502    0 -0.56278958280E+03 -0.46029918534E+03 -0.80952992812E+03  0.10880929000E+04  0.50400001928E-02 0. -1.
       -1    1    3    3    0  502  0.56278958280E+03  0.46029918534E+03 -0.34605081258E+03  0.80520719038E+03  0.50400001928E-02 0.  1.
</event>
<event>
 5   0  0.4768387E-04  0.1484619E+04  0.7818609E-02  0.8894746E-01
        2   -1    0    0  501    0  0.00000000000E+00  0.00000000000E+00  0.50744058620E+03  0.50744058620E+03  0.25500000920E-02 0.  1.
       -2   -1    0    0    0  501  0.00000000000E+00  0.00000000000E+00 -0.10858871670E+04  0.10858871670E+04  0.25500000920E-02 0. -1.
    10030    2    1    2    0    0  0.00000000000E+00  0.00000000000E+00 -0.57844658079E+03  0.15933277532E+04  0.14846187666E+04 0.  0.
        3    1    3    3  502    0  0.51479362689E+03  0.30815916888E+03  0.17987318666E+03  0.62636165682E+03  0.10100000352E+00 0.  1.
       -3    1    3    3    0  502 -0.51479362689E+03 -0.30815916888E+03 -0.75831976745E+03  0.96696609638E+03  0.10100000352E+00 0. -1.
</event>
<event>
 5   0  0.2542737E-04  0.1505301E+04  0.7818609E-02  0.8880935E-01
       -1   -1    0    0    0  501  0.00000000000E+00  0.00000000000E+00  0.82521143356E+03  0.82521143358E+03  0.50400001928E-02 0.  1.
        1   -1    0    0  501    0  0.00000000000E+00  0.00000000000E+00 -0.68646996452E+03  0.68646996453E+03  0.50400001928E-02 0. -1.
    10030    2    1    2    0    0  0.00000000000E+00  0.00000000000E+00  0.13874146905E+03  0.15116813981E+04  0.15053011174E+04 0.  0.
        1    1    3    3  502    0  0.73851998265E+03  0.24014396536E+02 -0.74394728875E+02  0.74264596661E+03  0.50400001928E-02 0.  1.
       -1    1    3    3    0  502 -0.73851998265E+03 -0.24014396536E+02  0.21313619792E+03  0.76903543150E+03  0.50400001928E-02 0. -1.
</event>
<event>
 5   0  0.1792000E-04  0.1481598E+04  0.7818609E-02  0.8896783E-01
       -4   -1    0    0    0  501  0.00000000000E+00  0.00000000000E+00  0.50317673099E+03  0.50317833370E+03  0.12699999809E+01 0.  1.
        4   -1    0    0  501    0  0.00000000000E+00  0.00000000000E+00 -0.10906336936E+04  0.10906344330E+04  0.12699999809E+01 0. -1.
    10030    2    1    2    0    0  0.00000000000E+00  0.00000000000E+00 -0.58745696259E+03  0.15938127667E+04  0.14815982763E+04 0.  0.
        5    1    3    3  502    0 -0.23752236881E+03  0.45348666238E+03 -0.86972031267E+03  0.10092088688E+04  0.46999998093E+01 0. -1.
       -5    1    3    3    0  502  0.23752236881E+03 -0.45348666238E+03  0.28226335007E+03  0.58460389789E+03  0.46999998093E+01 0.  1.
</event>
<event>
 5   0  0.4948645E-04  0.1505070E+04  0.7818609E-02  0.8881088E-01
       -2   -1    0    0    0  501  0.00000000000E+00  0.00000000000E+00  0.38836360174E+03  0.38836360175E+03  0.25500000920E-02 0.  1.
        2   -1    0    0  501    0  0.00000000000E+00  0.00000000000E+00 -0.14581927869E+04  0.14581927870E+04  0.25500000920E-02 0. -1.
    10030    2    1    2    0    0  0.00000000000E+00  0.00000000000E+00 -0.10698291852E+04  0.18465563887E+04  0.15050701017E+04 0.  0.
        1    1    3    3  502    0 -0.52319083432E+03 -0.48071158924E+03 -0.83916546195E+03  0.10995503416E+04  0.50400001928E-02 0. -1.
       -1    1    3    3    0  502  0.52319083432E+03  0.48071158924E+03 -0.23066372326E+03  0.74700604710E+03  0.50400001928E-02 0.  1.
</event>
<event>
 5   0  0.4768387E-04  0.1514552E+04  0.7818609E-02  0.8874833E-01
       -2   -1    0    0    0  501  0.00000000000E+00  0.00000000000E+00  0.30539737269E+03  0.30539737271E+03  0.25500000920E-02 0. -1.
        2   -1    0    0  501    0  0.00000000000E+00  0.00000000000E+00 -0.18777732788E+04  0.18777732788E+04  0.25500000920E-02 0.  1.
    10030    2    1    2    0    0  0.00000000000E+00  0.00000000000E+00 -0.15723759061E+04  0.21831706516E+04  0.15145521132E+04 0.  0.
        3    1    3    3  502    0 -0.45042632957E+03 -0.60875086235E+03 -0.78279977843E+03  0.10891450749E+04  0.10100000352E+00 0.  1.
       -3    1    3    3    0  502  0.45042632957E+03  0.60875086235E+03 -0.78957612772E+03  0.10940255767E+04  0.10100000352E+00 0. -1.
</event>
<event>
 5   0  0.2565416E-04  0.1501169E+04  0.7818609E-02  0.8883676E-01
       -1   -1    0    0    0  501  0.00000000000E+00  0.00000000000E+00  0.41997269293E+03  0.41997269296E+03  0.50400001928E-02 0.  1.
        1   -1    0    0  501    0  0.00000000000E+00  0.00000000000E+00 -0.13414617618E+04  0.13414617618E+04  0.50400001928E-02 0. -1.
    10030    2    1    2    0    0  0.00000000000E+00  0.00000000000E+00 -0.92148906886E+03  0.17614344548E+04  0.15011692891E+04 0.  0.
        5    1    3    3  502    0 -0.36882805783E+03  0.41178547043E+03 -0.10564606676E+04  0.11923643076E+04  0.46999998093E+01 0. -1.
       -5    1    3    3    0  502  0.36882805783E+03 -0.41178547043E+03  0.13497159875E+03  0.56907014714E+03  0.46999998093E+01 0.  1.
</event>
<event>
 5   0  0.4768387E-04  0.1507500E+04  0.7818609E-02  0.8879481E-01
       -2   -1    0    0    0  501  0.00000000000E+00  0.00000000000E+00  0.14755421305E+04  0.14755421305E+04  0.25500000920E-02 0. -1.
        2   -1    0    0  501    0  0.00000000000E+00  0.00000000000E+00 -0.38503750815E+03  0.38503750816E+03  0.25500000920E-02 0.  1.
    10030    2    1    2    0    0  0.00000000000E+00  0.00000000000E+00  0.10905046224E+04  0.18605796387E+04  0.15075000035E+04 0.  0.
        3    1    3    3  502    0 -0.12245780385E+03 -0.52683183587E+03  0.11931758224E+04  0.13100443696E+04  0.10100000352E+00 0. -1.
       -3    1    3    3    0  502  0.12245780385E+03  0.52683183587E+03 -0.10267119999E+03  0.55053526909E+03  0.10100000352E+00 0.  1.
</event>
<event>
 5   0  0.2603873E-04  0.1501302E+04  0.7818609E-02  0.8883587E-01
        1   -1    0    0  501    0  0.00000000000E+00  0.00000000000E+00  0.78779512469E+03  0.78779512471E+03  0.50400001928E-02 0.  1.
       -1   -1    0    0    0  501  0.00000000000E+00  0.00000000000E+00 -0.71525836072E+03  0.71525836074E+03  0.50400001928E-02 0. -1.
    10030    2    1    2    0    0  0.00000000000E+00  0.00000000000E+00  0.72536763968E+02  0.15030534854E+04  0.15013021675E+04 0.  0.
        2    1    3    3  502    0 -0.59674697171E+03  0.66147082278E+02 -0.41480649074E+03  0.72975804860E+03  0.25500000920E-02 0. -1.
       -2    1    3    3    0  502  0.59674697171E+03 -0.66147082278E+02  0.48734325471E+03  0.77329543685E+03  0.25500000920E-02 0.  1.
</event>
<event>
 5   0  0.2544374E-04  0.1498128E+04  0.7818609E-02  0.8885699E-01
        1   -1    0    0  501    0  0.00000000000E+00  0.00000000000E+00  0.32636221189E+04  0.32636221189E+04  0.50400001928E-02 0. -1.
       -1   -1    0    0    0  501  0.00000000000E+00  0.00000000000E+00 -0.17192447555E+03  0.17192447563E+03  0.50400001928E-02 0.  1.
    10030    2    1    2    0    0  0.00000000000E+00  0.00000000000E+00  0.30916976434E+04  0.34355465946E+04  0.14981275264E+04 0.  0.
        4    1    3    3  502    0  0.89154246306E+02 -0.66433131987E+03  0.77903838256E+03  0.10277095877E+04  0.12699999809E+01 0.  1.
       -4    1    3    3    0  502 -0.89154246306E+02  0.66433131987E+03  0.23126592608E+04  0.24078370069E+04  0.12699999809E+01 0. -1.
</event>
<event>
 5   0  0.4768387E-04  0.1474993E+04  0.7818609E-02  0.8901255E-01
       -2   -1    0    0    0  501  0.00000000000E+00  0.00000000000E+00  0.49734288141E+03  0.49734288142E+03  0.25500000920E-02 0.  1.
        2   -1    0    0  501    0  0.00000000000E+00  0.00000000000E+00 -0.10936132124E+04  0.10936132124E+04  0.25500000920E-02 0. -1.
    10030    2    1    2    0    0  0.00000000000E+00  0.00000000000E+00 -0.59627033099E+03  0.15909560938E+04  0.14749925372E+04 0.  0.
        3    1    3    3  502    0  0.71973613300E+03  0.69552416981E+02 -0.14166800857E+03  0.73683612473E+03  0.10100000352E+00 0.  1.
       -3    1    3    3    0  502 -0.71973613300E+03 -0.69552416981E+02 -0.45460232242E+03  0.85411996909E+03  0.10100000352E+00 0. -1.
</event>
<event>
 5   0  0.2605471E-04  0.1500532E+04  0.7818609E-02  0.8884099E-01
       -1   -1    0    0    0  501  0.00000000000E+00  0.00000000000E+00  0.60387855845E+03  0.60387855847E+03  0.50400001928E-02 0. -1.
        1   -1    0    0  501    0  0.00000000000E+00  0.00000000000E+00 -0.93213999742E+03  0.93213999743E+03  0.50400001928E-02 0.  1.
    10030    2    1    2    0    0  0.00000000000E+00  0.00000000000E+00 -0.32826143896E+03  0.15360185559E+04  0.15005323828E+04 0.  0.
        3    1    3    3  502    0 -0.20755438363E+03  0.27708330068E+03  0.51722701645E+03  0.62239679821E+03  0.10100000352E+00 0. -1.
       -3    1    3    3    0  502  0.20755438363E+03 -0.27708330068E+03 -0.84548845541E+03  0.91362175769E+03  0.10100000352E+00 0.  1.
</event>
<event>
 5   0  0.2542737E-04  0.1500779E+04  0.7818609E-02  0.8883935E-01
       -1   -1    0    0    0  501  0.00000000000E+00  0.00000000000E+00  0.52634246484E+03  0.52634246486E+03  0.50400001928E-02 0.  1.
        1   -1    0    0  501    0  0.00000000000E+00  0.00000000000E+00 -0.10698058465E+04  0.10698058465E+04  0.50400001928E-02 0. -1.
    10030    2    1    2    0    0  0.00000000000E+00  0.00000000000E+00 -0.54346338161E+03  0.15961483113E+04  0.15007787927E+04 0.  0.
        1    1    3    3  502    0 -0.49127372335E+02 -0.18368090626E+01  0.52462787438E+03  0.52692625593E+03  0.50400001928E-02 0.  1.
       -1    1    3    3    0  502  0.49127372335E+02  0.18368090626E+01 -0.10680912560E+04  0.10692220554E+04  0.50400001928E-02 0. -1.
</event>
<event>
 5   0  0.2544374E-04  0.1515451E+04  0.7818609E-02  0.8874243E-01
        1   -1    0    0  501    0  0.00000000000E+00  0.00000000000E+00  0.12226384200E+04  0.12226384200E+04  0.50400001928E-02 0.  1.
       -1   -1    0    0    0  501  0.00000000000E+00  0.00000000000E+00 -0.46959768437E+03  0.46959768440E+03  0.50400001928E-02 0. -1.
    10030    2    1    2    0    0  0.00000000000E+00  0.00000000000E+00  0.75304073564E+03  0.16922361044E+04  0.15154513135E+04 0.  0.
        4    1    3    3  502    0  0.52094965907E+03  0.35413695556E+03  0.84677001249E+03  0.10553779406E+04  0.12699999809E+01 0.  1.
       -4    1    3    3    0  502 -0.52094965907E+03 -0.35413695556E+03 -0.93729276848E+02  0.63685816381E+03  0.12699999809E+01 0. -1.
</event>
<event>
 5   0  0.4726600E-04  0.1499026E+04  0.7818609E-02  0.8885101E-01
       -2   -1    0    0    0  501  0.00000000000E+00  0.00000000000E+00  0.35610437085E+03  0.35610437086E+03  0.25500000920E-02 0.  1.
        2   -1    0    0  501    0  0.00000000000E+00  0.00000000000E+00 -0.15775419732E+04  0.15775419732E+04  0.25500000920E-02 0. -1.
    10030    2    1    2    0    0  0.00000000000E+00  0.00000000000E+00 -0.12214376023E+04  0.19336463441E+04  0.14990258061E+04 0.  0.
        2    1    3    3  502    0  0.27474972273E+03  0.51993385206E+03 -0.11279079816E+02  0.58817160617E+03  0.25500000920E-02 0.  1.
       -2    1    3    3    0  502 -0.27474972273E+03 -0.51993385206E+03 -0.12101585225E+04  0.13454747379E+04  0.25500000920E-02 0. -1.
</event>
<event>
 5   0  0.4726600E-04  0.1506051E+04  0.7818609E-02  0.8880439E-01
       -2   -1    0    0    0  501  0.00000000000E+00  0.00000000000E+00  0.69702142542E+03  0.69702142543E+03  0.25500000920E-02 0.  1.
        2   -1    0    0  501    0  0.00000000000E+00  0.00000000000E+00 -0.81352930237E+03  0.81352930238E+03  0.25500000920E-02 0. -1.
    10030    2    1    2    0    0  0.00000000000E+00  0.00000000000E+00 -0.11650787695E+03  0.15105507278E+04  0.15060509340E+04 0.  0.
        2    1    3    3  502    0  0.60619036514E+03 -0.14756200173E+03 -0.48118435760E+03  0.78789573495E+03  0.25500000920E-02 0. -1.
       -2    1    3    3    0  502 -0.60619036514E+03  0.14756200173E+03  0.36467648065E+03  0.72265499285E+03  0.25500000920E-02 0.  1.
</event>
<event>
 5   0  0.4726600E-04  0.1507550E+04  0.7818609E-02  0.8879448E-01
       -2   -1    0    0    0  501  0.00000000000E+00  0.00000000000E+00  0.12597649580E+04  0.12597649580E+04  0.25500000920E-02 0.  1.
        2   -1    0    0  501    0  0.00000000000E+00  0.00000000000E+00 -0.45101791643E+03  0.45101791643E+03  0.25500000920E-02 0. -1.
    10030    2    1    2    0    0  0.00000000000E+00  0.00000000000E+00  0.80874704157E+03  0.17107828744E+04  0.15075497558E+04 0.  0.
        2    1    3    3  502    0 -0.14201831504E+03 -0.46256938668E+03  0.10602476181E+04  0.11654461167E+04  0.25500000920E-02 0.  1.
       -2    1    3    3    0  502  0.14201831504E+03  0.46256938668E+03 -0.25150057653E+03  0.54533675770E+03  0.25500000920E-02 0. -1.
</event>
<event>
 5   0  0.2603873E-04  0.1497033E+04  0.7818609E-02  0.8886428E-01
       -1   -1    0    0    0  501  0.00000000000E+00  0.00000000000E+00  0.71562381201E+03  0.71562381203E+03  0.50400001928E-02 0.  1.
        1   -1    0    0  501    0  0.00000000000E+00  0.00000000000E+00 -0.78292136204E+03  0.78292136206E+03  0.50400001928E-02 0. -1.
    10030    2    1    2    0    0  0.00000000000E+00  0.00000000000E+00 -0.67297550027E+02  0.14985451741E+04  0.14970332924E+04 0.  0.
        2    1    3    3  502    0  0.44412160580E+03 -0.33754426589E+03  0.46595149216E+03  0.72683624375E+03  0.25500000920E-02 0.  1.
       -2    1    3    3    0  502 -0.44412160580E+03  0.33754426589E+03 -0.53324904219E+03  0.77170893034E+03  0.25500000920E-02 0. -1.
</event>
<event>
 5   0  0.2544374E-04  0.1499298E+04  0.7818609E-02  0.8884920E-01
        1   -1    0    0  501    0  0.00000000000E+00  0.00000000000E+00  0.95532364309E+03  0.95532364311E+03  0.50400001928E-02 0. -1.
       -1   -1    0    0    0  501  0.00000000000E+00  0.00000000000E+00 -0.58825437909E+03  0.58825437911E+03  0.50400001928E-02 0.  1.
    10030    2    1    2    0    0  0.00000000000E+00  0.00000000000E+00  0.36706926401E+03  0.15435780222E+04  0.14992975909E+04 0.  0.
        4    1    3    3  502    0 -0.72268555444E+02  0.59564616710E+03 -0.27913140616E+03  0.66176510583E+03  0.12699999809E+01 0.  1.
       -4    1    3    3    0  502  0.72268555444E+02 -0.59564616710E+03  0.64620067016E+03  0.88181291639E+03  0.12699999809E+01 0. -1.
</event>
<event>
 5   0  0.2605471E-04  0.1491495E+04  0.7818609E-02  0.8890129E-01
       -1   -1    0    0    0  501  0.00000000000E+00  0.00000000000E+00  0.84982810740E+03  0.84982810742E+03  0.50400001928E-02 0.  1.
        1   -1    0    0  501    0  0.00000000000E+00  0.00000000000E+00 -0.65441356424E+03  0.65441356426E+03  0.50400001928E-02 0. -1.
    10030    2    1    2    0    0  0.00000000000E+00  0.00000000000E+00  0.19541454316E+03  0.15042416717E+04  0.14914946071E+04 0.  0.
        3    1    3    3  502    0 -0.10611144638E+03  0.72579249929E+03 -0.37996172254E+02  0.73449173609E+03  0.10100000352E+00 0.  1.
       -3    1    3    3    0  502  0.10611144638E+03 -0.72579249929E+03  0.23341071541E+03  0.76974993559E+03  0.10100000352E+00 0. -1.
</event>
<event>
 5   0  0.4569211E-04  0.1494351E+04  0.7818609E-02  0.8888218E-01
       -2   -1    0    0    0  501  0.00000000000E+00  0.00000000000E+00  0.56387449498E+03  0.56387449499E+03  0.25500000920E-02 0. -1.
        2   -1    0    0  501    0  0.00000000000E+00  0.00000000000E+00 -0.99006292850E+03  0.99006292851E+03  0.25500000920E-02 0.  1.
    10030    2    1    2    0    0  0.00000000000E+00  0.00000000000E+00 -0.42618843352E+03  0.15539374235E+04  0.14943510081E+04 0.  0.
        5    1    3    3  502    0  0.47920378479E+03 -0.32643744303E+03 -0.70310736522E+03  0.91136146978E+03  0.46999998093E+01 0.  1.
       -5    1    3    3    0  502 -0.47920378479E+03  0.32643744303E+03  0.27691893170E+03  0.64257595372E+03  0.46999998093E+01 0. -1.
</event>
<event>
 5   0  0.2544374E-04  0.1493668E+04  0.7818609E-02  0.8888675E-01
       -1   -1    0    0    0  501  0.00000000000E+00  0.00000000000E+00  0.70001617421E+03  0.70001617423E+03  0.50400001928E-02 0.  1.
        1   -1    0    0  501    0  0.00000000000E+00  0.00000000000E+00 -0.79678296001E+03  0.79678296002E+03  0.50400001928E-02 0. -1.
    10030    2    1    2    0    0  0.00000000000E+00  0.00000000000E+00 -0.96766785797E+02  0.14967991343E+04  0.14936679141E+04 0.  0.
        4    1    3    3  502    0 -0.71384748899E+03  0.12797167063E+03 -0.22709501831E+03  0.75995312109E+03  0.12699999809E+01 0.  1.
       -4    1    3    3    0  502  0.71384748899E+03 -0.12797167063E+03  0.13032823251E+03  0.73684601316E+03  0.12699999809E+01 0. -1.
</event>
<event>
 5   0  0.4569211E-04  0.1500734E+04  0.7818609E-02  0.8883965E-01
        2   -1    0    0  501    0  0.00000000000E+00  0.00000000000E+00  0.11104814144E+04  0.11104814144E+04  0.25500000920E-02 0.  1.
       -2   -1    0    0    0  501  0.00000000000E+00  0.00000000000E+00 -0.50703314359E+03  0.50703314359E+03  0.25500000920E-02 0. -1.
    10030    2    1    2    0    0  0.00000000000E+00  0.00000000000E+00  0.60344827084E+03  0.16175145580E+04  0.15007343302E+04 0.  0.
        5    1    3    3  502    0  0.28301561338E+03  0.49630832581E+03  0.82600017666E+03  0.10043496271E+04  0.46999998093E+01 0. -1.
       -5    1    3    3    0  502 -0.28301561338E+03 -0.49630832581E+03 -0.22255190582E+03  0.61316493089E+03  0.46999998093E+01 0.  1.
</event>
<event>
 5   0  0.2544374E-04  0.1502686E+04  0.7818609E-02  0.8882669E-01
       -1   -1    0    0    0  501  0.00000000000E+00  0.00000000000E+00  0.61309621574E+03  0.61309621576E+03  0.50400001928E-02 0.  1.
        1   -1    0    0  501    0  0.00000000000E+00  0.00000000000E+00 -0.92076280181E+03  0.92076280182E+03  0.50400001928E-02 0. -1.
    10030    2    1    2    0    0  0.00000000000E+00  0.00000000000E+00 -0.30766658607E+03  0.15338590176E+04  0.15026858480E+04 0.  0.
        4    1    3    3  502    0 -0.28031010655E+03 -0.38181390656E+03  0.44149730717E+03  0.64751610036E+03  0.12699999809E+01 0.  1.
       -4    1    3    3    0  502  0.28031010655E+03  0.38181390656E+03 -0.74916389324E+03  0.88634291723E+03  0.12699999809E+01 0. -1.
</event>
<event>
 5   0  0.2565416E-04  0.1505881E+04  0.7818609E-02  0.8880551E-01
       -1   -1    0    0    0  501  0.00000000000E+00  0.00000000000E+00  0.48343927832E+03  0.48343927834E+03  0.50400001928E-02 0. -1.
        1   -1    0    0  501    0  0.00000000000E+00  0.00000000000E+00 -0.11726802525E+04  0.11726802525E+04  0.50400001928E-02 0.  1.
    10030    2    1    2    0    0  0.00000000000E+00  0.00000000000E+00 -0.68924097415E+03  0.16561195308E+04  0.15058813964E+04 0.  0.
        5    1    3    3  502    0 -0.67473780426E+03 -0.25765398215E+02  0.21723704806E+02  0.67559527056E+03  0.46999998093E+01 0. -1.
       -5    1    3    3    0  502  0.67473780426E+03  0.25765398215E+02 -0.71096467896E+03  0.98052426027E+03  0.46999998093E+01 0.  1.
</event>
<event>
 5   0  0.2605471E-04  0.1493942E+04  0.7818609E-02  0.8888492E-01
       -1   -1    0    0    0  501  0.00000000000E+00  0.00000000000E+00  0.31951521355E+03  0.31951521359E+03  0.50400001928E-02 0.  1.
        1   -1    0    0  501    0  0.00000000000E+00  0.00000000000E+00 -0.17462880458E+04  0.17462880458E+04  0.50400001928E-02 0. -1.
    10030    2    1    2    0    0  0.00000000000E+00  0.00000000000E+00 -0.14267728322E+04  0.20658032594E+04  0.14939418970E+04 0.  0.
        3    1    3    3  502    0  0.62323333283E+03  0.36497212118E+03 -0.44978084024E+03  0.85083914510E+03  0.10100000352E+00 0. -1.
       -3    1    3    3    0  502 -0.62323333283E+03 -0.36497212118E+03 -0.97699199200E+03  0.12149641143E+04  0.10100000352E+00 0.  1.
</event>
<event>
 5   0  0.2542737E-04  0.1528248E+04  0.7818609E-02  0.8865883E-01
       -1   -1    0    0    0  501  0.00000000000E+00  0.00000000000E+00  0.90035279636E+03  0.90035279638E+03  0.50400001928E-02 0. -1.
        1   -1    0    0  501    0  0.00000000000E+00  0.00000000000E+00 -0.64850739481E+03  0.64850739483E+03  0.50400001928E-02 0.  1.
    10030    2    1    2    0    0  0.00000000000E+00  0.00000000000E+00  0.25184540155E+03  0.15488601912E+04  0.15282479464E+04 0.  0.
        1    1    3    3  502    0  0.12326396813E+03 -0.69324859820E+03  0.42673873519E+03  0.82334292545E+03  0.50400001928E-02 0. -1.
       -1    1    3    3    0  502 -0.12326396813E+03  0.69324859820E+03 -0.17489333363E+03  0.72551726576E+03  0.50400001928E-02 0.  1.
</event>
<event>
 5   0  0.4785496E-04  0.1502534E+04  0.7818609E-02  0.8882770E-01
        2   -1    0    0  501    0  0.00000000000E+00  0.00000000000E+00  0.23877399523E+04  0.23877399523E+04  0.25500000920E-02 0.  1.
       -2   -1    0    0    0  501  0.00000000000E+00  0.00000000000E+00 -0.23637489064E+03  0.23637489065E+03  0.25500000920E-02 0. -1.
    10030    2    1    2    0    0  0.00000000000E+00  0.00000000000E+00  0.21513650617E+04  0.26241148430E+04  0.15025335539E+04 0.  0.
        4    1    3    3  502    0 -0.72883805000E+03 -0.14558530648E+02  0.75850257624E+03  0.10520193083E+04  0.12699999809E+01 0.  1.
       -4    1    3    3    0  502  0.72883805000E+03  0.14558530648E+02  0.13928624854E+04  0.15720955347E+04  0.12699999809E+01 0. -1.
</event>
<event>
 5   0  0.4726600E-04  0.1494658E+04  0.7818609E-02  0.8888013E-01
       -2   -1    0    0    0  501  0.00000000000E+00  0.00000000000E+00  0.10080605717E+04  0.10080605717E+04  0.25500000920E-02 0.  1.
        2   -1    0    0  501    0  0.00000000000E+00  0.00000000000E+00 -0.55403513488E+03  0.55403513489E+03  0.25500000920E-02 0. -1.
    10030    2    1    2    0    0  0.00000000000E+00  0.00000000000E+00  0.45402543684E+03  0.15620957066E+04  0.14946584557E+04 0.  0.
        2    1    3    3  502    0 -0.28858361803E+03  0.60536293013E+03 -0.11764870225E+03  0.68087149956E+03  0.25500000920E-02 0. -1.
       -2    1    3    3    0  502  0.28858361803E+03 -0.60536293013E+03  0.57167413909E+03  0.88122420705E+03  0.25500000920E-02 0.  1.
</event>
<event>
 5   0  0.2605471E-04  0.1503395E+04  0.7818609E-02  0.8882198E-01
        1   -1    0    0  501    0  0.00000000000E+00  0.00000000000E+00  0.73113447538E+03  0.73113447540E+03  0.50400001928E-02 0.  1.
       -1   -1    0    0    0  501  0.00000000000E+00  0.00000000000E+00 -0.77283874972E+03  0.77283874974E+03  0.50400001928E-02 0. -1.
    10030    2    1    2    0    0  0.00000000000E+00  0.00000000000E+00 -0.41704274342E+02  0.15039732251E+04  0.15033948967E+04 0.  0.
        3    1    3    3  502    0  0.13591103088E+03  0.61473045249E+01 -0.76041958795E+03  0.77249437384E+03  0.10100000352E+00 0. -1.
       -3    1    3    3    0  502 -0.13591103088E+03 -0.61473045249E+01  0.71871531361E+03  0.73147885129E+03  0.10100000352E+00 0.  1.
</event>
<event>
 5   0  0.4768387E-04  0.1499367E+04  0.7818609E-02  0.8884874E-01
       -2   -1    0    0    0  501  0.00000000000E+00  0.00000000000E+00  0.10188995578E+04  0.10188995578E+04  0.25500000920E-02 0.  1.
        2   -1    0    0  501    0  0.00000000000E+00  0.00000000000E+00 -0.55160059674E+03  0.55160059674E+03  0.25500000920E-02 0. -1.
    10030    2    1    2    0    0  0.00000000000E+00  0.00000000000E+00  0.46729896108E+03  0.15705001546E+04  0.14993673387E+04 0.  0.
        3    1    3    3  502    0  0.12742895873E+03  0.29013215977E+03 -0.47800290653E+03  0.57349943201E+03  0.10100000352E+00 0. -1.
       -3    1    3    3    0  502 -0.12742895873E+03 -0.29013215977E+03  0.94530186761E+03  0.99700072255E+03  0.10100000352E+00 0.  1.
</event>
<event>
 5   0  0.2542737E-04  0.1455296E+04  0.7818609E-02  0.8914737E-01
        1   -1    0    0  501    0  0.00000000000E+00  0.00000000000E+00  0.51642037243E+03  0.51642037246E+03  0.50400001928E-02 0. -1.
       -1   -1    0    0    0  501  0.00000000000E+00  0.00000000000E+00 -0.10252730119E+04  0.10252730119E+04  0.50400001928E-02 0.  1.
    10030    2    1    2    0    0  0.00000000000E+00  0.00000000000E+00 -0.50885263943E+03  0.15416933843E+04  0.14552963556E+04 0.  0.
        1    1    3    3  502    0  0.16091329923E+03 -0.53941974171E+03  0.23403865664E+03  0.60962352353E+03  0.50400001928E-02 0. -1.
       -1    1    3    3    0  502 -0.16091329923E+03  0.53941974171E+03 -0.74289129607E+03  0.93206986080E+03  0.50400001928E-02 0.  1.
</event>
<event>
 5   0  0.2544374E-04  0.1489186E+04  0.7818609E-02  0.8891676E-01
        1   -1    0    0  501    0  0.00000000000E+00  0.00000000000E+00  0.68481642656E+03  0.68481642658E+03  0.50400001928E-02 0.  1.
       -1   -1    0    0    0  501  0.00000000000E+00  0.00000000000E+00 -0.80958778975E+03  0.80958778977E+03  0.50400001928E-02 0. -1.
    10030    2    1    2    0    0  0.00000000000E+00  0.00000000000E+00 -0.12477136319E+03  0.14944042163E+04  0.14891863781E+04 0.  0.
        4    1    3    3  502    0 -0.31344665579E+03  0.48691241052E+02  0.61361977853E+03  0.69076080410E+03  0.12699999809E+01 0.  1.
       -4    1    3    3    0  502  0.31344665579E+03 -0.48691241052E+02 -0.73839114172E+03  0.80364341225E+03  0.12699999809E+01 0. -1.
</event>
<event>
 5   0  0.2565416E-04  0.1507870E+04  0.7818609E-02  0.8879236E-01
       -1   -1    0    0    0  501  0.00000000000E+00  0.00000000000E+00  0.70047458347E+03  0.70047458348E+03  0.50400001928E-02 0. -1.
        1   -1    0    0  501    0  0.00000000000E+00  0.00000000000E+00 -0.81147576285E+03  0.81147576287E+03  0.50400001928E-02 0.  1.
    10030    2    1    2    0    0  0.00000000000E+00  0.00000000000E+00 -0.11100117939E+03  0.15119503464E+04  0.15078702159E+04 0.  0.
        5    1    3    3  502    0 -0.22108915584E+03 -0.12865946127E+03  0.65561683329E+03  0.70376785511E+03  0.46999998093E+01 0. -1.
       -5    1    3    3    0  502  0.22108915584E+03  0.12865946127E+03 -0.76661801267E+03  0.80818249124E+03  0.46999998093E+01 0.  1.
</event>
<event>
 5   0  0.4768387E-04  0.1492762E+04  0.7818609E-02  0.8889280E-01
        2   -1    0    0  501    0  0.00000000000E+00  0.00000000000E+00  0.10253531430E+04  0.10253531430E+04  0.25500000920E-02 0. -1.
       -2   -1    0    0    0  501  0.00000000000E+00  0.00000000000E+00 -0.54331029255E+03  0.54331029256E+03  0.25500000920E-02 0.  1.
    10030    2    1    2    0    0  0.00000000000E+00  0.00000000000E+00  0.48204285043E+03  0.15686634355E+04  0.14927624273E+04 0.  0.
        3    1    3    3  502    0 -0.59576985571E+03  0.13430378847E+03  0.69191356943E+03  0.92288873995E+03  0.10100000352E+00 0. -1.
       -3    1    3    3    0  502  0.59576985571E+03 -0.13430378847E+03 -0.20987071900E+03  0.64577469559E+03  0.10100000352E+00 0.  1.
</event>
<event>
 5   0  0.2542737E-04  0.1505671E+04  0.7818609E-02  0.8880690E-01
       -1   -1    0    0    0  501  0.00000000000E+00  0.00000000000E+00  0.33634908115E+03  0.33634908119E+03  0.50400001928E-02 0. -1.
        1   -1    0    0  501    0  0.00000000000E+00  0.00000000000E+00 -0.16850391796E+04  0.16850391796E+04  0.50400001928E-02 0.  1.
    10030    2    1    2    0    0  0.00000000000E+00  0.00000000000E+00 -0.13486900984E+04  0.20213882608E+04  0.15056711192E+04 0.  0.
        1    1    3    3  502    0  0.51394295085E+03  0.53251258933E+03 -0.85966273244E+03  0.11343399085E+04  0.50400001928E-02 0. -1.
       -1    1    3    3    0  502 -0.51394295085E+03 -0.53251258933E+03 -0.48902736600E+03  0.88704835225E+03  0.50400001928E-02 0.  1.
</event>
<event>
 5   0  0.4948645E-04  0.1506964E+04  0.7818609E-02  0.8879835E-01
       -2   -1    0    0    0  501  0.00000000000E+00  0.00000000000E+00  0.40942186309E+03  0.40942186310E+03  0.25500000920E-02 0.  1.
        2   -1    0    0  501    0  0.00000000000E+00  0.00000000000E+00 -0.13866754819E+04  0.13866754819E+04  0.25500000920E-02 0. -1.
    10030    2    1    2    0    0  0.00000000000E+00  0.00000000000E+00 -0.97725361877E+03  0.17960973450E+04  0.15069641791E+04 0.  0.
        1    1    3    3  502    0  0.27284354282E+03 -0.69816792626E+03 -0.39744170713E+03  0.84843500794E+03  0.50400001928E-02 0. -1.
       -1    1    3    3    0  502 -0.27284354282E+03  0.69816792626E+03 -0.57981191164E+03  0.94766233703E+03  0.50400001928E-02 0.  1.
</event>
<event>
 5   0  0.2544374E-04  0.1508520E+04  0.7818609E-02  0.8878807E-01
       -1   -1    0    0    0  501  0.00000000000E+00  0.00000000000E+00  0.46113139900E+03  0.46113139903E+03  0.50400001928E-02 0. -1.
        1   -1    0    0  501    0  0.00000000000E+00  0.00000000000E+00 -0.12337224091E+04  0.12337224092E+04  0.50400001928E-02 0.  1.
    10030    2    1    2    0    0  0.00000000000E+00  0.00000000000E+00 -0.77259101014E+03  0.16948538082E+04  0.15085199906E+04 0.  0.
        4    1    3    3  502    0  0.42702453472E+03 -0.36520972298E+03 -0.95161573540E+03  0.11051254299E+04  0.12699999809E+01 0.  1.
       -4    1    3    3    0  502 -0.42702453472E+03  0.36520972298E+03  0.17902472526E+03  0.58972837830E+03  0.12699999809E+01 0. -1.
</event>
<event>
 5   0  0.2565416E-04  0.1537042E+04  0.7818609E-02  0.8860188E-01
        1   -1    0    0  501    0  0.00000000000E+00  0.00000000000E+00  0.18446774443E+04  0.18446774444E+04  0.50400001928E-02 0.  1.
       -1   -1    0    0    0  501  0.00000000000E+00  0.00000000000E+00 -0.32017747437E+03  0.32017747441E+03  0.50400001928E-02 0. -1.
    10030    2    1    2    0    0  0.00000000000E+00  0.00000000000E+00  0.15244999700E+04  0.21648549188E+04  0.15370415287E+04 0.  0.
        5    1    3    3  502    0  0.54567796177E+03 -0.25004039368E+03  0.86312383652E+02  0.60642934791E+03  0.46999998093E+01 0. -1.
       -5    1    3    3    0  502 -0.54567796177E+03  0.25004039368E+03  0.14381875863E+04  0.15584255709E+04  0.46999998093E+01 0.  1.
</event>
<event>
 5   0  0.2603873E-04  0.1497567E+04  0.7818609E-02  0.8886072E-01
        1   -1    0    0  501    0  0.00000000000E+00  0.00000000000E+00  0.12353416926E+04  0.12353416927E+04  0.50400001928E-02 0.  1.
       -1   -1    0    0    0  501  0.00000000000E+00  0.00000000000E+00 -0.45386395483E+03  0.45386395486E+03  0.50400001928E-02 0. -1.
    10030    2    1    2    0    0  0.00000000000E+00  0.00000000000E+00  0.78147773781E+03  0.16892056475E+04  0.14975674492E+04 0.  0.
        2    1    3    3  502    0  0.66824341864E+03  0.77607413855E+02  0.76160638921E+03  0.10161773808E+04  0.25500000920E-02 0. -1.
       -2    1    3    3    0  502 -0.66824341864E+03 -0.77607413855E+02  0.19871348604E+02  0.67302826667E+03  0.25500000920E-02 0.  1.
</event>
<event>
 5   0  0.2603873E-04  0.1496692E+04  0.7818609E-02  0.8886656E-01
        1   -1    0    0  501    0  0.00000000000E+00  0.00000000000E+00  0.22805100809E+04  0.22805100809E+04  0.50400001928E-02 0. -1.
       -1   -1    0    0    0  501  0.00000000000E+00  0.00000000000E+00 -0.24556863978E+03  0.24556863983E+03  0.50400001928E-02 0.  1.
    10030    2    1    2    0    0  0.00000000000E+00  0.00000000000E+00  0.20349414412E+04  0.25260787208E+04  0.14966920306E+04 0.  0.
        2    1    3    3  502    0  0.23210410846E+03 -0.19188822478E+03 -0.13878216328E+03  0.33159296860E+03  0.25500000920E-02 0.  1.
       -2    1    3    3    0  502 -0.23210410846E+03  0.19188822478E+03  0.21737236044E+04  0.21944857522E+04  0.25500000920E-02 0. -1.
</event>
<event>
 5   0  0.2565416E-04  0.1509342E+04  0.7818609E-02  0.8878264E-01
       -1   -1    0    0    0  501  0.00000000000E+00  0.00000000000E+00  0.51440002397E+03  0.51440002399E+03  0.50400001928E-02 0. -1.
        1   -1    0    0  501    0  0.00000000000E+00  0.00000000000E+00 -0.11071703021E+04  0.11071703021E+04  0.50400001928E-02 0.  1.
    10030    2    1    2    0    0  0.00000000000E+00  0.00000000000E+00 -0.59277027808E+03  0.16215703261E+04  0.15093421480E+04 0.  0.
        5    1    3    3  502    0  0.42702599392E+02  0.13120992599E+03 -0.10934866775E+04  0.11021682089E+04  0.46999998093E+01 0.  1.
       -5    1    3    3    0  502 -0.42702599392E+02 -0.13120992599E+03  0.50071639945E+03  0.51940211720E+03  0.46999998093E+01 0. -1.
</event>
<event>
 5   0  0.4726600E-04  0.1496666E+04  0.7818609E-02  0.8886673E-01
       -2   -1    0    0    0  501  0.00000000000E+00  0.00000000000E+00  0.11252111719E+04  0.11252111719E+04  0.25500000920E-02 0.  1.
        2   -1    0    0  501    0  0.00000000000E+00  0.00000000000E+00 -0.49768655232E+03  0.49768655232E+03  0.25500000920E-02 0. -1.
    10030    2    1    2    0    0  0.00000000000E+00  0.00000000000E+00  0.62752461960E+03  0.16228977242E+04  0.14966662538E+04 0.  0.
        2    1    3    3  502    0  0.43868887059E+03 -0.33804163550E+03  0.85948082390E+03  0.10224614218E+04  0.25500000920E-02 0.  1.
       -2    1    3    3    0  502 -0.43868887059E+03  0.33804163550E+03 -0.23195620430E+03  0.60043630239E+03  0.25500000920E-02 0. -1.
</event>
<event>
 5   0  0.2544374E-04  0.1620366E+04  0.7818609E-02  0.8808133E-01
       -1   -1    0    0    0  501  0.00000000000E+00  0.00000000000E+00  0.30857181145E+03  0.30857181149E+03  0.50400001928E-02 0. -1.
        1   -1    0    0  501    0  0.00000000000E+00  0.00000000000E+00 -0.21272072365E+04  0.21272072365E+04  0.50400001928E-02 0.  1.
    10030    2    1    2    0    0  0.00000000000E+00  0.00000000000E+00 -0.18186354251E+04  0.24357790480E+04  0.16203656258E+04 0.  0.
        4    1    3    3  502    0 -0.35805590400E+03 -0.72654900610E+03 -0.88254974989E+03  0.11979036533E+04  0.12699999809E+01 0. -1.
       -4    1    3    3    0  502  0.35805590400E+03  0.72654900610E+03 -0.93608567518E+03  0.12378753947E+04  0.12699999809E+01 0.  1.
</event>
<event>
 5   0  0.2542737E-04  0.1490701E+04  0.7818609E-02  0.8890660E-01
        1   -1    0    0  501    0  0.00000000000E+00  0.00000000000E+00  0.49369962206E+03  0.49369962209E+03  0.50400001928E-02 0. -1.
       -1   -1    0    0    0  501  0.00000000000E+00  0.00000000000E+00 -0.11252739197E+04  0.11252739198E+04  0.50400001928E-02 0.  1.
    10030    2    1    2    0    0  0.00000000000E+00  0.00000000000E+00 -0.63157429768E+03  0.16189735418E+04  0.14907009209E+04 0.  0.
        1    1    3    3  502    0  0.36738136574E+03 -0.46649036525E+03  0.17349546842E+03  0.61861377802E+03  0.50400001928E-02 0. -1.
       -1    1    3    3    0  502 -0.36738136574E+03  0.46649036525E+03 -0.80506976610E+03  0.10003597638E+04  0.50400001928E-02 0.  1.
</event>
<event>
 5   0  0.2542737E-04  0.1503347E+04  0.7818609E-02  0.8882230E-01
       -1   -1    0    0    0  501  0.00000000000E+00  0.00000000000E+00  0.33453135644E+03  0.33453135647E+03  0.50400001928E-02 0. -1.
        1   -1    0    0  501    0  0.00000000000E+00  0.00000000000E+00 -0.16889686493E+04  0.16889686494E+04  0.50400001928E-02 0.  1.
    10030    2    1    2    0    0  0.00000000000E+00  0.00000000000E+00 -0.13544372929E+04  0.20235000058E+04  0.15033468971E+04 0.  0.
        1    1    3    3  502    0 -0.17852311785E+03  0.30190166269E+03 -0.15720765653E+04  0.16107264960E+04  0.50400001928E-02 0.  1.
       -1    1    3    3    0  502  0.17852311785E+03 -0.30190166269E+03  0.21763927240E+03  0.41277350988E+03  0.50400001928E-02 0. -1.
</event>
<event>
 5   0  0.1792000E-04  0.1512511E+04  0.7818609E-02  0.8876176E-01
       -3   -1    0    0    0  501  0.00000000000E+00  0.00000000000E+00  0.64622762692E+03  0.64622763481E+03  0.10100000352E+00 0. -1.
        3   -1    0    0  501    0  0.00000000000E+00  0.00000000000E+00 -0.88501673954E+03  0.88501674530E+03  0.10100000352E+00 0.  1.
    10030    2    1    2    0    0  0.00000000000E+00  0.00000000000E+00 -0.23878911262E+03  0.15312443801E+04  0.15125108632E+04 0.  0.
        5    1    3    3  502    0 -0.15850968771E+03 -0.56428684626E+03  0.36438941900E+03  0.69017874832E+03  0.46999998093E+01 0. -1.
       -5    1    3    3    0  502  0.15850968771E+03  0.56428684626E+03 -0.60317853162E+03  0.84106563178E+03  0.46999998093E+01 0.  1.
</event>
<event>
 5   0  0.4785496E-04  0.1508941E+04  0.7818609E-02  0.8878529E-01
        2   -1    0    0  501    0  0.00000000000E+00  0.00000000000E+00  0.16443520533E+04  0.16443520533E+04  0.25500000920E-02 0.  1.
       -2   -1    0    0    0  501  0.00000000000E+00  0.00000000000E+00 -0.34617008026E+03  0.34617008027E+03  0.25500000920E-02 0. -1.
    10030    2    1    2    0    0  0.00000000000E+00  0.00000000000E+00  0.12981819731E+04  0.19905221336E+04  0.15089406646E+04 0.  0.
        4    1    3    3  502    0  0.45821658830E+03 -0.28657447745E+03  0.13435421498E+04  0.14481693596E+04  0.12699999809E+01 0.  1.
       -4    1    3    3    0  502 -0.45821658830E+03  0.28657447745E+03 -0.45360176730E+02  0.54235277399E+03  0.12699999809E+01 0. -1.
</event>
<event>
 5   0  0.2542737E-04  0.1484916E+04  0.7818609E-02  0.8894546E-01
       -1   -1    0    0    0  501  0.00000000000E+00  0.00000000000E+00  0.59255516590E+03  0.59255516592E+03  0.50400001928E-02 0.  1.
        1   -1    0    0  501    0  0.00000000000E+00  0.00000000000E+00 -0.93028221634E+03  0.93028221636E+03  0.50400001928E-02 0. -1.
    10030    2    1    2    0    0  0.00000000000E+00  0.00000000000E+00 -0.33772705044E+03  0.15228373823E+04  0.14849155303E+04 0.  0.
        1    1    3    3  502    0 -0.62827428708E+03  0.12878464084E+03 -0.55248805901E+03  0.84649696922E+03  0.50400001928E-02 0. -1.
       -1    1    3    3    0  502  0.62827428708E+03 -0.12878464084E+03  0.21476100856E+03  0.67634041306E+03  0.50400001928E-02 0.  1.
</event>
<event>
 5   0  0.4785496E-04  0.1504219E+04  0.7818609E-02  0.8881652E-01
       -2   -1    0    0    0  501  0.00000000000E+00  0.00000000000E+00  0.90119706679E+03  0.90119706680E+03  0.25500000920E-02 0.  1.
        2   -1    0    0  501    0  0.00000000000E+00  0.00000000000E+00 -0.62768621381E+03  0.62768621382E+03  0.25500000920E-02 0. -1.
    10030    2    1    2    0    0  0.00000000000E+00  0.00000000000E+00  0.27351085298E+03  0.15288832806E+04  0.15042193653E+04 0.  0.
        4    1    3    3  502    0 -0.78783037499E+02  0.58746867373E+03  0.60731643334E+03  0.84862304513E+03  0.12699999809E+01 0.  1.
       -4    1    3    3    0  502  0.78783037499E+02 -0.58746867373E+03 -0.33380558036E+03  0.68026023549E+03  0.12699999809E+01 0. -1.
</event>
<event>
 5   0  0.4768387E-04  0.1339246E+04  0.7818609E-02  0.8999009E-01
       -2   -1    0    0    0  501  0.00000000000E+00  0.00000000000E+00  0.50505781822E+03  0.50505781823E+03  0.25500000920E-02 0.  1.
        2   -1    0    0  501    0  0.00000000000E+00  0.00000000000E+00 -0.88780977415E+03  0.88780977415E+03  0.25500000920E-02 0. -1.
    10030    2    1    2    0    0  0.00000000000E+00  0.00000000000E+00 -0.38275195592E+03  0.13928675924E+04  0.13392464561E+04 0.  0.
        3    1    3    3  502    0 -0.44616183105E+03 -0.84571153578E+02  0.32044819666E+03  0.55578747417E+03  0.10100000352E+00 0.  1.
       -3    1    3    3    0  502  0.44616183105E+03  0.84571153578E+02 -0.70320015258E+03  0.83708011821E+03  0.10100000352E+00 0. -1.
</event>
<event>
 5   0  0.4948645E-04  0.1513619E+04  0.7818609E-02  0.8875447E-01
       -2   -1    0    0    0  501  0.00000000000E+00  0.00000000000E+00  0.58743174292E+03  0.58743174293E+03  0.25500000920E-02 0.  1.
        2   -1    0    0  501    0  0.00000000000E+00  0.00000000000E+00 -0.97502459673E+03  0.97502459674E+03  0.25500000920E-02 0. -1.
    10030    2    1    2    0    0  0.00000000000E+00  0.00000000000E+00 -0.38759285381E+03  0.15624563397E+04  0.15136187079E+04 0.  0.
        1    1    3    3  502    0  0.47204722350E+03  0.40400603642E+03 -0.63983897267E+03  0.89187631970E+03  0.50400001928E-02 0. -1.
       -1    1    3    3    0  502 -0.47204722350E+03 -0.40400603642E+03  0.25224611886E+03  0.67058001996E+03  0.50400001928E-02 0.  1.
</event>
<event>
 5   0  0.4785496E-04  0.1504473E+04  0.7818609E-02  0.8881484E-01
       -2   -1    0    0    0  501  0.00000000000E+00  0.00000000000E+00  0.29447954497E+03  0.29447954498E+03  0.25500000920E-02 0.  1.
        2   -1    0    0  501    0  0.00000000000E+00  0.00000000000E+00 -0.19215592976E+04  0.19215592976E+04  0.25500000920E-02 0. -1.
    10030    2    1    2    0    0  0.00000000000E+00  0.00000000000E+00 -0.16270797526E+04  0.22160388425E+04  0.15044732069E+04 0.  0.
        4    1    3    3  502    0  0.34906955927E+03 -0.11697775796E+03  0.15271382347E+03  0.39856803415E+03  0.12699999809E+01 0.  1.
       -4    1    3    3    0  502 -0.34906955927E+03  0.11697775796E+03 -0.17797935761E+04  0.18174708084E+04  0.12699999809E+01 0. -1.
</event>
<event>
 5   0  0.2542737E-04  0.1501734E+04  0.7818609E-02  0.8883300E-01
        1   -1    0    0  501    0  0.00000000000E+00  0.00000000000E+00  0.12134363637E+04  0.12134363637E+04  0.50400001928E-02 0. -1.
       -1   -1    0    0    0  501  0.00000000000E+00  0.00000000000E+00 -0.46463209226E+03  0.46463209229E+03  0.50400001928E-02 0.  1.
    10030    2    1    2    0    0  0.00000000000E+00  0.00000000000E+00  0.74880427144E+03  0.16780684560E+04  0.15017342994E+04 0.  0.
        1    1    3    3  502    0 -0.44463938941E+03 -0.43064280420E+03 -0.10052657257E+03  0.62710685154E+03  0.50400001928E-02 0.  1.
       -1    1    3    3    0  502  0.44463938941E+03  0.43064280420E+03  0.84933084401E+03  0.10509616045E+04  0.50400001928E-02 0. -1.
</event>
<event>
 5   0  0.4768387E-04  0.1499992E+04  0.7818609E-02  0.8884458E-01
        2   -1    0    0  501    0  0.00000000000E+00  0.00000000000E+00  0.53174295254E+03  0.53174295255E+03  0.25500000920E-02 0. -1.
       -2   -1    0    0    0  501  0.00000000000E+00  0.00000000000E+00 -0.10578309269E+04  0.10578309269E+04  0.25500000920E-02 0.  1.
    10030    2    1    2    0    0  0.00000000000E+00  0.00000000000E+00 -0.52608797439E+03  0.15895738795E+04  0.14999921872E+04 0.  0.
        3    1    3    3  502    0 -0.57221329895E+03  0.45588441208E+03 -0.43793165475E+03  0.85266804861E+03  0.10100000352E+00 0.  1.
       -3    1    3    3    0  502  0.57221329895E+03 -0.45588441208E+03 -0.88156319635E+02  0.73690583087E+03  0.10100000352E+00 0. -1.
</event>
<event>
 5   0  0.2542737E-04  0.1501384E+04  0.7818609E-02  0.8883533E-01
       -1   -1    0    0    0  501  0.00000000000E+00  0.00000000000E+00  0.29772357750E+03  0.29772357755E+03  0.50400001928E-02 0.  1.
        1   -1    0    0  501    0  0.00000000000E+00  0.00000000000E+00 -0.18928233095E+04  0.18928233095E+04  0.50400001928E-02 0. -1.
    10030    2    1    2    0    0  0.00000000000E+00  0.00000000000E+00 -0.15950997320E+04  0.21905468871E+04  0.15013835317E+04 0.  0.
        1    1    3    3  502    0 -0.23192011150E+03 -0.33946965520E+03 -0.17139618556E+04  0.17625810130E+04  0.50400001928E-02 0. -1.
       -1    1    3    3    0  502  0.23192011150E+03  0.33946965520E+03  0.11886212358E+03  0.42796587407E+03  0.50400001928E-02 0.  1.
</event>
<event>
 5   0  0.4785496E-04  0.1493703E+04  0.7818609E-02  0.8888651E-01
       -2   -1    0    0    0  501  0.00000000000E+00  0.00000000000E+00  0.66553554478E+03  0.66553554479E+03  0.25500000920E-02 0.  1.
        2   -1    0    0  501    0  0.00000000000E+00  0.00000000000E+00 -0.83810266108E+03  0.83810266108E+03  0.25500000920E-02 0. -1.
    10030    2    1    2    0    0  0.00000000000E+00  0.00000000000E+00 -0.17256711630E+03  0.15036382059E+04  0.14937029305E+04 0.  0.
        4    1    3    3  502    0 -0.62568993285E+03  0.23113855277E+03 -0.42448335054E+03  0.79063306941E+03  0.12699999809E+01 0.  1.
       -4    1    3    3    0  502  0.62568993285E+03 -0.23113855277E+03  0.25191623425E+03  0.71300513647E+03  0.12699999809E+01 0. -1.
</event>
<event>
 5   0  0.4726600E-04  0.1507381E+04  0.7818609E-02  0.8879560E-01
        2   -1    0    0  501    0  0.00000000000E+00  0.00000000000E+00  0.67944471838E+03  0.67944471838E+03  0.25500000920E-02 0. -1.
       -2   -1    0    0    0  501  0.00000000000E+00  0.00000000000E+00 -0.83604922577E+03  0.83604922578E+03  0.25500000920E-02 0.  1.
    10030    2    1    2    0    0  0.00000000000E+00  0.00000000000E+00 -0.15660450739E+03  0.15154939442E+04  0.15073808155E+04 0.  0.
        2    1    3    3  502    0 -0.62347767308E+03 -0.41033275921E+03 -0.18351659440E+03  0.76861936128E+03  0.25500000920E-02 0. -1.
       -2    1    3    3    0  502  0.62347767308E+03  0.41033275921E+03  0.26912087003E+02  0.74687458288E+03  0.25500000920E-02 0.  1.
</event>
<event>
 5   0  0.4948645E-04  0.1502080E+04  0.7818609E-02  0.8883071E-01
        2   -1    0    0  501    0  0.00000000000E+00  0.00000000000E+00  0.20170806308E+04  0.20170806308E+04  0.25500000920E-02 0. -1.
       -2   -1    0    0    0  501  0.00000000000E+00  0.00000000000E+00 -0.27964238995E+03  0.27964238996E+03  0.25500000920E-02 0.  1.
    10030    2    1    2    0    0  0.00000000000E+00  0.00000000000E+00  0.17374382409E+04  0.22967230208E+04  0.15020802220E+04 0.  0.
        1    1    3    3  502    0  0.13775384304E+03 -0.50422377689E+03  0.16933226402E+04  0.17721623239E+04  0.50400001928E-02 0. -1.
       -1    1    3    3    0  502 -0.13775384304E+03  0.50422377689E+03  0.44115600667E+02  0.52456069687E+03  0.50400001928E-02 0.  1.
</event>
<event>
 5   0  0.4768387E-04  0.1455583E+04  0.7818609E-02  0.8914539E-01
       -2   -1    0    0    0  501  0.00000000000E+00  0.00000000000E+00  0.36752364978E+03  0.36752364979E+03  0.25500000920E-02 0.  1.
        2   -1    0    0  501    0  0.00000000000E+00  0.00000000000E+00 -0.14412145380E+04  0.14412145380E+04  0.25500000920E-02 0. -1.
    10030    2    1    2    0    0  0.00000000000E+00  0.00000000000E+00 -0.10736908883E+04  0.18087381878E+04  0.14555829446E+04 0.  0.
        3    1    3    3  502    0  0.82143291784E+02 -0.59710988386E+03 -0.10437262689E+04  0.12052602492E+04  0.10100000352E+00 0.  1.
       -3    1    3    3    0  502 -0.82143291784E+02  0.59710988386E+03 -0.29964619388E+02  0.60347793862E+03  0.10100000352E+00 0. -1.
</event>
<event>
 5   0  0.4726600E-04  0.1500047E+04  0.7818609E-02  0.8884422E-01
        2   -1    0    0  501    0  0.00000000000E+00  0.00000000000E+00  0.12271754641E+04  0.12271754641E+04  0.25500000920E-02 0. -1.
       -2   -1    0    0    0  501  0.00000000000E+00  0.00000000000E+00 -0.45839810221E+03  0.45839810221E+03  0.25500000920E-02 0.  1.
    10030    2    1    2    0    0  0.00000000000E+00  0.00000000000E+00  0.76877736191E+03  0.16855735663E+04  0.15000465377E+04 0.  0.
        2    1    3    3  502    0 -0.53867685506E+03 -0.38357904411E+02 -0.20045543327E+03  0.57604380366E+03  0.25500000920E-02 0.  1.
       -2    1    3    3    0  502  0.53867685506E+03  0.38357904411E+02  0.96923279518E+03  0.11095297627E+04  0.25500000920E-02 0. -1.
</event>
<event>
 5   0  0.2603873E-04  0.1495156E+04  0.7818609E-02  0.8887680E-01
       -1   -1    0    0    0  501  0.00000000000E+00  0.00000000000E+00  0.39166745193E+03  0.39166745197E+03  0.50400001928E-02 0. -1.
        1   -1    0    0  501    0  0.00000000000E+00  0.00000000000E+00 -0.14269066928E+04  0.14269066928E+04  0.50400001928E-02 0.  1.
    10030    2    1    2    0    0  0.00000000000E+00  0.00000000000E+00 -0.10352392409E+04  0.18185741448E+04  0.14951560568E+04 0.  0.
        2    1    3    3  502    0  0.50543747073E+03  0.39681814846E+03 -0.98227769357E+03  0.11737977454E+04  0.25500000920E-02 0.  1.
       -2    1    3    3    0  502 -0.50543747073E+03 -0.39681814846E+03 -0.52961547329E+02  0.64477639943E+03  0.25500000920E-02 0. -1.
</event>
<event>
 5   0  0.2603873E-04  0.1519621E+04  0.7818609E-02  0.8871509E-01
       -1   -1    0    0    0  501  0.00000000000E+00  0.00000000000E+00  0.31386824917E+03  0.31386824921E+03  0.50400001928E-02 0. -1.
        1   -1    0    0  501    0  0.00000000000E+00  0.00000000000E+00 -0.18393442115E+04  0.18393442115E+04  0.50400001928E-02 0.  1.
    10030    2    1    2    0    0  0.00000000000E+00  0.00000000000E+00 -0.15254759623E+04  0.21532124607E+04  0.15196206728E+04 0.  0.
        2    1    3    3  502    0  0.28994988550E+03  0.31167652114E+03  0.12903297069E+03  0.44481760022E+03  0.25500000920E-02 0. -1.
       -2    1    3    3    0  502 -0.28994988550E+03 -0.31167652114E+03 -0.16545089330E+04  0.17083948605E+04  0.25500000920E-02 0.  1.
</event>
<event>
 5   0  0.2544374E-04  0.1498376E+04  0.7818609E-02  0.8885534E-01
       -1   -1    0    0    0  501  0.00000000000E+00  0.00000000000E+00  0.43501082858E+03  0.43501082861E+03  0.50400001928E-02 0. -1.
        1   -1    0    0  501    0  0.00000000000E+00  0.00000000000E+00 -0.12902728661E+04  0.12902728661E+04  0.50400001928E-02 0.  1.
    10030    2    1    2    0    0  0.00000000000E+00  0.00000000000E+00 -0.85526203748E+03  0.17252836947E+04  0.14983760123E+04 0.  0.
        4    1    3    3  502    0 -0.65454948932E+03 -0.35630489769E+03 -0.51602080629E+03  0.90645865847E+03  0.12699999809E+01 0.  1.
       -4    1    3    3    0  502  0.65454948932E+03  0.35630489769E+03 -0.33924123119E+03  0.81882503621E+03  0.12699999809E+01 0. -1.
</event>
<event>
 5   0  0.2565416E-04  0.1478196E+04  0.7818609E-02  0.8899083E-01
       -1   -1    0    0    0  501  0.00000000000E+00  0.00000000000E+00  0.87409269665E+03  0.87409269667E+03  0.50400001928E-02 0.  1.
        1   -1    0    0  501    0  0.00000000000E+00  0.00000000000E+00 -0.62495187704E+03  0.62495187706E+03  0.50400001928E-02 0. -1.
    10030    2    1    2    0    0  0.00000000000E+00  0.00000000000E+00  0.24914081961E+03  0.14990445737E+04  0.14781960242E+04 0.  0.
        5    1    3    3  502    0  0.34377548628E+03  0.49481940449E+03  0.55864479655E+03  0.82166533743E+03  0.46999998093E+01 0.  1.
       -5    1    3    3    0  502 -0.34377548628E+03 -0.49481940449E+03 -0.30950397694E+03  0.67737923630E+03  0.46999998093E+01 0. -1.
</event>
<event>
 5   0  0.2565416E-04  0.1499016E+04  0.7818609E-02  0.8885107E-01
       -1   -1    0    0    0  501  0.00000000000E+00  0.00000000000E+00  0.24967282049E+03  0.24967282054E+03  0.50400001928E-02 0. -1.
        1   -1    0    0  501    0  0.00000000000E+00  0.00000000000E+00 -0.22499940958E+04  0.22499940958E+04  0.50400001928E-02 0.  1.
    10030    2    1    2    0    0  0.00000000000E+00  0.00000000000E+00 -0.20003212753E+04  0.24996669163E+04  0.14990161734E+04 0.  0.
        5    1    3    3  502    0 -0.41659668465E+03 -0.53653459830E+03 -0.15283206202E+04  0.16724856295E+04  0.46999998093E+01 0.  1.
       -5    1    3    3    0  502  0.41659668465E+03  0.53653459830E+03 -0.47200065510E+03  0.82718128681E+03  0.46999998093E+01 0. -1.
</event>
<event>
 5   0  0.4768387E-04  0.1435326E+04  0.7818609E-02  0.8928637E-01
       -2   -1    0    0    0  501  0.00000000000E+00  0.00000000000E+00  0.39700960837E+03  0.39700960838E+03  0.25500000920E-02 0. -1.
        2   -1    0    0  501    0  0.00000000000E+00  0.00000000000E+00 -0.12972987469E+04  0.12972987469E+04  0.25500000920E-02 0.  1.
    10030    2    1    2    0    0  0.00000000000E+00  0.00000000000E+00 -0.90028913850E+03  0.16943083552E+04  0.14353258410E+04 0.  0.
        3    1    3    3  502    0 -0.26793345997E+03  0.62663892508E+03 -0.18467697866E+03  0.70609509136E+03  0.10100000352E+00 0. -1.
       -3    1    3    3    0  502  0.26793345997E+03 -0.62663892508E+03 -0.71561215983E+03  0.98821326388E+03  0.10100000352E+00 0.  1.
</event>
<event>
 5   0  0.4768387E-04  0.1468303E+04  0.7818609E-02  0.8905809E-01
        2   -1    0    0  501    0  0.00000000000E+00  0.00000000000E+00  0.59202637925E+03  0.59202637926E+03  0.25500000920E-02 0. -1.
       -2   -1    0    0    0  501  0.00000000000E+00  0.00000000000E+00 -0.91039658032E+03  0.91039658033E+03  0.25500000920E-02 0.  1.
    10030    2    1    2    0    0  0.00000000000E+00  0.00000000000E+00 -0.31837020107E+03  0.15024229596E+04  0.14683034988E+04 0.  0.
        3    1    3    3  502    0  0.59229407537E+02 -0.44619392992E+03  0.43427635407E+03  0.62545432105E+03  0.10100000352E+00 0. -1.
       -3    1    3    3    0  502 -0.59229407537E+02  0.44619392992E+03 -0.75264655514E+03  0.87696863854E+03  0.10100000352E+00 0.  1.
</event>
<event>
 5   0  0.2565416E-04  0.1513592E+04  0.7818609E-02  0.8875464E-01
        1   -1    0    0  501    0  0.00000000000E+00  0.00000000000E+00  0.60370858384E+03  0.60370858387E+03  0.50400001928E-02 0.  1.
       -1   -1    0    0    0  501  0.00000000000E+00  0.00000000000E+00 -0.94870325836E+03  0.94870325837E+03  0.50400001928E-02 0. -1.
    10030    2    1    2    0    0  0.00000000000E+00  0.00000000000E+00 -0.34499467451E+03  0.15524118422E+04  0.15135921520E+04 0.  0.
        5    1    3    3  502    0  0.48793178787E+03 -0.13691254407E+03 -0.74895837851E+03  0.90431367184E+03  0.46999998093E+01 0.  1.
       -5    1    3    3    0  502 -0.48793178787E+03  0.13691254407E+03  0.40396370400E+03  0.64809817040E+03  0.46999998093E+01 0. -1.
</event>
<event>
 5   0  0.4948645E-04  0.1511793E+04  0.7818609E-02  0.8876649E-01
        2   -1    0    0  501    0  0.00000000000E+00  0.00000000000E+00  0.14808682092E+04  0.14808682092E+04  0.25500000920E-02 0. -1.
       -2   -1    0    0    0  501  0.00000000000E+00  0.00000000000E+00 -0.38584064645E+03  0.38584064645E+03  0.25500000920E-02 0.  1.
    10030    2    1    2    0    0  0.00000000000E+00  0.00000000000E+00  0.10950275628E+04  0.18667088557E+04  0.15117925085E+04 0.  0.
        1    1    3    3  502    0  0.46751243038E+03  0.40126088597E+03  0.10882803133E+04  0.12505727534E+04  0.50400001928E-02 0. -1.
       -1    1    3    3    0  502 -0.46751243038E+03 -0.40126088597E+03  0.67472495040E+01  0.61613610231E+03  0.50400001928E-02 0.  1.
</event>
<event>
 5   0  0.2603873E-04  0.1483746E+04  0.7818609E-02  0.8895334E-01
       -1   -1    0    0    0  501  0.00000000000E+00  0.00000000000E+00  0.42396343665E+03  0.42396343668E+03  0.50400001928E-02 0.  1.
        1   -1    0    0  501    0  0.00000000000E+00  0.00000000000E+00 -0.12981674357E+04  0.12981674357E+04  0.50400001928E-02 0. -1.
    10030    2    1    2    0    0  0.00000000000E+00  0.00000000000E+00 -0.87420399905E+03  0.17221308724E+04  0.14837459721E+04 0.  0.
        2    1    3    3  502    0  0.37457750903E+01  0.49133187234E+03 -0.10822418265E+04  0.11885572812E+04  0.25500000920E-02 0. -1.
       -2    1    3    3    0  502 -0.37457750903E+01 -0.49133187234E+03  0.20803782743E+03  0.53357359123E+03  0.25500000920E-02 0.  1.
</event>
<event>
 5   0  0.4768387E-04  0.1504400E+04  0.7818609E-02  0.8881532E-01
       -2   -1    0    0    0  501  0.00000000000E+00  0.00000000000E+00  0.45024698794E+03  0.45024698795E+03  0.25500000920E-02 0.  1.
        2   -1    0    0  501    0  0.00000000000E+00  0.00000000000E+00 -0.12566550530E+04  0.12566550530E+04  0.25500000920E-02 0. -1.
    10030    2    1    2    0    0  0.00000000000E+00  0.00000000000E+00 -0.80640806507E+03  0.17069020410E+04  0.15044004155E+04 0.  0.
        3    1    3    3  502    0 -0.30461686367E+03 -0.67094890511E+03 -0.57468081587E+03  0.93446343815E+03  0.10100000352E+00 0. -1.
       -3    1    3    3    0  502  0.30461686367E+03  0.67094890511E+03 -0.23172724919E+03  0.77243860281E+03  0.10100000352E+00 0.  1.
</event>
<event>
 5   0  0.4785496E-04  0.1499666E+04  0.7818609E-02  0.8884675E-01
       -2   -1    0    0    0  501  0.00000000000E+00  0.00000000000E+00  0.46688797875E+03  0.46688797875E+03  0.25500000920E-02 0.  1.
        2   -1    0    0  501    0  0.00000000000E+00  0.00000000000E+00 -0.12042493318E+04  0.12042493318E+04  0.25500000920E-02 0. -1.
    10030    2    1    2    0    0  0.00000000000E+00  0.00000000000E+00 -0.73736135307E+03  0.16711373106E+04  0.14996660114E+04 0.  0.
        4    1    3    3  502    0 -0.48608051537E+03 -0.54394313256E+03 -0.17535149804E+03  0.75026539281E+03  0.12699999809E+01 0.  1.
       -4    1    3    3    0  502  0.48608051537E+03  0.54394313256E+03 -0.56200985503E+03  0.92087191777E+03  0.12699999809E+01 0. -1.
</event>
<event>
 5   0  0.4569211E-04  0.1489636E+04  0.7818609E-02  0.8891374E-01
        2   -1    0    0  501    0  0.00000000000E+00  0.00000000000E+00  0.16708506058E+04  0.16708506058E+04  0.25500000920E-02 0.  1.
       -2   -1    0    0    0  501  0.00000000000E+00  0.00000000000E+00 -0.33201898894E+03  0.33201898895E+03  0.25500000920E-02 0. -1.
    10030    2    1    2    0    0  0.00000000000E+00  0.00000000000E+00  0.13388316168E+04  0.20028695947E+04  0.14896363701E+04 0.  0.
        5    1    3    3  502    0  0.75563380176E+02 -0.53188004363E+03 -0.24195114539E+02  0.53778592283E+03  0.46999998093E+01 0. -1.
       -5    1    3    3    0  502 -0.75563380176E+02  0.53188004363E+03  0.13630267314E+04  0.14650836719E+04  0.46999998093E+01 0.  1.
</event>
<event>
 5   0  0.2542737E-04  0.1459986E+04  0.7818609E-02  0.8911506E-01
       -1   -1    0    0    0  501  0.00000000000E+00  0.00000000000E+00  0.52907823421E+03  0.52907823424E+03  0.50400001928E-02 0. -1.
        1   -1    0    0  501    0  0.00000000000E+00  0.00000000000E+00 -0.10072045682E+04  0.10072045682E+04  0.50400001928E-02 0.  1.
    10030    2    1    2    0    0  0.00000000000E+00  0.00000000000E+00 -0.47812633394E+03  0.15362828024E+04  0.14599863211E+04 0.  0.
        1    1    3    3  502    0  0.13831072227E+03 -0.66643801028E+03 -0.51670894029E+03  0.85455111400E+03  0.50400001928E-02 0. -1.
       -1    1    3    3    0  502 -0.13831072227E+03  0.66643801028E+03  0.38582606345E+02  0.68173168841E+03  0.50400001928E-02 0.  1.
</event>
<event>
 5   0  0.2605471E-04  0.1503051E+04  0.7818609E-02  0.8882427E-01
       -1   -1    0    0    0  501  0.00000000000E+00  0.00000000000E+00  0.40743347892E+03  0.40743347896E+03  0.50400001928E-02 0. -1.
        1   -1    0    0  501    0  0.00000000000E+00  0.00000000000E+00 -0.13862149394E+04  0.13862149394E+04  0.50400001928E-02 0.  1.
    10030    2    1    2    0    0  0.00000000000E+00  0.00000000000E+00 -0.97878146044E+03  0.17936484183E+04  0.15030507314E+04 0.  0.
        3    1    3    3  502    0 -0.21950021584E+03 -0.64481437004E+03 -0.86830992637E+03  0.11035977777E+04  0.10100000352E+00 0.  1.
       -3    1    3    3    0  502  0.21950021584E+03  0.64481437004E+03 -0.11047153407E+03  0.69005064060E+03  0.10100000352E+00 0. -1.
</event>
<event>
 5   0  0.2544374E-04  0.1502819E+04  0.7818609E-02  0.8882581E-01
        1   -1    0    0  501    0  0.00000000000E+00  0.00000000000E+00  0.47784180044E+03  0.47784180046E+03  0.50400001928E-02 0.  1.
       -1   -1    0    0    0  501  0.00000000000E+00  0.00000000000E+00 -0.11815960625E+04  0.11815960625E+04  0.50400001928E-02 0. -1.
    10030    2    1    2    0    0  0.00000000000E+00  0.00000000000E+00 -0.70375426206E+03  0.16594378630E+04  0.15028186716E+04 0.  0.
        4    1    3    3  502    0 -0.42746258343E+03  0.38689119864E+03 -0.88397374214E+03  0.10553768282E+04  0.12699999809E+01 0. -1.
       -4    1    3    3    0  502  0.42746258343E+03 -0.38689119864E+03  0.18021948009E+03  0.60406103476E+03  0.12699999809E+01 0.  1.
</event>
<event>
 5   0  0.2565416E-04  0.1593213E+04  0.7818609E-02  0.8824728E-01
       -1   -1    0    0    0  501  0.00000000000E+00  0.00000000000E+00  0.38972207848E+03  0.38972207852E+03  0.50400001928E-02 0.  1.
        1   -1    0    0  501    0  0.00000000000E+00  0.00000000000E+00 -0.16282942263E+04  0.16282942263E+04  0.50400001928E-02 0. -1.
    10030    2    1    2    0    0  0.00000000000E+00  0.00000000000E+00 -0.12385721478E+04  0.20180163048E+04  0.15932133696E+04 0.  0.
        5    1    3    3  502    0 -0.91902932103E+02 -0.30284971447E+03  0.30665284123E+03  0.44070642555E+03  0.46999998093E+01 0.  1.
       -5    1    3    3    0  502  0.91902932103E+02  0.30284971447E+03 -0.15452249890E+04  0.15773098793E+04  0.46999998093E+01 0. -1.
</event>
<event>
 5   0  0.4768387E-04  0.1497713E+04  0.7818609E-02  0.8885975E-01
       -2   -1    0    0    0  501  0.00000000000E+00  0.00000000000E+00  0.19073879765E+03  0.19073879766E+03  0.25500000920E-02 0. -1.
        2   -1    0    0  501    0  0.00000000000E+00  0.00000000000E+00 -0.29400742812E+04  0.29400742812E+04  0.25500000920E-02 0.  1.
    10030    2    1    2    0    0  0.00000000000E+00  0.00000000000E+00 -0.27493354836E+04  0.31308130789E+04  0.14977132348E+04 0.  0.
        3    1    3    3  502    0  0.33575351316E+03  0.58758345415E+03 -0.70443109819E+03  0.97683566657E+03  0.10100000352E+00 0. -1.
       -3    1    3    3    0  502 -0.33575351316E+03 -0.58758345415E+03 -0.20449043854E+04  0.21539774123E+04  0.10100000352E+00 0.  1.
</event>
<event>
 5   0  0.2603873E-04  0.1493090E+04  0.7818609E-02  0.8889061E-01
       -1   -1    0    0    0  501  0.00000000000E+00  0.00000000000E+00  0.55354393554E+03  0.55354393556E+03  0.50400001928E-02 0. -1.
        1   -1    0    0  501    0  0.00000000000E+00  0.00000000000E+00 -0.10068386369E+04  0.10068386369E+04  0.50400001928E-02 0.  1.
    10030    2    1    2    0    0  0.00000000000E+00  0.00000000000E+00 -0.45329470133E+03  0.15603825724E+04  0.14930899793E+04 0.  0.
        2    1    3    3  502    0 -0.13432498637E+03 -0.35233388888E+03 -0.90000545055E+03  0.97580335224E+03  0.25500000920E-02 0.  1.
       -2    1    3    3    0  502  0.13432498637E+03  0.35233388888E+03  0.44671074922E+03  0.58457922020E+03  0.25500000920E-02 0. -1.
</event>
<event>
 5   0  0.2544374E-04  0.1494485E+04  0.7818609E-02  0.8888128E-01
       -1   -1    0    0    0  501  0.00000000000E+00  0.00000000000E+00  0.70396164285E+03  0.70396164287E+03  0.50400001928E-02 0.  1.
        1   -1    0    0  501    0  0.00000000000E+00  0.00000000000E+00 -0.79318459704E+03  0.79318459706E+03  0.50400001928E-02 0. -1.
    10030    2    1    2    0    0  0.00000000000E+00  0.00000000000E+00 -0.89222954188E+02  0.14971462399E+04  0.14944852385E+04 0.  0.
        4    1    3    3  502    0  0.29947654570E+03  0.37951465694E+02  0.64015766875E+03  0.70776406304E+03  0.12699999809E+01 0.  1.
       -4    1    3    3    0  502 -0.29947654570E+03 -0.37951465694E+02 -0.72938062294E+03  0.78938217689E+03  0.12699999809E+01 0. -1.
</event>
<event>
 5   0  0.2605471E-04  0.1499378E+04  0.7818609E-02  0.8884867E-01
        1   -1    0    0  501    0  0.00000000000E+00  0.00000000000E+00  0.13603148906E+04  0.13603148906E+04  0.50400001928E-02 0.  1.
       -1   -1    0    0    0  501  0.00000000000E+00  0.00000000000E+00 -0.41316420799E+03  0.41316420802E+03  0.50400001928E-02 0. -1.
    10030    2    1    2    0    0  0.00000000000E+00  0.00000000000E+00  0.94715068256E+03  0.17734790986E+04  0.14993777702E+04 0.  0.
        3    1    3    3  502    0  0.72351766514E+03 -0.19035909922E+03  0.53053493200E+03  0.91715959499E+03  0.10100000352E+00 0. -1.
       -3    1    3    3    0  502 -0.72351766514E+03  0.19035909922E+03  0.41661575056E+03  0.85631950359E+03  0.10100000352E+00 0.  1.
</event>
<event>
 5   0  0.2544374E-04  0.1476356E+04  0.7818609E-02  0.8900330E-01
        1   -1    0    0  501    0  0.00000000000E+00  0.00000000000E+00  0.55718133752E+03  0.55718133754E+03  0.50400001928E-02 0. -1.
       -1   -1    0    0    0  501  0.00000000000E+00  0.00000000000E+00 -0.97796990352E+03  0.97796990354E+03  0.50400001928E-02 0.  1.
    10030    2    1    2    0    0  0.00000000000E+00  0.00000000000E+00 -0.42078856600E+03  0.15351512411E+04  0.14763557551E+04 0.  0.
        4    1    3    3  502    0  0.71458085205E+03 -0.87380325245E+01 -0.18089052931E+02  0.71486430466E+03  0.12699999809E+01 0. -1.
       -4    1    3    3    0  502 -0.71458085205E+03  0.87380325245E+01 -0.40269951307E+03  0.82028693642E+03  0.12699999809E+01 0.  1.
</event>
<event>
 5   0  0.4726600E-04  0.1528353E+04  0.7818609E-02  0.8865815E-01
        2   -1    0    0  501    0  0.00000000000E+00  0.00000000000E+00  0.14287996813E+04  0.14287996813E+04  0.25500000920E-02 0.  1.
       -2   -1    0    0    0  501  0.00000000000E+00  0.00000000000E+00 -0.40871047968E+03  0.40871047968E+03  0.25500000920E-02 0. -1.
    10030    2    1    2    0    0  0.00000000000E+00  0.00000000000E+00  0.10200892016E+04  0.18375101610E+04  0.15283525812E+04 0.  0.
        2    1    3    3  502    0 -0.48482141474E+03 -0.54570805512E+03  0.23822174304E+03  0.76785329619E+03  0.25500000920E-02 0. -1.
       -2    1    3    3    0  502  0.48482141474E+03  0.54570805512E+03  0.78186745857E+03  0.10696568648E+04  0.25500000920E-02 0.  1.
</event>
<event>
 5   0  0.4569211E-04  0.1510469E+04  0.7818609E-02  0.8877521E-01
       -2   -1    0    0    0  501  0.00000000000E+00  0.00000000000E+00  0.12066298496E+04  0.12066298496E+04  0.25500000920E-02 0. -1.
        2   -1    0    0  501    0  0.00000000000E+00  0.00000000000E+00 -0.47270439652E+03  0.47270439653E+03  0.25500000920E-02 0.  1.
    10030    2    1    2    0    0  0.00000000000E+00  0.00000000000E+00  0.73392545304E+03  0.16793342461E+04  0.15104691124E+04 0.  0.
        5    1    3    3  502    0 -0.63345694451E+03  0.13549376933E+02  0.82389060101E+03  0.10393599466E+04  0.46999998093E+01 0. -1.
       -5    1    3    3    0  502  0.63345694451E+03 -0.13549376933E+02 -0.89965147968E+02  0.63997429950E+03  0.46999998093E+01 0.  1.
</event>
<event>
 5   0  0.4768387E-04  0.1496049E+04  0.7818609E-02  0.8887084E-01
       -2   -1    0    0    0  501  0.00000000000E+00  0.00000000000E+00  0.41862263088E+03  0.41862263089E+03  0.25500000920E-02 0. -1.
        2   -1    0    0  501    0  0.00000000000E+00  0.00000000000E+00 -0.13366231897E+04  0.13366231897E+04  0.25500000920E-02 0.  1.
    10030    2    1    2    0    0  0.00000000000E+00  0.00000000000E+00 -0.91800055883E+03  0.17552458206E+04  0.14960490850E+04 0.  0.
        3    1    3    3  502    0 -0.10670332826E+03  0.73723263679E+03 -0.53894655316E+03  0.91943513005E+03  0.10100000352E+00 0. -1.
       -3    1    3    3    0  502  0.10670332826E+03 -0.73723263679E+03 -0.37905400568E+03  0.83581069055E+03  0.10100000352E+00 0.  1.
</event>
<event>
 5   0  0.4569211E-04  0.1500860E+04  0.7818609E-02  0.8883881E-01
       -2   -1    0    0    0  501  0.00000000000E+00  0.00000000000E+00  0.57699114639E+03  0.57699114640E+03  0.25500000920E-02 0.  1.
        2   -1    0    0  501    0  0.00000000000E+00  0.00000000000E+00 -0.97600283557E+03  0.97600283557E+03  0.25500000920E-02 0. -1.
    10030    2    1    2    0    0  0.00000000000E+00  0.00000000000E+00 -0.39901168918E+03  0.15529939820E+04  0.15008597469E+04 0.  0.
        5    1    3    3  502    0 -0.25213288043E+03  0.36368005986E+03 -0.82660102628E+03  0.93761693776E+03  0.46999998093E+01 0. -1.
       -5    1    3    3    0  502  0.25213288043E+03 -0.36368005986E+03  0.42758933710E+03  0.61537704421E+03  0.46999998093E+01 0.  1.
</event>
<event>
 5   0  0.2544374E-04  0.1499322E+04  0.7818609E-02  0.8884904E-01
        1   -1    0    0  501    0  0.00000000000E+00  0.00000000000E+00  0.87318398652E+03  0.87318398654E+03  0.50400001928E-02 0. -1.
       -1   -1    0    0    0  501  0.00000000000E+00  0.00000000000E+00 -0.64361181905E+03  0.64361181907E+03  0.50400001928E-02 0.  1.
    10030    2    1    2    0    0  0.00000000000E+00  0.00000000000E+00  0.22957216748E+03  0.15167958056E+04  0.14993218920E+04 0.  0.
        4    1    3    3  502    0  0.22543428276E+03 -0.63489318236E+03 -0.21780056323E+03  0.70805979062E+03  0.12699999809E+01 0.  1.
       -4    1    3    3    0  502 -0.22543428276E+03  0.63489318236E+03  0.44737273070E+03  0.80873601498E+03  0.12699999809E+01 0. -1.
</event>
<event>
 5   0  0.2605471E-04  0.1500529E+04  0.7818609E-02  0.8884101E-01
       -1   -1    0    0    0  501  0.00000000000E+00  0.00000000000E+00  0.69024113711E+03  0.69024113713E+03  0.50400001928E-02 0. -1.
        1   -1    0    0  501    0  0.00000000000E+00  0.00000000000E+00 -0.81550723978E+03  0.81550723979E+03  0.50400001928E-02 0.  1.
    10030    2    1    2    0    0  0.00000000000E+00  0.00000000000E+00 -0.12526610267E+03  0.15057483769E+04  0.15005287662E+04 0.  0.
        3    1    3    3  502    0  0.29815167324E+03  0.30682613412E+03  0.55583863780E+03  0.70142233947E+03  0.10100000352E+00 0. -1.
       -3    1    3    3    0  502 -0.29815167324E+03 -0.30682613412E+03 -0.68110474047E+03  0.80432603745E+03  0.10100000352E+00 0.  1.
</event>
<event>
 5   0  0.2605471E-04  0.1540049E+04  0.7818609E-02  0.8858249E-01
        1   -1    0    0  501    0  0.00000000000E+00  0.00000000000E+00  0.56234935212E+03  0.56234935215E+03  0.50400001928E-02 0.  1.
       -1   -1    0    0    0  501  0.00000000000E+00  0.00000000000E+00 -0.10543944388E+04  0.10543944388E+04  0.50400001928E-02 0. -1.
    10030    2    1    2    0    0  0.00000000000E+00  0.00000000000E+00 -0.49204508669E+03  0.16167437910E+04  0.15400493883E+04 0.  0.
        3    1    3    3  502    0  0.42647727871E+03  0.49164602815E+03 -0.67802426314E+03  0.93984871009E+03  0.10100000352E+00 0. -1.
       -3    1    3    3    0  502 -0.42647727871E+03 -0.49164602815E+03  0.18597917645E+03  0.67689508089E+03  0.10100000352E+00 0.  1.
</event>
<event>
 5   0  0.2565416E-04  0.1506076E+04  0.7818609E-02  0.8880422E-01
       -1   -1    0    0    0  501  0.00000000000E+00  0.00000000000E+00  0.37667635508E+03  0.37667635511E+03  0.50400001928E-02 0. -1.
        1   -1    0    0  501    0  0.00000000000E+00  0.00000000000E+00 -0.15054469582E+04  0.15054469582E+04  0.50400001928E-02 0.  1.
    10030    2    1    2    0    0  0.00000000000E+00  0.00000000000E+00 -0.11287706031E+04  0.18821233133E+04  0.15060760579E+04 0.  0.
        5    1    3    3  502    0  0.33368232588E+03 -0.45828271155E+03  0.55032433787E+02  0.56957668235E+03  0.46999998093E+01 0. -1.
       -5    1    3    3    0  502 -0.33368232588E+03  0.45828271155E+03 -0.11838030369E+04  0.13125466310E+04  0.46999998093E+01 0.  1.
</event>
<event>
 5   0  0.4726600E-04  0.1563871E+04  0.7818609E-02  0.8843056E-01
        2   -1    0    0  501    0  0.00000000000E+00  0.00000000000E+00  0.11168241359E+04  0.11168241359E+04  0.25500000920E-02 0.  1.
       -2   -1    0    0    0  501  0.00000000000E+00  0.00000000000E+00 -0.54746589469E+03  0.54746589469E+03  0.25500000920E-02 0. -1.
    10030    2    1    2    0    0  0.00000000000E+00  0.00000000000E+00  0.56935824124E+03  0.16642900306E+04  0.15638709982E+04 0.  0.
        2    1    3    3  502    0  0.55719562572E+02  0.64610795109E+03 -0.18025233010E+03  0.67309067490E+03  0.25500000920E-02 0. -1.
       -2    1    3    3    0  502 -0.55719562572E+02 -0.64610795109E+03  0.74961057134E+03  0.99119935572E+03  0.25500000920E-02 0.  1.
</event>
<event>
 5   0  0.4768387E-04  0.1499605E+04  0.7818609E-02  0.8884715E-01
       -2   -1    0    0    0  501  0.00000000000E+00  0.00000000000E+00  0.73302472538E+03  0.73302472539E+03  0.25500000920E-02 0.  1.
        2   -1    0    0  501    0  0.00000000000E+00  0.00000000000E+00 -0.76696471533E+03  0.76696471534E+03  0.25500000920E-02 0. -1.
    10030    2    1    2    0    0  0.00000000000E+00  0.00000000000E+00 -0.33939989951E+02  0.14999894407E+04  0.14996054146E+04 0.  0.
        3    1    3    3  502    0  0.52297020762E+03  0.39686760126E+03  0.34534142511E+03  0.74179676535E+03  0.10100000352E+00 0.  1.
       -3    1    3    3    0  502 -0.52297020762E+03 -0.39686760126E+03 -0.37928141506E+03  0.75819267538E+03  0.10100000352E+00 0. -1.
</event>
<event>
 5   0  0.4768387E-04  0.1508017E+04  0.7818609E-02  0.8879139E-01
       -2   -1    0    0    0  501  0.00000000000E+00  0.00000000000E+00  0.44722277029E+03  0.44722277029E+03  0.25500000920E-02 0. -1.
        2   -1    0    0  501    0  0.00000000000E+00  0.00000000000E+00 -0.12712426374E+04  0.12712426374E+04  0.25500000920E-02 0.  1.
    10030    2    1    2    0    0  0.00000000000E+00  0.00000000000E+00 -0.82401986707E+03  0.17184654077E+04  0.15080167824E+04 0.  0.
        3    1    3    3  502    0  0.26427843767E+03  0.65129541681E+03 -0.72304708362E+03  0.10083778597E+04  0.10100000352E+00 0. -1.
       -3    1    3    3    0  502 -0.26427843767E+03 -0.65129541681E+03 -0.10097278346E+03  0.71008754797E+03  0.10100000352E+00 0.  1.
</event>
<event>
 5   0  0.2603873E-04  0.1497563E+04  0.7818609E-02  0.8886075E-01
       -1   -1    0    0    0  501  0.00000000000E+00  0.00000000000E+00  0.11924947996E+04  0.11924947996E+04  0.50400001928E-02 0. -1.
        1   -1    0    0  501    0  0.00000000000E+00  0.00000000000E+00 -0.47016869359E+03  0.47016869362E+03  0.50400001928E-02 0.  1.
    10030    2    1    2    0    0  0.00000000000E+00  0.00000000000E+00  0.72232610602E+03  0.16626634932E+04  0.14975629831E+04 0.  0.
        2    1    3    3  502    0 -0.51007884612E+03 -0.76830925202E+02  0.96376216482E+03  0.10931243894E+04  0.25500000920E-02 0. -1.
       -2    1    3    3    0  502  0.51007884612E+03  0.76830925202E+02 -0.24143605880E+03  0.56953910386E+03  0.25500000920E-02 0.  1.
</event>
<event>
 5   0  0.4785496E-04  0.1386574E+04  0.7818609E-02  0.8963595E-01
       -2   -1    0    0    0  501  0.00000000000E+00  0.00000000000E+00  0.61229660688E+03  0.61229660688E+03  0.25500000920E-02 0. -1.
        2   -1    0    0  501    0  0.00000000000E+00  0.00000000000E+00 -0.78499037903E+03  0.78499037903E+03  0.25500000920E-02 0.  1.
    10030    2    1    2    0    0  0.00000000000E+00  0.00000000000E+00 -0.17269377215E+03  0.13972869859E+04  0.13865741170E+04 0.  0.
        4    1    3    3  502    0  0.28947358282E+03  0.55032541835E+03  0.22260346274E+03  0.66045963976E+03  0.12699999809E+01 0. -1.
       -4    1    3    3    0  502 -0.28947358282E+03 -0.55032541835E+03 -0.39529723489E+03  0.73682734615E+03  0.12699999809E+01 0.  1.
</event>
<event>
 5   0  0.4768387E-04  0.1503680E+04  0.7818609E-02  0.8882010E-01
        2   -1    0    0  501    0  0.00000000000E+00  0.00000000000E+00  0.16636136405E+04  0.16636136405E+04  0.25500000920E-02 0. -1.
       -2   -1    0    0    0  501  0.00000000000E+00  0.00000000000E+00 -0.33978024610E+03  0.33978024611E+03  0.25500000920E-02 0.  1.
    10030    2    1    2    0    0  0.00000000000E+00  0.00000000000E+00  0.13238333944E+04  0.20033938866E+04  0.15036795565E+04 0.  0.
        3    1    3    3  502    0  0.56516830787E+03  0.14169758543E+03  0.28858261936E+02  0.58337486355E+03  0.10100000352E+00 0. -1.
       -3    1    3    3    0  502 -0.56516830787E+03 -0.14169758543E+03  0.12949751324E+04  0.14200190230E+04  0.10100000352E+00 0.  1.
</event>
<event>
 5   0  0.4768387E-04  0.1525699E+04  0.7818609E-02  0.8867541E-01
        2   -1    0    0  501    0  0.00000000000E+00  0.00000000000E+00  0.54002765396E+03  0.54002765397E+03  0.25500000920E-02 0.  1.
       -2   -1    0    0    0  501  0.00000000000E+00  0.00000000000E+00 -0.10776097010E+04  0.10776097010E+04  0.25500000920E-02 0. -1.
    10030    2    1    2    0    0  0.00000000000E+00  0.00000000000E+00 -0.53758204707E+03  0.16176373550E+04  0.15256985793E+04 0.  0.
        3    1    3    3  502    0  0.23391874854E+03 -0.43375218383E+03 -0.88618668127E+03  0.10139949616E+04  0.10100000352E+00 0. -1.
       -3    1    3    3    0  502 -0.23391874854E+03  0.43375218383E+03  0.34860463421E+03  0.60364239339E+03  0.10100000352E+00 0.  1.
</event>
<event>
 5   0  0.4768387E-04  0.1496676E+04  0.7818609E-02  0.8886666E-01
       -2   -1    0    0    0  501  0.00000000000E+00  0.00000000000E+00  0.28690316623E+03  0.28690316624E+03  0.25500000920E-02 0.  1.
        2   -1    0    0  501    0  0.00000000000E+00  0.00000000000E+00 -0.19519132253E+04  0.19519132253E+04  0.25500000920E-02 0. -1.
    10030    2    1    2    0    0  0.00000000000E+00  0.00000000000E+00 -0.16650100591E+04  0.22388163916E+04  0.14966764307E+04 0.  0.
        3    1    3    3  502    0 -0.18114543853E+03 -0.47594867514E+03 -0.12276114811E+02  0.50940310606E+03  0.10100000352E+00 0.  1.
       -3    1    3    3    0  502  0.18114543853E+03  0.47594867514E+03 -0.16527339443E+04  0.17294132855E+04  0.10100000352E+00 0. -1.
</event>
<event>
 5   0  0.4569211E-04  0.1485914E+04  0.7818609E-02  0.8893874E-01
        2   -1    0    0  501    0  0.00000000000E+00  0.00000000000E+00  0.12989547369E+04  0.12989547369E+04  0.25500000920E-02 0. -1.
       -2   -1    0    0    0  501  0.00000000000E+00  0.00000000000E+00 -0.42494553442E+03  0.42494553443E+03  0.25500000920E-02 0.  1.
    10030    2    1    2    0    0  0.00000000000E+00  0.00000000000E+00  0.87400920250E+03  0.17239002713E+04  0.14859138802E+04 0.  0.
        5    1    3    3  502    0  0.27367515376E+03  0.60541793938E+03  0.51289758886E+02  0.66639455315E+03  0.46999998093E+01 0.  1.
       -5    1    3    3    0  502 -0.27367515376E+03 -0.60541793938E+03  0.82271944361E+03  0.10575057182E+04  0.46999998093E+01 0. -1.
</event>
<event>
 5   0  0.2605471E-04  0.1561198E+04  0.7818609E-02  0.8844747E-01
        1   -1    0    0  501    0  0.00000000000E+00  0.00000000000E+00  0.12462583392E+04  0.12462583392E+04  0.50400001928E-02 0. -1.
       -1   -1    0    0    0  501  0.00000000000E+00  0.00000000000E+00 -0.48893109185E+03  0.48893109188E+03  0.50400001928E-02 0.  1.
    10030    2    1    2    0    0  0.00000000000E+00  0.00000000000E+00  0.75732724739E+03  0.17351894311E+04  0.15611975539E+04 0.  0.
        3    1    3    3  502    0 -0.15322701799E+02  0.47419480317E+03  0.10676168235E+04  0.11682898564E+04  0.10100000352E+00 0. -1.
       -3    1    3    3    0  502  0.15322701799E+02 -0.47419480317E+03 -0.31028957614E+03  0.56689957471E+03  0.10100000352E+00 0.  1.
</event>
<event>
 5   0  0.1792000E-04  0.1485678E+04  0.7818609E-02  0.8894033E-01
        3   -1    0    0  501    0  0.00000000000E+00  0.00000000000E+00  0.42579090438E+03  0.42579091636E+03  0.10100000352E+00 0.  1.
       -3   -1    0    0    0  501  0.00000000000E+00  0.00000000000E+00 -0.12959633575E+04  0.12959633614E+04  0.10100000352E+00 0. -1.
    10030    2    1    2    0    0  0.00000000000E+00  0.00000000000E+00 -0.87017245312E+03  0.17217542778E+04  0.14856775205E+04 0.  0.
        5    1    3    3  502    0 -0.62108654836E+02  0.57679614707E+03 -0.97274177090E+03  0.11326075769E+04  0.46999998093E+01 0. -1.
       -5    1    3    3    0  502  0.62108654836E+02 -0.57679614707E+03  0.10256931778E+03  0.58914670094E+03  0.46999998093E+01 0.  1.
</event>
<event>
 5   0  0.2603873E-04  0.1499127E+04  0.7818609E-02  0.8885034E-01
        1   -1    0    0  501    0  0.00000000000E+00  0.00000000000E+00  0.10100097675E+04  0.10100097675E+04  0.50400001928E-02 0.  1.
       -1   -1    0    0    0  501  0.00000000000E+00  0.00000000000E+00 -0.55627739578E+03  0.55627739580E+03  0.50400001928E-02 0. -1.
    10030    2    1    2    0    0  0.00000000000E+00  0.00000000000E+00  0.45373237169E+03  0.15662871633E+04  0.14991272170E+04 0.  0.
        2    1    3    3  502    0  0.43560782070E+03  0.60787665525E+03  0.27990868230E+03  0.79850928103E+03  0.25500000920E-02 0. -1.
       -2    1    3    3    0  502 -0.43560782070E+03 -0.60787665525E+03  0.17382368939E+03  0.76777788224E+03  0.25500000920E-02 0.  1.
</event>
<event>
 5   0  0.2544374E-04  0.1492296E+04  0.7818609E-02  0.8889592E-01
       -1   -1    0    0    0  501  0.00000000000E+00  0.00000000000E+00  0.39178773157E+03  0.39178773161E+03  0.50400001928E-02 0. -1.
        1   -1    0    0  501    0  0.00000000000E+00  0.00000000000E+00 -0.14210174214E+04  0.14210174214E+04  0.50400001928E-02 0.  1.
    10030    2    1    2    0    0  0.00000000000E+00  0.00000000000E+00 -0.10292296898E+04  0.18128051530E+04  0.14922964747E+04 0.  0.
        4    1    3    3  502    0  0.57972785713E+02 -0.60746640473E+03  0.69742971419E+01  0.61026758925E+03  0.12699999809E+01 0. -1.
       -4    1    3    3    0  502 -0.57972785713E+02  0.60746640473E+03 -0.10362039870E+04  0.12025375638E+04  0.12699999809E+01 0.  1.
</event>
<event>
 5   0  0.4768387E-04  0.1504704E+04  0.7818609E-02  0.8881331E-01
        2   -1    0    0  501    0  0.00000000000E+00  0.00000000000E+00  0.22265822909E+04  0.22265822909E+04  0.25500000920E-02 0.  1.
       -2   -1    0    0    0  501  0.00000000000E+00  0.00000000000E+00 -0.25421628961E+03  0.25421628963E+03  0.25500000920E-02 0. -1.
    10030    2    1    2    0    0  0.00000000000E+00  0.00000000000E+00  0.19723660013E+04  0.24807985806E+04  0.15047039424E+04 0.  0.
        3    1    3    3  502    0  0.57721093336E+03 -0.44475011856E+03  0.67748332400E+03  0.99496673012E+03  0.10100000352E+00 0. -1.
       -3    1    3    3    0  502 -0.57721093336E+03  0.44475011856E+03  0.12948826773E+04  0.14858318504E+04  0.10100000352E+00 0.  1.
</event>
<event>
 5   0  0.4768387E-04  0.1505920E+04  0.7818609E-02  0.8880526E-01
        2   -1    0    0  501    0  0.00000000000E+00  0.00000000000E+00  0.67637944840E+03  0.67637944840E+03  0.25500000920E-02 0. -1.
       -2   -1    0    0    0  501  0.00000000000E+00  0.00000000000E+00 -0.83821080135E+03  0.83821080135E+03  0.25500000920E-02 0.  1.
    10030    2    1    2    0    0  0.00000000000E+00  0.00000000000E+00 -0.16183135295E+03  0.15145902498E+04  0.15059197315E+04 0.  0.
        3    1    3    3  502    0 -0.74020530647E+03 -0.10949681648E+03  0.35625799866E+01  0.74826876904E+03  0.10100000352E+00 0.  1.
       -3    1    3    3    0  502  0.74020530647E+03  0.10949681648E+03 -0.16539393294E+03  0.76632148071E+03  0.10100000352E+00 0. -1.
</event>
<event>
 5   0  0.4948645E-04  0.1569681E+04  0.7818609E-02  0.8839394E-01
        2   -1    0    0  501    0  0.00000000000E+00  0.00000000000E+00  0.16369479638E+04  0.16369479638E+04  0.25500000920E-02 0. -1.
       -2   -1    0    0    0  501  0.00000000000E+00  0.00000000000E+00 -0.37629449117E+03  0.37629449118E+03  0.25500000920E-02 0.  1.
    10030    2    1    2    0    0  0.00000000000E+00  0.00000000000E+00  0.12606534726E+04  0.20132424550E+04  0.15696808607E+04 0.  0.
        1    1    3    3  502    0  0.52179394060E+02 -0.41991269209E+03  0.14781166312E+04  0.15374908564E+04  0.50400001928E-02 0. -1.
       -1    1    3    3    0  502 -0.52179394060E+02  0.41991269209E+03 -0.21746315860E+03  0.47575159854E+03  0.50400001928E-02 0.  1.
</event>
<event>
 5   0  0.2542737E-04  0.1510248E+04  0.7818609E-02  0.8877667E-01
       -1   -1    0    0    0  501  0.00000000000E+00  0.00000000000E+00  0.81270571665E+03  0.81270571667E+03  0.50400001928E-02 0. -1.
        1   -1    0    0  501    0  0.00000000000E+00  0.00000000000E+00 -0.70162206895E+03  0.70162206897E+03  0.50400001928E-02 0.  1.
    10030    2    1    2    0    0  0.00000000000E+00  0.00000000000E+00  0.11108364770E+03  0.15143277856E+04  0.15102480146E+04 0.  0.
        1    1    3    3  502    0  0.49305590719E+03  0.29318496718E+03  0.54793938530E+03  0.79328375918E+03  0.50400001928E-02 0. -1.
       -1    1    3    3    0  502 -0.49305590719E+03 -0.29318496718E+03 -0.43685573760E+03  0.72104402645E+03  0.50400001928E-02 0.  1.
</event>
<event>
 5   0  0.4726600E-04  0.1496737E+04  0.7818609E-02  0.8886626E-01
       -2   -1    0    0    0  501  0.00000000000E+00  0.00000000000E+00  0.48853030324E+03  0.48853030325E+03  0.25500000920E-02 0. -1.
        2   -1    0    0  501    0  0.00000000000E+00  0.00000000000E+00 -0.11464091079E+04  0.11464091079E+04  0.25500000920E-02 0.  1.
    10030    2    1    2    0    0  0.00000000000E+00  0.00000000000E+00 -0.65787880466E+03  0.16349394111E+04  0.14967372370E+04 0.  0.
        2    1    3    3  502    0 -0.34904512616E+03  0.58614853247E+03 -0.66500438411E+03  0.95269797580E+03  0.25500000920E-02 0. -1.
       -2    1    3    3    0  502  0.34904512616E+03 -0.58614853247E+03  0.71255794500E+01  0.68224143535E+03  0.25500000920E-02 0.  1.
</event>
<event>
 5   0  0.4768387E-04  0.1483316E+04  0.7818609E-02  0.8895624E-01
       -2   -1    0    0    0  501  0.00000000000E+00  0.00000000000E+00  0.74015928211E+03  0.74015928212E+03  0.25500000920E-02 0. -1.
        2   -1    0    0  501    0  0.00000000000E+00  0.00000000000E+00 -0.74316009683E+03  0.74316009683E+03  0.25500000920E-02 0.  1.
    10030    2    1    2    0    0  0.00000000000E+00  0.00000000000E+00 -0.30008147114E+01  0.14833193789E+04  0.14833163436E+04 0.  0.
        3    1    3    3  502    0  0.39835031324E+02  0.47408730000E+03 -0.57045784046E+03  0.74281071322E+03  0.10100000352E+00 0.  1.
       -3    1    3    3    0  502 -0.39835031324E+02 -0.47408730000E+03  0.56745702575E+03  0.74050866572E+03  0.10100000352E+00 0. -1.
</event>
<event>
 5   0  0.2542737E-04  0.1502718E+04  0.7818609E-02  0.8882648E-01
        1   -1    0    0  501    0  0.00000000000E+00  0.00000000000E+00  0.10117143586E+04  0.10117143586E+04  0.50400001928E-02 0.  1.
       -1   -1    0    0    0  501  0.00000000000E+00  0.00000000000E+00 -0.55800360102E+03  0.55800360104E+03  0.50400001928E-02 0. -1.
    10030    2    1    2    0    0  0.00000000000E+00  0.00000000000E+00  0.45371075753E+03  0.15697179596E+04  0.15027178781E+04 0.  0.
        1    1    3    3  502    0  0.44805238566E+02 -0.15445195650E+03 -0.53981472254E+03  0.56326090843E+03  0.50400001928E-02 0. -1.
       -1    1    3    3    0  502 -0.44805238566E+02  0.15445195650E+03  0.99352548008E+03  0.10064570512E+04  0.50400001928E-02 0.  1.
</event>
<event>
 5   0  0.4785496E-04  0.1505858E+04  0.7818609E-02  0.8880567E-01
       -2   -1    0    0    0  501  0.00000000000E+00  0.00000000000E+00  0.76852870707E+03  0.76852870708E+03  0.25500000920E-02 0.  1.
        2   -1    0    0  501    0  0.00000000000E+00  0.00000000000E+00 -0.73764629796E+03  0.73764629797E+03  0.25500000920E-02 0. -1.
    10030    2    1    2    0    0  0.00000000000E+00  0.00000000000E+00  0.30882409109E+02  0.15061750050E+04  0.15058583674E+04 0.  0.
        4    1    3    3  502    0 -0.15356494433E+02  0.27145026603E+03 -0.68683154439E+03  0.73868819682E+03  0.12699999809E+01 0. -1.
       -4    1    3    3    0  502  0.15356494433E+02 -0.27145026603E+03  0.71771395350E+03  0.76748680822E+03  0.12699999809E+01 0.  1.
</event>
<event>
 5   0  0.2565416E-04  0.1497342E+04  0.7818609E-02  0.8886223E-01
        1   -1    0    0  501    0  0.00000000000E+00  0.00000000000E+00  0.10168839410E+04  0.10168839411E+04  0.50400001928E-02 0. -1.
       -1   -1    0    0    0  501  0.00000000000E+00  0.00000000000E+00 -0.55120166417E+03  0.55120166420E+03  0.50400001928E-02 0.  1.
    10030    2    1    2    0    0  0.00000000000E+00  0.00000000000E+00  0.46568227687E+03  0.15680856053E+04  0.14973418055E+04 0.  0.
        5    1    3    3  502    0 -0.47808215401E+03 -0.98436758814E+02  0.82731708850E+03  0.96058731847E+03  0.46999998093E+01 0. -1.
       -5    1    3    3    0  502  0.47808215401E+03  0.98436758814E+02 -0.36163481163E+03  0.60749828679E+03  0.46999998093E+01 0.  1.
</event>
<event>
 5   0  0.4569211E-04  0.1513799E+04  0.7818609E-02  0.8875328E-01
        2   -1    0    0  501    0  0.00000000000E+00  0.00000000000E+00  0.16694255845E+04  0.16694255845E+04  0.25500000920E-02 0.  1.
       -2   -1    0    0    0  501  0.00000000000E+00  0.00000000000E+00 -0.34316991912E+03  0.34316991913E+03  0.25500000920E-02 0. -1.
    10030    2    1    2    0    0  0.00000000000E+00  0.00000000000E+00  0.13262556654E+04  0.20125955036E+04  0.15137987222E+04 0.  0.
        5    1    3    3  502    0 -0.41411648637E+03  0.48917174465E+03  0.11983950161E+04  0.13590269183E+04  0.46999998093E+01 0. -1.
       -5    1    3    3    0  502  0.41411648637E+03 -0.48917174465E+03  0.12786064924E+03  0.65356858529E+03  0.46999998093E+01 0.  1.
</event>
<event>
 5   0  0.4785496E-04  0.1499415E+04  0.7818609E-02  0.8884842E-01
        2   -1    0    0  501    0  0.00000000000E+00  0.00000000000E+00  0.19801349742E+04  0.19801349742E+04  0.25500000920E-02 0. -1.
       -2   -1    0    0    0  501  0.00000000000E+00  0.00000000000E+00 -0.28385012055E+03  0.28385012057E+03  0.25500000920E-02 0.  1.
    10030    2    1    2    0    0  0.00000000000E+00  0.00000000000E+00  0.16962848536E+04  0.22639850948E+04  0.14994152876E+04 0.  0.
        4    1    3    3  502    0 -0.52654979859E+02 -0.47240112975E+03 -0.27247923095E+02  0.47610863939E+03  0.12699999809E+01 0.  1.
       -4    1    3    3    0  502  0.52654979859E+02  0.47240112975E+03  0.17235327767E+04  0.17878764554E+04  0.12699999809E+01 0. -1.
</event>
<event>
 5   0  0.4768387E-04  0.1494972E+04  0.7818609E-02  0.8887804E-01
       -2   -1    0    0    0  501  0.00000000000E+00  0.00000000000E+00  0.25921309881E+03  0.25921309883E+03  0.25500000920E-02 0.  1.
        2   -1    0    0  501    0  0.00000000000E+00  0.00000000000E+00 -0.21555050866E+04  0.21555050866E+04  0.25500000920E-02 0. -1.
    10030    2    1    2    0    0  0.00000000000E+00  0.00000000000E+00 -0.18962919878E+04  0.24147181855E+04  0.14949717764E+04 0.  0.
        3    1    3    3  502    0  0.91940149048E+02 -0.11178877168E+02  0.24990927526E+03  0.26651944462E+03  0.10100000352E+00 0.  1.
       -3    1    3    3    0  502 -0.91940149048E+02  0.11178877168E+02 -0.21462012631E+04  0.21481987408E+04  0.10100000352E+00 0. -1.
</event>
<event>
 5   0  0.4768387E-04  0.1504868E+04  0.7818609E-02  0.8881222E-01
       -2   -1    0    0    0  501  0.00000000000E+00  0.00000000000E+00  0.27860061345E+03  0.27860061346E+03  0.25500000920E-02 0. -1.
        2   -1    0    0  501    0  0.00000000000E+00  0.00000000000E+00 -0.20321459137E+04  0.20321459137E+04  0.25500000920E-02 0.  1.
    10030    2    1    2    0    0  0.00000000000E+00  0.00000000000E+00 -0.17535453003E+04  0.23107465272E+04  0.15048682310E+04 0.  0.
        3    1    3    3  502    0  0.49607488849E+03  0.55741093669E+03 -0.72821738017E+03  0.10426398277E+04  0.10100000352E+00 0. -1.
       -3    1    3    3    0  502 -0.49607488849E+03 -0.55741093669E+03 -0.10253279201E+04  0.12681066995E+04  0.10100000352E+00 0.  1.
</event>
<event>
 5   0  0.4785496E-04  0.1497317E+04  0.7818609E-02  0.8886239E-01
       -2   -1    0    0    0  501  0.00000000000E+00  0.00000000000E+00  0.63878654849E+03  0.63878654850E+03  0.25500000920E-02 0. -1.
        2   -1    0    0  501    0  0.00000000000E+00  0.00000000000E+00 -0.87742873671E+03  0.87742873671E+03  0.25500000920E-02 0.  1.
    10030    2    1    2    0    0  0.00000000000E+00  0.00000000000E+00 -0.23864218822E+03  0.15162152852E+04  0.14973171665E+04 0.  0.
        4    1    3    3  502    0  0.43678958448E+03 -0.45762238321E+03 -0.52472979640E+03  0.82191627241E+03  0.12699999809E+01 0.  1.
       -4    1    3    3    0  502 -0.43678958448E+03  0.45762238321E+03  0.28608760818E+03  0.69429901280E+03  0.12699999809E+01 0. -1.
</event>
<event>
 5   0  0.4768387E-04  0.1491265E+04  0.7818609E-02  0.8890282E-01
        2   -1    0    0  501    0  0.00000000000E+00  0.00000000000E+00  0.20112311687E+04  0.20112311687E+04  0.25500000920E-02 0. -1.
       -2   -1    0    0    0  501  0.00000000000E+00  0.00000000000E+00 -0.27643176915E+03  0.27643176917E+03  0.25500000920E-02 0.  1.
    10030    2    1    2    0    0  0.00000000000E+00  0.00000000000E+00  0.17347993996E+04  0.22876629379E+04  0.14912654897E+04 0.  0.
        3    1    3    3  502    0 -0.43726433218E+03 -0.54270434945E+03  0.46083511494E+03  0.83552206462E+03  0.10100000352E+00 0.  1.
       -3    1    3    3    0  502  0.43726433218E+03  0.54270434945E+03  0.12739642846E+04  0.14521408733E+04  0.10100000352E+00 0. -1.
</event>
<event>
 5   0  0.2565416E-04  0.1484232E+04  0.7818609E-02  0.8895007E-01
       -1   -1    0    0    0  501  0.00000000000E+00  0.00000000000E+00  0.69205526278E+03  0.69205526280E+03  0.50400001928E-02 0.  1.
        1   -1    0    0  501    0  0.00000000000E+00  0.00000000000E+00 -0.79579812399E+03  0.79579812401E+03  0.50400001928E-02 0. -1.
    10030    2    1    2    0    0  0.00000000000E+00  0.00000000000E+00 -0.10374286121E+03  0.14878533868E+04  0.14842321649E+04 0.  0.
        5    1    3    3  502    0 -0.73056462520E+03 -0.33231424177E+01 -0.18249081675E+03  0.75303433060E+03  0.46999998093E+01 0.  1.
       -5    1    3    3    0  502  0.73056462520E+03  0.33231424177E+01  0.78747955533E+02  0.73481905621E+03  0.46999998093E+01 0. -1.
</event>
<event>
 5   0  0.4948645E-04  0.1495988E+04  0.7818609E-02  0.8887125E-01
       -2   -1    0    0    0  501  0.00000000000E+00  0.00000000000E+00  0.48402442831E+03  0.48402442832E+03  0.25500000920E-02 0. -1.
        2   -1    0    0  501    0  0.00000000000E+00  0.00000000000E+00 -0.11559231436E+04  0.11559231436E+04  0.25500000920E-02 0.  1.
    10030    2    1    2    0    0  0.00000000000E+00  0.00000000000E+00 -0.67189871532E+03  0.16399475720E+04  0.14959880197E+04 0.  0.
        1    1    3    3  502    0  0.13554236131E+03 -0.70419198898E+03 -0.56910638256E+03  0.91549995290E+03  0.50400001928E-02 0. -1.
       -1    1    3    3    0  502 -0.13554236131E+03  0.70419198898E+03 -0.10279233276E+03  0.72444761906E+03  0.50400001928E-02 0.  1.
</event>
<event>
 5   0  0.2542737E-04  0.1509901E+04  0.7818609E-02  0.8877896E-01
       -1   -1    0    0    0  501  0.00000000000E+00  0.00000000000E+00  0.14485946420E+04  0.14485946420E+04  0.50400001928E-02 0.  1.
        1   -1    0    0  501    0  0.00000000000E+00  0.00000000000E+00 -0.39345026445E+03  0.39345026449E+03  0.50400001928E-02 0. -1.
    10030    2    1    2    0    0  0.00000000000E+00  0.00000000000E+00  0.10551443775E+04  0.18420449065E+04  0.15099005862E+04 0.  0.
        1    1    3    3  502    0  0.42261677775E+03  0.60066933547E+03  0.31436786874E+03  0.79889658174E+03  0.50400001928E-02 0. -1.
       -1    1    3    3    0  502 -0.42261677775E+03 -0.60066933547E+03  0.74077650879E+03  0.10431483247E+04  0.50400001928E-02 0.  1.
</event>
<event>
 5   0  0.4785496E-04  0.1521576E+04  0.7818609E-02  0.8870231E-01
       -2   -1    0    0    0  501  0.00000000000E+00  0.00000000000E+00  0.10982665896E+04  0.10982665896E+04  0.25500000920E-02 0. -1.
        2   -1    0    0  501    0  0.00000000000E+00  0.00000000000E+00 -0.52701084636E+03  0.52701084636E+03  0.25500000920E-02 0.  1.
    10030    2    1    2    0    0  0.00000000000E+00  0.00000000000E+00  0.57125574327E+03  0.16252774360E+04  0.15215760315E+04 0.  0.
        4    1    3    3  502    0 -0.38121110338E+03 -0.57386584078E+02  0.98621119705E+03  0.10588811375E+04  0.12699999809E+01 0. -1.
       -4    1    3    3    0  502  0.38121110338E+03  0.57386584078E+02 -0.41495545378E+03  0.56639629844E+03  0.12699999809E+01 0.  1.
</event>
<event>
 5   0  0.4785496E-04  0.1405750E+04  0.7818609E-02  0.8949667E-01
        2   -1    0    0  501    0  0.00000000000E+00  0.00000000000E+00  0.99518116010E+03  0.99518116010E+03  0.25500000920E-02 0. -1.
       -2   -1    0    0    0  501  0.00000000000E+00  0.00000000000E+00 -0.49642538264E+03  0.49642538265E+03  0.25500000920E-02 0.  1.
    10030    2    1    2    0    0  0.00000000000E+00  0.00000000000E+00  0.49875577745E+03  0.14916065427E+04  0.14057498899E+04 0.  0.
        4    1    3    3  502    0 -0.57927415499E+03 -0.35722496439E+03  0.43578727561E+03  0.80813389008E+03  0.12699999809E+01 0. -1.
       -4    1    3    3    0  502  0.57927415499E+03  0.35722496439E+03  0.62968501841E+02  0.68347265267E+03  0.12699999809E+01 0.  1.
</event>
<event>
 5   0  0.1792000E-04  0.1495475E+04  0.7818609E-02  0.8887467E-01
        3   -1    0    0  501    0  0.00000000000E+00  0.00000000000E+00  0.10031188878E+04  0.10031188929E+04  0.10100000352E+00 0. -1.
       -3   -1    0    0    0  501  0.00000000000E+00  0.00000000000E+00 -0.55737325733E+03  0.55737326648E+03  0.10100000352E+00 0.  1.
    10030    2    1    2    0    0  0.00000000000E+00  0.00000000000E+00  0.44574563046E+03  0.15604921594E+04  0.14954753801E+04 0.  0.
        4    1    3    3  502    0  0.13141358705E+02 -0.74576342702E+03  0.27783393527E+03  0.79594540823E+03  0.12699999809E+01 0. -1.
       -4    1    3    3    0  502 -0.13141358705E+02  0.74576342702E+03  0.16791169519E+03  0.76454675114E+03  0.12699999809E+01 0.  1.
</event>
<event>
 5   0  0.4785496E-04  0.1499246E+04  0.7818609E-02  0.8884954E-01
        2   -1    0    0  501    0  0.00000000000E+00  0.00000000000E+00  0.27729529766E+04  0.27729529766E+04  0.25500000920E-02 0.  1.
       -2   -1    0    0    0  501  0.00000000000E+00  0.00000000000E+00 -0.20264853095E+03  0.20264853097E+03  0.25500000920E-02 0. -1.
    10030    2    1    2    0    0  0.00000000000E+00  0.00000000000E+00  0.25703044457E+04  0.29756015076E+04  0.14992462735E+04 0.  0.
        4    1    3    3  502    0 -0.12563426745E+03  0.35785476489E+02  0.27501862381E+04  0.27532872219E+04  0.12699999809E+01 0.  1.
       -4    1    3    3    0  502  0.12563426745E+03 -0.35785476489E+02 -0.17988179238E+03  0.22231428567E+03  0.12699999809E+01 0. -1.
</event>
<event>
 5   0  0.4948645E-04  0.1500458E+04  0.7818609E-02  0.8884148E-01
        2   -1    0    0  501    0  0.00000000000E+00  0.00000000000E+00  0.77887342882E+03  0.77887342882E+03  0.25500000920E-02 0.  1.
       -2   -1    0    0    0  501  0.00000000000E+00  0.00000000000E+00 -0.72263819287E+03  0.72263819288E+03  0.25500000920E-02 0. -1.
    10030    2    1    2    0    0  0.00000000000E+00  0.00000000000E+00  0.56235235944E+02  0.15015116217E+04  0.15004581795E+04 0.  0.
        1    1    3    3  502    0 -0.60084667420E+03 -0.44877697536E+03  0.48776422304E+02  0.75152953296E+03  0.50400001928E-02 0. -1.
       -1    1    3    3    0  502  0.60084667420E+03  0.44877697536E+03  0.74588136396E+01  0.74998208874E+03  0.50400001928E-02 0.  1.
</event>
<event>
 5   0  0.2544374E-04  0.1493058E+04  0.7818609E-02  0.8889082E-01
       -1   -1    0    0    0  501  0.00000000000E+00  0.00000000000E+00  0.40347906947E+03  0.40347906951E+03  0.50400001928E-02 0. -1.
        1   -1    0    0  501    0  0.00000000000E+00  0.00000000000E+00 -0.13812504695E+04  0.13812504695E+04  0.50400001928E-02 0.  1.
    10030    2    1    2    0    0  0.00000000000E+00  0.00000000000E+00 -0.97777140002E+03  0.17847295390E+04  0.14930581424E+04 0.  0.
        4    1    3    3  502    0  0.25460590946E+03 -0.19906783730E+03  0.31551746985E+03  0.45166919273E+03  0.12699999809E+01 0. -1.
       -4    1    3    3    0  502 -0.25460590946E+03  0.19906783730E+03 -0.12932888699E+04  0.13330603463E+04  0.12699999809E+01 0.  1.
</event>
<event>
 5   0  0.1792000E-04  0.1498161E+04  0.7818609E-02  0.8885677E-01
        3   -1    0    0  501    0  0.00000000000E+00  0.00000000000E+00  0.34703497756E+03  0.34703499226E+03  0.10100000352E+00 0.  1.
       -3   -1    0    0    0  501  0.00000000000E+00  0.00000000000E+00 -0.16169020419E+04  0.16169020451E+04  0.10100000352E+00 0. -1.
    10030    2    1    2    0    0  0.00000000000E+00  0.00000000000E+00 -0.12698670644E+04  0.19639370374E+04  0.14981609812E+04 0.  0.
        1    1    3    3  502    0 -0.50871547057E+03 -0.46817343553E+03 -0.25694034200E+03  0.73756093654E+03  0.50400001928E-02 0.  1.
       -1    1    3    3    0  502  0.50871547057E+03  0.46817343553E+03 -0.10129267224E+04  0.12263761008E+04  0.50400001928E-02 0. -1.
</event>
<event>
 5   0  0.2565416E-04  0.1500270E+04  0.7818609E-02  0.8884273E-01
        1   -1    0    0  501    0  0.00000000000E+00  0.00000000000E+00  0.62707073557E+03  0.62707073559E+03  0.50400001928E-02 0. -1.
       -1   -1    0    0    0  501  0.00000000000E+00  0.00000000000E+00 -0.89735130516E+03  0.89735130518E+03  0.50400001928E-02 0.  1.
    10030    2    1    2    0    0  0.00000000000E+00  0.00000000000E+00 -0.27028056959E+03  0.15244220408E+04  0.15002702997E+04 0.  0.
        5    1    3    3  502    0  0.71364786198E+03 -0.18153660558E+03  0.10100798175E+02  0.73645972476E+03  0.46999998093E+01 0.  1.
       -5    1    3    3    0  502 -0.71364786198E+03  0.18153660558E+03 -0.28038136777E+03  0.78796231601E+03  0.46999998093E+01 0. -1.
</event>
<event>
 5   0  0.4785496E-04  0.1472962E+04  0.7818609E-02  0.8902635E-01
       -2   -1    0    0    0  501  0.00000000000E+00  0.00000000000E+00  0.59454334931E+03  0.59454334932E+03  0.25500000920E-02 0. -1.
        2   -1    0    0  501    0  0.00000000000E+00  0.00000000000E+00 -0.91230415157E+03  0.91230415157E+03  0.25500000920E-02 0.  1.
    10030    2    1    2    0    0  0.00000000000E+00  0.00000000000E+00 -0.31776080226E+03  0.15068475009E+04  0.14729621392E+04 0.  0.
        4    1    3    3  502    0 -0.33796838481E+03 -0.59424114423E+03  0.12138856759E+03  0.69432122528E+03  0.12699999809E+01 0. -1.
       -4    1    3    3    0  502  0.33796838481E+03  0.59424114423E+03 -0.43914936985E+03  0.81252627562E+03  0.12699999809E+01 0.  1.
</event>
<event>
 5   0  0.4948645E-04  0.1509853E+04  0.7818609E-02  0.8877927E-01
       -2   -1    0    0    0  501  0.00000000000E+00  0.00000000000E+00  0.96897806921E+03  0.96897806921E+03  0.25500000920E-02 0. -1.
        2   -1    0    0  501    0  0.00000000000E+00  0.00000000000E+00 -0.58815970745E+03  0.58815970746E+03  0.25500000920E-02 0.  1.
    10030    2    1    2    0    0  0.00000000000E+00  0.00000000000E+00  0.38081836175E+03  0.15571377767E+04  0.15098527845E+04 0.  0.
        1    1    3    3  502    0 -0.24625667612E+03  0.59941246311E+02  0.92379026559E+03  0.95792680220E+03  0.50400001928E-02 0. -1.
       -1    1    3    3    0  502  0.24625667612E+03 -0.59941246311E+02 -0.54297190384E+03  0.59921097447E+03  0.50400001928E-02 0.  1.
</event>
<event>
 5   0  0.4726600E-04  0.1492812E+04  0.7818609E-02  0.8889247E-01
        2   -1    0    0  501    0  0.00000000000E+00  0.00000000000E+00  0.22622290048E+04  0.22622290048E+04  0.25500000920E-02 0.  1.
       -2   -1    0    0    0  501  0.00000000000E+00  0.00000000000E+00 -0.24627135193E+03  0.24627135194E+03  0.25500000920E-02 0. -1.
    10030    2    1    2    0    0  0.00000000000E+00  0.00000000000E+00  0.20159576528E+04  0.25085003567E+04  0.14928123732E+04 0.  0.
        2    1    3    3  502    0 -0.57634557662E+03  0.47368375819E+03  0.10481561717E+04  0.12865387234E+04  0.25500000920E-02 0. -1.
       -2    1    3    3    0  502  0.57634557662E+03 -0.47368375819E+03  0.96780148114E+03  0.12219616333E+04  0.25500000920E-02 0.  1.
</event>
<event>
 5   0  0.4569211E-04  0.1503953E+04  0.7818609E-02  0.8881829E-01
       -2   -1    0    0    0  501  0.00000000000E+00  0.00000000000E+00  0.60810679539E+03  0.60810679539E+03  0.25500000920E-02 0. -1.
        2   -1    0    0  501    0  0.00000000000E+00  0.00000000000E+00 -0.92988371248E+03  0.92988371248E+03  0.25500000920E-02 0.  1.
    10030    2    1    2    0    0  0.00000000000E+00  0.00000000000E+00 -0.32177691709E+03  0.15379905079E+04  0.15039529308E+04 0.  0.
        5    1    3    3  502    0  0.24878463526E+03 -0.30328229612E+02 -0.88589992407E+03  0.92068146594E+03  0.46999998093E+01 0.  1.
       -5    1    3    3    0  502 -0.24878463526E+03  0.30328229612E+02  0.56412300698E+03  0.61730904194E+03  0.46999998093E+01 0. -1.
</event>
<event>
 5   0  0.4726600E-04  0.1497740E+04  0.7818609E-02  0.8885957E-01
       -2   -1    0    0    0  501  0.00000000000E+00  0.00000000000E+00  0.54387507355E+03  0.54387507356E+03  0.25500000920E-02 0. -1.
        2   -1    0    0  501    0  0.00000000000E+00  0.00000000000E+00 -0.10311301217E+04  0.10311301217E+04  0.25500000920E-02 0.  1.
    10030    2    1    2    0    0  0.00000000000E+00  0.00000000000E+00 -0.48725504816E+03  0.15750051953E+04  0.14977395912E+04 0.  0.
        2    1    3    3  502    0  0.63565529920E+03  0.36908201394E+03 -0.92964709185E+02  0.74089245479E+03  0.25500000920E-02 0. -1.
       -2    1    3    3    0  502 -0.63565529920E+03 -0.36908201394E+03 -0.39429033897E+03  0.83411274047E+03  0.25500000920E-02 0.  1.
</event>
<event>
 5   0  0.2605471E-04  0.1488140E+04  0.7818609E-02  0.8892378E-01
        1   -1    0    0  501    0  0.00000000000E+00  0.00000000000E+00  0.53047266428E+03  0.53047266430E+03  0.50400001928E-02 0. -1.
       -1   -1    0    0    0  501  0.00000000000E+00  0.00000000000E+00 -0.10436730334E+04  0.10436730334E+04  0.50400001928E-02 0.  1.
    10030    2    1    2    0    0  0.00000000000E+00  0.00000000000E+00 -0.51320036908E+03  0.15741456977E+04  0.14881397981E+04 0.  0.
        3    1    3    3  502    0  0.54153183662E+03  0.58968176657E+02  0.27955232496E+03  0.61227729708E+03  0.10100000352E+00 0. -1.
       -3    1    3    3    0  502 -0.54153183662E+03 -0.58968176657E+02 -0.79275269403E+03  0.96186840058E+03  0.10100000352E+00 0.  1.
</event>
<event>
 5   0  0.4948645E-04  0.1503908E+04  0.7818609E-02  0.8881858E-01
        2   -1    0    0  501    0  0.00000000000E+00  0.00000000000E+00  0.15528617537E+04  0.15528617537E+04  0.25500000920E-02 0. -1.
       -2   -1    0    0    0  501  0.00000000000E+00  0.00000000000E+00 -0.36412438165E+03  0.36412438166E+03  0.25500000920E-02 0.  1.
    10030    2    1    2    0    0  0.00000000000E+00  0.00000000000E+00  0.11887373720E+04  0.19169861354E+04  0.15039080103E+04 0.  0.
        1    1    3    3  502    0 -0.61597712204E+02  0.53774869302E+03  0.12597254363E+04  0.13710857412E+04  0.50400001928E-02 0. -1.
       -1    1    3    3    0  502  0.61597712204E+02 -0.53774869302E+03 -0.70988064255E+02  0.54590039410E+03  0.50400001928E-02 0.  1.
</event>
<event>
 5   0  0.2603873E-04  0.1494349E+04  0.7818609E-02  0.8888220E-01
        1   -1    0    0  501    0  0.00000000000E+00  0.00000000000E+00  0.14926553648E+04  0.14926553649E+04  0.50400001928E-02 0. -1.
       -1   -1    0    0    0  501  0.00000000000E+00  0.00000000000E+00 -0.37401112242E+03  0.37401112245E+03  0.50400001928E-02 0.  1.
    10030    2    1    2    0    0  0.00000000000E+00  0.00000000000E+00  0.11186442424E+04  0.18666664873E+04  0.14943489665E+04 0.  0.
        2    1    3    3  502    0 -0.13252959694E+03 -0.58456830388E+03  0.11165404994E+04  0.12672595957E+04  0.25500000920E-02 0. -1.
       -2    1    3    3    0  502  0.13252959694E+03  0.58456830388E+03  0.21037429780E+01  0.59940689161E+03  0.25500000920E-02 0.  1.
</event>
<event>
 5   0  0.2544374E-04  0.1514918E+04  0.7818609E-02  0.8874593E-01
        1   -1    0    0  501    0  0.00000000000E+00  0.00000000000E+00  0.10637456547E+04  0.10637456547E+04  0.50400001928E-02 0. -1.
       -1   -1    0    0    0  501  0.00000000000E+00  0.00000000000E+00 -0.53936236146E+03  0.53936236148E+03  0.50400001928E-02 0.  1.
    10030    2    1    2    0    0  0.00000000000E+00  0.00000000000E+00  0.52438329322E+03  0.16031080162E+04  0.15149183058E+04 0.  0.
        4    1    3    3  502    0  0.57038502569E+03 -0.17232714045E+03 -0.23269410293E+03  0.63967482309E+03  0.12699999809E+01 0.  1.
       -4    1    3    3    0  502 -0.57038502569E+03  0.17232714045E+03  0.75707739615E+03  0.96343319308E+03  0.12699999809E+01 0. -1.
</event>
<event>
 5   0  0.4768387E-04  0.1503561E+04  0.7818609E-02  0.8882089E-01
       -2   -1    0    0    0  501  0.00000000000E+00  0.00000000000E+00  0.21433061780E+03  0.21433061782E+03  0.25500000920E-02 0. -1.
        2   -1    0    0  501    0  0.00000000000E+00  0.00000000000E+00 -0.26369248322E+04  0.26369248322E+04  0.25500000920E-02 0.  1.
    10030    2    1    2    0    0  0.00000000000E+00  0.00000000000E+00 -0.24225942144E+04  0.28512554500E+04  0.15035607449E+04 0.  0.
        3    1    3    3  502    0  0.67457270020E+03 -0.68626070067E+02 -0.59559858221E+03  0.90249407016E+03  0.10100000352E+00 0. -1.
       -3    1    3    3    0  502 -0.67457270020E+03  0.68626070067E+02 -0.18269956322E+04  0.19487613798E+04  0.10100000352E+00 0.  1.
</event>
<event>
 5   0  0.4569211E-04  0.1495719E+04  0.7818609E-02  0.8887305E-01
       -2   -1    0    0    0  501  0.00000000000E+00  0.00000000000E+00  0.31817933931E+03  0.31817933932E+03  0.25500000920E-02 0.  1.
        2   -1    0    0  501    0  0.00000000000E+00  0.00000000000E+00 -0.17577932938E+04  0.17577932938E+04  0.25500000920E-02 0. -1.
    10030    2    1    2    0    0  0.00000000000E+00  0.00000000000E+00 -0.14396139545E+04  0.20759726331E+04  0.14957185683E+04 0.  0.
        5    1    3    3  502    0  0.63194973796E+03 -0.58246935304E+02 -0.17070346741E+03  0.65720235891E+03  0.46999998093E+01 0.  1.
       -5    1    3    3    0  502 -0.63194973796E+03  0.58246935304E+02 -0.12689104871E+04  0.14187702742E+04  0.46999998093E+01 0. -1.
</event>
<event>
 5   0  0.1792000E-04  0.1500745E+04  0.7818609E-02  0.8883957E-01
        3   -1    0    0  501    0  0.00000000000E+00  0.00000000000E+00  0.63316396650E+03  0.63316397456E+03  0.10100000352E+00 0.  1.
       -3   -1    0    0    0  501  0.00000000000E+00  0.00000000000E+00 -0.88927842819E+03  0.88927843392E+03  0.10100000352E+00 0. -1.
    10030    2    1    2    0    0  0.00000000000E+00  0.00000000000E+00 -0.25611446169E+03  0.15224424085E+04  0.15007452381E+04 0.  0.
        4    1    3    3  502    0  0.20312468849E+03  0.17424578586E+03 -0.83921749170E+03  0.88085688068E+03  0.12699999809E+01 0. -1.
       -4    1    3    3    0  502 -0.20312468849E+03 -0.17424578586E+03  0.58310303002E+03  0.64158552780E+03  0.12699999809E+01 0.  1.
</event>
<event>
 5   0  0.4569211E-04  0.1496899E+04  0.7818609E-02  0.8886518E-01
       -2   -1    0    0    0  501  0.00000000000E+00  0.00000000000E+00  0.52572621871E+03  0.52572621871E+03  0.25500000920E-02 0. -1.
        2   -1    0    0  501    0  0.00000000000E+00  0.00000000000E+00 -0.10655288645E+04  0.10655288645E+04  0.25500000920E-02 0.  1.
    10030    2    1    2    0    0  0.00000000000E+00  0.00000000000E+00 -0.53980264577E+03  0.15912550832E+04  0.14968987419E+04 0.  0.
        5    1    3    3  502    0  0.76220033397E+02  0.21961669344E+03 -0.10261616049E+04  0.10521742797E+04  0.46999998093E+01 0.  1.
       -5    1    3    3    0  502 -0.76220033397E+02 -0.21961669344E+03  0.48635895914E+03  0.53908080347E+03  0.46999998093E+01 0. -1.
</event>
<event>
 5   0  0.4948645E-04  0.1500115E+04  0.7818609E-02  0.8884376E-01
       -2   -1    0    0    0  501  0.00000000000E+00  0.00000000000E+00  0.52649891033E+03  0.52649891034E+03  0.25500000920E-02 0. -1.
        2   -1    0    0  501    0  0.00000000000E+00  0.00000000000E+00 -0.10685427656E+04  0.10685427656E+04  0.25500000920E-02 0.  1.
    10030    2    1    2    0    0  0.00000000000E+00  0.00000000000E+00 -0.54204385523E+03  0.15950416759E+04  0.15001154645E+04 0.  0.
        1    1    3    3  502    0  0.49322394473E+03 -0.33023190326E+03 -0.75858345388E+03  0.96320912896E+03  0.50400001928E-02 0.  1.
       -1    1    3    3    0  502 -0.49322394473E+03  0.33023190326E+03  0.21653959865E+03  0.63183254695E+03  0.50400001928E-02 0. -1.
</event>
<event>
 5   0  0.2544374E-04  0.1512145E+04  0.7818609E-02  0.8876417E-01
       -1   -1    0    0    0  501  0.00000000000E+00  0.00000000000E+00  0.54098203458E+03  0.54098203460E+03  0.50400001928E-02 0. -1.
        1   -1    0    0  501    0  0.00000000000E+00  0.00000000000E+00 -0.10566812616E+04  0.10566812616E+04  0.50400001928E-02 0.  1.
    10030    2    1    2    0    0  0.00000000000E+00  0.00000000000E+00 -0.51569922702E+03  0.15976632962E+04  0.15121449386E+04 0.  0.
        4    1    3    3  502    0  0.19498362008E+03 -0.33987047080E+03 -0.94103550620E+03  0.10193527289E+04  0.12699999809E+01 0.  1.
       -4    1    3    3    0  502 -0.19498362008E+03  0.33987047080E+03  0.42533627918E+03  0.57831056735E+03  0.12699999809E+01 0. -1.
</event>
<event>
 5   0  0.2565416E-04  0.1482801E+04  0.7818609E-02  0.8895972E-01
       -1   -1    0    0    0  501  0.00000000000E+00  0.00000000000E+00  0.61510277460E+03  0.61510277462E+03  0.50400001928E-02 0. -1.
        1   -1    0    0  501    0  0.00000000000E+00  0.00000000000E+00 -0.89363006980E+03  0.89363006981E+03  0.50400001928E-02 0.  1.
    10030    2    1    2    0    0  0.00000000000E+00  0.00000000000E+00 -0.27852729520E+03  0.15087328444E+04  0.14828005064E+04 0.  0.
        5    1    3    3  502    0 -0.51019327406E+03 -0.50385599981E+03  0.52403256640E+02  0.71898277917E+03  0.46999998093E+01 0. -1.
       -5    1    3    3    0  502  0.51019327406E+03  0.50385599981E+03 -0.33093055184E+03  0.78975006526E+03  0.46999998093E+01 0.  1.
</event>
<event>
 5   0  0.4569211E-04  0.1488191E+04  0.7818609E-02  0.8892344E-01
       -2   -1    0    0    0  501  0.00000000000E+00  0.00000000000E+00  0.51752478088E+03  0.51752478089E+03  0.25500000920E-02 0.  1.
        2   -1    0    0  501    0  0.00000000000E+00  0.00000000000E+00 -0.10698576607E+04  0.10698576607E+04  0.25500000920E-02 0. -1.
    10030    2    1    2    0    0  0.00000000000E+00  0.00000000000E+00 -0.55233287986E+03  0.15873824416E+04  0.14881906483E+04 0.  0.
        5    1    3    3  502    0 -0.12440863188E+03 -0.57875466762E+03 -0.75701420444E+03  0.96100315749E+03  0.46999998093E+01 0. -1.
       -5    1    3    3    0  502  0.12440863188E+03  0.57875466762E+03  0.20468132458E+03  0.62637928415E+03  0.46999998093E+01 0.  1.
</event>
<event>
 5   0  0.4726600E-04  0.1490544E+04  0.7818609E-02  0.8890765E-01
       -2   -1    0    0    0  501  0.00000000000E+00  0.00000000000E+00  0.69695957719E+03  0.69695957720E+03  0.25500000920E-02 0. -1.
        2   -1    0    0  501    0  0.00000000000E+00  0.00000000000E+00 -0.79693364280E+03  0.79693364281E+03  0.25500000920E-02 0.  1.
    10030    2    1    2    0    0  0.00000000000E+00  0.00000000000E+00 -0.99974065613E+02  0.14938932200E+04  0.14905442425E+04 0.  0.
        2    1    3    3  502    0 -0.12668725901E+03 -0.40572801384E+03 -0.66354355191E+03  0.78800693404E+03  0.25500000920E-02 0.  1.
       -2    1    3    3    0  502  0.12668725901E+03  0.40572801384E+03  0.56356948630E+03  0.70588628596E+03  0.25500000920E-02 0. -1.
</event>
<event>
 5   0  0.4768387E-04  0.1480320E+04  0.7818609E-02  0.8897646E-01
       -2   -1    0    0    0  501  0.00000000000E+00  0.00000000000E+00  0.10312806237E+04  0.10312806237E+04  0.25500000920E-02 0.  1.
        2   -1    0    0  501    0  0.00000000000E+00  0.00000000000E+00 -0.53121985415E+03  0.53121985415E+03  0.25500000920E-02 0. -1.
    10030    2    1    2    0    0  0.00000000000E+00  0.00000000000E+00  0.50006076956E+03  0.15625004779E+04  0.14803198877E+04 0.  0.
        3    1    3    3  502    0  0.25663635311E+02  0.11076123976E+03 -0.52194769188E+03  0.53418730579E+03  0.10100000352E+00 0. -1.
       -3    1    3    3    0  502 -0.25663635311E+02 -0.11076123976E+03  0.10220084614E+04  0.10283131721E+04  0.10100000352E+00 0.  1.
</event>
<event>
 5   0  0.2542737E-04  0.1502887E+04  0.7818609E-02  0.8882535E-01
       -1   -1    0    0    0  501  0.00000000000E+00  0.00000000000E+00  0.47978850331E+03  0.47978850333E+03  0.50400001928E-02 0.  1.
        1   -1    0    0  501    0  0.00000000000E+00  0.00000000000E+00 -0.11769095644E+04  0.11769095644E+04  0.50400001928E-02 0. -1.
    10030    2    1    2    0    0  0.00000000000E+00  0.00000000000E+00 -0.69712106109E+03  0.16566980677E+04  0.15028874588E+04 0.  0.
        1    1    3    3  502    0  0.37948107309E+03 -0.11561521225E+03  0.35495129178E+03  0.53231868434E+03  0.50400001928E-02 0.  1.
       -1    1    3    3    0  502 -0.37948107309E+03  0.11561521225E+03 -0.10520723529E+04  0.11243793834E+04  0.50400001928E-02 0. -1.
</event>
<event>
 5   0  0.4768387E-04  0.1510248E+04  0.7818609E-02  0.8877666E-01
       -2   -1    0    0    0  501  0.00000000000E+00  0.00000000000E+00  0.43411743218E+03  0.43411743219E+03  0.25500000920E-02 0.  1.
        2   -1    0    0  501    0  0.00000000000E+00  0.00000000000E+00 -0.13134981195E+04  0.13134981195E+04  0.25500000920E-02 0. -1.
    10030    2    1    2    0    0  0.00000000000E+00  0.00000000000E+00 -0.87938068728E+03  0.17476155517E+04  0.15102482323E+04 0.  0.
        3    1    3    3  502    0 -0.40298995704E+03  0.63837646177E+03 -0.42008634279E+03  0.86394326088E+03  0.10100000352E+00 0.  1.
       -3    1    3    3    0  502  0.40298995704E+03 -0.63837646177E+03 -0.45929434449E+03  0.88367229078E+03  0.10100000352E+00 0. -1.
</event>
<event>
 5   0  0.4569211E-04  0.1490467E+04  0.7818609E-02  0.8890817E-01
        2   -1    0    0  501    0  0.00000000000E+00  0.00000000000E+00  0.40115158287E+03  0.40115158288E+03  0.25500000920E-02 0. -1.
       -2   -1    0    0    0  501  0.00000000000E+00  0.00000000000E+00 -0.13844474951E+04  0.13844474951E+04  0.25500000920E-02 0.  1.
    10030    2    1    2    0    0  0.00000000000E+00  0.00000000000E+00 -0.98329591227E+03  0.17855990780E+04  0.14904674489E+04 0.  0.
        5    1    3    3  502    0 -0.46746066308E+03  0.48148270730E+03 -0.10343608190E+03  0.67901854319E+03  0.46999998093E+01 0. -1.
       -5    1    3    3    0  502  0.46746066308E+03 -0.48148270730E+03 -0.87985983037E+03  0.11065805348E+04  0.46999998093E+01 0.  1.
</event>
<event>
 5   0  0.2542737E-04  0.1501330E+04  0.7818609E-02  0.8883569E-01
       -1   -1    0    0    0  501  0.00000000000E+00  0.00000000000E+00  0.15388134588E+04  0.15388134588E+04  0.50400001928E-02 0. -1.
        1   -1    0    0  501    0  0.00000000000E+00  0.00000000000E+00 -0.36619003679E+03  0.36619003683E+03  0.50400001928E-02 0.  1.
    10030    2    1    2    0    0  0.00000000000E+00  0.00000000000E+00  0.11726234220E+04  0.19050034956E+04  0.15013302863E+04 0.  0.
        1    1    3    3  502    0  0.68370709965E+03 -0.30982192922E+03  0.59556069879E+03  0.95819495506E+03  0.50400001928E-02 0. -1.
       -1    1    3    3    0  502 -0.68370709965E+03  0.30982192922E+03  0.57706272318E+03  0.94680854054E+03  0.50400001928E-02 0.  1.
</event>
<event>
 5   0  0.2603873E-04  0.1497579E+04  0.7818609E-02  0.8886064E-01
        1   -1    0    0  501    0  0.00000000000E+00  0.00000000000E+00  0.77201511443E+03  0.77201511445E+03  0.50400001928E-02 0.  1.
       -1   -1    0    0    0  501  0.00000000000E+00  0.00000000000E+00 -0.72626261664E+03  0.72626261666E+03  0.50400001928E-02 0. -1.
    10030    2    1    2    0    0  0.00000000000E+00  0.00000000000E+00  0.45752497791E+02  0.14982777311E+04  0.14975790024E+04 0.  0.
        2    1    3    3  502    0  0.75709255608E+02  0.37240872133E+03  0.66836373637E+03  0.76884994063E+03  0.25500000920E-02 0.  1.
       -2    1    3    3    0  502 -0.75709255608E+02 -0.37240872133E+03 -0.62261123858E+03  0.72942779048E+03  0.25500000920E-02 0. -1.
</event>
<event>
 5   0  0.4785496E-04  0.1517955E+04  0.7818609E-02  0.8872600E-01
        2   -1    0    0  501    0  0.00000000000E+00  0.00000000000E+00  0.60191999840E+03  0.60191999840E+03  0.25500000920E-02 0. -1.
       -2   -1    0    0    0  501  0.00000000000E+00  0.00000000000E+00 -0.95701562213E+03  0.95701562213E+03  0.25500000920E-02 0.  1.
    10030    2    1    2    0    0  0.00000000000E+00  0.00000000000E+00 -0.35509562373E+03  0.15589356205E+04  0.15179549950E+04 0.  0.
        4    1    3    3  502    0 -0.61520134410E+03  0.31916043385E+02  0.27776526004E+03  0.67575622838E+03  0.12699999809E+01 0. -1.
       -4    1    3    3    0  502  0.61520134410E+03 -0.31916043385E+02 -0.63286088378E+03  0.88317939215E+03  0.12699999809E+01 0.  1.
</event>
<event>
 5   0  0.4785496E-04  0.1506093E+04  0.7818609E-02  0.8880411E-01
        2   -1    0    0  501    0  0.00000000000E+00  0.00000000000E+00  0.19946033640E+04  0.19946033640E+04  0.25500000920E-02 0.  1.
       -2   -1    0    0    0  501  0.00000000000E+00  0.00000000000E+00 -0.28430658244E+03  0.28430658245E+03  0.25500000920E-02 0. -1.
    10030    2    1    2    0    0  0.00000000000E+00  0.00000000000E+00  0.17102967815E+04  0.22789099464E+04  0.15060927803E+04 0.  0.
        4    1    3    3  502    0  0.70919646129E+03  0.83320595810E+01  0.12380868027E+04  0.14268460281E+04  0.12699999809E+01 0. -1.
       -4    1    3    3    0  502 -0.70919646129E+03 -0.83320595810E+01  0.47220997880E+03  0.85206391831E+03  0.12699999809E+01 0.  1.
</event>
<event>
 5   0  0.4726600E-04  0.1508491E+04  0.7818609E-02  0.8878826E-01
       -2   -1    0    0    0  501  0.00000000000E+00  0.00000000000E+00  0.70278278555E+03  0.70278278556E+03  0.25500000920E-02 0. -1.
        2   -1    0    0  501    0  0.00000000000E+00  0.00000000000E+00 -0.80947676593E+03  0.80947676593E+03  0.25500000920E-02 0.  1.
    10030    2    1    2    0    0  0.00000000000E+00  0.00000000000E+00 -0.10669398038E+03  0.15122595515E+04  0.15084910824E+04 0.  0.
        2    1    3    3  502    0  0.17481873999E+02 -0.33455883527E+03 -0.73079480477E+03  0.80392554186E+03  0.25500000920E-02 0.  1.
       -2    1    3    3    0  502 -0.17481873999E+02  0.33455883527E+03  0.62410082439E+03  0.70833400962E+03  0.25500000920E-02 0. -1.
</event>
<event>
 5   0  0.4948645E-04  0.1526124E+04  0.7818609E-02  0.8867264E-01
        2   -1    0    0  501    0  0.00000000000E+00  0.00000000000E+00  0.10527835243E+04  0.10527835243E+04  0.25500000920E-02 0. -1.
       -2   -1    0    0    0  501  0.00000000000E+00  0.00000000000E+00 -0.55307048156E+03  0.55307048156E+03  0.25500000920E-02 0.  1.
    10030    2    1    2    0    0  0.00000000000E+00  0.00000000000E+00  0.49971304273E+03  0.16058540058E+04  0.15261238361E+04 0.  0.
        1    1    3    3  502    0 -0.30955762719E+03  0.43383806865E+03  0.82448373962E+03  0.98174071489E+03  0.50400001928E-02 0. -1.
       -1    1    3    3    0  502  0.30955762719E+03 -0.43383806865E+03 -0.32477069689E+03  0.62411329095E+03  0.50400001928E-02 0.  1.
</event>
<event>
 5   0  0.4785496E-04  0.1496928E+04  0.7818609E-02  0.8886499E-01
        2   -1    0    0  501    0  0.00000000000E+00  0.00000000000E+00  0.16911235115E+04  0.16911235115E+04  0.25500000920E-02 0.  1.
       -2   -1    0    0    0  501  0.00000000000E+00  0.00000000000E+00 -0.33125796725E+03  0.33125796726E+03  0.25500000920E-02 0. -1.
    10030    2    1    2    0    0  0.00000000000E+00  0.00000000000E+00  0.13598655443E+04  0.20223814788E+04  0.14969277028E+04 0.  0.
        4    1    3    3  502    0  0.53515793875E+03 -0.46909162758E+03  0.99317038542E+03  0.12218142256E+04  0.12699999809E+01 0.  1.
       -4    1    3    3    0  502 -0.53515793875E+03  0.46909162758E+03  0.36669515885E+03  0.80056725320E+03  0.12699999809E+01 0. -1.
</event>
<event>
 5   0  0.4768387E-04  0.1471481E+04  0.7818609E-02  0.8903642E-01
       -2   -1    0    0    0  501  0.00000000000E+00  0.00000000000E+00  0.81764833404E+03  0.81764833404E+03  0.25500000920E-02 0.  1.
        2   -1    0    0  501    0  0.00000000000E+00  0.00000000000E+00 -0.66203815499E+03  0.66203815500E+03  0.25500000920E-02 0. -1.
    10030    2    1    2    0    0  0.00000000000E+00  0.00000000000E+00  0.15561017904E+03  0.14796864890E+04  0.14714814229E+04 0.  0.
        3    1    3    3  502    0 -0.67351067366E+02 -0.21787895103E+03  0.78121038017E+03  0.81381636249E+03  0.10100000352E+00 0.  1.
       -3    1    3    3    0  502  0.67351067366E+02  0.21787895103E+03 -0.62560020113E+03  0.66587012655E+03  0.10100000352E+00 0. -1.
</event>
<event>
 5   0  0.2542737E-04  0.1479193E+04  0.7818609E-02  0.8898409E-01
       -1   -1    0    0    0  501  0.00000000000E+00  0.00000000000E+00  0.41730074096E+03  0.41730074099E+03  0.50400001928E-02 0. -1.
        1   -1    0    0  501    0  0.00000000000E+00  0.00000000000E+00 -0.13108116898E+04  0.13108116898E+04  0.50400001928E-02 0.  1.
    10030    2    1    2    0    0  0.00000000000E+00  0.00000000000E+00 -0.89351094881E+03  0.17281124308E+04  0.14791926033E+04 0.  0.
        1    1    3    3  502    0 -0.33564286206E+03  0.65838770876E+03 -0.41225292371E+03  0.84621686289E+03  0.50400001928E-02 0.  1.
       -1    1    3    3    0  502  0.33564286206E+03 -0.65838770876E+03 -0.48125802511E+03  0.88189556789E+03  0.50400001928E-02 0. -1.
</event>
<event>
 5   0  0.2605471E-04  0.1538309E+04  0.7818609E-02  0.8859370E-01
        1   -1    0    0  501    0  0.00000000000E+00  0.00000000000E+00  0.19656295400E+04  0.19656295400E+04  0.50400001928E-02 0.  1.
       -1   -1    0    0    0  501  0.00000000000E+00  0.00000000000E+00 -0.30097140285E+03  0.30097140289E+03  0.50400001928E-02 0. -1.
    10030    2    1    2    0    0  0.00000000000E+00  0.00000000000E+00  0.16646581371E+04  0.22666009429E+04  0.15383085259E+04 0.  0.
        3    1    3    3  502    0 -0.16112338428E+03 -0.65360216826E+03  0.13805620109E+04  0.15359388059E+04  0.10100000352E+00 0.  1.
       -3    1    3    3    0  502  0.16112338428E+03  0.65360216826E+03  0.28409612626E+03  0.73066213702E+03  0.10100000352E+00 0. -1.
</event>
<event>
 5   0  0.2544374E-04  0.1506717E+04  0.7818609E-02  0.8879998E-01
        1   -1    0    0  501    0  0.00000000000E+00  0.00000000000E+00  0.61009513541E+03  0.61009513543E+03  0.50400001928E-02 0.  1.
       -1   -1    0    0    0  501  0.00000000000E+00  0.00000000000E+00 -0.93026333868E+03  0.93026333869E+03  0.50400001928E-02 0. -1.
    10030    2    1    2    0    0  0.00000000000E+00  0.00000000000E+00 -0.32016820327E+03  0.15403584741E+04  0.15067171435E+04 0.  0.
        4    1    3    3  502    0 -0.72090454392E+03 -0.44872797596E+02  0.58776617368E+02  0.72468836961E+03  0.12699999809E+01 0.  1.
       -4    1    3    3    0  502  0.72090454392E+03  0.44872797596E+02 -0.37894482064E+03  0.81567010451E+03  0.12699999809E+01 0. -1.
</event>
<event>
 5   0  0.2542737E-04  0.1501479E+04  0.7818609E-02  0.8883470E-01
        1   -1    0    0  501    0  0.00000000000E+00  0.00000000000E+00  0.12356020416E+04  0.12356020416E+04  0.50400001928E-02 0.  1.
       -1   -1    0    0    0  501  0.00000000000E+00  0.00000000000E+00 -0.45614190610E+03  0.45614190613E+03  0.50400001928E-02 0. -1.
    10030    2    1    2    0    0  0.00000000000E+00  0.00000000000E+00  0.77946013545E+03  0.16917439477E+04  0.15014790980E+04 0.  0.
        1    1    3    3  502    0  0.70883245812E+03 -0.58253002675E+02  0.11891188643E+03  0.72109423986E+03  0.50400001928E-02 0. -1.
       -1    1    3    3    0  502 -0.70883245812E+03  0.58253002675E+02  0.66054824903E+03  0.97064970783E+03  0.50400001928E-02 0.  1.
</event>
<event>
 5   0  0.4948645E-04  0.1497712E+04  0.7818609E-02  0.8885976E-01
        2   -1    0    0  501    0  0.00000000000E+00  0.00000000000E+00  0.69469506887E+03  0.69469506888E+03  0.25500000920E-02 0.  1.
       -2   -1    0    0    0  501  0.00000000000E+00  0.00000000000E+00 -0.80723989619E+03  0.80723989620E+03  0.25500000920E-02 0. -1.
    10030    2    1    2    0    0  0.00000000000E+00  0.00000000000E+00 -0.11254482732E+03  0.15019349651E+04  0.14977123559E+04 0.  0.
        1    1    3    3  502    0  0.32820062352E+03 -0.51457017191E+03  0.37887200588E+03  0.71836070881E+03  0.50400001928E-02 0.  1.
       -1    1    3    3    0  502 -0.32820062352E+03  0.51457017191E+03 -0.49141683320E+03  0.78357425626E+03  0.50400001928E-02 0. -1.
</event>
<event>
 5   0  0.4785496E-04  0.1613626E+04  0.7818609E-02  0.8812220E-01
        2   -1    0    0  501    0  0.00000000000E+00  0.00000000000E+00  0.11837548370E+04  0.11837548370E+04  0.25500000920E-02 0.  1.
       -2   -1    0    0    0  501  0.00000000000E+00  0.00000000000E+00 -0.54990047460E+03  0.54990047460E+03  0.25500000920E-02 0. -1.
    10030    2    1    2    0    0  0.00000000000E+00  0.00000000000E+00  0.63385436239E+03  0.17336553116E+04  0.16136261608E+04 0.  0.
        4    1    3    3  502    0 -0.32971122927E+02 -0.71176212506E+03 -0.89714760478E+02  0.71815232977E+03  0.12699999809E+01 0. -1.
       -4    1    3    3    0  502  0.32971122927E+02  0.71176212506E+03  0.72356912286E+03  0.10155029818E+04  0.12699999809E+01 0.  1.
</event>
<event>
 5   0  0.4726600E-04  0.1494662E+04  0.7818609E-02  0.8888010E-01
        2   -1    0    0  501    0  0.00000000000E+00  0.00000000000E+00  0.51446084419E+03  0.51446084419E+03  0.25500000920E-02 0.  1.
       -2   -1    0    0    0  501  0.00000000000E+00  0.00000000000E+00 -0.10856100310E+04  0.10856100310E+04  0.25500000920E-02 0. -1.
    10030    2    1    2    0    0  0.00000000000E+00  0.00000000000E+00 -0.57114918677E+03  0.16000708752E+04  0.14946623070E+04 0.  0.
        2    1    3    3  502    0 -0.46476958575E+03  0.17057672249E+03 -0.88487327781E+03  0.10139565592E+04  0.25500000920E-02 0. -1.
       -2    1    3    3    0  502  0.46476958575E+03 -0.17057672249E+03  0.31372409104E+03  0.58611431598E+03  0.25500000920E-02 0.  1.
</event>
<event>
 5   0  0.2565416E-04  0.1506733E+04  0.7818609E-02  0.8879988E-01
        1   -1    0    0  501    0  0.00000000000E+00  0.00000000000E+00  0.17169685123E+04  0.17169685123E+04  0.50400001928E-02 0. -1.
       -1   -1    0    0    0  501  0.00000000000E+00  0.00000000000E+00 -0.33056013005E+03  0.33056013009E+03  0.50400001928E-02 0.  1.
    10030    2    1    2    0    0  0.00000000000E+00  0.00000000000E+00  0.13864083823E+04  0.20475286424E+04  0.15067333338E+04 0.  0.
        5    1    3    3  502    0  0.37744995796E+03  0.14242376349E+03  0.15577867352E+04  0.16091844523E+04  0.46999998093E+01 0. -1.
       -5    1    3    3    0  502 -0.37744995796E+03 -0.14242376349E+03 -0.17137835291E+03  0.43834419013E+03  0.46999998093E+01 0.  1.
</event>
<event>
 5   0  0.2605471E-04  0.1498412E+04  0.7818609E-02  0.8885509E-01
        1   -1    0    0  501    0  0.00000000000E+00  0.00000000000E+00  0.50080876947E+03  0.50080876949E+03  0.50400001928E-02 0. -1.
       -1   -1    0    0    0  501  0.00000000000E+00  0.00000000000E+00 -0.11208066585E+04  0.11208066585E+04  0.50400001928E-02 0.  1.
    10030    2    1    2    0    0  0.00000000000E+00  0.00000000000E+00 -0.61999788901E+03  0.16216154280E+04  0.14984122310E+04 0.  0.
        3    1    3    3  502    0  0.79622182514E+02 -0.18146115822E+02  0.49597772915E+03  0.50265583801E+03  0.10100000352E+00 0. -1.
       -3    1    3    3    0  502 -0.79622182514E+02  0.18146115822E+02 -0.11159756182E+04  0.11189595900E+04  0.10100000352E+00 0.  1.
</event>
<event>
 5   0  0.4948645E-04  0.1489360E+04  0.7818609E-02  0.8891560E-01
       -2   -1    0    0    0  501  0.00000000000E+00  0.00000000000E+00  0.42933638556E+03  0.42933638556E+03  0.25500000920E-02 0.  1.
        2   -1    0    0  501    0  0.00000000000E+00  0.00000000000E+00 -0.12916400249E+04  0.12916400249E+04  0.25500000920E-02 0. -1.
    10030    2    1    2    0    0  0.00000000000E+00  0.00000000000E+00 -0.86230363930E+03  0.17209764104E+04  0.14893596741E+04 0.  0.
        1    1    3    3  502    0  0.44421021988E+03 -0.59551552494E+03 -0.48991968920E+03  0.88993413339E+03  0.50400001928E-02 0. -1.
       -1    1    3    3    0  502 -0.44421021988E+03  0.59551552494E+03 -0.37238395010E+03  0.83104227703E+03  0.50400001928E-02 0.  1.
</event>
<event>
 5   0  0.2544374E-04  0.1489573E+04  0.7818609E-02  0.8891416E-01
        1   -1    0    0  501    0  0.00000000000E+00  0.00000000000E+00  0.49354733336E+03  0.49354733338E+03  0.50400001928E-02 0. -1.
       -1   -1    0    0    0  501  0.00000000000E+00  0.00000000000E+00 -0.11239189313E+04  0.11239189313E+04  0.50400001928E-02 0.  1.
    10030    2    1    2    0    0  0.00000000000E+00  0.00000000000E+00 -0.63037159795E+03  0.16174662647E+04  0.14895733503E+04 0.  0.
        4    1    3    3  502    0 -0.63843032321E+03 -0.36400155281E+03 -0.44645876000E+03  0.85989385701E+03  0.12699999809E+01 0.  1.
       -4    1    3    3    0  502  0.63843032321E+03  0.36400155281E+03 -0.18391283796E+03  0.75757240770E+03  0.12699999809E+01 0. -1.
</event>
<event>
 5   0  0.2605471E-04  0.1499017E+04  0.7818609E-02  0.8885107E-01
       -1   -1    0    0    0  501  0.00000000000E+00  0.00000000000E+00  0.37707146498E+03  0.37707146501E+03  0.50400001928E-02 0.  1.
        1   -1    0    0  501    0  0.00000000000E+00  0.00000000000E+00 -0.14898059607E+04  0.14898059607E+04  0.50400001928E-02 0. -1.
    10030    2    1    2    0    0  0.00000000000E+00  0.00000000000E+00 -0.11127344958E+04  0.18668774258E+04  0.14990174331E+04 0.  0.
        3    1    3    3  502    0 -0.49744779924E+03 -0.18819347602E+03  0.10133194887E+03  0.54142337541E+03  0.10100000352E+00 0.  1.
       -3    1    3    3    0  502  0.49744779924E+03  0.18819347602E+03 -0.12140664446E+04  0.13254540503E+04  0.10100000352E+00 0. -1.
</event>
<event>
 5   0  0.2542737E-04  0.1527750E+04  0.7818609E-02  0.8866207E-01
       -1   -1    0    0    0  501  0.00000000000E+00  0.00000000000E+00  0.41127080522E+03  0.41127080525E+03  0.50400001928E-02 0.  1.
        1   -1    0    0  501    0  0.00000000000E+00  0.00000000000E+00 -0.14187845741E+04  0.14187845741E+04  0.50400001928E-02 0. -1.
    10030    2    1    2    0    0  0.00000000000E+00  0.00000000000E+00 -0.10075137689E+04  0.18300553794E+04  0.15277495531E+04 0.  0.
        1    1    3    3  502    0 -0.59324668137E+03 -0.12587351695E+03 -0.10601172353E+04  0.12213248216E+04  0.50400001928E-02 0. -1.
       -1    1    3    3    0  502  0.59324668137E+03  0.12587351695E+03  0.52603466443E+02  0.60873055775E+03  0.50400001928E-02 0.  1.
</event>
<event>
 5   0  0.2565416E-04  0.1491503E+04  0.7818609E-02  0.8890123E-01
       -1   -1    0    0    0  501  0.00000000000E+00  0.00000000000E+00  0.10355424791E+04  0.10355424791E+04  0.50400001928E-02 0. -1.
        1   -1    0    0  501    0  0.00000000000E+00  0.00000000000E+00 -0.53705696692E+03  0.53705696694E+03  0.50400001928E-02 0.  1.
    10030    2    1    2    0    0  0.00000000000E+00  0.00000000000E+00  0.49848551217E+03  0.15725994460E+04  0.14915030043E+04 0.  0.
        5    1    3    3  502    0 -0.76358468264E+02 -0.71978934762E+03  0.60054480322E+02  0.72633046971E+03  0.46999998093E+01 0.  1.
       -5    1    3    3    0  502  0.76358468264E+02  0.71978934762E+03  0.43843103185E+03  0.84626897634E+03  0.46999998093E+01 0. -1.
</event>
<event>
 5   0  0.2605471E-04  0.1496670E+04  0.7818609E-02  0.8886670E-01
        1   -1    0    0  501    0  0.00000000000E+00  0.00000000000E+00  0.82566968660E+03  0.82566968662E+03  0.50400001928E-02 0. -1.
       -1   -1    0    0    0  501  0.00000000000E+00  0.00000000000E+00 -0.67824352600E+03  0.67824352602E+03  0.50400001928E-02 0.  1.
    10030    2    1    2    0    0  0.00000000000E+00  0.00000000000E+00  0.14742616060E+03  0.15039132126E+04  0.14966697960E+04 0.  0.
        3    1    3    3  502    0  0.66867259486E+02 -0.45678228043E+03 -0.51810578726E+03  0.69394156750E+03  0.10100000352E+00 0.  1.
       -3    1    3    3    0  502 -0.66867259486E+02  0.45678228043E+03  0.66553194786E+03  0.80997164514E+03  0.10100000352E+00 0. -1.
</event>
<event>
 5   0  0.4785496E-04  0.1494300E+04  0.7818609E-02  0.8888252E-01
       -2   -1    0    0    0  501  0.00000000000E+00  0.00000000000E+00  0.28452734303E+03  0.28452734305E+03  0.25500000920E-02 0.  1.
        2   -1    0    0  501    0  0.00000000000E+00  0.00000000000E+00 -0.19619677390E+04  0.19619677390E+04  0.25500000920E-02 0. -1.
    10030    2    1    2    0    0  0.00000000000E+00  0.00000000000E+00 -0.16774403959E+04  0.22464950820E+04  0.14943004623E+04 0.  0.
        4    1    3    3  502    0  0.14701734764E+02 -0.65492572353E+03 -0.29857502991E+03  0.71992534733E+03  0.12699999809E+01 0.  1.
       -4    1    3    3    0  502 -0.14701734764E+02  0.65492572353E+03 -0.13788653660E+04  0.15265697347E+04  0.12699999809E+01 0. -1.
</event>
<event>
 5   0  0.4948645E-04  0.1499931E+04  0.7818609E-02  0.8884499E-01
        2   -1    0    0  501    0  0.00000000000E+00  0.00000000000E+00  0.17815279133E+04  0.17815279133E+04  0.25500000920E-02 0. -1.
       -2   -1    0    0    0  501  0.00000000000E+00  0.00000000000E+00 -0.31571100881E+03  0.31571100882E+03  0.25500000920E-02 0.  1.
    10030    2    1    2    0    0  0.00000000000E+00  0.00000000000E+00  0.14658169045E+04  0.20972389222E+04  0.14999306314E+04 0.  0.
        1    1    3    3  502    0  0.43239111878E+03 -0.12752168242E+03  0.15709382806E+04  0.16343411334E+04  0.50400001928E-02 0. -1.
       -1    1    3    3    0  502 -0.43239111878E+03  0.12752168242E+03 -0.10512137603E+03  0.46289778873E+03  0.50400001928E-02 0.  1.
</event>
<event>
 5   0  0.2544374E-04  0.1500968E+04  0.7818609E-02  0.8883810E-01
        1   -1    0    0  501    0  0.00000000000E+00  0.00000000000E+00  0.10525737797E+04  0.10525737797E+04  0.50400001928E-02 0. -1.
       -1   -1    0    0    0  501  0.00000000000E+00  0.00000000000E+00 -0.53509401027E+03  0.53509401029E+03  0.50400001928E-02 0.  1.
    10030    2    1    2    0    0  0.00000000000E+00  0.00000000000E+00  0.51747976940E+03  0.15876677900E+04  0.15009675878E+04 0.  0.
        4    1    3    3  502    0  0.70319907908E+03  0.25896495590E+03  0.30199862056E+03  0.80793352011E+03  0.12699999809E+01 0.  1.
       -4    1    3    3    0  502 -0.70319907908E+03 -0.25896495590E+03  0.21548114884E+03  0.77973426987E+03  0.12699999809E+01 0. -1.
</event>
<event>
 5   0  0.4569211E-04  0.1496501E+04  0.7818609E-02  0.8886783E-01
        2   -1    0    0  501    0  0.00000000000E+00  0.00000000000E+00  0.64637577910E+03  0.64637577911E+03  0.25500000920E-02 0. -1.
       -2   -1    0    0    0  501  0.00000000000E+00  0.00000000000E+00 -0.86618149577E+03  0.86618149578E+03  0.25500000920E-02 0.  1.
    10030    2    1    2    0    0  0.00000000000E+00  0.00000000000E+00 -0.21980571667E+03  0.15125572749E+04  0.14965009043E+04 0.  0.
        5    1    3    3  502    0  0.65477491373E+03  0.26907039745E+03 -0.35484071196E+03  0.79187315102E+03  0.46999998093E+01 0.  1.
       -5    1    3    3    0  502 -0.65477491373E+03 -0.26907039745E+03  0.13503499528E+03  0.72068412387E+03  0.46999998093E+01 0. -1.
</event>
<event>
 5   0  0.2544374E-04  0.1488858E+04  0.7818609E-02  0.8891896E-01
        1   -1    0    0  501    0  0.00000000000E+00  0.00000000000E+00  0.13539344845E+04  0.13539344845E+04  0.50400001928E-02 0. -1.
       -1   -1    0    0    0  501  0.00000000000E+00  0.00000000000E+00 -0.40930684938E+03  0.40930684941E+03  0.50400001928E-02 0.  1.
    10030    2    1    2    0    0  0.00000000000E+00  0.00000000000E+00  0.94462763507E+03  0.17632413339E+04  0.14888581640E+04 0.  0.
        4    1    3    3  502    0  0.65308612790E+03  0.32479184417E+03  0.64861737345E+03  0.97607240640E+03  0.12699999809E+01 0. -1.
       -4    1    3    3    0  502 -0.65308612790E+03 -0.32479184417E+03  0.29601026162E+03  0.78716892747E+03  0.12699999809E+01 0.  1.
</event>
<event>
 5   0  0.2542737E-04  0.1505266E+04  0.7818609E-02  0.8880959E-01
       -1   -1    0    0    0  501  0.00000000000E+00  0.00000000000E+00  0.74046088104E+03  0.74046088106E+03  0.50400001928E-02 0.  1.
        1   -1    0    0  501    0  0.00000000000E+00  0.00000000000E+00 -0.76500485190E+03  0.76500485192E+03  0.50400001928E-02 0. -1.
    10030    2    1    2    0    0  0.00000000000E+00  0.00000000000E+00 -0.24543970861E+02  0.15054657330E+04  0.15052656465E+04 0.  0.
        1    1    3    3  502    0  0.49417196579E+03 -0.54431839342E+03  0.14889446702E+03  0.75010533095E+03  0.50400001928E-02 0. -1.
       -1    1    3    3    0  502 -0.49417196579E+03  0.54431839342E+03 -0.17343843789E+03  0.75536040203E+03  0.50400001928E-02 0.  1.
</event>
<event>
 5   0  0.2542737E-04  0.1494059E+04  0.7818609E-02  0.8888413E-01
        1   -1    0    0  501    0  0.00000000000E+00  0.00000000000E+00  0.85888160020E+03  0.85888160022E+03  0.50400001928E-02 0.  1.
       -1   -1    0    0    0  501  0.00000000000E+00  0.00000000000E+00 -0.64974407850E+03  0.64974407852E+03  0.50400001928E-02 0. -1.
    10030    2    1    2    0    0  0.00000000000E+00  0.00000000000E+00  0.20913752170E+03  0.15086256787E+04  0.14940592142E+04 0.  0.
        1    1    3    3  502    0 -0.37511385648E+03  0.13764144861E+03 -0.53277255840E+03  0.66595958789E+03  0.50400001928E-02 0. -1.
       -1    1    3    3    0  502  0.37511385648E+03 -0.13764144861E+03  0.74191008010E+03  0.84266609085E+03  0.50400001928E-02 0.  1.
</event>
<event>
 5   0  0.2605471E-04  0.1498660E+04  0.7818609E-02  0.8885344E-01
       -1   -1    0    0    0  501  0.00000000000E+00  0.00000000000E+00  0.76690968180E+03  0.76690968182E+03  0.50400001928E-02 0. -1.
        1   -1    0    0  501    0  0.00000000000E+00  0.00000000000E+00 -0.73215374917E+03  0.73215374919E+03  0.50400001928E-02 0.  1.
    10030    2    1    2    0    0  0.00000000000E+00  0.00000000000E+00  0.34755932633E+02  0.14990634310E+04  0.14986604670E+04 0.  0.
        3    1    3    3  502    0  0.70573735441E+03  0.23815585359E+03  0.99329017473E+02  0.75143175866E+03  0.10100000352E+00 0.  1.
       -3    1    3    3    0  502 -0.70573735441E+03 -0.23815585359E+03 -0.64573084839E+02  0.74763167235E+03  0.10100000352E+00 0. -1.
</event>
<event>
 5   0  0.4569211E-04  0.1496976E+04  0.7818609E-02  0.8886467E-01
        2   -1    0    0  501    0  0.00000000000E+00  0.00000000000E+00  0.13731771965E+04  0.13731771965E+04  0.25500000920E-02 0. -1.
       -2   -1    0    0    0  501  0.00000000000E+00  0.00000000000E+00 -0.40798379404E+03  0.40798379405E+03  0.25500000920E-02 0.  1.
    10030    2    1    2    0    0  0.00000000000E+00  0.00000000000E+00  0.96519340249E+03  0.17811609906E+04  0.14969756745E+04 0.  0.
        5    1    3    3  502    0  0.66906604215E+03  0.90744224518E+02  0.98280212893E+02  0.68232321761E+03  0.46999998093E+01 0. -1.
       -5    1    3    3    0  502 -0.66906604215E+03 -0.90744224518E+02  0.86691318959E+03  0.10988377730E+04  0.46999998093E+01 0.  1.
</event>
<event>
 5   0  0.4948645E-04  0.1499072E+04  0.7818609E-02  0.8885070E-01
        2   -1    0    0  501    0  0.00000000000E+00  0.00000000000E+00  0.12546082561E+04  0.12546082561E+04  0.25500000920E-02 0. -1.
       -2   -1    0    0    0  501  0.00000000000E+00  0.00000000000E+00 -0.44779275758E+03  0.44779275759E+03  0.25500000920E-02 0.  1.
    10030    2    1    2    0    0  0.00000000000E+00  0.00000000000E+00  0.80681549848E+03  0.17024010136E+04  0.14990723674E+04 0.  0.
        1    1    3    3  502    0 -0.69831332322E+03 -0.10087471729E+03  0.69067499524E+03  0.98734449665E+03  0.50400001928E-02 0. -1.
       -1    1    3    3    0  502  0.69831332322E+03  0.10087471729E+03  0.11614050323E+03  0.71505651700E+03  0.50400001928E-02 0.  1.
</event>
<event>
 5   0  0.2544374E-04  0.1584575E+04  0.7818609E-02  0.8830081E-01
        1   -1    0    0  501    0  0.00000000000E+00  0.00000000000E+00  0.96030673236E+03  0.96030673237E+03  0.50400001928E-02 0.  1.
       -1   -1    0    0    0  501  0.00000000000E+00  0.00000000000E+00 -0.65366532289E+03  0.65366532291E+03  0.50400001928E-02 0. -1.
    10030    2    1    2    0    0  0.00000000000E+00  0.00000000000E+00  0.30664140947E+03  0.16139720553E+04  0.15845746563E+04 0.  0.
        4    1    3    3  502    0 -0.11106130198E+03  0.30798069823E+03 -0.58154258452E+03  0.66736804972E+03  0.12699999809E+01 0. -1.
       -4    1    3    3    0  502  0.11106130198E+03 -0.30798069823E+03  0.88818399399E+03  0.94660400557E+03  0.12699999809E+01 0.  1.
</event>
<event>
 5   0  0.2605471E-04  0.1495904E+04  0.7818609E-02  0.8887181E-01
        1   -1    0    0  501    0  0.00000000000E+00  0.00000000000E+00  0.81094952732E+03  0.81094952733E+03  0.50400001928E-02 0. -1.
       -1   -1    0    0    0  501  0.00000000000E+00  0.00000000000E+00 -0.68984817622E+03  0.68984817624E+03  0.50400001928E-02 0.  1.
    10030    2    1    2    0    0  0.00000000000E+00  0.00000000000E+00  0.12110135110E+03  0.15007977036E+04  0.14959038103E+04 0.  0.
        3    1    3    3  502    0  0.53192193909E+03  0.52230137283E+03  0.12151433529E+03  0.75531809010E+03  0.10100000352E+00 0.  1.
       -3    1    3    3    0  502 -0.53192193909E+03 -0.52230137283E+03 -0.41298419206E+00  0.74547961347E+03  0.10100000352E+00 0. -1.
</event>
<event>
 5   0  0.4569211E-04  0.1499019E+04  0.7818609E-02  0.8885106E-01
       -2   -1    0    0    0  501  0.00000000000E+00  0.00000000000E+00  0.25598702261E+03  0.25598702262E+03  0.25500000920E-02 0.  1.
        2   -1    0    0  501    0  0.00000000000E+00  0.00000000000E+00 -0.21945033059E+04  0.21945033059E+04  0.25500000920E-02 0. -1.
    10030    2    1    2    0    0  0.00000000000E+00  0.00000000000E+00 -0.19385162833E+04  0.24504903285E+04  0.14990188356E+04 0.  0.
        5    1    3    3  502    0  0.67508292414E+02 -0.33704191294E+03 -0.20580268470E+04  0.20865404893E+04  0.46999998093E+01 0. -1.
       -5    1    3    3    0  502 -0.67508292414E+02  0.33704191294E+03  0.11951056369E+03  0.36394983921E+03  0.46999998093E+01 0.  1.
</event>
<event>
 5   0  0.2605471E-04  0.1501420E+04  0.7818609E-02  0.8883509E-01
       -1   -1    0    0    0  501  0.00000000000E+00  0.00000000000E+00  0.33341998135E+03  0.33341998139E+03  0.50400001928E-02 0. -1.
        1   -1    0    0  501    0  0.00000000000E+00  0.00000000000E+00 -0.16902572415E+04  0.16902572415E+04  0.50400001928E-02 0.  1.
    10030    2    1    2    0    0  0.00000000000E+00  0.00000000000E+00 -0.13568372601E+04  0.20236772229E+04  0.15014200451E+04 0.  0.
        3    1    3    3  502    0 -0.27427987379E+03 -0.26296544960E+03 -0.15510725234E+04  0.15969365234E+04  0.10100000352E+00 0.  1.
       -3    1    3    3    0  502  0.27427987379E+03  0.26296544960E+03  0.19423526328E+03  0.42674069943E+03  0.10100000352E+00 0. -1.
</event>
<event>
 5   0  0.2542737E-04  0.1503852E+04  0.7818609E-02  0.8881895E-01
       -1   -1    0    0    0  501  0.00000000000E+00  0.00000000000E+00  0.39595465686E+03  0.39595465690E+03  0.50400001928E-02 0. -1.
        1   -1    0    0  501    0  0.00000000000E+00  0.00000000000E+00 -0.14279228176E+04  0.14279228176E+04  0.50400001928E-02 0.  1.
    10030    2    1    2    0    0  0.00000000000E+00  0.00000000000E+00 -0.10319681608E+04  0.18238774745E+04  0.15038519732E+04 0.  0.
        1    1    3    3  502    0  0.33906380070E+02 -0.64604706347E+03 -0.98076849392E+03  0.11749184182E+04  0.50400001928E-02 0. -1.
       -1    1    3    3    0  502 -0.33906380070E+02  0.64604706347E+03 -0.51199666839E+02  0.64895905629E+03  0.50400001928E-02 0.  1.
</event>
<event>
 5   0  0.4785496E-04  0.1500076E+04  0.7818609E-02  0.8884402E-01
        2   -1    0    0  501    0  0.00000000000E+00  0.00000000000E+00  0.13958880367E+04  0.13958880367E+04  0.25500000920E-02 0. -1.
       -2   -1    0    0    0  501  0.00000000000E+00  0.00000000000E+00 -0.40301038026E+03  0.40301038027E+03  0.25500000920E-02 0.  1.
    10030    2    1    2    0    0  0.00000000000E+00  0.00000000000E+00  0.99287765644E+03  0.17988984170E+04  0.15000764894E+04 0.  0.
        4    1    3    3  502    0  0.73316217926E+02  0.34568373051E+03  0.12898041193E+04  0.13373364530E+04  0.12699999809E+01 0. -1.
       -4    1    3    3    0  502 -0.73316217926E+02 -0.34568373051E+03 -0.29692646288E+03  0.46156196400E+03  0.12699999809E+01 0.  1.
</event>
<event>
 5   0  0.4726600E-04  0.1511052E+04  0.7818609E-02  0.8877136E-01
        2   -1    0    0  501    0  0.00000000000E+00  0.00000000000E+00  0.11711332287E+04  0.11711332287E+04  0.25500000920E-02 0.  1.
       -2   -1    0    0    0  501  0.00000000000E+00  0.00000000000E+00 -0.48740792067E+03  0.48740792068E+03  0.25500000920E-02 0. -1.
    10030    2    1    2    0    0  0.00000000000E+00  0.00000000000E+00  0.68372530799E+03  0.16585411493E+04  0.15110520995E+04 0.  0.
        2    1    3    3  502    0  0.19619598747E+02 -0.46264311597E+03 -0.31339671844E+03  0.55914316999E+03  0.25500000920E-02 0. -1.
       -2    1    3    3    0  502 -0.19619598747E+02  0.46264311597E+03  0.99712202643E+03  0.10993979794E+04  0.25500000920E-02 0.  1.
</event>
<event>
 5   0  0.2603873E-04  0.1499633E+04  0.7818609E-02  0.8884697E-01
       -1   -1    0    0    0  501  0.00000000000E+00  0.00000000000E+00  0.93865629138E+03  0.93865629139E+03  0.50400001928E-02 0.  1.
        1   -1    0    0  501    0  0.00000000000E+00  0.00000000000E+00 -0.59896801194E+03  0.59896801196E+03  0.50400001928E-02 0. -1.
    10030    2    1    2    0    0  0.00000000000E+00  0.00000000000E+00  0.33968827944E+03  0.15376243034E+04  0.14996334122E+04 0.  0.
        2    1    3    3  502    0 -0.61221430275E+03  0.41723245710E+03  0.28825047520E+03  0.79497019580E+03  0.25500000920E-02 0. -1.
       -2    1    3    3    0  502  0.61221430275E+03 -0.41723245710E+03  0.51437804240E+02  0.74265410755E+03  0.25500000920E-02 0.  1.
</event>
<event>
 5   0  0.4726600E-04  0.1490664E+04  0.7818609E-02  0.8890685E-01
        2   -1    0    0  501    0  0.00000000000E+00  0.00000000000E+00  0.16508776834E+04  0.16508776834E+04  0.25500000920E-02 0. -1.
       -2   -1    0    0    0  501  0.00000000000E+00  0.00000000000E+00 -0.33649971200E+03  0.33649971201E+03  0.25500000920E-02 0.  1.
    10030    2    1    2    0    0  0.00000000000E+00  0.00000000000E+00  0.13143779714E+04  0.19873773955E+04  0.14906641004E+04 0.  0.
        2    1    3    3  502    0  0.68962534310E+03 -0.17898292765E+03  0.94898325252E+03  0.11866706434E+04  0.25500000920E-02 0. -1.
       -2    1    3    3    0  502 -0.68962534310E+03  0.17898292765E+03  0.36539471893E+03  0.80070675210E+03  0.25500000920E-02 0.  1.
</event>
<event>
 5   0  0.2603873E-04  0.1512193E+04  0.7818609E-02  0.8876385E-01
       -1   -1    0    0    0  501  0.00000000000E+00  0.00000000000E+00  0.53897091424E+03  0.53897091426E+03  0.50400001928E-02 0.  1.
        1   -1    0    0  501    0  0.00000000000E+00  0.00000000000E+00 -0.10606917432E+04  0.10606917432E+04  0.50400001928E-02 0. -1.
    10030    2    1    2    0    0  0.00000000000E+00  0.00000000000E+00 -0.52172082895E+03  0.15996626575E+04  0.15121931075E+04 0.  0.
        2    1    3    3  502    0  0.63953980059E+03  0.39736694168E+03 -0.33392325191E+03  0.82366035539E+03  0.25500000920E-02 0. -1.
       -2    1    3    3    0  502 -0.63953980059E+03 -0.39736694168E+03 -0.18779757705E+03  0.77600230207E+03  0.25500000920E-02 0.  1.
</event>
<event>
 5   0  0.1792000E-04  0.1527730E+04  0.7818609E-02  0.8866219E-01
       -3   -1    0    0    0  501  0.00000000000E+00  0.00000000000E+00  0.43527580905E+03  0.43527582077E+03  0.10100000352E+00 0.  1.
        3   -1    0    0  501    0  0.00000000000E+00  0.00000000000E+00 -0.13405063918E+04  0.13405063956E+04  0.10100000352E+00 0. -1.
    10030    2    1    2    0    0  0.00000000000E+00  0.00000000000E+00 -0.90523058271E+03  0.17757822163E+04  0.15277303662E+04 0.  0.
        4    1    3    3  502    0  0.20383821656E+03  0.71460449971E+03 -0.24704137856E+03  0.78309684277E+03  0.12699999809E+01 0.  1.
       -4    1    3    3    0  502 -0.20383821656E+03 -0.71460449971E+03 -0.65818920415E+03  0.99268537356E+03  0.12699999809E+01 0. -1.
</event>
<event>
 5   0  0.2542737E-04  0.1484075E+04  0.7818609E-02  0.8895113E-01
       -1   -1    0    0    0  501  0.00000000000E+00  0.00000000000E+00  0.38268419502E+03  0.38268419505E+03  0.50400001928E-02 0. -1.
        1   -1    0    0  501    0  0.00000000000E+00  0.00000000000E+00 -0.14388351131E+04  0.14388351131E+04  0.50400001928E-02 0.  1.
    10030    2    1    2    0    0  0.00000000000E+00  0.00000000000E+00 -0.10561509181E+04  0.18215193082E+04  0.14840747381E+04 0.  0.
        1    1    3    3  502    0 -0.22798389919E+03 -0.67533982360E+03 -0.27486985525E+03  0.76394631551E+03  0.50400001928E-02 0.  1.
       -1    1    3    3    0  502  0.22798389919E+03  0.67533982360E+03 -0.78128106287E+03  0.10575729927E+04  0.50400001928E-02 0. -1.
</event>
<event>
 5   0  0.4726600E-04  0.1494846E+04  0.7818609E-02  0.8887888E-01
       -2   -1    0    0    0  501  0.00000000000E+00  0.00000000000E+00  0.61544621322E+03  0.61544621323E+03  0.25500000920E-02 0.  1.
        2   -1    0    0  501    0  0.00000000000E+00  0.00000000000E+00 -0.90770055554E+03  0.90770055555E+03  0.25500000920E-02 0. -1.
    10030    2    1    2    0    0  0.00000000000E+00  0.00000000000E+00 -0.29225434232E+03  0.15231467688E+04  0.14948456371E+04 0.  0.
        2    1    3    3  502    0  0.58752314779E+03  0.27017905079E+02 -0.61608314629E+03  0.85174635869E+03  0.25500000920E-02 0. -1.
       -2    1    3    3    0  502 -0.58752314779E+03 -0.27017905079E+02  0.32382880397E+03  0.67140041009E+03  0.25500000920E-02 0.  1.
</event>
<event>
 5   0  0.4785496E-04  0.1594367E+04  0.7818609E-02  0.8824016E-01
       -2   -1    0    0    0  501  0.00000000000E+00  0.00000000000E+00  0.66690724996E+03  0.66690724997E+03  0.25500000920E-02 0. -1.
        2   -1    0    0  501    0  0.00000000000E+00  0.00000000000E+00 -0.95290896297E+03  0.95290896297E+03  0.25500000920E-02 0.  1.
    10030    2    1    2    0    0  0.00000000000E+00  0.00000000000E+00 -0.28600171301E+03  0.16198162129E+04  0.15943674557E+04 0.  0.
        4    1    3    3  502    0 -0.33209569845E+03  0.72444918189E+03 -0.12303745539E+03  0.80638328256E+03  0.12699999809E+01 0.  1.
       -4    1    3    3    0  502  0.33209569845E+03 -0.72444918189E+03 -0.16296425762E+03  0.81343293038E+03  0.12699999809E+01 0. -1.
</event>
<event>
 5   0  0.4948645E-04  0.1496176E+04  0.7818609E-02  0.8887000E-01
        2   -1    0    0  501    0  0.00000000000E+00  0.00000000000E+00  0.64725509545E+03  0.64725509546E+03  0.25500000920E-02 0.  1.
       -2   -1    0    0    0  501  0.00000000000E+00  0.00000000000E+00 -0.86462872642E+03  0.86462872642E+03  0.25500000920E-02 0. -1.
    10030    2    1    2    0    0  0.00000000000E+00  0.00000000000E+00 -0.21737363097E+03  0.15118838219E+04  0.14961755898E+04 0.  0.
        1    1    3    3  502    0 -0.45476716257E+03  0.58744039019E+03 -0.19756457401E+03  0.76872045966E+03  0.50400001928E-02 0. -1.
       -1    1    3    3    0  502  0.45476716257E+03 -0.58744039019E+03 -0.19809056958E+02  0.74316336222E+03  0.50400001928E-02 0.  1.
</event>
<event>
 5   0  0.4948645E-04  0.1530611E+04  0.7818609E-02  0.8864348E-01
        2   -1    0    0  501    0  0.00000000000E+00  0.00000000000E+00  0.16450884941E+04  0.16450884941E+04  0.25500000920E-02 0.  1.
       -2   -1    0    0    0  501  0.00000000000E+00  0.00000000000E+00 -0.35602500231E+03  0.35602500232E+03  0.25500000920E-02 0. -1.
    10030    2    1    2    0    0  0.00000000000E+00  0.00000000000E+00  0.12890634918E+04  0.20011134964E+04  0.15306111654E+04 0.  0.
        1    1    3    3  502    0 -0.58705712845E+02 -0.31209611472E+03  0.15548790084E+04  0.15869779697E+04  0.50400001928E-02 0.  1.
       -1    1    3    3    0  502  0.58705712845E+02  0.31209611472E+03 -0.26581551664E+03  0.41413552668E+03  0.50400001928E-02 0. -1.
</event>
<event>
 5   0  0.2603873E-04  0.1508173E+04  0.7818609E-02  0.8879036E-01
        1   -1    0    0  501    0  0.00000000000E+00  0.00000000000E+00  0.19223168174E+04  0.19223168174E+04  0.50400001928E-02 0.  1.
       -1   -1    0    0    0  501  0.00000000000E+00  0.00000000000E+00 -0.29581301824E+03  0.29581301829E+03  0.50400001928E-02 0. -1.
    10030    2    1    2    0    0  0.00000000000E+00  0.00000000000E+00  0.16265037992E+04  0.22181298357E+04  0.15081728546E+04 0.  0.
        2    1    3    3  502    0 -0.45811989830E+02  0.22336282864E+03  0.18704024856E+04  0.18842492271E+04  0.25500000920E-02 0.  1.
       -2    1    3    3    0  502  0.45811989830E+02 -0.22336282864E+03 -0.24389868637E+03  0.33388060868E+03  0.25500000920E-02 0. -1.
</event>
<event>
 5   0  0.1792000E-04  0.1498751E+04  0.7818609E-02  0.8885284E-01
       -4   -1    0    0    0  501  0.00000000000E+00  0.00000000000E+00  0.65273940510E+03  0.65274064058E+03  0.12699999809E+01 0. -1.
        4   -1    0    0  501    0  0.00000000000E+00  0.00000000000E+00 -0.86031568427E+03  0.86031662166E+03  0.12699999809E+01 0.  1.
    10030    2    1    2    0    0  0.00000000000E+00  0.00000000000E+00 -0.20757627917E+03  0.15130572622E+04  0.14987509357E+04 0.  0.
        2    1    3    3  502    0 -0.39807995341E+03 -0.95127743517E+02  0.52993522553E+03  0.66958814219E+03  0.25500000920E-02 0. -1.
       -2    1    3    3    0  502  0.39807995341E+03  0.95127743517E+02 -0.73751150470E+03  0.84346912005E+03  0.25500000920E-02 0.  1.
</event>
<event>
 5   0  0.4948645E-04  0.1500608E+04  0.7818609E-02  0.8884049E-01
        2   -1    0    0  501    0  0.00000000000E+00  0.00000000000E+00  0.56183482416E+03  0.56183482416E+03  0.25500000920E-02 0. -1.
       -2   -1    0    0    0  501  0.00000000000E+00  0.00000000000E+00 -0.10019960868E+04  0.10019960868E+04  0.25500000920E-02 0.  1.
    10030    2    1    2    0    0  0.00000000000E+00  0.00000000000E+00 -0.44016126261E+03  0.15638309109E+04  0.15006082703E+04 0.  0.
        1    1    3    3  502    0 -0.40283907982E+03  0.89652593974E+02  0.43292869971E+03  0.59811718826E+03  0.50400001928E-02 0. -1.
       -1    1    3    3    0  502  0.40283907982E+03 -0.89652593974E+02 -0.87308996232E+03  0.96571372268E+03  0.50400001928E-02 0.  1.
</event>
<event>
 5   0  0.4569211E-04  0.1490179E+04  0.7818609E-02  0.8891010E-01
       -2   -1    0    0    0  501  0.00000000000E+00  0.00000000000E+00  0.58214626271E+03  0.58214626271E+03  0.25500000920E-02 0. -1.
        2   -1    0    0  501    0  0.00000000000E+00  0.00000000000E+00 -0.95364090697E+03  0.95364090698E+03  0.25500000920E-02 0.  1.
    10030    2    1    2    0    0  0.00000000000E+00  0.00000000000E+00 -0.37149464427E+03  0.15357871697E+04  0.14901791704E+04 0.  0.
        5    1    3    3  502    0 -0.60496759645E+03  0.67710821693E+02 -0.62850716255E+03  0.87499365226E+03  0.46999998093E+01 0. -1.
       -5    1    3    3    0  502  0.60496759645E+03 -0.67710821693E+02  0.25701251828E+03  0.66079351743E+03  0.46999998093E+01 0.  1.
</event>
<event>
 5   0  0.4785496E-04  0.1496623E+04  0.7818609E-02  0.8886701E-01
        2   -1    0    0  501    0  0.00000000000E+00  0.00000000000E+00  0.89196585174E+03  0.89196585174E+03  0.25500000920E-02 0.  1.
       -2   -1    0    0    0  501  0.00000000000E+00  0.00000000000E+00 -0.62779357734E+03  0.62779357735E+03  0.25500000920E-02 0. -1.
    10030    2    1    2    0    0  0.00000000000E+00  0.00000000000E+00  0.26417227439E+03  0.15197594291E+04  0.14966234435E+04 0.  0.
        4    1    3    3  502    0  0.10080264366E+03  0.67038850429E+03  0.45382300175E+03  0.81580564442E+03  0.12699999809E+01 0.  1.
       -4    1    3    3    0  502 -0.10080264366E+03 -0.67038850429E+03 -0.18965072736E+03  0.70395378466E+03  0.12699999809E+01 0. -1.
</event>
<event>
 5   0  0.2542737E-04  0.1458349E+04  0.7818609E-02  0.8912633E-01
        1   -1    0    0  501    0  0.00000000000E+00  0.00000000000E+00  0.42101465411E+03  0.42101465415E+03  0.50400001928E-02 0. -1.
       -1   -1    0    0    0  501  0.00000000000E+00  0.00000000000E+00 -0.12628910924E+04  0.12628910924E+04  0.50400001928E-02 0.  1.
    10030    2    1    2    0    0  0.00000000000E+00  0.00000000000E+00 -0.84187643831E+03  0.16839057466E+04  0.14583492812E+04 0.  0.
        1    1    3    3  502    0  0.28875297395E+03 -0.42398522239E+02 -0.11925103980E+04  0.12277039399E+04  0.50400001928E-02 0.  1.
       -1    1    3    3    0  502 -0.28875297395E+03  0.42398522239E+02  0.35063395973E+03  0.45620180665E+03  0.50400001928E-02 0. -1.
</event>
<event>
 5   0  0.4768387E-04  0.1498626E+04  0.7818609E-02  0.8885367E-01
        2   -1    0    0  501    0  0.00000000000E+00  0.00000000000E+00  0.12811081555E+04  0.12811081555E+04  0.25500000920E-02 0.  1.
       -2   -1    0    0    0  501  0.00000000000E+00  0.00000000000E+00 -0.43826910245E+03  0.43826910246E+03  0.25500000920E-02 0. -1.
    10030    2    1    2    0    0  0.00000000000E+00  0.00000000000E+00  0.84283905305E+03  0.17193772580E+04  0.14986261995E+04 0.  0.
        3    1    3    3  502    0  0.17510740259E+02 -0.38955535581E+03 -0.31268370989E+03  0.49983108536E+03  0.10100000352E+00 0. -1.
       -3    1    3    3    0  502 -0.17510740259E+02  0.38955535581E+03  0.11555227629E+04  0.12195461726E+04  0.10100000352E+00 0.  1.
</event>
<event>
 5   0  0.4948645E-04  0.1506443E+04  0.7818609E-02  0.8880180E-01
       -2   -1    0    0    0  501  0.00000000000E+00  0.00000000000E+00  0.35699352530E+03  0.35699352531E+03  0.25500000920E-02 0.  1.
        2   -1    0    0  501    0  0.00000000000E+00  0.00000000000E+00 -0.15892228163E+04  0.15892228163E+04  0.25500000920E-02 0. -1.
    10030    2    1    2    0    0  0.00000000000E+00  0.00000000000E+00 -0.12322292910E+04  0.19462163416E+04  0.15064425056E+04 0.  0.
        1    1    3    3  502    0 -0.32325488373E+03  0.11178878425E+03  0.25087618998E+03  0.42418075731E+03  0.50400001928E-02 0.  1.
       -1    1    3    3    0  502  0.32325488373E+03 -0.11178878425E+03 -0.14831054809E+04  0.15220355843E+04  0.50400001928E-02 0. -1.
</event>
<event>
 5   0  0.2544374E-04  0.1503205E+04  0.7818609E-02  0.8882324E-01
       -1   -1    0    0    0  501  0.00000000000E+00  0.00000000000E+00  0.39937582649E+03  0.39937582653E+03  0.50400001928E-02 0.  1.
        1   -1    0    0  501    0  0.00000000000E+00  0.00000000000E+00 -0.14144730604E+04  0.14144730604E+04  0.50400001928E-02 0. -1.
    10030    2    1    2    0    0  0.00000000000E+00  0.00000000000E+00 -0.10150972339E+04  0.18138488869E+04  0.15032050394E+04 0.  0.
        4    1    3    3  502    0 -0.81058069664E+02 -0.25639407401E+03 -0.13544415285E+04  0.13808771846E+04  0.12699999809E+01 0. -1.
       -4    1    3    3    0  502  0.81058069664E+02  0.25639407401E+03  0.33934429461E+03  0.43297170235E+03  0.12699999809E+01 0.  1.
</event>
<event>
 5   0  0.4768387E-04  0.1495994E+04  0.7818609E-02  0.8887121E-01
        2   -1    0    0  501    0  0.00000000000E+00  0.00000000000E+00  0.79877846728E+03  0.79877846729E+03  0.25500000920E-02 0. -1.
       -2   -1    0    0    0  501  0.00000000000E+00  0.00000000000E+00 -0.70044381317E+03  0.70044381317E+03  0.25500000920E-02 0.  1.
    10030    2    1    2    0    0  0.00000000000E+00  0.00000000000E+00  0.98334654117E+02  0.14992222805E+04  0.14959938977E+04 0.  0.
        3    1    3    3  502    0  0.21832457724E+03  0.38392690816E+03 -0.55581907040E+03  0.70992981418E+03  0.10100000352E+00 0.  1.
       -3    1    3    3    0  502 -0.21832457724E+03 -0.38392690816E+03  0.65415372451E+03  0.78929246628E+03  0.10100000352E+00 0. -1.
</event>
<event>
 5   0  0.4948645E-04  0.1499206E+04  0.7818609E-02  0.8884981E-01
        2   -1    0    0  501    0  0.00000000000E+00  0.00000000000E+00  0.88819191664E+03  0.88819191665E+03  0.25500000920E-02 0. -1.
       -2   -1    0    0    0  501  0.00000000000E+00  0.00000000000E+00 -0.63263899841E+03  0.63263899841E+03  0.25500000920E-02 0.  1.
    10030    2    1    2    0    0  0.00000000000E+00  0.00000000000E+00  0.25555291823E+03  0.15208309151E+04  0.14992062494E+04 0.  0.
        1    1    3    3  502    0  0.40907378349E+02 -0.35204965159E+03 -0.54227538827E+03  0.64782325331E+03  0.50400001928E-02 0.  1.
       -1    1    3    3    0  502 -0.40907378349E+02  0.35204965159E+03  0.79782830650E+03  0.87300766175E+03  0.50400001928E-02 0. -1.
</event>
<event>
 5   0  0.2603873E-04  0.1497402E+04  0.7818609E-02  0.8886182E-01
       -1   -1    0    0    0  501  0.00000000000E+00  0.00000000000E+00  0.33705926643E+03  0.33705926646E+03  0.50400001928E-02 0.  1.
        1   -1    0    0  501    0  0.00000000000E+00  0.00000000000E+00 -0.16630705675E+04  0.16630705675E+04  0.50400001928E-02 0. -1.
    10030    2    1    2    0    0  0.00000000000E+00  0.00000000000E+00 -0.13260113011E+04  0.20001298340E+04  0.14974022112E+04 0.  0.
        2    1    3    3  502    0  0.35357507518E+03  0.79714825760E+02 -0.15380725487E+04  0.15802015544E+04  0.25500000920E-02 0. -1.
       -2    1    3    3    0  502 -0.35357507518E+03 -0.79714825760E+02  0.21206124767E+03  0.41992827960E+03  0.25500000920E-02 0.  1.
</event>
<event>
 5   0  0.4569211E-04  0.1499429E+04  0.7818609E-02  0.8884833E-01
        2   -1    0    0  501    0  0.00000000000E+00  0.00000000000E+00  0.14330047357E+04  0.14330047357E+04  0.25500000920E-02 0.  1.
       -2   -1    0    0    0  501  0.00000000000E+00  0.00000000000E+00 -0.39223289500E+03  0.39223289501E+03  0.25500000920E-02 0. -1.
    10030    2    1    2    0    0  0.00000000000E+00  0.00000000000E+00  0.10407718407E+04  0.18252376307E+04  0.14994286859E+04 0.  0.
        5    1    3    3  502    0  0.11130216867E+02 -0.70538245551E+03  0.82920613351E+03  0.10887117121E+04  0.46999998093E+01 0.  1.
       -5    1    3    3    0  502 -0.11130216867E+02  0.70538245551E+03  0.21156570715E+03  0.73652591856E+03  0.46999998093E+01 0. -1.
</event>
<event>
 5   0  0.2542737E-04  0.1500045E+04  0.7818609E-02  0.8884423E-01
        1   -1    0    0  501    0  0.00000000000E+00  0.00000000000E+00  0.38900935635E+03  0.38900935638E+03  0.50400001928E-02 0. -1.
       -1   -1    0    0    0  501  0.00000000000E+00  0.00000000000E+00 -0.14460679256E+04  0.14460679256E+04  0.50400001928E-02 0.  1.
    10030    2    1    2    0    0  0.00000000000E+00  0.00000000000E+00 -0.10570585693E+04  0.18350772820E+04  0.15000452700E+04 0.  0.
        1    1    3    3  502    0 -0.47090316212E+03  0.57428470417E+03 -0.40033290732E+03  0.84369375146E+03  0.50400001928E-02 0. -1.
       -1    1    3    3    0  502  0.47090316212E+03 -0.57428470417E+03 -0.65672566196E+03  0.99138353055E+03  0.50400001928E-02 0.  1.
</event>
<event>
 5   0  0.4948645E-04  0.1504853E+04  0.7818609E-02  0.8881232E-01
        2   -1    0    0  501    0  0.00000000000E+00  0.00000000000E+00  0.12004903017E+04  0.12004903017E+04  0.25500000920E-02 0.  1.
       -2   -1    0    0    0  501  0.00000000000E+00  0.00000000000E+00 -0.47159514007E+03  0.47159514007E+03  0.25500000920E-02 0. -1.
    10030    2    1    2    0    0  0.00000000000E+00  0.00000000000E+00  0.72889516159E+03  0.16720854417E+04  0.15048526731E+04 0.  0.
        1    1    3    3  502    0  0.40366384891E+03  0.57596576558E+03  0.67411550387E+02  0.70655883208E+03  0.50400001928E-02 0. -1.
       -1    1    3    3    0  502 -0.40366384891E+03 -0.57596576558E+03  0.66148361120E+03  0.96552660965E+03  0.50400001928E-02 0.  1.
</event>
<event>
 5   0  0.4726600E-04  0.1503856E+04  0.7818609E-02  0.8881893E-01
        2   -1    0    0  501    0  0.00000000000E+00  0.00000000000E+00  0.63436830064E+03  0.63436830064E+03  0.25500000920E-02 0. -1.
       -2   -1    0    0    0  501  0.00000000000E+00  0.00000000000E+00 -0.89127378556E+03  0.89127378557E+03  0.25500000920E-02 0.  1.
    10030    2    1    2    0    0  0.00000000000E+00  0.00000000000E+00 -0.25690548492E+03  0.15256420862E+04  0.15038561590E+04 0.  0.
        2    1    3    3  502    0 -0.30841900780E+03  0.18206950685E+03 -0.79918440857E+03  0.87576669759E+03  0.25500000920E-02 0.  1.
       -2    1    3    3    0  502  0.30841900780E+03 -0.18206950685E+03  0.54227892365E+03  0.64987538862E+03  0.25500000920E-02 0. -1.
</event>
<event>
 5   0  0.2565416E-04  0.1500134E+04  0.7818609E-02  0.8884364E-01
        1   -1    0    0  501    0  0.00000000000E+00  0.00000000000E+00  0.12241453803E+04  0.12241453803E+04  0.50400001928E-02 0. -1.
       -1   -1    0    0    0  501  0.00000000000E+00  0.00000000000E+00 -0.45958658427E+03  0.45958658430E+03  0.50400001928E-02 0.  1.
    10030    2    1    2    0    0  0.00000000000E+00  0.00000000000E+00  0.76455879598E+03  0.16837319646E+04  0.15001343860E+04 0.  0.
        5    1    3    3  502    0 -0.54038638333E+03  0.51303435793E+03  0.47854993926E+03  0.88558106916E+03  0.46999998093E+01 0.  1.
       -5    1    3    3    0  502  0.54038638333E+03 -0.51303435793E+03  0.28600885672E+03  0.79815089540E+03  0.46999998093E+01 0. -1.
</event>
<event>
 5   0  0.2605471E-04  0.1561283E+04  0.7818609E-02  0.8844693E-01
        1   -1    0    0  501    0  0.00000000000E+00  0.00000000000E+00  0.63164809410E+03  0.63164809412E+03  0.50400001928E-02 0.  1.
       -1   -1    0    0    0  501  0.00000000000E+00  0.00000000000E+00 -0.96478001117E+03  0.96478001118E+03  0.50400001928E-02 0. -1.
    10030    2    1    2    0    0  0.00000000000E+00  0.00000000000E+00 -0.33313191707E+03  0.15964281053E+04  0.15612833891E+04 0.  0.
        3    1    3    3  502    0 -0.73034890085E+03  0.22074526696E+03 -0.33539924468E+03  0.83344505121E+03  0.10100000352E+00 0. -1.
       -3    1    3    3    0  502  0.73034890085E+03 -0.22074526696E+03  0.22673276174E+01  0.76298305409E+03  0.10100000352E+00 0.  1.
</event>
<event>
 5   0  0.4768387E-04  0.1506442E+04  0.7818609E-02  0.8880180E-01
       -2   -1    0    0    0  501  0.00000000000E+00  0.00000000000E+00  0.34924816514E+03  0.34924816514E+03  0.25500000920E-02 0.  1.
        2   -1    0    0  501    0  0.00000000000E+00  0.00000000000E+00 -0.16244664699E+04  0.16244664699E+04  0.25500000920E-02 0. -1.
    10030    2    1    2    0    0  0.00000000000E+00  0.00000000000E+00 -0.12752183047E+04  0.19737146350E+04  0.15064420785E+04 0.  0.
        3    1    3    3  502    0 -0.22001863144E+03 -0.71806300061E+03 -0.71309266169E+03  0.10356272618E+04  0.10100000352E+00 0.  1.
       -3    1    3    3    0  502  0.22001863144E+03  0.71806300061E+03 -0.56212564306E+03  0.93808737323E+03  0.10100000352E+00 0. -1.
</event>
<event>
 5   0  0.4569211E-04  0.1493054E+04  0.7818609E-02  0.8889085E-01
        2   -1    0    0  501    0  0.00000000000E+00  0.00000000000E+00  0.12459248183E+04  0.12459248183E+04  0.25500000920E-02 0.  1.
       -2   -1    0    0    0  501  0.00000000000E+00  0.00000000000E+00 -0.44730037793E+03  0.44730037794E+03  0.25500000920E-02 0. -1.
    10030    2    1    2    0    0  0.00000000000E+00  0.00000000000E+00  0.79862444038E+03  0.16932251963E+04  0.14930541077E+04 0.  0.
        5    1    3    3  502    0 -0.73971540415E+03 -0.10013628361E+03  0.38953041819E+03  0.84199892585E+03  0.46999998093E+01 0.  1.
       -5    1    3    3    0  502  0.73971540415E+03  0.10013628361E+03  0.40909402219E+03  0.85122627040E+03  0.46999998093E+01 0. -1.
</event>
<event>
 5   0  0.2565416E-04  0.1498244E+04  0.7818609E-02  0.8885622E-01
        1   -1    0    0  501    0  0.00000000000E+00  0.00000000000E+00  0.93288009571E+03  0.93288009573E+03  0.50400001928E-02 0.  1.
       -1   -1    0    0    0  501  0.00000000000E+00  0.00000000000E+00 -0.60156007702E+03  0.60156007704E+03  0.50400001928E-02 0. -1.
    10030    2    1    2    0    0  0.00000000000E+00  0.00000000000E+00  0.33132001869E+03  0.15344401728E+04  0.14982435346E+04 0.  0.
        5    1    3    3  502    0 -0.58854225161E+03  0.39036048972E+03 -0.90170901076E+02  0.71198045989E+03  0.46999998093E+01 0. -1.
       -5    1    3    3    0  502  0.58854225161E+03 -0.39036048972E+03  0.42149091977E+03  0.82245971288E+03  0.46999998093E+01 0.  1.
</event>
<event>
 5   0  0.4948645E-04  0.1503997E+04  0.7818609E-02  0.8881799E-01
       -2   -1    0    0    0  501  0.00000000000E+00  0.00000000000E+00  0.54243154304E+03  0.54243154304E+03  0.25500000920E-02 0.  1.
        2   -1    0    0  501    0  0.00000000000E+00  0.00000000000E+00 -0.10425311808E+04  0.10425311808E+04  0.25500000920E-02 0. -1.
    10030    2    1    2    0    0  0.00000000000E+00  0.00000000000E+00 -0.50009963777E+03  0.15849627239E+04  0.15039970706E+04 0.  0.
        1    1    3    3  502    0 -0.10076115193E+03  0.48943466383E+03  0.34216596717E+03  0.60562087894E+03  0.50400001928E-02 0.  1.
       -1    1    3    3    0  502  0.10076115193E+03 -0.48943466383E+03 -0.84226560494E+03  0.97934184491E+03  0.50400001928E-02 0. -1.
</event>
<event>
 5   0  0.2542737E-04  0.1536691E+04  0.7818609E-02  0.8860414E-01
       -1   -1    0    0    0  501  0.00000000000E+00  0.00000000000E+00  0.14391024483E+04  0.14391024484E+04  0.50400001928E-02 0. -1.
        1   -1    0    0  501    0  0.00000000000E+00  0.00000000000E+00 -0.41022412650E+03  0.41022412653E+03  0.50400001928E-02 0.  1.
    10030    2    1    2    0    0  0.00000000000E+00  0.00000000000E+00  0.10288783218E+04  0.18493265749E+04  0.15366906583E+04 0.  0.
        1    1    3    3  502    0  0.42534053496E+03  0.40712519905E+03 -0.79641156118E+02  0.59414494204E+03  0.50400001928E-02 0. -1.
       -1    1    3    3    0  502 -0.42534053496E+03 -0.40712519905E+03  0.11085194780E+04  0.12551816328E+04  0.50400001928E-02 0.  1.
</event>
<event>
 5   0  0.4768387E-04  0.1479865E+04  0.7818609E-02  0.8897954E-01
       -2   -1    0    0    0  501  0.00000000000E+00  0.00000000000E+00  0.12894541332E+04  0.12894541332E+04  0.25500000920E-02 0. -1.
        2   -1    0    0  501    0  0.00000000000E+00  0.00000000000E+00 -0.42459829487E+03  0.42459829487E+03  0.25500000920E-02 0.  1.
    10030    2    1    2    0    0  0.00000000000E+00  0.00000000000E+00  0.86485583836E+03  0.17140524281E+04  0.14798648942E+04 0.  0.
        3    1    3    3  502    0  0.28023411440E+03 -0.52374336203E+03 -0.78597311780E+02  0.59917928516E+03  0.10100000352E+00 0.  1.
       -3    1    3    3    0  502 -0.28023411440E+03  0.52374336203E+03  0.94345315014E+03  0.11148731429E+04  0.10100000352E+00 0. -1.
</event>
<event>
 5   0  0.4785496E-04  0.1501951E+04  0.7818609E-02  0.8883157E-01
        2   -1    0    0  501    0  0.00000000000E+00  0.00000000000E+00  0.11560975021E+04  0.11560975021E+04  0.25500000920E-02 0.  1.
       -2   -1    0    0    0  501  0.00000000000E+00  0.00000000000E+00 -0.48781713441E+03  0.48781713442E+03  0.25500000920E-02 0. -1.
    10030    2    1    2    0    0  0.00000000000E+00  0.00000000000E+00  0.66828036773E+03  0.16439146366E+04  0.15019509587E+04 0.  0.
        4    1    3    3  502    0 -0.10191632524E+03 -0.40560137839E+03  0.10168459246E+04  0.10994892736E+04  0.12699999809E+01 0.  1.
       -4    1    3    3    0  502  0.10191632524E+03  0.40560137839E+03 -0.34856555686E+03  0.54442536296E+03  0.12699999809E+01 0. -1.
</event>
<event>
 5   0  0.4726600E-04  0.1454153E+04  0.7818609E-02  0.8915526E-01
        2   -1    0    0  501    0  0.00000000000E+00  0.00000000000E+00  0.72663524280E+03  0.72663524281E+03  0.25500000920E-02 0.  1.
       -2   -1    0    0    0  501  0.00000000000E+00  0.00000000000E+00 -0.72751793274E+03  0.72751793274E+03  0.25500000920E-02 0. -1.
    10030    2    1    2    0    0  0.00000000000E+00  0.00000000000E+00 -0.88268993567E+00  0.14541531756E+04  0.14541529077E+04 0.  0.
        2    1    3    3  502    0 -0.39253868423E+02 -0.47231924579E+02 -0.72491953112E+03  0.72751635548E+03  0.25500000920E-02 0. -1.
       -2    1    3    3    0  502  0.39253868423E+02  0.47231924579E+02  0.72403684118E+03  0.72663682007E+03  0.25500000920E-02 0.  1.
</event>
<event>
 5   0  0.4726600E-04  0.1514042E+04  0.7818609E-02  0.8875169E-01
        2   -1    0    0  501    0  0.00000000000E+00  0.00000000000E+00  0.83031265666E+03  0.83031265667E+03  0.25500000920E-02 0.  1.
       -2   -1    0    0    0  501  0.00000000000E+00  0.00000000000E+00 -0.69019840900E+03  0.69019840900E+03  0.25500000920E-02 0. -1.
    10030    2    1    2    0    0  0.00000000000E+00  0.00000000000E+00  0.14011424767E+03  0.15205110657E+04  0.15140415775E+04 0.  0.
        2    1    3    3  502    0 -0.56671741321E+03  0.41348820852E+03  0.35577120093E+03  0.78658392587E+03  0.25500000920E-02 0.  1.
       -2    1    3    3    0  502  0.56671741321E+03 -0.41348820852E+03 -0.21565695326E+03  0.73392713979E+03  0.25500000920E-02 0. -1.
</event>
<event>
 5   0  0.4948645E-04  0.1467100E+04  0.7818609E-02  0.8906630E-01
       -2   -1    0    0    0  501  0.00000000000E+00  0.00000000000E+00  0.19936045007E+03  0.19936045009E+03  0.25500000920E-02 0. -1.
        2   -1    0    0  501    0  0.00000000000E+00  0.00000000000E+00 -0.26991103575E+04  0.26991103575E+04  0.25500000920E-02 0.  1.
    10030    2    1    2    0    0  0.00000000000E+00  0.00000000000E+00 -0.24997499074E+04  0.28984708076E+04  0.14671003452E+04 0.  0.
        1    1    3    3  502    0 -0.63158625077E+03 -0.35239129673E+03 -0.14919624293E+04  0.16580207202E+04  0.50400001928E-02 0. -1.
       -1    1    3    3    0  502  0.63158625077E+03  0.35239129673E+03 -0.10077874781E+04  0.12404500874E+04  0.50400001928E-02 0.  1.
</event>
<event>
 5   0  0.2565416E-04  0.1510704E+04  0.7818609E-02  0.8877366E-01
        1   -1    0    0  501    0  0.00000000000E+00  0.00000000000E+00  0.11829341334E+04  0.11829341334E+04  0.50400001928E-02 0. -1.
       -1   -1    0    0    0  501  0.00000000000E+00  0.00000000000E+00 -0.48232351053E+03  0.48232351056E+03  0.50400001928E-02 0.  1.
    10030    2    1    2    0    0  0.00000000000E+00  0.00000000000E+00  0.70061062288E+03  0.16652576440E+04  0.15107043973E+04 0.  0.
        5    1    3    3  502    0  0.32275962598E+03  0.48803595965E+02  0.11011519469E+04  0.11485265636E+04  0.46999998093E+01 0. -1.
       -5    1    3    3    0  502 -0.32275962598E+03 -0.48803595965E+02 -0.40054132405E+03  0.51673108036E+03  0.46999998093E+01 0.  1.
</event>
<event>
 5   0  0.2542737E-04  0.1507585E+04  0.7818609E-02  0.8879425E-01
       -1   -1    0    0    0  501  0.00000000000E+00  0.00000000000E+00  0.11159817472E+04  0.11159817472E+04  0.50400001928E-02 0. -1.
        1   -1    0    0  501    0  0.00000000000E+00  0.00000000000E+00 -0.50915069464E+03  0.50915069466E+03  0.50400001928E-02 0.  1.
    10030    2    1    2    0    0  0.00000000000E+00  0.00000000000E+00  0.60683105257E+03  0.16251324419E+04  0.15075846667E+04 0.  0.
        1    1    3    3  502    0  0.58118143548E+03 -0.12619125348E+03 -0.19584538912E+03  0.62614016790E+03  0.50400001928E-02 0.  1.
       -1    1    3    3    0  502 -0.58118143548E+03  0.12619125348E+03  0.80267644169E+03  0.99899227398E+03  0.50400001928E-02 0. -1.
</event>
<event>
 5   0  0.4948645E-04  0.1511541E+04  0.7818609E-02  0.8876815E-01
       -2   -1    0    0    0  501  0.00000000000E+00  0.00000000000E+00  0.78389210059E+03  0.78389210059E+03  0.25500000920E-02 0.  1.
        2   -1    0    0  501    0  0.00000000000E+00  0.00000000000E+00 -0.72865746339E+03  0.72865746340E+03  0.25500000920E-02 0. -1.
    10030    2    1    2    0    0  0.00000000000E+00  0.00000000000E+00  0.55234637193E+02  0.15125495640E+04  0.15115407101E+04 0.  0.
        1    1    3    3  502    0  0.47284306838E+03 -0.31495378596E+03  0.52635982071E+03  0.77448764709E+03  0.50400001928E-02 0.  1.
       -1    1    3    3    0  502 -0.47284306838E+03  0.31495378596E+03 -0.47112518351E+03  0.73806191690E+03  0.50400001928E-02 0. -1.
</event>
<event>
 5   0  0.2603873E-04  0.1508069E+04  0.7818609E-02  0.8879105E-01
       -1   -1    0    0    0  501  0.00000000000E+00  0.00000000000E+00  0.87755767357E+03  0.87755767358E+03  0.50400001928E-02 0. -1.
        1   -1    0    0  501    0  0.00000000000E+00  0.00000000000E+00 -0.64789842958E+03  0.64789842960E+03  0.50400001928E-02 0.  1.
    10030    2    1    2    0    0  0.00000000000E+00  0.00000000000E+00  0.22965924399E+03  0.15254561032E+04  0.15080692804E+04 0.  0.
        2    1    3    3  502    0 -0.44442064425E+03  0.60751472723E+03  0.69769592368E+02  0.75594421015E+03  0.25500000920E-02 0. -1.
       -2    1    3    3    0  502  0.44442064425E+03 -0.60751472723E+03  0.15988965162E+03  0.76951189304E+03  0.25500000920E-02 0.  1.
</event>
<event>
 5   0  0.2605471E-04  0.1478047E+04  0.7818609E-02  0.8899184E-01
        1   -1    0    0  501    0  0.00000000000E+00  0.00000000000E+00  0.73583380059E+03  0.73583380061E+03  0.50400001928E-02 0.  1.
       -1   -1    0    0    0  501  0.00000000000E+00  0.00000000000E+00 -0.74222657809E+03  0.74222657810E+03  0.50400001928E-02 0. -1.
    10030    2    1    2    0    0  0.00000000000E+00  0.00000000000E+00 -0.63927774939E+01  0.14780603787E+04  0.14780465539E+04 0.  0.
        3    1    3    3  502    0  0.29859478428E+03 -0.36268014782E+03  0.56729966489E+03  0.73656272971E+03  0.10100000352E+00 0.  1.
       -3    1    3    3    0  502 -0.29859478428E+03  0.36268014782E+03 -0.57369244238E+03  0.74149764900E+03  0.10100000352E+00 0. -1.
</event>
<event>
 5   0  0.2544374E-04  0.1498540E+04  0.7818609E-02  0.8885424E-01
       -1   -1    0    0    0  501  0.00000000000E+00  0.00000000000E+00  0.86985847267E+03  0.86985847269E+03  0.50400001928E-02 0.  1.
        1   -1    0    0  501    0  0.00000000000E+00  0.00000000000E+00 -0.64539883913E+03  0.64539883915E+03  0.50400001928E-02 0. -1.
    10030    2    1    2    0    0  0.00000000000E+00  0.00000000000E+00  0.22445963354E+03  0.15152573118E+04  0.14985401543E+04 0.  0.
        4    1    3    3  502    0  0.32657352627E+03 -0.62113574731E+02  0.79120833915E+03  0.85820779131E+03  0.12699999809E+01 0.  1.
       -4    1    3    3    0  502 -0.32657352627E+03  0.62113574731E+02 -0.56674870560E+03  0.65704952053E+03  0.12699999809E+01 0. -1.
</event>
<event>
 5   0  0.4948645E-04  0.1504433E+04  0.7818609E-02  0.8881510E-01
       -2   -1    0    0    0  501  0.00000000000E+00  0.00000000000E+00  0.41008140990E+03  0.41008140991E+03  0.25500000920E-02 0. -1.
        2   -1    0    0  501    0  0.00000000000E+00  0.00000000000E+00 -0.13797983648E+04  0.13797983648E+04  0.25500000920E-02 0.  1.
    10030    2    1    2    0    0  0.00000000000E+00  0.00000000000E+00 -0.96971695489E+03  0.17898797747E+04  0.15044329946E+04 0.  0.
        1    1    3    3  502    0 -0.63553024518E+03  0.33041021803E+03 -0.75813582077E+03  0.10429954590E+04  0.50400001928E-02 0.  1.
       -1    1    3    3    0  502  0.63553024518E+03 -0.33041021803E+03 -0.21158113413E+03  0.74688431571E+03  0.50400001928E-02 0. -1.
</event>
<event>
 5   0  0.2603873E-04  0.1501261E+04  0.7818609E-02  0.8883615E-01
        1   -1    0    0  501    0  0.00000000000E+00  0.00000000000E+00  0.45078767196E+03  0.45078767198E+03  0.50400001928E-02 0. -1.
       -1   -1    0    0    0  501  0.00000000000E+00  0.00000000000E+00 -0.12499146922E+04  0.12499146922E+04  0.50400001928E-02 0.  1.
    10030    2    1    2    0    0  0.00000000000E+00  0.00000000000E+00 -0.79912702024E+03  0.17007023642E+04  0.15012609823E+04 0.  0.
        2    1    3    3  502    0 -0.41758578020E+03 -0.59742049025E+03 -0.60271028719E+03  0.94580590836E+03  0.25500000920E-02 0.  1.
       -2    1    3    3    0  502  0.41758578020E+03  0.59742049025E+03 -0.19641673305E+03  0.75489645583E+03  0.25500000920E-02 0. -1.
</event>
<event>
 5   0  0.2605471E-04  0.1504268E+04  0.7818609E-02  0.8881620E-01
       -1   -1    0    0    0  501  0.00000000000E+00  0.00000000000E+00  0.15328903792E+04  0.15328903792E+04  0.50400001928E-02 0. -1.
        1   -1    0    0  501    0  0.00000000000E+00  0.00000000000E+00 -0.36904492131E+03  0.36904492134E+03  0.50400001928E-02 0.  1.
    10030    2    1    2    0    0  0.00000000000E+00  0.00000000000E+00  0.11638454579E+04  0.19019353005E+04  0.15042678078E+04 0.  0.
        3    1    3    3  502    0  0.56598923792E+03 -0.36569954652E+03  0.10043501845E+04  0.12094623926E+04  0.10100000352E+00 0. -1.
       -3    1    3    3    0  502 -0.56598923792E+03  0.36569954652E+03  0.15949527332E+03  0.69247290790E+03  0.10100000352E+00 0.  1.
</event>
<event>
 5   0  0.2565416E-04  0.1504068E+04  0.7818609E-02  0.8881752E-01
        1   -1    0    0  501    0  0.00000000000E+00  0.00000000000E+00  0.10833841614E+04  0.10833841614E+04  0.50400001928E-02 0.  1.
       -1   -1    0    0    0  501  0.00000000000E+00  0.00000000000E+00 -0.52202649722E+03  0.52202649725E+03  0.50400001928E-02 0. -1.
    10030    2    1    2    0    0  0.00000000000E+00  0.00000000000E+00  0.56135766414E+03  0.16054106586E+04  0.15040681353E+04 0.  0.
        5    1    3    3  502    0  0.22621624368E+02 -0.61947757206E+03  0.73512279618E+03  0.96160897232E+03  0.46999998093E+01 0.  1.
       -5    1    3    3    0  502 -0.22621624368E+02  0.61947757206E+03 -0.17376513204E+03  0.64380168631E+03  0.46999998093E+01 0. -1.
</event>
<event>
 5   0  0.4948645E-04  0.1496740E+04  0.7818609E-02  0.8886624E-01
       -2   -1    0    0    0  501  0.00000000000E+00  0.00000000000E+00  0.82241703564E+03  0.82241703564E+03  0.25500000920E-02 0. -1.
        2   -1    0    0  501    0  0.00000000000E+00  0.00000000000E+00 -0.68098997323E+03  0.68098997324E+03  0.25500000920E-02 0.  1.
    10030    2    1    2    0    0  0.00000000000E+00  0.00000000000E+00  0.14142706240E+03  0.15034070089E+04  0.14967401312E+04 0.  0.
        1    1    3    3  502    0  0.46607100087E+03 -0.96996728304E+02 -0.50929006689E+03  0.69714196217E+03  0.50400001928E-02 0.  1.
       -1    1    3    3    0  502 -0.46607100087E+03  0.96996728304E+02  0.65071712930E+03  0.80626504671E+03  0.50400001928E-02 0. -1.
</event>
<event>
 5   0  0.1792000E-04  0.1496937E+04  0.7818609E-02  0.8886492E-01
       -3   -1    0    0    0  501  0.00000000000E+00  0.00000000000E+00  0.12613738206E+04  0.12613738246E+04  0.10100000352E+00 0.  1.
        3   -1    0    0  501    0  0.00000000000E+00  0.00000000000E+00 -0.44412311174E+03  0.44412312322E+03  0.10100000352E+00 0. -1.
    10030    2    1    2    0    0  0.00000000000E+00  0.00000000000E+00  0.81725070885E+03  0.17054969479E+04  0.14969372459E+04 0.  0.
        3    1    3    3  502    0 -0.56540833891E+03  0.33179984625E+03 -0.28387997389E+01  0.65558050357E+03  0.10100000352E+00 0. -1.
       -3    1    3    3    0  502  0.56540833891E+03 -0.33179984625E+03  0.82008950859E+03  0.10499164443E+04  0.10100000352E+00 0.  1.
</event>
<event>
 5   0  0.2565416E-04  0.1500533E+04  0.7818609E-02  0.8884099E-01
       -1   -1    0    0    0  501  0.00000000000E+00  0.00000000000E+00  0.82937990701E+03  0.82937990703E+03  0.50400001928E-02 0.  1.
        1   -1    0    0  501    0  0.00000000000E+00  0.00000000000E+00 -0.67869932583E+03  0.67869932585E+03  0.50400001928E-02 0. -1.
    10030    2    1    2    0    0  0.00000000000E+00  0.00000000000E+00  0.15068058119E+03  0.15080792329E+04  0.15005326838E+04 0.  0.
        5    1    3    3  502    0  0.69060977855E+03 -0.29307117954E+03  0.68604999983E+02  0.75336665610E+03  0.46999998093E+01 0.  1.
       -5    1    3    3    0  502 -0.69060977855E+03  0.29307117954E+03  0.82075581204E+02  0.75471257677E+03  0.46999998093E+01 0. -1.
</event>
<event>
 5   0  0.4726600E-04  0.1501219E+04  0.7818609E-02  0.8883642E-01
        2   -1    0    0  501    0  0.00000000000E+00  0.00000000000E+00  0.11861065743E+04  0.11861065743E+04  0.25500000920E-02 0.  1.
       -2   -1    0    0    0  501  0.00000000000E+00  0.00000000000E+00 -0.47501208265E+03  0.47501208266E+03  0.25500000920E-02 0. -1.
    10030    2    1    2    0    0  0.00000000000E+00  0.00000000000E+00  0.71109449169E+03  0.16611186570E+04  0.15012194432E+04 0.  0.
        2    1    3    3  502    0  0.48078205890E+02  0.58126670564E+03  0.87834672389E+03  0.10543602157E+04  0.25500000920E-02 0.  1.
       -2    1    3    3    0  502 -0.48078205890E+02 -0.58126670564E+03 -0.16725223220E+03  0.60675844135E+03  0.25500000920E-02 0. -1.
</event>
<event>
 5   0  0.2603873E-04  0.1517929E+04  0.7818609E-02  0.8872617E-01
        1   -1    0    0  501    0  0.00000000000E+00  0.00000000000E+00  0.86026194736E+03  0.86026194738E+03  0.50400001928E-02 0.  1.
       -1   -1    0    0    0  501  0.00000000000E+00  0.00000000000E+00 -0.66959473835E+03  0.66959473837E+03  0.50400001928E-02 0. -1.
    10030    2    1    2    0    0  0.00000000000E+00  0.00000000000E+00  0.19066720902E+03  0.15298566857E+04  0.15179286855E+04 0.  0.
        2    1    3    3  502    0 -0.35816103420E+03  0.47096005568E+03 -0.38373747410E+03  0.70522134788E+03  0.25500000920E-02 0. -1.
       -2    1    3    3    0  502  0.35816103420E+03 -0.47096005568E+03  0.57440468312E+03  0.82463533787E+03  0.25500000920E-02 0.  1.
</event>
<event>
 5   0  0.4569211E-04  0.1497462E+04  0.7818609E-02  0.8886142E-01
        2   -1    0    0  501    0  0.00000000000E+00  0.00000000000E+00  0.15618364908E+04  0.15618364908E+04  0.25500000920E-02 0. -1.
       -2   -1    0    0    0  501  0.00000000000E+00  0.00000000000E+00 -0.35893542937E+03  0.35893542938E+03  0.25500000920E-02 0.  1.
    10030    2    1    2    0    0  0.00000000000E+00  0.00000000000E+00  0.12029010614E+04  0.19207719202E+04  0.14974624555E+04 0.  0.
        5    1    3    3  502    0  0.42743584623E+03 -0.49268195280E+03  0.12991878951E+03  0.66508487512E+03  0.46999998093E+01 0.  1.
       -5    1    3    3    0  502 -0.42743584623E+03  0.49268195280E+03  0.10729822719E+04  0.12556870450E+04  0.46999998093E+01 0. -1.
</event>
<event>
 5   0  0.4785496E-04  0.1499119E+04  0.7818609E-02  0.8885039E-01
       -2   -1    0    0    0  501  0.00000000000E+00  0.00000000000E+00  0.37598242321E+03  0.37598242322E+03  0.25500000920E-02 0. -1.
        2   -1    0    0  501    0  0.00000000000E+00  0.00000000000E+00 -0.14943232031E+04  0.14943232031E+04  0.25500000920E-02 0.  1.
    10030    2    1    2    0    0  0.00000000000E+00  0.00000000000E+00 -0.11183407798E+04  0.18703056263E+04  0.14991187531E+04 0.  0.
        4    1    3    3  502    0 -0.23257648325E+03 -0.58645032246E+03 -0.10641367526E+04  0.12370951630E+04  0.12699999809E+01 0.  1.
       -4    1    3    3    0  502  0.23257648325E+03  0.58645032246E+03 -0.54204027244E+02  0.63321046323E+03  0.12699999809E+01 0. -1.
</event>
<event>
 5   0  0.4785496E-04  0.1516278E+04  0.7818609E-02  0.8873700E-01
        2   -1    0    0  501    0  0.00000000000E+00  0.00000000000E+00  0.13205175269E+04  0.13205175269E+04  0.25500000920E-02 0.  1.
       -2   -1    0    0    0  501  0.00000000000E+00  0.00000000000E+00 -0.43526454653E+03  0.43526454654E+03  0.25500000920E-02 0. -1.
    10030    2    1    2    0    0  0.00000000000E+00  0.00000000000E+00  0.88525298039E+03  0.17557820735E+04  0.15162776297E+04 0.  0.
        4    1    3    3  502    0  0.22926092333E+03 -0.51743501999E+01  0.12793929981E+04  0.12997828286E+04  0.12699999809E+01 0.  1.
       -4    1    3    3    0  502 -0.22926092333E+03  0.51743501999E+01 -0.39414001774E+03  0.45599924490E+03  0.12699999809E+01 0. -1.
</event>
<event>
 5   0  0.2565416E-04  0.1510512E+04  0.7818609E-02  0.8877492E-01
        1   -1    0    0  501    0  0.00000000000E+00  0.00000000000E+00  0.10618663368E+04  0.10618663368E+04  0.50400001928E-02 0.  1.
       -1   -1    0    0    0  501  0.00000000000E+00  0.00000000000E+00 -0.53717871176E+03  0.53717871178E+03  0.50400001928E-02 0. -1.
    10030    2    1    2    0    0  0.00000000000E+00  0.00000000000E+00  0.52468762501E+03  0.15990450486E+04  0.15105124837E+04 0.  0.
        5    1    3    3  502    0 -0.37732881426E+03  0.62328371547E+03  0.51868429796E+02  0.73046016185E+03  0.46999998093E+01 0. -1.
       -5    1    3    3    0  502  0.37732881426E+03 -0.62328371547E+03  0.47281919522E+03  0.86858488670E+03  0.46999998093E+01 0.  1.
</event>
<event>
 5   0  0.2565416E-04  0.1501236E+04  0.7818609E-02  0.8883631E-01
       -1   -1    0    0    0  501  0.00000000000E+00  0.00000000000E+00  0.10425179478E+04  0.10425179478E+04  0.50400001928E-02 0. -1.
        1   -1    0    0  501    0  0.00000000000E+00  0.00000000000E+00 -0.54044870205E+03  0.54044870207E+03  0.50400001928E-02 0.  1.
    10030    2    1    2    0    0  0.00000000000E+00  0.00000000000E+00  0.50206924571E+03  0.15829666498E+04  0.15012361197E+04 0.  0.
        5    1    3    3  502    0 -0.61147599749E+03  0.43003391992E+03  0.17972662072E+03  0.76886657879E+03  0.46999998093E+01 0.  1.
       -5    1    3    3    0  502  0.61147599749E+03 -0.43003391992E+03  0.32234262499E+03  0.81410007105E+03  0.46999998093E+01 0. -1.
</event>
<event>
 5   0  0.2565416E-04  0.1489217E+04  0.7818609E-02  0.8891655E-01
       -1   -1    0    0    0  501  0.00000000000E+00  0.00000000000E+00  0.11944887402E+04  0.11944887402E+04  0.50400001928E-02 0.  1.
        1   -1    0    0  501    0  0.00000000000E+00  0.00000000000E+00 -0.46416668788E+03  0.46416668791E+03  0.50400001928E-02 0. -1.
    10030    2    1    2    0    0  0.00000000000E+00  0.00000000000E+00  0.73032205233E+03  0.16586554281E+04  0.14892170860E+04 0.  0.
        5    1    3    3  502    0 -0.72716267901E+03  0.95756948657E+02  0.22215955773E+03  0.76636278227E+03  0.46999998093E+01 0. -1.
       -5    1    3    3    0  502  0.72716267901E+03 -0.95756948657E+02  0.50816249459E+03  0.89229264586E+03  0.46999998093E+01 0.  1.
</event>
<event>
 5   0  0.4785496E-04  0.1505149E+04  0.7818609E-02  0.8881036E-01
        2   -1    0    0  501    0  0.00000000000E+00  0.00000000000E+00  0.14282148362E+04  0.14282148362E+04  0.25500000920E-02 0. -1.
       -2   -1    0    0    0  501  0.00000000000E+00  0.00000000000E+00 -0.39655700659E+03  0.39655700660E+03  0.25500000920E-02 0.  1.
    10030    2    1    2    0    0  0.00000000000E+00  0.00000000000E+00  0.10316578296E+04  0.18247718428E+04  0.15051492952E+04 0.  0.
        4    1    3    3  502    0 -0.29695968241E+03 -0.33570229269E+03  0.12487619685E+04  0.13267588888E+04  0.12699999809E+01 0. -1.
       -4    1    3    3    0  502  0.29695968241E+03  0.33570229269E+03 -0.21710413887E+03  0.49801295396E+03  0.12699999809E+01 0.  1.
</event>
<event>
 5   0  0.4569211E-04  0.1497291E+04  0.7818609E-02  0.8886257E-01
       -2   -1    0    0    0  501  0.00000000000E+00  0.00000000000E+00  0.50911059204E+03  0.50911059205E+03  0.25500000920E-02 0. -1.
        2   -1    0    0  501    0  0.00000000000E+00  0.00000000000E+00 -0.11008802051E+04  0.11008802052E+04  0.25500000920E-02 0.  1.
    10030    2    1    2    0    0  0.00000000000E+00  0.00000000000E+00 -0.59176961311E+03  0.16099907972E+04  0.14972905837E+04 0.  0.
        5    1    3    3  502    0  0.19764864826E+03  0.32226086421E+03  0.39891785073E+03  0.54961313157E+03  0.46999998093E+01 0. -1.
       -5    1    3    3    0  502 -0.19764864826E+03 -0.32226086421E+03 -0.99068746384E+03  0.10603776656E+04  0.46999998093E+01 0.  1.
</event>
<event>
 5   0  0.2605471E-04  0.1502287E+04  0.7818609E-02  0.8882933E-01
       -1   -1    0    0    0  501  0.00000000000E+00  0.00000000000E+00  0.68327465557E+03  0.68327465559E+03  0.50400001928E-02 0.  1.
        1   -1    0    0  501    0  0.00000000000E+00  0.00000000000E+00 -0.82575383000E+03  0.82575383001E+03  0.50400001928E-02 0. -1.
    10030    2    1    2    0    0  0.00000000000E+00  0.00000000000E+00 -0.14247917443E+03  0.15090284856E+04  0.15022871414E+04 0.  0.
        3    1    3    3  502    0 -0.12779552031E+02  0.72366033368E+03 -0.27306172226E+03  0.77356984809E+03  0.10100000352E+00 0. -1.
       -3    1    3    3    0  502  0.12779552031E+02 -0.72366033368E+03  0.13058254784E+03  0.73545863752E+03  0.10100000352E+00 0.  1.
</event>
<event>
 5   0  0.4785496E-04  0.1518308E+04  0.7818609E-02  0.8872368E-01
        2   -1    0    0  501    0  0.00000000000E+00  0.00000000000E+00  0.10108206802E+04  0.10108206802E+04  0.25500000920E-02 0. -1.
       -2   -1    0    0    0  501  0.00000000000E+00  0.00000000000E+00 -0.57014580348E+03  0.57014580349E+03  0.25500000920E-02 0.  1.
    10030    2    1    2    0    0  0.00000000000E+00  0.00000000000E+00  0.44067487672E+03  0.15809664837E+04  0.15183084916E+04 0.  0.
        4    1    3    3  502    0  0.18761961840E+03 -0.39719317033E+03  0.86504147189E+03  0.97018652679E+03  0.12699999809E+01 0. -1.
       -4    1    3    3    0  502 -0.18761961840E+03  0.39719317033E+03 -0.42436659517E+03  0.61077995691E+03  0.12699999809E+01 0.  1.
</event>
<event>
 5   0  0.4948645E-04  0.1507965E+04  0.7818609E-02  0.8879173E-01
        2   -1    0    0  501    0  0.00000000000E+00  0.00000000000E+00  0.15413339012E+04  0.15413339012E+04  0.25500000920E-02 0. -1.
       -2   -1    0    0    0  501  0.00000000000E+00  0.00000000000E+00 -0.36882969336E+03  0.36882969337E+03  0.25500000920E-02 0.  1.
    10030    2    1    2    0    0  0.00000000000E+00  0.00000000000E+00  0.11725042079E+04  0.19101635946E+04  0.15079651324E+04 0.  0.
        1    1    3    3  502    0  0.13277482364E+03  0.55015559267E+03  0.12173124062E+04  0.13424417396E+04  0.50400001928E-02 0. -1.
       -1    1    3    3    0  502 -0.13277482364E+03 -0.55015559267E+03 -0.44808198350E+02  0.56772185497E+03  0.50400001928E-02 0.  1.
</event>
<event>
 5   0  0.2542737E-04  0.1490706E+04  0.7818609E-02  0.8890657E-01
        1   -1    0    0  501    0  0.00000000000E+00  0.00000000000E+00  0.12228276678E+04  0.12228276678E+04  0.50400001928E-02 0. -1.
       -1   -1    0    0    0  501  0.00000000000E+00  0.00000000000E+00 -0.45431676802E+03  0.45431676805E+03  0.50400001928E-02 0.  1.
    10030    2    1    2    0    0  0.00000000000E+00  0.00000000000E+00  0.76851089973E+03  0.16771444358E+04  0.14907060259E+04 0.  0.
        1    1    3    3  502    0  0.41451210145E+03  0.60979921770E+03  0.26165024601E+03  0.78239134671E+03  0.50400001928E-02 0.  1.
       -1    1    3    3    0  502 -0.41451210145E+03 -0.60979921770E+03  0.50686065372E+03  0.89475308911E+03  0.50400001928E-02 0. -1.
</event>
<event>
 5   0  0.4768387E-04  0.1512907E+04  0.7818609E-02  0.8875915E-01
        2   -1    0    0  501    0  0.00000000000E+00  0.00000000000E+00  0.98371815638E+03  0.98371815638E+03  0.25500000920E-02 0. -1.
       -2   -1    0    0    0  501  0.00000000000E+00  0.00000000000E+00 -0.58169313043E+03  0.58169313044E+03  0.25500000920E-02 0.  1.
    10030    2    1    2    0    0  0.00000000000E+00  0.00000000000E+00  0.40202502595E+03  0.15654112868E+04  0.15129072594E+04 0.  0.
        3    1    3    3  502    0  0.39541344350E+03  0.22426372512E+03  0.82662446383E+03  0.94337374571E+03  0.10100000352E+00 0. -1.
       -3    1    3    3    0  502 -0.39541344350E+03 -0.22426372512E+03 -0.42459943788E+03  0.62203754111E+03  0.10100000352E+00 0.  1.
</event>
<event>
 5   0  0.2605471E-04  0.1509223E+04  0.7818609E-02  0.8878343E-01
        1   -1    0    0  501    0  0.00000000000E+00  0.00000000000E+00  0.15011195052E+04  0.15011195052E+04  0.50400001928E-02 0.  1.
       -1   -1    0    0    0  501  0.00000000000E+00  0.00000000000E+00 -0.37934273960E+03  0.37934273964E+03  0.50400001928E-02 0. -1.
    10030    2    1    2    0    0  0.00000000000E+00  0.00000000000E+00  0.11217767656E+04  0.18804622449E+04  0.15092233574E+04 0.  0.
        3    1    3    3  502    0  0.33499642711E+03  0.21833748260E+03  0.13582620115E+04  0.14158988539E+04  0.10100000352E+00 0.  1.
       -3    1    3    3    0  502 -0.33499642711E+03 -0.21833748260E+03 -0.23648524587E+03  0.46456339094E+03  0.10100000352E+00 0. -1.
</event>
<event>
 5   0  0.2565416E-04  0.1496640E+04  0.7818609E-02  0.8886691E-01
        1   -1    0    0  501    0  0.00000000000E+00  0.00000000000E+00  0.36796424830E+03  0.36796424833E+03  0.50400001928E-02 0. -1.
       -1   -1    0    0    0  501  0.00000000000E+00  0.00000000000E+00 -0.15218394174E+04  0.15218394174E+04  0.50400001928E-02 0.  1.
    10030    2    1    2    0    0  0.00000000000E+00  0.00000000000E+00 -0.11538751691E+04  0.18898036657E+04  0.14966395655E+04 0.  0.
        5    1    3    3  502    0 -0.22954941695E+03  0.23242975463E+03  0.27315345803E+03  0.42585376280E+03  0.46999998093E+01 0. -1.
       -5    1    3    3    0  502  0.22954941695E+03 -0.23242975463E+03 -0.14270286271E+04  0.14639499029E+04  0.46999998093E+01 0.  1.
</event>
<event>
 5   0  0.2542737E-04  0.1469430E+04  0.7818609E-02  0.8905040E-01
       -1   -1    0    0    0  501  0.00000000000E+00  0.00000000000E+00  0.85265206701E+03  0.85265206703E+03  0.50400001928E-02 0. -1.
        1   -1    0    0  501    0  0.00000000000E+00  0.00000000000E+00 -0.63309097150E+03  0.63309097152E+03  0.50400001928E-02 0.  1.
    10030    2    1    2    0    0  0.00000000000E+00  0.00000000000E+00  0.21956109551E+03  0.14857430385E+04  0.14694302644E+04 0.  0.
        1    1    3    3  502    0  0.28163574804E+03  0.25682530437E+03 -0.52530737790E+03  0.64901908512E+03  0.50400001928E-02 0.  1.
       -1    1    3    3    0  502 -0.28163574804E+03 -0.25682530437E+03  0.74486847341E+03  0.83672395343E+03  0.50400001928E-02 0. -1.
</event>
<event>
 5   0  0.2542737E-04  0.1496447E+04  0.7818609E-02  0.8886819E-01
       -1   -1    0    0    0  501  0.00000000000E+00  0.00000000000E+00  0.69998399349E+03  0.69998399351E+03  0.50400001928E-02 0. -1.
        1   -1    0    0  501    0  0.00000000000E+00  0.00000000000E+00 -0.79978756187E+03  0.79978756189E+03  0.50400001928E-02 0.  1.
    10030    2    1    2    0    0  0.00000000000E+00  0.00000000000E+00 -0.99803568384E+02  0.14997715554E+04  0.14964471144E+04 0.  0.
        1    1    3    3  502    0 -0.78892467905E+02 -0.15334956819E+03  0.67979423649E+03  0.70132753799E+03  0.50400001928E-02 0. -1.
       -1    1    3    3    0  502  0.78892467905E+02  0.15334956819E+03 -0.77959780487E+03  0.79844401741E+03  0.50400001928E-02 0.  1.
</event>
<event>
 5   0  0.4768387E-04  0.1476845E+04  0.7818609E-02  0.8899999E-01
       -2   -1    0    0    0  501  0.00000000000E+00  0.00000000000E+00  0.46883969857E+03  0.46883969858E+03  0.25500000920E-02 0.  1.
        2   -1    0    0  501    0  0.00000000000E+00  0.00000000000E+00 -0.11630147122E+04  0.11630147122E+04  0.25500000920E-02 0. -1.
    10030    2    1    2    0    0  0.00000000000E+00  0.00000000000E+00 -0.69417501360E+03  0.16318544108E+04  0.14768445647E+04 0.  0.
        3    1    3    3  502    0 -0.60238486788E+03 -0.33441641351E+03 -0.53563849648E+02  0.69106509308E+03  0.10100000352E+00 0.  1.
       -3    1    3    3    0  502  0.60238486788E+03  0.33441641351E+03 -0.64061116395E+03  0.94078931768E+03  0.10100000352E+00 0. -1.
</event>
<event>
 5   0  0.2542737E-04  0.1449972E+04  0.7818609E-02  0.8918420E-01
        1   -1    0    0  501    0  0.00000000000E+00  0.00000000000E+00  0.21794202801E+04  0.21794202801E+04  0.50400001928E-02 0.  1.
       -1   -1    0    0    0  501  0.00000000000E+00  0.00000000000E+00 -0.24116729753E+03  0.24116729759E+03  0.50400001928E-02 0. -1.
    10030    2    1    2    0    0  0.00000000000E+00  0.00000000000E+00  0.19382529825E+04  0.24205875776E+04  0.14499722745E+04 0.  0.
        1    1    3    3  502    0 -0.23832070397E+03  0.47703227020E+03  0.17890876529E+04  0.18668666729E+04  0.50400001928E-02 0.  1.
       -1    1    3    3    0  502  0.23832070397E+03 -0.47703227020E+03  0.14916532965E+03  0.55372090474E+03  0.50400001928E-02 0. -1.
</event>
<event>
 5   0  0.2603873E-04  0.1501178E+04  0.7818609E-02  0.8883670E-01
        1   -1    0    0  501    0  0.00000000000E+00  0.00000000000E+00  0.67588608724E+03  0.67588608726E+03  0.50400001928E-02 0. -1.
       -1   -1    0    0    0  501  0.00000000000E+00  0.00000000000E+00 -0.83354828797E+03  0.83354828799E+03  0.50400001928E-02 0.  1.
    10030    2    1    2    0    0  0.00000000000E+00  0.00000000000E+00 -0.15766220073E+03  0.15094343752E+04  0.15011777921E+04 0.  0.
        2    1    3    3  502    0 -0.68786796735E+03 -0.16913340631E+01  0.22318485121E+03  0.72317126528E+03  0.25500000920E-02 0. -1.
       -2    1    3    3    0  502  0.68786796735E+03  0.16913340631E+01 -0.38084705194E+03  0.78626310997E+03  0.25500000920E-02 0.  1.
</event>
<event>
 5   0  0.2565416E-04  0.1500630E+04  0.7818609E-02  0.8884034E-01
        1   -1    0    0  501    0  0.00000000000E+00  0.00000000000E+00  0.50916026119E+03  0.50916026121E+03  0.50400001928E-02 0.  1.
       -1   -1    0    0    0  501  0.00000000000E+00  0.00000000000E+00 -0.11056883250E+04  0.11056883250E+04  0.50400001928E-02 0. -1.
    10030    2    1    2    0    0  0.00000000000E+00  0.00000000000E+00 -0.59652806377E+03  0.16148485862E+04  0.15006299429E+04 0.  0.
        5    1    3    3  502    0 -0.57679637725E+03  0.28006755567E+03  0.12103189889E+03  0.65253559834E+03  0.46999998093E+01 0.  1.
       -5    1    3    3    0  502  0.57679637725E+03 -0.28006755567E+03 -0.71755996266E+03  0.96231298784E+03  0.46999998093E+01 0. -1.
</event>
<event>
 5   0  0.4785496E-04  0.1543052E+04  0.7818609E-02  0.8856318E-01
       -2   -1    0    0    0  501  0.00000000000E+00  0.00000000000E+00  0.32859804990E+03  0.32859804991E+03  0.25500000920E-02 0.  1.
        2   -1    0    0  501    0  0.00000000000E+00  0.00000000000E+00 -0.18114897856E+04  0.18114897856E+04  0.25500000920E-02 0. -1.
    10030    2    1    2    0    0  0.00000000000E+00  0.00000000000E+00 -0.14828917357E+04  0.21400878355E+04  0.15430515364E+04 0.  0.
        4    1    3    3  502    0 -0.69313364992E+02  0.41041060585E+03 -0.16424195838E+04  0.16943390776E+04  0.12699999809E+01 0. -1.
       -4    1    3    3    0  502  0.69313364992E+02 -0.41041060585E+03  0.15952784805E+03  0.44574875789E+03  0.12699999809E+01 0.  1.
</event>
<event>
 5   0  0.4768387E-04  0.1496537E+04  0.7818609E-02  0.8886759E-01
       -2   -1    0    0    0  501  0.00000000000E+00  0.00000000000E+00  0.10156553045E+04  0.10156553045E+04  0.25500000920E-02 0. -1.
        2   -1    0    0  501    0  0.00000000000E+00  0.00000000000E+00 -0.55127518247E+03  0.55127518247E+03  0.25500000920E-02 0.  1.
    10030    2    1    2    0    0  0.00000000000E+00  0.00000000000E+00  0.46438012202E+03  0.15669304870E+04  0.14965367531E+04 0.  0.
        3    1    3    3  502    0  0.10101141652E+03  0.30890298379E+02  0.10078097642E+04  0.10133301771E+04  0.10100000352E+00 0. -1.
       -3    1    3    3    0  502 -0.10101141652E+03 -0.30890298379E+02 -0.54342964222E+03  0.55360030983E+03  0.10100000352E+00 0.  1.
</event>
<event>
 5   0  0.2544374E-04  0.1507918E+04  0.7818609E-02  0.8879205E-01
       -1   -1    0    0    0  501  0.00000000000E+00  0.00000000000E+00  0.69665474316E+03  0.69665474317E+03  0.50400001928E-02 0.  1.
        1   -1    0    0  501    0  0.00000000000E+00  0.00000000000E+00 -0.81597644332E+03  0.81597644334E+03  0.50400001928E-02 0. -1.
    10030    2    1    2    0    0  0.00000000000E+00  0.00000000000E+00 -0.11932170017E+03  0.15126311865E+04  0.15079175834E+04 0.  0.
        4    1    3    3  502    0  0.58955757796E+03  0.44758084587E+03  0.84124206618E+02  0.74497331923E+03  0.12699999809E+01 0.  1.
       -4    1    3    3    0  502 -0.58955757796E+03 -0.44758084587E+03 -0.20344590679E+03  0.76765786729E+03  0.12699999809E+01 0. -1.
</event>
<event>
 5   0  0.2603873E-04  0.1503572E+04  0.7818609E-02  0.8882081E-01
       -1   -1    0    0    0  501  0.00000000000E+00  0.00000000000E+00  0.60659908754E+03  0.60659908756E+03  0.50400001928E-02 0.  1.
        1   -1    0    0  501    0  0.00000000000E+00  0.00000000000E+00 -0.93172273753E+03  0.93172273755E+03  0.50400001928E-02 0. -1.
    10030    2    1    2    0    0  0.00000000000E+00  0.00000000000E+00 -0.32512364999E+03  0.15383218251E+04  0.15035719636E+04 0.  0.
        2    1    3    3  502    0  0.17217599398E+03 -0.34138137018E+02 -0.91046418147E+03  0.92722975095E+03  0.25500000920E-02 0. -1.
       -2    1    3    3    0  502 -0.17217599398E+03  0.34138137018E+02  0.58534053148E+03  0.61109207416E+03  0.25500000920E-02 0.  1.
</event>
<event>
 5   0  0.2544374E-04  0.1511071E+04  0.7818609E-02  0.8877124E-01
        1   -1    0    0  501    0  0.00000000000E+00  0.00000000000E+00  0.61603125694E+03  0.61603125696E+03  0.50400001928E-02 0. -1.
       -1   -1    0    0    0  501  0.00000000000E+00  0.00000000000E+00 -0.92663198847E+03  0.92663198848E+03  0.50400001928E-02 0.  1.
    10030    2    1    2    0    0  0.00000000000E+00  0.00000000000E+00 -0.31060073153E+03  0.15426632454E+04  0.15110714988E+04 0.  0.
        4    1    3    3  502    0 -0.19642017334E+03 -0.55082867085E+03  0.33307264754E+03  0.67300231097E+03  0.12699999809E+01 0. -1.
       -4    1    3    3    0  502  0.19642017334E+03  0.55082867085E+03 -0.64367337907E+03  0.86966093447E+03  0.12699999809E+01 0.  1.
</event>
<event>
 5   0  0.2542737E-04  0.1511135E+04  0.7818609E-02  0.8877082E-01
       -1   -1    0    0    0  501  0.00000000000E+00  0.00000000000E+00  0.64516034311E+03  0.64516034313E+03  0.50400001928E-02 0.  1.
        1   -1    0    0  501    0  0.00000000000E+00  0.00000000000E+00 -0.88486826712E+03  0.88486826713E+03  0.50400001928E-02 0. -1.
    10030    2    1    2    0    0  0.00000000000E+00  0.00000000000E+00 -0.23970792400E+03  0.15300286103E+04  0.15111345603E+04 0.  0.
        1    1    3    3  502    0 -0.70559960549E+03  0.12953159596E+03  0.12024528273E+03  0.72739821670E+03  0.50400001928E-02 0.  1.
       -1    1    3    3    0  502  0.70559960549E+03 -0.12953159596E+03 -0.35995320673E+03  0.80263039357E+03  0.50400001928E-02 0. -1.
</event>
<event>
 5   0  0.1792000E-04  0.1523919E+04  0.7818609E-02  0.8868701E-01
        3   -1    0    0  501    0  0.00000000000E+00  0.00000000000E+00  0.68180099923E+03  0.68180100671E+03  0.10100000352E+00 0. -1.
       -3   -1    0    0    0  501  0.00000000000E+00  0.00000000000E+00 -0.85154200304E+03  0.85154200903E+03  0.10100000352E+00 0.  1.
    10030    2    1    2    0    0  0.00000000000E+00  0.00000000000E+00 -0.16974100381E+03  0.15333430157E+04  0.15239188940E+04 0.  0.
        4    1    3    3  502    0 -0.49021395839E+03  0.56964849926E+03  0.41490556166E+02  0.75268334434E+03  0.12699999809E+01 0. -1.
       -4    1    3    3    0  502  0.49021395839E+03 -0.56964849926E+03 -0.21123155998E+03  0.78065967139E+03  0.12699999809E+01 0.  1.
</event>
<event>
 5   0  0.2544374E-04  0.1472198E+04  0.7818609E-02  0.8903154E-01
       -1   -1    0    0    0  501  0.00000000000E+00  0.00000000000E+00  0.15442339663E+04  0.15442339663E+04  0.50400001928E-02 0.  1.
        1   -1    0    0  501    0  0.00000000000E+00  0.00000000000E+00 -0.35088072565E+03  0.35088072568E+03  0.50400001928E-02 0. -1.
    10030    2    1    2    0    0  0.00000000000E+00  0.00000000000E+00  0.11933532407E+04  0.18951146920E+04  0.14721982675E+04 0.  0.
        4    1    3    3  502    0 -0.14593994023E+03  0.39868047598E+03 -0.17739446502E+03  0.46012497998E+03  0.12699999809E+01 0. -1.
       -4    1    3    3    0  502  0.14593994023E+03 -0.39868047598E+03  0.13707477057E+04  0.14349897120E+04  0.12699999809E+01 0.  1.
</event>
<event>
 5   0  0.4785496E-04  0.1505373E+04  0.7818609E-02  0.8880888E-01
       -2   -1    0    0    0  501  0.00000000000E+00  0.00000000000E+00  0.46929393481E+03  0.46929393482E+03  0.25500000920E-02 0.  1.
        2   -1    0    0  501    0  0.00000000000E+00  0.00000000000E+00 -0.12072114734E+04  0.12072114734E+04  0.25500000920E-02 0. -1.
    10030    2    1    2    0    0  0.00000000000E+00  0.00000000000E+00 -0.73791753858E+03  0.16765054082E+04  0.15053730734E+04 0.  0.
        4    1    3    3  502    0  0.42146488348E+03 -0.76859182318E+02 -0.10581783541E+04  0.11416142185E+04  0.12699999809E+01 0. -1.
       -4    1    3    3    0  502 -0.42146488348E+03  0.76859182318E+02  0.32026081555E+03  0.53489118968E+03  0.12699999809E+01 0.  1.
</event>
<event>
 5   0  0.1792000E-04  0.1507961E+04  0.7818609E-02  0.8879176E-01
       -3   -1    0    0    0  501  0.00000000000E+00  0.00000000000E+00  0.10364471841E+04  0.10364471890E+04  0.10100000352E+00 0. -1.
        3   -1    0    0  501    0  0.00000000000E+00  0.00000000000E+00 -0.54849524725E+03  0.54849525655E+03  0.10100000352E+00 0.  1.
    10030    2    1    2    0    0  0.00000000000E+00  0.00000000000E+00  0.48795193683E+03  0.15849424456E+04  0.15079606968E+04 0.  0.
        5    1    3    3  502    0  0.64106563203E+03  0.39043379506E+03  0.16920659440E+03  0.76945217816E+03  0.46999998093E+01 0.  1.
       -5    1    3    3    0  502 -0.64106563203E+03 -0.39043379506E+03  0.31874534243E+03  0.81549026739E+03  0.46999998093E+01 0. -1.
</event>
<event>
 5   0  0.4785496E-04  0.1520223E+04  0.7818609E-02  0.8871115E-01
        2   -1    0    0  501    0  0.00000000000E+00  0.00000000000E+00  0.57618771713E+03  0.57618771713E+03  0.25500000920E-02 0.  1.
       -2   -1    0    0    0  501  0.00000000000E+00  0.00000000000E+00 -0.10027450187E+04  0.10027450187E+04  0.25500000920E-02 0. -1.
    10030    2    1    2    0    0  0.00000000000E+00  0.00000000000E+00 -0.42655730153E+03  0.15789327358E+04  0.15202228299E+04 0.  0.
        4    1    3    3  502    0 -0.19341714841E+03 -0.17288107205E+03  0.52878534347E+03  0.58899372725E+03  0.12699999809E+01 0.  1.
       -4    1    3    3    0  502  0.19341714841E+03  0.17288107205E+03 -0.95534264500E+03  0.98993900854E+03  0.12699999809E+01 0. -1.
</event>
<event>
 5   0  0.2542737E-04  0.1500339E+04  0.7818609E-02  0.8884228E-01
       -1   -1    0    0    0  501  0.00000000000E+00  0.00000000000E+00  0.57352618131E+03  0.57352618133E+03  0.50400001928E-02 0.  1.
        1   -1    0    0  501    0  0.00000000000E+00  0.00000000000E+00 -0.98121799114E+03  0.98121799115E+03  0.50400001928E-02 0. -1.
    10030    2    1    2    0    0  0.00000000000E+00  0.00000000000E+00 -0.40769180983E+03  0.15547441725E+04  0.15003389051E+04 0.  0.
        1    1    3    3  502    0  0.64919920657E+03 -0.31126975812E+03  0.14522147043E+02  0.72011066157E+03  0.50400001928E-02 0.  1.
       -1    1    3    3    0  502 -0.64919920657E+03  0.31126975812E+03 -0.42221395687E+03  0.83463351091E+03  0.50400001928E-02 0. -1.
</event>
<event>
 5   0  0.2544374E-04  0.1434155E+04  0.7818609E-02  0.8929460E-01
       -1   -1    0    0    0  501  0.00000000000E+00  0.00000000000E+00  0.36122174094E+03  0.36122174097E+03  0.50400001928E-02 0. -1.
        1   -1    0    0  501    0  0.00000000000E+00  0.00000000000E+00 -0.14235036588E+04  0.14235036588E+04  0.50400001928E-02 0.  1.
    10030    2    1    2    0    0  0.00000000000E+00  0.00000000000E+00 -0.10622819178E+04  0.17847253997E+04  0.14341554586E+04 0.  0.
        4    1    3    3  502    0 -0.17508867009E+01 -0.48876031583E+03 -0.11840993286E+04  0.12810084093E+04  0.12699999809E+01 0.  1.
       -4    1    3    3    0  502  0.17508867009E+01  0.48876031583E+03  0.12181741079E+03  0.50371699039E+03  0.12699999809E+01 0. -1.
</event>
<event>
 5   0  0.4785496E-04  0.1500127E+04  0.7818609E-02  0.8884369E-01
        2   -1    0    0  501    0  0.00000000000E+00  0.00000000000E+00  0.59059619873E+03  0.59059619873E+03  0.25500000920E-02 0. -1.
       -2   -1    0    0    0  501  0.00000000000E+00  0.00000000000E+00 -0.95258856468E+03  0.95258856468E+03  0.25500000920E-02 0.  1.
    10030    2    1    2    0    0  0.00000000000E+00  0.00000000000E+00 -0.36199236595E+03  0.15431847634E+04  0.15001269083E+04 0.  0.
        4    1    3    3  502    0 -0.67199721018E+03  0.26733767595E+03  0.23568008629E+02  0.72360676296E+03  0.12699999809E+01 0. -1.
       -4    1    3    3    0  502  0.67199721018E+03 -0.26733767595E+03 -0.38556037458E+03  0.81957800045E+03  0.12699999809E+01 0.  1.
</event>
<event>
 5   0  0.4785496E-04  0.1506158E+04  0.7818609E-02  0.8880368E-01
        2   -1    0    0  501    0  0.00000000000E+00  0.00000000000E+00  0.11277517651E+04  0.11277517652E+04  0.25500000920E-02 0.  1.
       -2   -1    0    0    0  501  0.00000000000E+00  0.00000000000E+00 -0.50288371891E+03  0.50288371892E+03  0.25500000920E-02 0. -1.
    10030    2    1    2    0    0  0.00000000000E+00  0.00000000000E+00  0.62486804623E+03  0.16306354841E+04  0.15061580285E+04 0.  0.
        4    1    3    3  502    0 -0.27485316491E+03  0.66969170887E+03  0.87683607499E+02  0.72919220726E+03  0.12699999809E+01 0. -1.
       -4    1    3    3    0  502  0.27485316491E+03 -0.66969170887E+03  0.53718443873E+03  0.90144327682E+03  0.12699999809E+01 0.  1.
</event>
<event>
 5   0  0.4569211E-04  0.1497416E+04  0.7818609E-02  0.8886173E-01
        2   -1    0    0  501    0  0.00000000000E+00  0.00000000000E+00  0.10178314588E+04  0.10178314588E+04  0.25500000920E-02 0. -1.
       -2   -1    0    0    0  501  0.00000000000E+00  0.00000000000E+00 -0.55074275407E+03  0.55074275408E+03  0.25500000920E-02 0.  1.
    10030    2    1    2    0    0  0.00000000000E+00  0.00000000000E+00  0.46708870476E+03  0.15685742129E+04  0.14974155079E+04 0.  0.
        5    1    3    3  502    0 -0.37172211866E+03 -0.62421128951E+03  0.42303897392E+03  0.84071465487E+03  0.46999998093E+01 0. -1.
       -5    1    3    3    0  502  0.37172211866E+03  0.62421128951E+03  0.44049730841E+02  0.72785955805E+03  0.46999998093E+01 0.  1.
</event>
<event>
 5   0  0.4948645E-04  0.1494601E+04  0.7818609E-02  0.8888051E-01
       -2   -1    0    0    0  501  0.00000000000E+00  0.00000000000E+00  0.51878713604E+03  0.51878713605E+03  0.25500000920E-02 0.  1.
        2   -1    0    0  501    0  0.00000000000E+00  0.00000000000E+00 -0.10764679516E+04  0.10764679517E+04  0.25500000920E-02 0. -1.
    10030    2    1    2    0    0  0.00000000000E+00  0.00000000000E+00 -0.55768081560E+03  0.15952550877E+04  0.14946005830E+04 0.  0.
        1    1    3    3  502    0 -0.34032168311E+03  0.40734233330E+03  0.28261889541E+03  0.60134853834E+03  0.50400001928E-02 0. -1.
       -1    1    3    3    0  502  0.34032168311E+03 -0.40734233330E+03 -0.84029971102E+03  0.99390654936E+03  0.50400001928E-02 0.  1.
</event>
<event>
 5   0  0.2565416E-04  0.1520017E+04  0.7818609E-02  0.8871250E-01
       -1   -1    0    0    0  501  0.00000000000E+00  0.00000000000E+00  0.96837373779E+03  0.96837373780E+03  0.50400001928E-02 0. -1.
        1   -1    0    0  501    0  0.00000000000E+00  0.00000000000E+00 -0.59647717491E+03  0.59647717493E+03  0.50400001928E-02 0.  1.
    10030    2    1    2    0    0  0.00000000000E+00  0.00000000000E+00  0.37189656288E+03  0.15648509127E+04  0.15200168833E+04 0.  0.
        5    1    3    3  502    0 -0.44697846414E+03  0.11718453694E+03  0.80712657869E+03  0.93005234644E+03  0.46999998093E+01 0. -1.
       -5    1    3    3    0  502  0.44697846414E+03 -0.11718453694E+03 -0.43523001580E+03  0.63479856629E+03  0.46999998093E+01 0.  1.
</event>
<event>
 5   0  0.4569211E-04  0.1474750E+04  0.7818609E-02  0.8901420E-01
       -2   -1    0    0    0  501  0.00000000000E+00  0.00000000000E+00  0.55641994526E+03  0.55641994527E+03  0.25500000920E-02 0. -1.
        2   -1    0    0  501    0  0.00000000000E+00  0.00000000000E+00 -0.97717852559E+03  0.97717852559E+03  0.25500000920E-02 0.  1.
    10030    2    1    2    0    0  0.00000000000E+00  0.00000000000E+00 -0.42075858033E+03  0.15335984709E+04  0.14747496353E+04 0.  0.
        5    1    3    3  502    0  0.90816043532E+02  0.35148063263E+03  0.45703622665E+03  0.58368689496E+03  0.46999998093E+01 0. -1.
       -5    1    3    3    0  502 -0.90816043532E+02 -0.35148063263E+03 -0.87779480698E+03  0.94991157590E+03  0.46999998093E+01 0.  1.
</event>
<event>
 5   0  0.1792000E-04  0.1490193E+04  0.7818609E-02  0.8891001E-01
        4   -1    0    0  501    0  0.00000000000E+00  0.00000000000E+00  0.57496043836E+03  0.57496184098E+03  0.12699999809E+01 0.  1.
       -4   -1    0    0    0  501  0.00000000000E+00  0.00000000000E+00 -0.96557388092E+03  0.96557471612E+03  0.12699999809E+01 0. -1.
    10030    2    1    2    0    0  0.00000000000E+00  0.00000000000E+00 -0.39061344256E+03  0.15405365571E+04  0.14901926125E+04 0.  0.
        5    1    3    3  502    0  0.40832970207E+03  0.21489549349E+03 -0.80007732012E+03  0.92361194604E+03  0.46999998093E+01 0. -1.
       -5    1    3    3    0  502 -0.40832970207E+03 -0.21489549349E+03  0.40946387756E+03  0.61692461106E+03  0.46999998093E+01 0.  1.
</event>
<event>
 5   0  0.4569211E-04  0.1500329E+04  0.7818609E-02  0.8884234E-01
       -2   -1    0    0    0  501  0.00000000000E+00  0.00000000000E+00  0.47006692581E+03  0.47006692582E+03  0.25500000920E-02 0.  1.
        2   -1    0    0  501    0  0.00000000000E+00  0.00000000000E+00 -0.11971625809E+04  0.11971625809E+04  0.25500000920E-02 0. -1.
    10030    2    1    2    0    0  0.00000000000E+00  0.00000000000E+00 -0.72709565512E+03  0.16672295068E+04  0.15003286762E+04 0.  0.
        5    1    3    3  502    0  0.53350043130E+03 -0.47691854477E+02  0.22006864269E+03  0.57909370630E+03  0.46999998093E+01 0.  1.
       -5    1    3    3    0  502 -0.53350043130E+03  0.47691854477E+02 -0.94716429781E+03  0.10881358005E+04  0.46999998093E+01 0. -1.
</event>
<event>
 5   0  0.2605471E-04  0.1496901E+04  0.7818609E-02  0.8886516E-01
       -1   -1    0    0    0  501  0.00000000000E+00  0.00000000000E+00  0.65715896395E+03  0.65715896397E+03  0.50400001928E-02 0. -1.
        1   -1    0    0  501    0  0.00000000000E+00  0.00000000000E+00 -0.85242465384E+03  0.85242465386E+03  0.50400001928E-02 0.  1.
    10030    2    1    2    0    0  0.00000000000E+00  0.00000000000E+00 -0.19526568989E+03  0.15095836178E+04  0.14969014696E+04 0.  0.
        3    1    3    3  502    0 -0.48815646435E+02  0.29023654569E+03 -0.79161878711E+03  0.84455937274E+03  0.10100000352E+00 0.  1.
       -3    1    3    3    0  502  0.48815646435E+02 -0.29023654569E+03  0.59635309722E+03  0.66502424508E+03  0.10100000352E+00 0. -1.
</event>
<event>
 5   0  0.2544374E-04  0.1515967E+04  0.7818609E-02  0.8873904E-01
        1   -1    0    0  501    0  0.00000000000E+00  0.00000000000E+00  0.51609388049E+03  0.51609388052E+03  0.50400001928E-02 0.  1.
       -1   -1    0    0    0  501  0.00000000000E+00  0.00000000000E+00 -0.11132447069E+04  0.11132447070E+04  0.50400001928E-02 0. -1.
    10030    2    1    2    0    0  0.00000000000E+00  0.00000000000E+00 -0.59715082644E+03  0.16293385875E+04  0.15159667289E+04 0.  0.
        4    1    3    3  502    0  0.39736839441E+03  0.96327861830E+02  0.38740068302E+03  0.56325979792E+03  0.12699999809E+01 0.  1.
       -4    1    3    3    0  502 -0.39736839441E+03 -0.96327861830E+02 -0.98455150947E+03  0.10660787896E+04  0.12699999809E+01 0. -1.
</event>
<event>
 5   0  0.2605471E-04  0.1500529E+04  0.7818609E-02  0.8884101E-01
       -1   -1    0    0    0  501  0.00000000000E+00  0.00000000000E+00  0.11651350093E+04  0.11651350094E+04  0.50400001928E-02 0. -1.
        1   -1    0    0  501    0  0.00000000000E+00  0.00000000000E+00 -0.48311733769E+03  0.48311733771E+03  0.50400001928E-02 0.  1.
    10030    2    1    2    0    0  0.00000000000E+00  0.00000000000E+00  0.68201767166E+03  0.16482523471E+04  0.15005291384E+04 0.  0.
        3    1    3    3  502    0 -0.58629512045E+01  0.53685010292E+03  0.91667755871E+03  0.10623277103E+04  0.10100000352E+00 0. -1.
       -3    1    3    3    0  502  0.58629512045E+01 -0.53685010292E+03 -0.23465988705E+03  0.58592463679E+03  0.10100000352E+00 0.  1.
</event>
<event>
 5   0  0.2605471E-04  0.1491744E+04  0.7818609E-02  0.8889962E-01
        1   -1    0    0  501    0  0.00000000000E+00  0.00000000000E+00  0.53699868442E+03  0.53699868444E+03  0.50400001928E-02 0. -1.
       -1   -1    0    0    0  501  0.00000000000E+00  0.00000000000E+00 -0.10359896113E+04  0.10359896113E+04  0.50400001928E-02 0.  1.
    10030    2    1    2    0    0  0.00000000000E+00  0.00000000000E+00 -0.49899092690E+03  0.15729882958E+04  0.14917440241E+04 0.  0.
        3    1    3    3  502    0  0.26208914610E+03 -0.59904379067E+02 -0.98312094799E+03  0.10192183592E+04  0.10100000352E+00 0.  1.
       -3    1    3    3    0  502 -0.26208914610E+03  0.59904379067E+02  0.48413002109E+03  0.55376993658E+03  0.10100000352E+00 0. -1.
</event>
<event>
 5   0  0.4726600E-04  0.1498162E+04  0.7818609E-02  0.8885676E-01
        2   -1    0    0  501    0  0.00000000000E+00  0.00000000000E+00  0.55380672015E+03  0.55380672015E+03  0.25500000920E-02 0. -1.
       -2   -1    0    0    0  501  0.00000000000E+00  0.00000000000E+00 -0.10132097939E+04  0.10132097939E+04  0.25500000920E-02 0.  1.
    10030    2    1    2    0    0  0.00000000000E+00  0.00000000000E+00 -0.45940307375E+03  0.15670165141E+04  0.14981620644E+04 0.  0.
        2    1    3    3  502    0 -0.51830778899E+03  0.11753112660E+03  0.32244793673E+03  0.62163429905E+03  0.25500000920E-02 0. -1.
       -2    1    3    3    0  502  0.51830778899E+03 -0.11753112660E+03 -0.78185101048E+03  0.94538221500E+03  0.25500000920E-02 0.  1.
</event>
<event>
 5   0  0.2565416E-04  0.1538891E+04  0.7818609E-02  0.8858995E-01
       -1   -1    0    0    0  501  0.00000000000E+00  0.00000000000E+00  0.96069918361E+03  0.96069918363E+03  0.50400001928E-02 0.  1.
        1   -1    0    0  501    0  0.00000000000E+00  0.00000000000E+00 -0.61626639015E+03  0.61626639017E+03  0.50400001928E-02 0. -1.
    10030    2    1    2    0    0  0.00000000000E+00  0.00000000000E+00  0.34443279346E+03  0.15769655738E+04  0.15388913125E+04 0.  0.
        5    1    3    3  502    0  0.22096938004E+03 -0.54606545797E+03 -0.33501461075E+03  0.67769597219E+03  0.46999998093E+01 0. -1.
       -5    1    3    3    0  502 -0.22096938004E+03  0.54606545797E+03  0.67944740421E+03  0.89926960161E+03  0.46999998093E+01 0.  1.
</event>
<event>
 5   0  0.2603873E-04  0.1475710E+04  0.7818609E-02  0.8900768E-01
       -1   -1    0    0    0  501  0.00000000000E+00  0.00000000000E+00  0.90097003063E+03  0.90097003064E+03  0.50400001928E-02 0. -1.
        1   -1    0    0  501    0  0.00000000000E+00  0.00000000000E+00 -0.60427094464E+03  0.60427094466E+03  0.50400001928E-02 0.  1.
    10030    2    1    2    0    0  0.00000000000E+00  0.00000000000E+00  0.29669908599E+03  0.15052409753E+04  0.14757100142E+04 0.  0.
        2    1    3    3  502    0 -0.30285604555E+03  0.64801239453E+03 -0.36349036434E+02  0.71621442338E+03  0.25500000920E-02 0.  1.
       -2    1    3    3    0  502  0.30285604555E+03 -0.64801239453E+03  0.33304812242E+03  0.78902655193E+03  0.25500000920E-02 0. -1.
</event>
<event>
 5   0  0.2605471E-04  0.1497809E+04  0.7818609E-02  0.8885911E-01
        1   -1    0    0  501    0  0.00000000000E+00  0.00000000000E+00  0.10167161653E+04  0.10167161653E+04  0.50400001928E-02 0. -1.
       -1   -1    0    0    0  501  0.00000000000E+00  0.00000000000E+00 -0.55163662371E+03  0.55163662373E+03  0.50400001928E-02 0.  1.
    10030    2    1    2    0    0  0.00000000000E+00  0.00000000000E+00  0.46507954156E+03  0.15683527890E+04  0.14978088966E+04 0.  0.
        3    1    3    3  502    0  0.78539821163E+02  0.39582242841E+02 -0.54621022715E+03  0.55324576808E+03  0.10100000352E+00 0.  1.
       -3    1    3    3    0  502 -0.78539821163E+02 -0.39582242841E+02  0.10112897687E+04  0.10151070209E+04  0.10100000352E+00 0. -1.
</event>
<event>
 5   0  0.4948645E-04  0.1474191E+04  0.7818609E-02  0.8901800E-01
        2   -1    0    0  501    0  0.00000000000E+00  0.00000000000E+00  0.68772842405E+03  0.68772842406E+03  0.25500000920E-02 0.  1.
       -2   -1    0    0    0  501  0.00000000000E+00  0.00000000000E+00 -0.79000576602E+03  0.79000576602E+03  0.25500000920E-02 0. -1.
    10030    2    1    2    0    0  0.00000000000E+00  0.00000000000E+00 -0.10227734197E+03  0.14777341901E+04  0.14741905175E+04 0.  0.
        1    1    3    3  502    0  0.52847232095E+03 -0.45263030603E+02 -0.56420658750E+03  0.77437769167E+03  0.50400001928E-02 0. -1.
       -1    1    3    3    0  502 -0.52847232095E+03  0.45263030603E+02  0.46192924553E+03  0.70335649841E+03  0.50400001928E-02 0.  1.
</event>
<event>
 5   0  0.4726600E-04  0.1512184E+04  0.7818609E-02  0.8876391E-01
        2   -1    0    0  501    0  0.00000000000E+00  0.00000000000E+00  0.27738751565E+04  0.27738751565E+04  0.25500000920E-02 0.  1.
       -2   -1    0    0    0  501  0.00000000000E+00  0.00000000000E+00 -0.20609249888E+03  0.20609249890E+03  0.25500000920E-02 0. -1.
    10030    2    1    2    0    0  0.00000000000E+00  0.00000000000E+00  0.25677826576E+04  0.29799676554E+04  0.15121836695E+04 0.  0.
        2    1    3    3  502    0  0.60937678534E+03 -0.98752146297E+02  0.42359341605E+03  0.74868113042E+03  0.25500000920E-02 0. -1.
       -2    1    3    3    0  502 -0.60937678534E+03  0.98752146297E+02  0.21441892415E+04  0.22312865249E+04  0.25500000920E-02 0.  1.
</event>
<event>
 5   0  0.2605471E-04  0.1512377E+04  0.7818609E-02  0.8876264E-01
        1   -1    0    0  501    0  0.00000000000E+00  0.00000000000E+00  0.48891405454E+03  0.48891405456E+03  0.50400001928E-02 0.  1.
       -1   -1    0    0    0  501  0.00000000000E+00  0.00000000000E+00 -0.11695732718E+04  0.11695732718E+04  0.50400001928E-02 0. -1.
    10030    2    1    2    0    0  0.00000000000E+00  0.00000000000E+00 -0.68065921723E+03  0.16584873263E+04  0.15123766864E+04 0.  0.
        3    1    3    3  502    0 -0.57653443424E+03 -0.34539795385E+03  0.39751509031E+02  0.67325470147E+03  0.10100000352E+00 0.  1.
       -3    1    3    3    0  502  0.57653443424E+03  0.34539795385E+03 -0.72041072626E+03  0.98523262487E+03  0.10100000352E+00 0. -1.
</event>
<event>
 5   0  0.4948645E-04  0.1501582E+04  0.7818609E-02  0.8883402E-01
        2   -1    0    0  501    0  0.00000000000E+00  0.00000000000E+00  0.22850429442E+04  0.22850429442E+04  0.25500000920E-02 0. -1.
       -2   -1    0    0    0  501  0.00000000000E+00  0.00000000000E+00 -0.24668550255E+03  0.24668550256E+03  0.25500000920E-02 0.  1.
    10030    2    1    2    0    0  0.00000000000E+00  0.00000000000E+00  0.20383574417E+04  0.25317284468E+04  0.15015817887E+04 0.  0.
        1    1    3    3  502    0  0.71479084819E+02  0.33476580200E+03 -0.10745698866E+03  0.35878183649E+03  0.50400001928E-02 0.  1.
       -1    1    3    3    0  502 -0.71479084819E+02 -0.33476580200E+03  0.21458144304E+04  0.21729466103E+04  0.50400001928E-02 0. -1.
</event>
<event>
 5   0  0.2542737E-04  0.1510790E+04  0.7818609E-02  0.8877309E-01
       -1   -1    0    0    0  501  0.00000000000E+00  0.00000000000E+00  0.65250339733E+03  0.65250339735E+03  0.50400001928E-02 0. -1.
        1   -1    0    0  501    0  0.00000000000E+00  0.00000000000E+00 -0.87451138957E+03  0.87451138959E+03  0.50400001928E-02 0.  1.
    10030    2    1    2    0    0  0.00000000000E+00  0.00000000000E+00 -0.22200799224E+03  0.15270147869E+04  0.15107900618E+04 0.  0.
        1    1    3    3  502    0  0.44124711600E+02 -0.75352310559E+03 -0.81061678250E+02  0.75915417179E+03  0.50400001928E-02 0. -1.
       -1    1    3    3    0  502 -0.44124711600E+02  0.75352310559E+03 -0.14094631399E+03  0.76786061514E+03  0.50400001928E-02 0.  1.
</event>
<event>
 5   0  0.2605471E-04  0.1513959E+04  0.7818609E-02  0.8875223E-01
        1   -1    0    0  501    0  0.00000000000E+00  0.00000000000E+00  0.23840455848E+04  0.23840455848E+04  0.50400001928E-02 0. -1.
       -1   -1    0    0    0  501  0.00000000000E+00  0.00000000000E+00 -0.24035539773E+03  0.24035539778E+03  0.50400001928E-02 0.  1.
    10030    2    1    2    0    0  0.00000000000E+00  0.00000000000E+00  0.21436901871E+04  0.26244009826E+04  0.15139593453E+04 0.  0.
        3    1    3    3  502    0 -0.47079505880E+03  0.70791645008E+02  0.51659766212E+02  0.47888222565E+03  0.10100000352E+00 0.  1.
       -3    1    3    3    0  502  0.47079505880E+03 -0.70791645008E+02  0.20920304209E+04  0.21455187570E+04  0.10100000352E+00 0. -1.
</event>
<event>
 5   0  0.4785496E-04  0.1492106E+04  0.7818609E-02  0.8889719E-01
       -2   -1    0    0    0  501  0.00000000000E+00  0.00000000000E+00  0.29983951565E+03  0.29983951566E+03  0.25500000920E-02 0.  1.
        2   -1    0    0  501    0  0.00000000000E+00  0.00000000000E+00 -0.18563097519E+04  0.18563097519E+04  0.25500000920E-02 0. -1.
    10030    2    1    2    0    0  0.00000000000E+00  0.00000000000E+00 -0.15564702363E+04  0.21561492676E+04  0.14921059170E+04 0.  0.
        4    1    3    3  502    0 -0.83105790848E+02 -0.68950021523E+03 -0.38440923383E+03  0.79378157652E+03  0.12699999809E+01 0. -1.
       -4    1    3    3    0  502  0.83105790848E+02  0.68950021523E+03 -0.11720610024E+04  0.13623676910E+04  0.12699999809E+01 0.  1.
</event>
<event>
 5   0  0.4569211E-04  0.1547506E+04  0.7818609E-02  0.8853462E-01
        2   -1    0    0  501    0  0.00000000000E+00  0.00000000000E+00  0.10871363781E+04  0.10871363781E+04  0.25500000920E-02 0.  1.
       -2   -1    0    0    0  501  0.00000000000E+00  0.00000000000E+00 -0.55070719059E+03  0.55070719060E+03  0.25500000920E-02 0. -1.
    10030    2    1    2    0    0  0.00000000000E+00  0.00000000000E+00  0.53642918749E+03  0.16378435687E+04  0.15475061494E+04 0.  0.
        5    1    3    3  502    0 -0.36078322037E+03 -0.65362024198E+03  0.53158976691E+02  0.74848641913E+03  0.46999998093E+01 0. -1.
       -5    1    3    3    0  502  0.36078322037E+03  0.65362024198E+03  0.48327021080E+03  0.88935714956E+03  0.46999998093E+01 0.  1.
</event>
<event>
 5   0  0.1792000E-04  0.1506401E+04  0.7818609E-02  0.8880207E-01
        3   -1    0    0  501    0  0.00000000000E+00  0.00000000000E+00  0.58462621069E+03  0.58462621941E+03  0.10100000352E+00 0.  1.
       -3   -1    0    0    0  501  0.00000000000E+00  0.00000000000E+00 -0.97038267387E+03  0.97038267912E+03  0.10100000352E+00 0. -1.
    10030    2    1    2    0    0  0.00000000000E+00  0.00000000000E+00 -0.38575646318E+03  0.15550088985E+04  0.15064012167E+04 0.  0.
        1    1    3    3  502    0  0.66474128503E+03  0.20968449602E+03  0.10174794805E+03  0.70441550867E+03  0.50400001928E-02 0.  1.
       -1    1    3    3    0  502 -0.66474128503E+03 -0.20968449602E+03 -0.48750441123E+03  0.85059338987E+03  0.50400001928E-02 0. -1.
</event>
<event>
 5   0  0.4948645E-04  0.1503648E+04  0.7818609E-02  0.8882031E-01
        2   -1    0    0  501    0  0.00000000000E+00  0.00000000000E+00  0.14792150587E+04  0.14792150587E+04  0.25500000920E-02 0. -1.
       -2   -1    0    0    0  501  0.00000000000E+00  0.00000000000E+00 -0.38212103378E+03  0.38212103379E+03  0.25500000920E-02 0.  1.
    10030    2    1    2    0    0  0.00000000000E+00  0.00000000000E+00  0.10970940250E+04  0.18613360925E+04  0.15036478144E+04 0.  0.
        1    1    3    3  502    0  0.35365010975E+03 -0.31744538147E+03 -0.17261707134E+03  0.50560520536E+03  0.50400001928E-02 0.  1.
       -1    1    3    3    0  502 -0.35365010975E+03  0.31744538147E+03  0.12697110963E+04  0.13557308872E+04  0.50400001928E-02 0. -1.
</event>
<event>
 5   0  0.4569211E-04  0.1373882E+04  0.7818609E-02  0.8972944E-01
        2   -1    0    0  501    0  0.00000000000E+00  0.00000000000E+00  0.13446244240E+04  0.13446244240E+04  0.25500000920E-02 0. -1.
       -2   -1    0    0    0  501  0.00000000000E+00  0.00000000000E+00 -0.35094420806E+03  0.35094420807E+03  0.25500000920E-02 0.  1.
    10030    2    1    2    0    0  0.00000000000E+00  0.00000000000E+00  0.99368021595E+03  0.16955686321E+04  0.13738823146E+04 0.  0.
        5    1    3    3  502    0 -0.43778120498E+03  0.33149028616E+02  0.11488546626E+04  0.12298944537E+04  0.46999998093E+01 0. -1.
       -5    1    3    3    0  502  0.43778120498E+03 -0.33149028616E+02 -0.15517444661E+03  0.46567417838E+03  0.46999998093E+01 0.  1.
</event>
<event>
 5   0  0.4785496E-04  0.1504114E+04  0.7818609E-02  0.8881722E-01
        2   -1    0    0  501    0  0.00000000000E+00  0.00000000000E+00  0.23794096470E+04  0.23794096470E+04  0.25500000920E-02 0. -1.
       -2   -1    0    0    0  501  0.00000000000E+00  0.00000000000E+00 -0.23770180798E+03  0.23770180799E+03  0.25500000920E-02 0.  1.
    10030    2    1    2    0    0  0.00000000000E+00  0.00000000000E+00  0.21417078391E+04  0.26171114550E+04  0.15041143242E+04 0.  0.
        4    1    3    3  502    0  0.53055616080E+02  0.20478060017E+03 -0.18486621094E+03  0.28093971142E+03  0.12699999809E+01 0.  1.
       -4    1    3    3    0  502 -0.53055616080E+02 -0.20478060017E+03  0.23265740500E+04  0.23361717436E+04  0.12699999809E+01 0. -1.
</event>
<event>
 5   0  0.2605471E-04  0.1511604E+04  0.7818609E-02  0.8876773E-01
       -1   -1    0    0    0  501  0.00000000000E+00  0.00000000000E+00  0.31628723662E+03  0.31628723666E+03  0.50400001928E-02 0. -1.
        1   -1    0    0  501    0  0.00000000000E+00  0.00000000000E+00 -0.18060682550E+04  0.18060682550E+04  0.50400001928E-02 0.  1.
    10030    2    1    2    0    0  0.00000000000E+00  0.00000000000E+00 -0.14897810184E+04  0.21223554916E+04  0.15116035691E+04 0.  0.
        3    1    3    3  502    0 -0.73852428407E+03 -0.46971852464E+02 -0.96063775871E+03  0.12126208751E+04  0.10100000352E+00 0.  1.
       -3    1    3    3    0  502  0.73852428407E+03  0.46971852464E+02 -0.52914325966E+03  0.90973461654E+03  0.10100000352E+00 0. -1.
</event>
<event>
 5   0  0.2605471E-04  0.1494619E+04  0.7818609E-02  0.8888039E-01
       -1   -1    0    0    0  501  0.00000000000E+00  0.00000000000E+00  0.10997001886E+04  0.10997001886E+04  0.50400001928E-02 0.  1.
        1   -1    0    0  501    0  0.00000000000E+00  0.00000000000E+00 -0.50783978905E+03  0.50783978907E+03  0.50400001928E-02 0. -1.
    10030    2    1    2    0    0  0.00000000000E+00  0.00000000000E+00  0.59186039957E+03  0.16075399777E+04  0.14946190308E+04 0.  0.
        3    1    3    3  502    0 -0.50068463338E+02  0.58111089323E+03 -0.20656631545E+03  0.61876196888E+03  0.10100000352E+00 0. -1.
       -3    1    3    3    0  502  0.50068463338E+02 -0.58111089323E+03  0.79842671502E+03  0.98877800881E+03  0.10100000352E+00 0.  1.
</event>
<event>
 5   0  0.4768387E-04  0.1502336E+04  0.7818609E-02  0.8882901E-01
       -2   -1    0    0    0  501  0.00000000000E+00  0.00000000000E+00  0.22952916187E+03  0.22952916188E+03  0.25500000920E-02 0. -1.
        2   -1    0    0  501    0  0.00000000000E+00  0.00000000000E+00 -0.24583093412E+04  0.24583093412E+04  0.25500000920E-02 0.  1.
    10030    2    1    2    0    0  0.00000000000E+00  0.00000000000E+00 -0.22287801793E+04  0.26878385031E+04  0.15023364240E+04 0.  0.
        3    1    3    3  502    0 -0.57523592251E+03  0.48223167568E+03 -0.11653063170E+04  0.13861394512E+04  0.10100000352E+00 0.  1.
       -3    1    3    3    0  502  0.57523592251E+03 -0.48223167568E+03 -0.10634738624E+04  0.13016990519E+04  0.10100000352E+00 0. -1.
</event>
<event>
 5   0  0.4785496E-04  0.1484559E+04  0.7818609E-02  0.8894787E-01
        2   -1    0    0  501    0  0.00000000000E+00  0.00000000000E+00  0.98295422232E+03  0.98295422232E+03  0.25500000920E-02 0. -1.
       -2   -1    0    0    0  501  0.00000000000E+00  0.00000000000E+00 -0.56053323224E+03  0.56053323225E+03  0.25500000920E-02 0.  1.
    10030    2    1    2    0    0  0.00000000000E+00  0.00000000000E+00  0.42242099008E+03  0.15434874546E+04  0.14845585302E+04 0.  0.
        4    1    3    3  502    0  0.26928139177E+03 -0.55886888255E+03  0.63498010620E+03  0.88772081423E+03  0.12699999809E+01 0. -1.
       -4    1    3    3    0  502 -0.26928139177E+03  0.55886888255E+03 -0.21255911612E+03  0.65576664034E+03  0.12699999809E+01 0.  1.
</event>
<event>
 5   0  0.2603873E-04  0.1510489E+04  0.7818609E-02  0.8877508E-01
        1   -1    0    0  501    0  0.00000000000E+00  0.00000000000E+00  0.53460143150E+03  0.53460143153E+03  0.50400001928E-02 0. -1.
       -1   -1    0    0    0  501  0.00000000000E+00  0.00000000000E+00 -0.10669523808E+04  0.10669523808E+04  0.50400001928E-02 0.  1.
    10030    2    1    2    0    0  0.00000000000E+00  0.00000000000E+00 -0.53235094933E+03  0.16015538124E+04  0.15104890204E+04 0.  0.
        2    1    3    3  502    0 -0.38725865498E+03  0.48080969325E+03 -0.72742774221E+03  0.95409556499E+03  0.25500000920E-02 0.  1.
       -2    1    3    3    0  502  0.38725865498E+03 -0.48080969325E+03  0.19507679289E+03  0.64745824739E+03  0.25500000920E-02 0. -1.
</event>
<event>
 5   0  0.2542737E-04  0.1510687E+04  0.7818609E-02  0.8877377E-01
        1   -1    0    0  501    0  0.00000000000E+00  0.00000000000E+00  0.19394097337E+04  0.19394097337E+04  0.50400001928E-02 0. -1.
       -1   -1    0    0    0  501  0.00000000000E+00  0.00000000000E+00 -0.29418427168E+03  0.29418427172E+03  0.50400001928E-02 0.  1.
    10030    2    1    2    0    0  0.00000000000E+00  0.00000000000E+00  0.16452254620E+04  0.22335940054E+04  0.15106870491E+04 0.  0.
        1    1    3    3  502    0 -0.36628534874E+03  0.31221147026E+02  0.17982221804E+04  0.18354135029E+04  0.50400001928E-02 0. -1.
       -1    1    3    3    0  502  0.36628534874E+03 -0.31221147026E+02 -0.15299671834E+03  0.39818050250E+03  0.50400001928E-02 0.  1.
</event>
<event>
 5   0  0.2603873E-04  0.1501742E+04  0.7818609E-02  0.8883296E-01
       -1   -1    0    0    0  501  0.00000000000E+00  0.00000000000E+00  0.30880503412E+03  0.30880503416E+03  0.50400001928E-02 0.  1.
        1   -1    0    0  501    0  0.00000000000E+00  0.00000000000E+00 -0.18257703398E+04  0.18257703398E+04  0.50400001928E-02 0. -1.
    10030    2    1    2    0    0  0.00000000000E+00  0.00000000000E+00 -0.15169653057E+04  0.21345753740E+04  0.15017417516E+04 0.  0.
        2    1    3    3  502    0 -0.54221900728E+03  0.24646398215E+03 -0.10857315793E+03  0.60542057859E+03  0.25500000920E-02 0.  1.
       -2    1    3    3    0  502  0.54221900728E+03 -0.24646398215E+03 -0.14083921477E+04  0.15291547954E+04  0.25500000920E-02 0. -1.
</event>
<event>
 5   0  0.1792000E-04  0.1509640E+04  0.7818609E-02  0.8878068E-01
        3   -1    0    0  501    0  0.00000000000E+00  0.00000000000E+00  0.98154807681E+03  0.98154808200E+03  0.10100000352E+00 0. -1.
       -3   -1    0    0    0  501  0.00000000000E+00  0.00000000000E+00 -0.58046357751E+03  0.58046358630E+03  0.10100000352E+00 0.  1.
    10030    2    1    2    0    0  0.00000000000E+00  0.00000000000E+00  0.40108449929E+03  0.15620116683E+04  0.15096395849E+04 0.  0.
        5    1    3    3  502    0 -0.27329892609E+03  0.68491477664E+03  0.36715742651E+03  0.82378833453E+03  0.46999998093E+01 0.  1.
       -5    1    3    3    0  502  0.27329892609E+03 -0.68491477664E+03  0.33927072780E+02  0.73822333377E+03  0.46999998093E+01 0. -1.
</event>
<event>
 5   0  0.4785496E-04  0.1507284E+04  0.7818609E-02  0.8879624E-01
       -2   -1    0    0    0  501  0.00000000000E+00  0.00000000000E+00  0.56971309885E+03  0.56971309886E+03  0.25500000920E-02 0.  1.
        2   -1    0    0  501    0  0.00000000000E+00  0.00000000000E+00 -0.99695104468E+03  0.99695104468E+03  0.25500000920E-02 0. -1.
    10030    2    1    2    0    0  0.00000000000E+00  0.00000000000E+00 -0.42723794583E+03  0.15666641435E+04  0.15072837411E+04 0.  0.
        4    1    3    3  502    0  0.60269667748E+03 -0.33228372081E+03  0.10559345575E+03  0.69628108330E+03  0.12699999809E+01 0.  1.
       -4    1    3    3    0  502 -0.60269667748E+03  0.33228372081E+03 -0.53283140158E+03  0.87038306025E+03  0.12699999809E+01 0. -1.
</event>
<event>
 5   0  0.4785496E-04  0.1489100E+04  0.7818609E-02  0.8891734E-01
        2   -1    0    0  501    0  0.00000000000E+00  0.00000000000E+00  0.10262051229E+04  0.10262051229E+04  0.25500000920E-02 0. -1.
       -2   -1    0    0    0  501  0.00000000000E+00  0.00000000000E+00 -0.54019876393E+03  0.54019876394E+03  0.25500000920E-02 0.  1.
    10030    2    1    2    0    0  0.00000000000E+00  0.00000000000E+00  0.48600635896E+03  0.15664038868E+04  0.14891000489E+04 0.  0.
        4    1    3    3  502    0 -0.29775588173E+02  0.42515393647E+02 -0.53829213701E+03  0.54079033092E+03  0.12699999809E+01 0.  1.
       -4    1    3    3    0  502  0.29775588173E+02 -0.42515393647E+02  0.10242984960E+04  0.10256135559E+04  0.12699999809E+01 0. -1.
</event>
<event>
 5   0  0.4569211E-04  0.1506345E+04  0.7818609E-02  0.8880244E-01
       -2   -1    0    0    0  501  0.00000000000E+00  0.00000000000E+00  0.13531432698E+04  0.13531432698E+04  0.25500000920E-02 0. -1.
        2   -1    0    0  501    0  0.00000000000E+00  0.00000000000E+00 -0.41922327116E+03  0.41922327117E+03  0.25500000920E-02 0.  1.
    10030    2    1    2    0    0  0.00000000000E+00  0.00000000000E+00  0.93391999861E+03  0.17723665409E+04  0.15063454423E+04 0.  0.
        5    1    3    3  502    0  0.49076686970E+03 -0.40039558622E+03  0.94645648233E+03  0.11388462182E+04  0.46999998093E+01 0. -1.
       -5    1    3    3    0  502 -0.49076686970E+03  0.40039558622E+03 -0.12536483727E+02  0.63352032270E+03  0.46999998093E+01 0.  1.
</event>
<event>
 5   0  0.2605471E-04  0.1500999E+04  0.7818609E-02  0.8883789E-01
       -1   -1    0    0    0  501  0.00000000000E+00  0.00000000000E+00  0.38532317307E+03  0.38532317310E+03  0.50400001928E-02 0.  1.
        1   -1    0    0  501    0  0.00000000000E+00  0.00000000000E+00 -0.14617583344E+04  0.14617583344E+04  0.50400001928E-02 0. -1.
    10030    2    1    2    0    0  0.00000000000E+00  0.00000000000E+00 -0.10764351613E+04  0.18470815075E+04  0.15009988137E+04 0.  0.
        3    1    3    3  502    0  0.21672971128E+03  0.54104816404E+03 -0.11200362768E+04  0.12626108486E+04  0.10100000352E+00 0. -1.
       -3    1    3    3    0  502 -0.21672971128E+03 -0.54104816404E+03  0.43601115496E+02  0.58447065884E+03  0.10100000352E+00 0.  1.
</event>
<event>
 5   0  0.2603873E-04  0.1318406E+04  0.7818609E-02  0.9015095E-01
        1   -1    0    0  501    0  0.00000000000E+00  0.00000000000E+00  0.84729387404E+03  0.84729387406E+03  0.50400001928E-02 0. -1.
       -1   -1    0    0    0  501  0.00000000000E+00  0.00000000000E+00 -0.51286678815E+03  0.51286678818E+03  0.50400001928E-02 0.  1.
    10030    2    1    2    0    0  0.00000000000E+00  0.00000000000E+00  0.33442708589E+03  0.13601606622E+04  0.13184064439E+04 0.  0.
        2    1    3    3  502    0  0.36868416365E+03  0.44077360522E+02  0.72914534283E+03  0.81824431389E+03  0.25500000920E-02 0. -1.
       -2    1    3    3    0  502 -0.36868416365E+03 -0.44077360522E+02 -0.39471825694E+03  0.54191634835E+03  0.25500000920E-02 0.  1.
</event>
<event>
 5   0  0.4948645E-04  0.1501227E+04  0.7818609E-02  0.8883638E-01
       -2   -1    0    0    0  501  0.00000000000E+00  0.00000000000E+00  0.77974816080E+03  0.77974816080E+03  0.25500000920E-02 0. -1.
        2   -1    0    0  501    0  0.00000000000E+00  0.00000000000E+00 -0.72256717075E+03  0.72256717076E+03  0.25500000920E-02 0.  1.
    10030    2    1    2    0    0  0.00000000000E+00  0.00000000000E+00  0.57180990043E+02  0.15023153316E+04  0.15012267283E+04 0.  0.
        1    1    3    3  502    0 -0.40012613641E+03  0.24175864250E+03  0.61627459430E+03  0.77352604472E+03  0.50400001928E-02 0. -1.
       -1    1    3    3    0  502  0.40012613641E+03 -0.24175864250E+03 -0.55909360425E+03  0.72878928684E+03  0.50400001928E-02 0.  1.
</event>
<event>
 5   0  0.2544374E-04  0.1492789E+04  0.7818609E-02  0.8889262E-01
        1   -1    0    0  501    0  0.00000000000E+00  0.00000000000E+00  0.97749960555E+03  0.97749960556E+03  0.50400001928E-02 0.  1.
       -1   -1    0    0    0  501  0.00000000000E+00  0.00000000000E+00 -0.56992862352E+03  0.56992862355E+03  0.50400001928E-02 0. -1.
    10030    2    1    2    0    0  0.00000000000E+00  0.00000000000E+00  0.40757098202E+03  0.15474282291E+04  0.14927893418E+04 0.  0.
        4    1    3    3  502    0 -0.44122188347E+03  0.57405803680E+03  0.39176234933E+03  0.82322459349E+03  0.12699999809E+01 0. -1.
       -4    1    3    3    0  502  0.44122188347E+03 -0.57405803680E+03  0.15808632691E+02  0.72420363562E+03  0.12699999809E+01 0.  1.
</event>
<event>
 5   0  0.4785496E-04  0.1497448E+04  0.7818609E-02  0.8886152E-01
       -2   -1    0    0    0  501  0.00000000000E+00  0.00000000000E+00  0.71223795155E+03  0.71223795156E+03  0.25500000920E-02 0. -1.
        2   -1    0    0  501    0  0.00000000000E+00  0.00000000000E+00 -0.78707946714E+03  0.78707946714E+03  0.25500000920E-02 0.  1.
    10030    2    1    2    0    0  0.00000000000E+00  0.00000000000E+00 -0.74841515585E+02  0.14993174187E+04  0.14974483195E+04 0.  0.
        4    1    3    3  502    0  0.48385646999E+03  0.26789752662E+03 -0.54272889241E+03  0.77488220516E+03  0.12699999809E+01 0.  1.
       -4    1    3    3    0  502 -0.48385646999E+03 -0.26789752662E+03  0.46788737683E+03  0.72443521354E+03  0.12699999809E+01 0. -1.
</event>
<event>
 5   0  0.1792000E-04  0.1495706E+04  0.7818609E-02  0.8887313E-01
       -3   -1    0    0    0  501  0.00000000000E+00  0.00000000000E+00  0.11741021857E+04  0.11741021901E+04  0.10100000352E+00 0. -1.
        3   -1    0    0  501    0  0.00000000000E+00  0.00000000000E+00 -0.47635046078E+03  0.47635047149E+03  0.10100000352E+00 0.  1.
    10030    2    1    2    0    0  0.00000000000E+00  0.00000000000E+00  0.69775172496E+03  0.16504526616E+04  0.14957060267E+04 0.  0.
        4    1    3    3  502    0  0.73012165130E+03 -0.12525768572E+03  0.46202983185E+03  0.87306373876E+03  0.12699999809E+01 0.  1.
       -4    1    3    3    0  502 -0.73012165130E+03  0.12525768572E+03  0.23572189311E+03  0.77738892281E+03  0.12699999809E+01 0. -1.
</event>
<event>
 5   0  0.4726600E-04  0.1494352E+04  0.7818609E-02  0.8888218E-01
        2   -1    0    0  501    0  0.00000000000E+00  0.00000000000E+00  0.19657357840E+04  0.19657357840E+04  0.25500000920E-02 0.  1.
       -2   -1    0    0    0  501  0.00000000000E+00  0.00000000000E+00 -0.28400137165E+03  0.28400137166E+03  0.25500000920E-02 0. -1.
    10030    2    1    2    0    0  0.00000000000E+00  0.00000000000E+00  0.16817344124E+04  0.22497371557E+04  0.14943515771E+04 0.  0.
        2    1    3    3  502    0 -0.72597283425E+03 -0.12050473559E+03  0.64623466777E+03  0.97937592027E+03  0.25500000920E-02 0.  1.
       -2    1    3    3    0  502  0.72597283425E+03  0.12050473559E+03  0.10354997446E+04  0.12703612354E+04  0.25500000920E-02 0. -1.
</event>
<event>
 5   0  0.2544374E-04  0.1509535E+04  0.7818609E-02  0.8878137E-01
        1   -1    0    0  501    0  0.00000000000E+00  0.00000000000E+00  0.26999506480E+04  0.26999506480E+04  0.50400001928E-02 0. -1.
       -1   -1    0    0    0  501  0.00000000000E+00  0.00000000000E+00 -0.21099418890E+03  0.21099418896E+03  0.50400001928E-02 0.  1.
    10030    2    1    2    0    0  0.00000000000E+00  0.00000000000E+00  0.24889564591E+04  0.29109448370E+04  0.15095348915E+04 0.  0.
        4    1    3    3  502    0  0.58936379314E+03 -0.45836724058E+03  0.14576665047E+04  0.16377556166E+04  0.12699999809E+01 0.  1.
       -4    1    3    3    0  502 -0.58936379314E+03  0.45836724058E+03  0.10312899544E+04  0.12731892204E+04  0.12699999809E+01 0. -1.
</event>
<event>
 5   0  0.4785496E-04  0.1508699E+04  0.7818609E-02  0.8878689E-01
        2   -1    0    0  501    0  0.00000000000E+00  0.00000000000E+00  0.19418007021E+04  0.19418007021E+04  0.25500000920E-02 0.  1.
       -2   -1    0    0    0  501  0.00000000000E+00  0.00000000000E+00 -0.29304903335E+03  0.29304903336E+03  0.25500000920E-02 0. -1.
    10030    2    1    2    0    0  0.00000000000E+00  0.00000000000E+00  0.16487516688E+04  0.22348497355E+04  0.15086985368E+04 0.  0.
        4    1    3    3  502    0  0.37255827460E+03  0.33002158407E+03  0.16640671578E+04  0.17369038639E+04  0.12699999809E+01 0.  1.
       -4    1    3    3    0  502 -0.37255827460E+03 -0.33002158407E+03 -0.15315489007E+02  0.49794587159E+03  0.12699999809E+01 0. -1.
</event>
<event>
 5   0  0.2605471E-04  0.1527548E+04  0.7818609E-02  0.8866338E-01
        1   -1    0    0  501    0  0.00000000000E+00  0.00000000000E+00  0.12550423261E+04  0.12550423261E+04  0.50400001928E-02 0.  1.
       -1   -1    0    0    0  501  0.00000000000E+00  0.00000000000E+00 -0.46480565879E+03  0.46480565882E+03  0.50400001928E-02 0. -1.
    10030    2    1    2    0    0  0.00000000000E+00  0.00000000000E+00  0.79023666728E+03  0.17198479849E+04  0.15275480683E+04 0.  0.
        3    1    3    3  502    0 -0.41888569732E+03  0.38814132524E+03 -0.17590985355E+03  0.59754765714E+03  0.10100000352E+00 0. -1.
       -3    1    3    3    0  502  0.41888569732E+03 -0.38814132524E+03  0.96614652083E+03  0.11223003278E+04  0.10100000352E+00 0.  1.
</event>
<event>
 5   0  0.4569211E-04  0.1512700E+04  0.7818609E-02  0.8876051E-01
        2   -1    0    0  501    0  0.00000000000E+00  0.00000000000E+00  0.11113032948E+04  0.11113032948E+04  0.25500000920E-02 0.  1.
       -2   -1    0    0    0  501  0.00000000000E+00  0.00000000000E+00 -0.51476984306E+03  0.51476984307E+03  0.25500000920E-02 0. -1.
    10030    2    1    2    0    0  0.00000000000E+00  0.00000000000E+00  0.59653345175E+03  0.16260731379E+04  0.15127001324E+04 0.  0.
        5    1    3    3  502    0  0.82228137192E+01  0.56504503403E+03  0.83863482624E+03  0.10112734383E+04  0.46999998093E+01 0.  1.
       -5    1    3    3    0  502 -0.82228137192E+01 -0.56504503403E+03 -0.24210137448E+03  0.61479969963E+03  0.46999998093E+01 0. -1.
</event>
<event>
 5   0  0.4569211E-04  0.1467796E+04  0.7818609E-02  0.8906155E-01
       -2   -1    0    0    0  501  0.00000000000E+00  0.00000000000E+00  0.29079303859E+03  0.29079303861E+03  0.25500000920E-02 0. -1.
        2   -1    0    0  501    0  0.00000000000E+00  0.00000000000E+00 -0.18521984009E+04  0.18521984009E+04  0.25500000920E-02 0.  1.
    10030    2    1    2    0    0  0.00000000000E+00  0.00000000000E+00 -0.15614053623E+04  0.21429914395E+04  0.14677961726E+04 0.  0.
        5    1    3    3  502    0  0.19438097650E+03 -0.70044155851E+03 -0.63337966702E+03  0.96415467302E+03  0.46999998093E+01 0. -1.
       -5    1    3    3    0  502 -0.19438097650E+03  0.70044155851E+03 -0.92802569526E+03  0.11788367665E+04  0.46999998093E+01 0.  1.
</event>
<event>
 5   0  0.4948645E-04  0.1493154E+04  0.7818609E-02  0.8889018E-01
       -2   -1    0    0    0  501  0.00000000000E+00  0.00000000000E+00  0.96510222695E+03  0.96510222695E+03  0.25500000920E-02 0. -1.
        2   -1    0    0  501    0  0.00000000000E+00  0.00000000000E+00 -0.57753187115E+03  0.57753187115E+03  0.25500000920E-02 0.  1.
    10030    2    1    2    0    0  0.00000000000E+00  0.00000000000E+00  0.38757035580E+03  0.15426340981E+04  0.14931541045E+04 0.  0.
        1    1    3    3  502    0  0.29351297209E+03 -0.56974379179E+03 -0.20181281115E+03  0.67192727570E+03  0.50400001928E-02 0. -1.
       -1    1    3    3    0  502 -0.29351297209E+03  0.56974379179E+03  0.58938316694E+03  0.87070682240E+03  0.50400001928E-02 0.  1.
</event>
<event>
 5   0  0.2603873E-04  0.1505412E+04  0.7818609E-02  0.8880862E-01
       -1   -1    0    0    0  501  0.00000000000E+00  0.00000000000E+00  0.85524224438E+03  0.85524224440E+03  0.50400001928E-02 0. -1.
        1   -1    0    0  501    0  0.00000000000E+00  0.00000000000E+00 -0.66246262172E+03  0.66246262174E+03  0.50400001928E-02 0.  1.
    10030    2    1    2    0    0  0.00000000000E+00  0.00000000000E+00  0.19277962266E+03  0.15177048661E+04  0.15054115975E+04 0.  0.
        2    1    3    3  502    0 -0.16139633245E+03 -0.14734790714E+03 -0.62977382328E+03  0.66661476909E+03  0.25500000920E-02 0.  1.
       -2    1    3    3    0  502  0.16139633245E+03  0.14734790714E+03  0.82255344594E+03  0.85109009705E+03  0.25500000920E-02 0. -1.
</event>
<event>
 5   0  0.2605471E-04  0.1503986E+04  0.7818609E-02  0.8881807E-01
        1   -1    0    0  501    0  0.00000000000E+00  0.00000000000E+00  0.76311714903E+03  0.76311714905E+03  0.50400001928E-02 0. -1.
       -1   -1    0    0    0  501  0.00000000000E+00  0.00000000000E+00 -0.74103102043E+03  0.74103102045E+03  0.50400001928E-02 0.  1.
    10030    2    1    2    0    0  0.00000000000E+00  0.00000000000E+00  0.22086128600E+02  0.15041481695E+04  0.15039860101E+04 0.  0.
        3    1    3    3  502    0  0.33422611287E+03  0.29143563792E+03  0.61844012319E+03  0.76099278693E+03  0.10100000352E+00 0. -1.
       -3    1    3    3    0  502 -0.33422611287E+03 -0.29143563792E+03 -0.59635399459E+03  0.74315538257E+03  0.10100000352E+00 0.  1.
</event>
<event>
 5   0  0.2542737E-04  0.1492287E+04  0.7818609E-02  0.8889598E-01
       -1   -1    0    0    0  501  0.00000000000E+00  0.00000000000E+00  0.42744285822E+03  0.42744285825E+03  0.50400001928E-02 0.  1.
        1   -1    0    0  501    0  0.00000000000E+00  0.00000000000E+00 -0.13024661701E+04  0.13024661701E+04  0.50400001928E-02 0. -1.
    10030    2    1    2    0    0  0.00000000000E+00  0.00000000000E+00 -0.87502331183E+03  0.17299090283E+04  0.14922866514E+04 0.  0.
        1    1    3    3  502    0 -0.93622439274E+02  0.15138832139E+03  0.40247000221E+03  0.44007463877E+03  0.50400001928E-02 0.  1.
       -1    1    3    3    0  502  0.93622439274E+02 -0.15138832139E+03 -0.12774933140E+04  0.12898343895E+04  0.50400001928E-02 0. -1.
</event>
<event>
 5   0  0.4785496E-04  0.1487124E+04  0.7818609E-02  0.8893061E-01
       -2   -1    0    0    0  501  0.00000000000E+00  0.00000000000E+00  0.53316113225E+03  0.53316113225E+03  0.25500000920E-02 0. -1.
        2   -1    0    0  501    0  0.00000000000E+00  0.00000000000E+00 -0.10369933259E+04  0.10369933259E+04  0.25500000920E-02 0.  1.
    10030    2    1    2    0    0  0.00000000000E+00  0.00000000000E+00 -0.50383219365E+03  0.15701544582E+04  0.14871241183E+04 0.  0.
        4    1    3    3  502    0 -0.24558639588E+03 -0.10098007022E+03  0.48139250057E+03  0.54977268478E+03  0.12699999809E+01 0. -1.
       -4    1    3    3    0  502  0.24558639588E+03  0.10098007022E+03 -0.98522469422E+03  0.10203817734E+04  0.12699999809E+01 0.  1.
</event>
<event>
 5   0  0.2565416E-04  0.1520975E+04  0.7818609E-02  0.8870623E-01
       -1   -1    0    0    0  501  0.00000000000E+00  0.00000000000E+00  0.69870027226E+03  0.69870027227E+03  0.50400001928E-02 0.  1.
        1   -1    0    0  501    0  0.00000000000E+00  0.00000000000E+00 -0.82773886339E+03  0.82773886341E+03  0.50400001928E-02 0. -1.
    10030    2    1    2    0    0  0.00000000000E+00  0.00000000000E+00 -0.12903859114E+03  0.15264391357E+04  0.15209751730E+04 0.  0.
        5    1    3    3  502    0 -0.42847964827E+03  0.35838095165E+03  0.45336508071E+03  0.71943985287E+03  0.46999998093E+01 0.  1.
       -5    1    3    3    0  502  0.42847964827E+03 -0.35838095165E+03 -0.58240367185E+03  0.80699928282E+03  0.46999998093E+01 0. -1.
</event>
<event>
 5   0  0.2544374E-04  0.1500063E+04  0.7818609E-02  0.8884411E-01
        1   -1    0    0  501    0  0.00000000000E+00  0.00000000000E+00  0.66071132948E+03  0.66071132950E+03  0.50400001928E-02 0.  1.
       -1   -1    0    0    0  501  0.00000000000E+00  0.00000000000E+00 -0.85142627609E+03  0.85142627611E+03  0.50400001928E-02 0. -1.
    10030    2    1    2    0    0  0.00000000000E+00  0.00000000000E+00 -0.19071494661E+03  0.15121376056E+04  0.15000626478E+04 0.  0.
        4    1    3    3  502    0 -0.20408360929E+03  0.55912596011E+03 -0.55540090683E+03  0.81409074375E+03  0.12699999809E+01 0. -1.
       -4    1    3    3    0  502  0.20408360929E+03 -0.55912596011E+03  0.36468596022E+03  0.69804686185E+03  0.12699999809E+01 0.  1.
</event>
<event>
 5   0  0.2603873E-04  0.1488083E+04  0.7818609E-02  0.8892417E-01
        1   -1    0    0  501    0  0.00000000000E+00  0.00000000000E+00  0.78335277885E+03  0.78335277887E+03  0.50400001928E-02 0.  1.
       -1   -1    0    0    0  501  0.00000000000E+00  0.00000000000E+00 -0.70670261427E+03  0.70670261429E+03  0.50400001928E-02 0. -1.
    10030    2    1    2    0    0  0.00000000000E+00  0.00000000000E+00  0.76650164580E+02  0.14900553932E+04  0.14880826008E+04 0.  0.
        2    1    3    3  502    0  0.43378252025E+03 -0.22522807728E+03  0.60005230060E+03  0.77392359127E+03  0.25500000920E-02 0.  1.
       -2    1    3    3    0  502 -0.43378252025E+03  0.22522807728E+03 -0.52340213602E+03  0.71613180188E+03  0.25500000920E-02 0. -1.
</event>
<event>
 5   0  0.4768387E-04  0.1501509E+04  0.7818609E-02  0.8883450E-01
        2   -1    0    0  501    0  0.00000000000E+00  0.00000000000E+00  0.13812710340E+04  0.13812710340E+04  0.25500000920E-02 0.  1.
       -2   -1    0    0    0  501  0.00000000000E+00  0.00000000000E+00 -0.40805335823E+03  0.40805335824E+03  0.25500000920E-02 0. -1.
    10030    2    1    2    0    0  0.00000000000E+00  0.00000000000E+00  0.97321767573E+03  0.17893243922E+04  0.15015089531E+04 0.  0.
        3    1    3    3  502    0 -0.22132293744E+03 -0.28297203717E+03 -0.29897701557E+03  0.46738023332E+03  0.10100000352E+00 0. -1.
       -3    1    3    3    0  502  0.22132293744E+03  0.28297203717E+03  0.12721946913E+04  0.13219441589E+04  0.10100000352E+00 0.  1.
</event>
<event>
 5   0  0.4785496E-04  0.1493699E+04  0.7818609E-02  0.8888654E-01
       -2   -1    0    0    0  501  0.00000000000E+00  0.00000000000E+00  0.60957351743E+03  0.60957351743E+03  0.25500000920E-02 0.  1.
        2   -1    0    0  501    0  0.00000000000E+00  0.00000000000E+00 -0.91503990831E+03  0.91503990831E+03  0.25500000920E-02 0. -1.
    10030    2    1    2    0    0  0.00000000000E+00  0.00000000000E+00 -0.30546639089E+03  0.15246134257E+04  0.14936988927E+04 0.  0.
        4    1    3    3  502    0 -0.88007377116E-01  0.66175117257E+03 -0.50611815182E+03  0.83310972785E+03  0.12699999809E+01 0. -1.
       -4    1    3    3    0  502  0.88007377116E-01 -0.66175117257E+03  0.20065176093E+03  0.69150369790E+03  0.12699999809E+01 0.  1.
</event>
<event>
 5   0  0.4948645E-04  0.1491135E+04  0.7818609E-02  0.8890370E-01
        2   -1    0    0  501    0  0.00000000000E+00  0.00000000000E+00  0.11749606401E+04  0.11749606401E+04  0.25500000920E-02 0. -1.
       -2   -1    0    0    0  501  0.00000000000E+00  0.00000000000E+00 -0.47309722211E+03  0.47309722211E+03  0.25500000920E-02 0.  1.
    10030    2    1    2    0    0  0.00000000000E+00  0.00000000000E+00  0.70186341796E+03  0.16480578622E+04  0.14911346216E+04 0.  0.
        1    1    3    3  502    0 -0.21982673871E+03  0.37233011184E+03 -0.32037347211E+03  0.53813815037E+03  0.50400001928E-02 0.  1.
       -1    1    3    3    0  502  0.21982673871E+03 -0.37233011184E+03  0.10222368901E+04  0.11099197118E+04  0.50400001928E-02 0. -1.
</event>
<event>
 5   0  0.4768387E-04  0.1503927E+04  0.7818609E-02  0.8881846E-01
        2   -1    0    0  501    0  0.00000000000E+00  0.00000000000E+00  0.87084384843E+03  0.87084384844E+03  0.25500000920E-02 0.  1.
       -2   -1    0    0    0  501  0.00000000000E+00  0.00000000000E+00 -0.64931160224E+03  0.64931160225E+03  0.25500000920E-02 0. -1.
    10030    2    1    2    0    0  0.00000000000E+00  0.00000000000E+00  0.22153224619E+03  0.15201554507E+04  0.15039268793E+04 0.  0.
        3    1    3    3  502    0  0.73682664433E+03 -0.22742397848E+02  0.26075291394E+03  0.78193529962E+03  0.10100000352E+00 0.  1.
       -3    1    3    3    0  502 -0.73682664433E+03  0.22742397848E+02 -0.39220667755E+02  0.73822015107E+03  0.10100000352E+00 0. -1.
</event>
<event>
 5   0  0.2565416E-04  0.1506993E+04  0.7818609E-02  0.8879816E-01
       -1   -1    0    0    0  501  0.00000000000E+00  0.00000000000E+00  0.10969207314E+04  0.10969207314E+04  0.50400001928E-02 0. -1.
        1   -1    0    0  501    0  0.00000000000E+00  0.00000000000E+00 -0.51759137431E+03  0.51759137434E+03  0.50400001928E-02 0.  1.
    10030    2    1    2    0    0  0.00000000000E+00  0.00000000000E+00  0.57932935704E+03  0.16145121057E+04  0.15069926461E+04 0.  0.
        5    1    3    3  502    0 -0.10438256880E+03 -0.14262622945E+03  0.10743828015E+04  0.10888335301E+04  0.46999998093E+01 0. -1.
       -5    1    3    3    0  502  0.10438256880E+03  0.14262622945E+03 -0.49505344448E+03  0.52567857564E+03  0.46999998093E+01 0.  1.
</event>
<event>
 5   0  0.2544374E-04  0.1504322E+04  0.7818609E-02  0.8881584E-01
        1   -1    0    0  501    0  0.00000000000E+00  0.00000000000E+00  0.16787029756E+04  0.16787029756E+04  0.50400001928E-02 0.  1.
       -1   -1    0    0    0  501  0.00000000000E+00  0.00000000000E+00 -0.33701382490E+03  0.33701382494E+03  0.50400001928E-02 0. -1.
    10030    2    1    2    0    0  0.00000000000E+00  0.00000000000E+00  0.13416891507E+04  0.20157168006E+04  0.15043219213E+04 0.  0.
        4    1    3    3  502    0  0.45942683248E+03  0.41578247875E+03  0.99521997210E+02  0.62757814244E+03  0.12699999809E+01 0. -1.
       -4    1    3    3    0  502 -0.45942683248E+03 -0.41578247875E+03  0.12421671535E+04  0.13881386581E+04  0.12699999809E+01 0.  1.
</event>
<event>
 5   0  0.2565416E-04  0.1496333E+04  0.7818609E-02  0.8886895E-01
        1   -1    0    0  501    0  0.00000000000E+00  0.00000000000E+00  0.17599567052E+04  0.17599567052E+04  0.50400001928E-02 0.  1.
       -1   -1    0    0    0  501  0.00000000000E+00  0.00000000000E+00 -0.31804950904E+03  0.31804950908E+03  0.50400001928E-02 0. -1.
    10030    2    1    2    0    0  0.00000000000E+00  0.00000000000E+00  0.14419071961E+04  0.20780062142E+04  0.14963333399E+04 0.  0.
        5    1    3    3  502    0 -0.74304994196E+03 -0.45311739278E+02  0.61744966570E+03  0.96718279019E+03  0.46999998093E+01 0.  1.
       -5    1    3    3    0  502  0.74304994196E+03  0.45311739278E+02  0.82445753042E+03  0.11108234241E+04  0.46999998093E+01 0. -1.
</event>
<event>
 5   0  0.2542737E-04  0.1500289E+04  0.7818609E-02  0.8884261E-01
       -1   -1    0    0    0  501  0.00000000000E+00  0.00000000000E+00  0.74379641198E+03  0.74379641200E+03  0.50400001928E-02 0.  1.
        1   -1    0    0  501    0  0.00000000000E+00  0.00000000000E+00 -0.75654647233E+03  0.75654647235E+03  0.50400001928E-02 0. -1.
    10030    2    1    2    0    0  0.00000000000E+00  0.00000000000E+00 -0.12750060351E+02  0.15003428844E+04  0.15002887077E+04 0.  0.
        1    1    3    3  502    0  0.10850812014E+03  0.25924645314E+03 -0.70190989822E+03  0.75608216541E+03  0.50400001928E-02 0. -1.
       -1    1    3    3    0  502 -0.10850812014E+03 -0.25924645314E+03  0.68915983787E+03  0.74426071894E+03  0.50400001928E-02 0.  1.
</event>
<event>
 5   0  0.4785496E-04  0.1644705E+04  0.7818609E-02  0.8793545E-01
        2   -1    0    0  501    0  0.00000000000E+00  0.00000000000E+00  0.11270079539E+04  0.11270079539E+04  0.25500000920E-02 0. -1.
       -2   -1    0    0    0  501  0.00000000000E+00  0.00000000000E+00 -0.60005217523E+03  0.60005217524E+03  0.25500000920E-02 0.  1.
    10030    2    1    2    0    0  0.00000000000E+00  0.00000000000E+00  0.52695577864E+03  0.17270601291E+04  0.16447049270E+04 0.  0.
        4    1    3    3  502    0  0.72567610188E+03 -0.24120651332E+03  0.58107170525E+03  0.96043340552E+03  0.12699999809E+01 0. -1.
       -4    1    3    3    0  502 -0.72567610188E+03  0.24120651332E+03 -0.54115926612E+02  0.76662672359E+03  0.12699999809E+01 0.  1.
</event>
<event>
 5   0  0.4948645E-04  0.1502606E+04  0.7818609E-02  0.8882722E-01
        2   -1    0    0  501    0  0.00000000000E+00  0.00000000000E+00  0.14638612252E+04  0.14638612252E+04  0.25500000920E-02 0. -1.
       -2   -1    0    0    0  501  0.00000000000E+00  0.00000000000E+00 -0.38559419495E+03  0.38559419496E+03  0.25500000920E-02 0.  1.
    10030    2    1    2    0    0  0.00000000000E+00  0.00000000000E+00  0.10782670303E+04  0.18494554202E+04  0.15026062567E+04 0.  0.
        1    1    3    3  502    0 -0.13537317926E+03 -0.14867713182E+03  0.14301278197E+04  0.14441940201E+04  0.50400001928E-02 0. -1.
       -1    1    3    3    0  502  0.13537317926E+03  0.14867713182E+03 -0.35186078942E+03  0.40526140002E+03  0.50400001928E-02 0.  1.
</event>
<event>
 5   0  0.4726600E-04  0.1500563E+04  0.7818609E-02  0.8884078E-01
        2   -1    0    0  501    0  0.00000000000E+00  0.00000000000E+00  0.17514802565E+04  0.17514802565E+04  0.25500000920E-02 0.  1.
       -2   -1    0    0    0  501  0.00000000000E+00  0.00000000000E+00 -0.32139822558E+03  0.32139822559E+03  0.25500000920E-02 0. -1.
    10030    2    1    2    0    0  0.00000000000E+00  0.00000000000E+00  0.14300820309E+04  0.20728784821E+04  0.15005634229E+04 0.  0.
        2    1    3    3  502    0 -0.31287784157E+03  0.68137957282E+03  0.75292213406E+03  0.10625734826E+04  0.25500000920E-02 0. -1.
       -2    1    3    3    0  502  0.31287784157E+03 -0.68137957282E+03  0.67715989684E+03  0.10103049994E+04  0.25500000920E-02 0.  1.
</event>
<event>
 5   0  0.2605471E-04  0.1496319E+04  0.7818609E-02  0.8886904E-01
        1   -1    0    0  501    0  0.00000000000E+00  0.00000000000E+00  0.18510408756E+04  0.18510408756E+04  0.50400001928E-02 0.  1.
       -1   -1    0    0    0  501  0.00000000000E+00  0.00000000000E+00 -0.30239355657E+03  0.30239355661E+03  0.50400001928E-02 0. -1.
    10030    2    1    2    0    0  0.00000000000E+00  0.00000000000E+00  0.15486473190E+04  0.21534344322E+04  0.14963192624E+04 0.  0.
        3    1    3    3  502    0  0.19042562099E+03 -0.37813341497E+03 -0.11340951415E+03  0.43830186487E+03  0.10100000352E+00 0. -1.
       -3    1    3    3    0  502 -0.19042562099E+03  0.37813341497E+03  0.16620568332E+04  0.17151325673E+04  0.10100000352E+00 0.  1.
</event>
<event>
 5   0  0.4768387E-04  0.1493181E+04  0.7818609E-02  0.8889000E-01
       -2   -1    0    0    0  501  0.00000000000E+00  0.00000000000E+00  0.71993717019E+03  0.71993717020E+03  0.25500000920E-02 0.  1.
        2   -1    0    0  501    0  0.00000000000E+00  0.00000000000E+00 -0.77423038714E+03  0.77423038714E+03  0.25500000920E-02 0. -1.
    10030    2    1    2    0    0  0.00000000000E+00  0.00000000000E+00 -0.54293216944E+02  0.14941675573E+04  0.14931808116E+04 0.  0.
        3    1    3    3  502    0  0.60985482248E+03 -0.10093578864E+03 -0.44609533202E+03  0.76230702042E+03  0.10100000352E+00 0. -1.
       -3    1    3    3    0  502 -0.60985482248E+03  0.10093578864E+03  0.39180211507E+03  0.73186053692E+03  0.10100000352E+00 0.  1.
</event>
<event>
 5   0  0.4569211E-04  0.1497313E+04  0.7818609E-02  0.8886241E-01
       -2   -1    0    0    0  501  0.00000000000E+00  0.00000000000E+00  0.35849288169E+03  0.35849288170E+03  0.25500000920E-02 0. -1.
        2   -1    0    0  501    0  0.00000000000E+00  0.00000000000E+00 -0.15634534033E+04  0.15634534033E+04  0.25500000920E-02 0.  1.
    10030    2    1    2    0    0  0.00000000000E+00  0.00000000000E+00 -0.12049605216E+04  0.19219462850E+04  0.14973134821E+04 0.  0.
        5    1    3    3  502    0 -0.26206964963E+03  0.23356346173E+03 -0.14512398539E+04  0.14931013347E+04  0.46999998093E+01 0.  1.
       -5    1    3    3    0  502  0.26206964963E+03 -0.23356346173E+03  0.24627933232E+03  0.42884495035E+03  0.46999998093E+01 0. -1.
</event>
<event>
 5   0  0.4948645E-04  0.1504527E+04  0.7818609E-02  0.8881448E-01
       -2   -1    0    0    0  501  0.00000000000E+00  0.00000000000E+00  0.76080665575E+03  0.76080665575E+03  0.25500000920E-02 0.  1.
        2   -1    0    0  501    0  0.00000000000E+00  0.00000000000E+00 -0.74381656800E+03  0.74381656801E+03  0.25500000920E-02 0. -1.
    10030    2    1    2    0    0  0.00000000000E+00  0.00000000000E+00  0.16990087748E+02  0.15046232238E+04  0.15045272953E+04 0.  0.
        1    1    3    3  502    0 -0.32726720725E+02  0.11705413519E+02  0.76000322901E+03  0.76079758352E+03  0.50400001928E-02 0.  1.
       -1    1    3    3    0  502  0.32726720725E+02 -0.11705413519E+02 -0.74301314127E+03  0.74382564024E+03  0.50400001928E-02 0. -1.
</event>
<event>
 5   0  0.2605471E-04  0.1497734E+04  0.7818609E-02  0.8885961E-01
       -1   -1    0    0    0  501  0.00000000000E+00  0.00000000000E+00  0.54523420646E+03  0.54523420648E+03  0.50400001928E-02 0.  1.
        1   -1    0    0  501    0  0.00000000000E+00  0.00000000000E+00 -0.10285519057E+04  0.10285519058E+04  0.50400001928E-02 0. -1.
    10030    2    1    2    0    0  0.00000000000E+00  0.00000000000E+00 -0.48331769928E+03  0.15737861122E+04  0.14977338644E+04 0.  0.
        3    1    3    3  502    0 -0.72389601518E+03 -0.56470664278E+02 -0.43423325920E+03  0.84603363427E+03  0.10100000352E+00 0. -1.
       -3    1    3    3    0  502  0.72389601518E+03  0.56470664278E+02 -0.49084440083E+02  0.72775247796E+03  0.10100000352E+00 0.  1.
</event>
<event>
 5   0  0.2544374E-04  0.1327387E+04  0.7818609E-02  0.9008125E-01
       -1   -1    0    0    0  501  0.00000000000E+00  0.00000000000E+00  0.57019357579E+03  0.57019357582E+03  0.50400001928E-02 0.  1.
        1   -1    0    0  501    0  0.00000000000E+00  0.00000000000E+00 -0.77252533393E+03  0.77252533395E+03  0.50400001928E-02 0. -1.
    10030    2    1    2    0    0  0.00000000000E+00  0.00000000000E+00 -0.20233175814E+03  0.13427189098E+04  0.13273868804E+04 0.  0.
        4    1    3    3  502    0  0.50749415308E+02  0.55840684369E+03 -0.46036413198E+03  0.72548635628E+03  0.12699999809E+01 0. -1.
       -4    1    3    3    0  502 -0.50749415308E+02 -0.55840684369E+03  0.25803237384E+03  0.61723255349E+03  0.12699999809E+01 0.  1.
</event>
<event>
 5   0  0.2605471E-04  0.1521635E+04  0.7818609E-02  0.8870192E-01
        1   -1    0    0  501    0  0.00000000000E+00  0.00000000000E+00  0.12165237310E+04  0.12165237310E+04  0.50400001928E-02 0. -1.
       -1   -1    0    0    0  501  0.00000000000E+00  0.00000000000E+00 -0.47581773885E+03  0.47581773888E+03  0.50400001928E-02 0.  1.
    10030    2    1    2    0    0  0.00000000000E+00  0.00000000000E+00  0.74070599216E+03  0.16923414699E+04  0.15216353978E+04 0.  0.
        3    1    3    3  502    0 -0.35303521459E+03  0.64960323356E+03  0.17069986393E+03  0.75878631876E+03  0.10100000352E+00 0. -1.
       -3    1    3    3    0  502  0.35303521459E+03 -0.64960323356E+03  0.57000612823E+03  0.93355515113E+03  0.10100000352E+00 0.  1.
</event>
<event>
 5   0  0.4785496E-04  0.1487706E+04  0.7818609E-02  0.8892670E-01
       -2   -1    0    0    0  501  0.00000000000E+00  0.00000000000E+00  0.49385649930E+03  0.49385649930E+03  0.25500000920E-02 0.  1.
        2   -1    0    0  501    0  0.00000000000E+00  0.00000000000E+00 -0.11204005513E+04  0.11204005514E+04  0.25500000920E-02 0. -1.
    10030    2    1    2    0    0  0.00000000000E+00  0.00000000000E+00 -0.62654405205E+03  0.16142570507E+04  0.14877057426E+04 0.  0.
        4    1    3    3  502    0 -0.70349346999E+03 -0.14298736212E+02 -0.51485758672E+02  0.70552102195E+03  0.12699999809E+01 0.  1.
       -4    1    3    3    0  502  0.70349346999E+03  0.14298736212E+02 -0.57505829338E+03  0.90873602870E+03  0.12699999809E+01 0. -1.
</event>
<event>
 5   0  0.4569211E-04  0.1502259E+04  0.7818609E-02  0.8882952E-01
        2   -1    0    0  501    0  0.00000000000E+00  0.00000000000E+00  0.22768977391E+04  0.22768977391E+04  0.25500000920E-02 0. -1.
       -2   -1    0    0    0  501  0.00000000000E+00  0.00000000000E+00 -0.24779133596E+03  0.24779133598E+03  0.25500000920E-02 0.  1.
    10030    2    1    2    0    0  0.00000000000E+00  0.00000000000E+00  0.20291064031E+04  0.25246890751E+04  0.15022590091E+04 0.  0.
        5    1    3    3  502    0 -0.52938783880E+03  0.30126996073E+03  0.27593526645E+03  0.66871326769E+03  0.46999998093E+01 0. -1.
       -5    1    3    3    0  502  0.52938783880E+03 -0.30126996073E+03  0.17531711367E+04  0.18559758074E+04  0.46999998093E+01 0.  1.
</event>
<event>
 5   0  0.4726600E-04  0.1501952E+04  0.7818609E-02  0.8883156E-01
       -2   -1    0    0    0  501  0.00000000000E+00  0.00000000000E+00  0.12614116969E+04  0.12614116969E+04  0.25500000920E-02 0.  1.
        2   -1    0    0  501    0  0.00000000000E+00  0.00000000000E+00 -0.44709054007E+03  0.44709054008E+03  0.25500000920E-02 0. -1.
    10030    2    1    2    0    0  0.00000000000E+00  0.00000000000E+00  0.81432115687E+03  0.17085022370E+04  0.15019523785E+04 0.  0.
        2    1    3    3  502    0  0.87155231541E+01 -0.48531060946E+03 -0.24467254046E+03  0.54356876296E+03  0.25500000920E-02 0. -1.
       -2    1    3    3    0  502 -0.87155231541E+01  0.48531060946E+03  0.10589936973E+04  0.11649334741E+04  0.25500000920E-02 0.  1.
</event>
<event>
 5   0  0.4768387E-04  0.1504461E+04  0.7818609E-02  0.8881492E-01
       -2   -1    0    0    0  501  0.00000000000E+00  0.00000000000E+00  0.34462446179E+03  0.34462446180E+03  0.25500000920E-02 0.  1.
        2   -1    0    0  501    0  0.00000000000E+00  0.00000000000E+00 -0.16419335065E+04  0.16419335065E+04  0.25500000920E-02 0. -1.
    10030    2    1    2    0    0  0.00000000000E+00  0.00000000000E+00 -0.12973090447E+04  0.19865579683E+04  0.15044606356E+04 0.  0.
        3    1    3    3  502    0  0.29319637496E+03  0.66905302752E+03 -0.88579992767E+03  0.11481452826E+04  0.10100000352E+00 0. -1.
       -3    1    3    3    0  502 -0.29319637496E+03 -0.66905302752E+03 -0.41150911702E+03  0.83841268568E+03  0.10100000352E+00 0.  1.
</event>
<event>
 5   0  0.4726600E-04  0.1507783E+04  0.7818609E-02  0.8879294E-01
       -2   -1    0    0    0  501  0.00000000000E+00  0.00000000000E+00  0.36633970027E+03  0.36633970028E+03  0.25500000920E-02 0.  1.
        2   -1    0    0  501    0  0.00000000000E+00  0.00000000000E+00 -0.15514345563E+04  0.15514345563E+04  0.25500000920E-02 0. -1.
    10030    2    1    2    0    0  0.00000000000E+00  0.00000000000E+00 -0.11850948560E+04  0.19177742566E+04  0.15077825710E+04 0.  0.
        2    1    3    3  502    0 -0.13886935560E+03 -0.12584044626E+03  0.33624076596E+03  0.38493943489E+03  0.25500000920E-02 0.  1.
       -2    1    3    3    0  502  0.13886935560E+03  0.12584044626E+03 -0.15213356220E+04  0.15328348217E+04  0.25500000920E-02 0. -1.
</event>
<event>
 5   0  0.4768387E-04  0.1498409E+04  0.7818609E-02  0.8885512E-01
        2   -1    0    0  501    0  0.00000000000E+00  0.00000000000E+00  0.62001304010E+03  0.62001304010E+03  0.25500000920E-02 0. -1.
       -2   -1    0    0    0  501  0.00000000000E+00  0.00000000000E+00 -0.90531520392E+03  0.90531520392E+03  0.25500000920E-02 0.  1.
    10030    2    1    2    0    0  0.00000000000E+00  0.00000000000E+00 -0.28530216382E+03  0.15253282440E+04  0.14984087985E+04 0.  0.
        3    1    3    3  502    0  0.63848031585E+03 -0.38972489750E+03 -0.99889118965E+02  0.75466579077E+03  0.10100000352E+00 0.  1.
       -3    1    3    3    0  502 -0.63848031585E+03  0.38972489750E+03 -0.18541304486E+03  0.77066245326E+03  0.10100000352E+00 0. -1.
</event>
<event>
 5   0  0.4768387E-04  0.1491389E+04  0.7818609E-02  0.8890200E-01
        2   -1    0    0  501    0  0.00000000000E+00  0.00000000000E+00  0.54978792416E+03  0.54978792417E+03  0.25500000920E-02 0.  1.
       -2   -1    0    0    0  501  0.00000000000E+00  0.00000000000E+00 -0.10114082689E+04  0.10114082689E+04  0.25500000920E-02 0. -1.
    10030    2    1    2    0    0  0.00000000000E+00  0.00000000000E+00 -0.46162034474E+03  0.15611961931E+04  0.14913886853E+04 0.  0.
        3    1    3    3  502    0 -0.30289581314E+03 -0.37576732638E+03  0.36422674728E+03  0.60465534879E+03  0.10100000352E+00 0.  1.
       -3    1    3    3    0  502  0.30289581314E+03  0.37576732638E+03 -0.82584709202E+03  0.95654084429E+03  0.10100000352E+00 0. -1.
</event>
<event>
 5   0  0.4785496E-04  0.1423322E+04  0.7818609E-02  0.8937108E-01
       -2   -1    0    0    0  501  0.00000000000E+00  0.00000000000E+00  0.97641096126E+03  0.97641096126E+03  0.25500000920E-02 0. -1.
        2   -1    0    0  501    0  0.00000000000E+00  0.00000000000E+00 -0.51869687625E+03  0.51869687626E+03  0.25500000920E-02 0.  1.
    10030    2    1    2    0    0  0.00000000000E+00  0.00000000000E+00  0.45771408501E+03  0.14951078375E+04  0.14233219110E+04 0.  0.
        4    1    3    3  502    0 -0.62864436966E+03  0.91067069312E+02 -0.10822105536E+03  0.64436043046E+03  0.12699999809E+01 0.  1.
       -4    1    3    3    0  502  0.62864436966E+03 -0.91067069312E+02  0.56593514037E+03  0.85074740706E+03  0.12699999809E+01 0. -1.
</event>
<event>
 5   0  0.2605471E-04  0.1528553E+04  0.7818609E-02  0.8865684E-01
        1   -1    0    0  501    0  0.00000000000E+00  0.00000000000E+00  0.10632285765E+04  0.10632285765E+04  0.50400001928E-02 0.  1.
       -1   -1    0    0    0  501  0.00000000000E+00  0.00000000000E+00 -0.54938199999E+03  0.54938200002E+03  0.50400001928E-02 0. -1.
    10030    2    1    2    0    0  0.00000000000E+00  0.00000000000E+00  0.51384657647E+03  0.16126105765E+04  0.15285530960E+04 0.  0.
        3    1    3    3  502    0 -0.64139563134E+03  0.17311546379E+03 -0.14169226489E+03  0.67928935502E+03  0.10100000352E+00 0. -1.
       -3    1    3    3    0  502  0.64139563134E+03 -0.17311546379E+03  0.65553884136E+03  0.93332122147E+03  0.10100000352E+00 0.  1.
</event>
<event>
 5   0  0.2603873E-04  0.1501891E+04  0.7818609E-02  0.8883196E-01
        1   -1    0    0  501    0  0.00000000000E+00  0.00000000000E+00  0.28223297302E+03  0.28223297307E+03  0.50400001928E-02 0. -1.
       -1   -1    0    0    0  501  0.00000000000E+00  0.00000000000E+00 -0.19980636596E+04  0.19980636596E+04  0.50400001928E-02 0.  1.
    10030    2    1    2    0    0  0.00000000000E+00  0.00000000000E+00 -0.17158306866E+04  0.22802966327E+04  0.15018914035E+04 0.  0.
        2    1    3    3  502    0  0.10656944058E+03 -0.22273788646E+03  0.21883575209E+03  0.32993680930E+03  0.25500000920E-02 0. -1.
       -2    1    3    3    0  502 -0.10656944058E+03  0.22273788646E+03 -0.19346664387E+04  0.19503598234E+04  0.25500000920E-02 0.  1.
</event>
<event>
 5   0  0.2603873E-04  0.1492346E+04  0.7818609E-02  0.8889559E-01
       -1   -1    0    0    0  501  0.00000000000E+00  0.00000000000E+00  0.55604821810E+03  0.55604821812E+03  0.50400001928E-02 0.  1.
        1   -1    0    0  501    0  0.00000000000E+00  0.00000000000E+00 -0.10013058732E+04  0.10013058732E+04  0.50400001928E-02 0. -1.
    10030    2    1    2    0    0  0.00000000000E+00  0.00000000000E+00 -0.44525765514E+03  0.15573540914E+04  0.14923462689E+04 0.  0.
        2    1    3    3  502    0 -0.68277583392E+03  0.20495417063E+03 -0.45265125738E+03  0.84444195316E+03  0.25500000920E-02 0. -1.
       -2    1    3    3    0  502  0.68277583392E+03 -0.20495417063E+03  0.73936022375E+01  0.71291213821E+03  0.25500000920E-02 0.  1.
</event>
<event>
 5   0  0.2605471E-04  0.1499953E+04  0.7818609E-02  0.8884484E-01
       -1   -1    0    0    0  501  0.00000000000E+00  0.00000000000E+00  0.41717200411E+03  0.41717200414E+03  0.50400001928E-02 0.  1.
        1   -1    0    0  501    0  0.00000000000E+00  0.00000000000E+00 -0.13482799037E+04  0.13482799037E+04  0.50400001928E-02 0. -1.
    10030    2    1    2    0    0  0.00000000000E+00  0.00000000000E+00 -0.93110789961E+03  0.17654519079E+04  0.14999528387E+04 0.  0.
        3    1    3    3  502    0  0.42981925831E+03 -0.53159691371E+03 -0.10253855576E+03  0.69126987429E+03  0.10100000352E+00 0.  1.
       -3    1    3    3    0  502 -0.42981925831E+03  0.53159691371E+03 -0.82856934385E+03  0.10741820336E+04  0.10100000352E+00 0. -1.
</event>
<event>
 5   0  0.4948645E-04  0.1498738E+04  0.7818609E-02  0.8885292E-01
        2   -1    0    0  501    0  0.00000000000E+00  0.00000000000E+00  0.12093543489E+04  0.12093543489E+04  0.25500000920E-02 0.  1.
       -2   -1    0    0    0  501  0.00000000000E+00  0.00000000000E+00 -0.46434214467E+03  0.46434214468E+03  0.25500000920E-02 0. -1.
    10030    2    1    2    0    0  0.00000000000E+00  0.00000000000E+00  0.74501220423E+03  0.16736964936E+04  0.14987383922E+04 0.  0.
        1    1    3    3  502    0 -0.36428845693E+03  0.54706083941E+03 -0.29476610897E+02  0.65791375763E+03  0.50400001928E-02 0. -1.
       -1    1    3    3    0  502  0.36428845693E+03 -0.54706083941E+03  0.77448881512E+03  0.10157827359E+04  0.50400001928E-02 0.  1.
</event>
<event>
 5   0  0.2605471E-04  0.1502788E+04  0.7818609E-02  0.8882601E-01
        1   -1    0    0  501    0  0.00000000000E+00  0.00000000000E+00  0.15159482843E+04  0.15159482843E+04  0.50400001928E-02 0.  1.
       -1   -1    0    0    0  501  0.00000000000E+00  0.00000000000E+00 -0.37243544610E+03  0.37243544614E+03  0.50400001928E-02 0. -1.
    10030    2    1    2    0    0  0.00000000000E+00  0.00000000000E+00  0.11435128382E+04  0.18883837304E+04  0.15027879099E+04 0.  0.
        3    1    3    3  502    0 -0.36689875097E+03  0.41653427966E+03  0.12081372360E+04  0.13295529666E+04  0.10100000352E+00 0.  1.
       -3    1    3    3    0  502  0.36689875097E+03 -0.41653427966E+03 -0.64624397892E+02  0.55883076383E+03  0.10100000352E+00 0. -1.
</event>
<event>
 5   0  0.4768387E-04  0.1500680E+04  0.7818609E-02  0.8884001E-01
        2   -1    0    0  501    0  0.00000000000E+00  0.00000000000E+00  0.14132357609E+04  0.14132357609E+04  0.25500000920E-02 0.  1.
       -2   -1    0    0    0  501  0.00000000000E+00  0.00000000000E+00 -0.39838385714E+03  0.39838385715E+03  0.25500000920E-02 0. -1.
    10030    2    1    2    0    0  0.00000000000E+00  0.00000000000E+00  0.10148519038E+04  0.18116196180E+04  0.15006802637E+04 0.  0.
        3    1    3    3  502    0 -0.10833003934E+03  0.13066906996E+03  0.13897558367E+04  0.14000825330E+04  0.10100000352E+00 0.  1.
       -3    1    3    3    0  502  0.10833003934E+03 -0.13066906996E+03 -0.37490393294E+03  0.41153708509E+03  0.10100000352E+00 0. -1.
</event>
<event>
 5   0  0.2542737E-04  0.1497894E+04  0.7818609E-02  0.8885854E-01
       -1   -1    0    0    0  501  0.00000000000E+00  0.00000000000E+00  0.54707728977E+03  0.54707728980E+03  0.50400001928E-02 0.  1.
        1   -1    0    0  501    0  0.00000000000E+00  0.00000000000E+00 -0.10253066139E+04  0.10253066140E+04  0.50400001928E-02 0. -1.
    10030    2    1    2    0    0  0.00000000000E+00  0.00000000000E+00 -0.47822932417E+03  0.15723839038E+04  0.14978944737E+04 0.  0.
        1    1    3    3  502    0 -0.26364800297E+03 -0.69508153282E+03 -0.33459594558E+03  0.81523190171E+03  0.50400001928E-02 0.  1.
       -1    1    3    3    0  502  0.26364800297E+03  0.69508153282E+03 -0.14363337859E+03  0.75715200205E+03  0.50400001928E-02 0. -1.
</event>
<event>
 5   0  0.4785496E-04  0.1391299E+04  0.7818609E-02  0.8960141E-01
       -2   -1    0    0    0  501  0.00000000000E+00  0.00000000000E+00  0.25547653623E+03  0.25547653624E+03  0.25500000920E-02 0. -1.
        2   -1    0    0  501    0  0.00000000000E+00  0.00000000000E+00 -0.18942190739E+04  0.18942190739E+04  0.25500000920E-02 0.  1.
    10030    2    1    2    0    0  0.00000000000E+00  0.00000000000E+00 -0.16387425377E+04  0.21496956102E+04  0.13912994327E+04 0.  0.
        4    1    3    3  502    0 -0.68558697629E+03 -0.67199938012E+02 -0.66971518253E+03  0.96076291161E+03  0.12699999809E+01 0. -1.
       -4    1    3    3    0  502  0.68558697629E+03  0.67199938012E+02 -0.96902735516E+03  0.11889326985E+04  0.12699999809E+01 0.  1.
</event>
<event>
 5   0  0.4785496E-04  0.1493138E+04  0.7818609E-02  0.8889029E-01
       -2   -1    0    0    0  501  0.00000000000E+00  0.00000000000E+00  0.28964382244E+03  0.28964382245E+03  0.25500000920E-02 0.  1.
        2   -1    0    0  501    0  0.00000000000E+00  0.00000000000E+00 -0.19243115771E+04  0.19243115771E+04  0.25500000920E-02 0. -1.
    10030    2    1    2    0    0  0.00000000000E+00  0.00000000000E+00 -0.16346677547E+04  0.22139553995E+04  0.14931375834E+04 0.  0.
        4    1    3    3  502    0  0.56475866334E+03  0.34315807716E+02 -0.15395330397E+04  0.16402114241E+04  0.12699999809E+01 0. -1.
       -4    1    3    3    0  502 -0.56475866334E+03 -0.34315807716E+02 -0.95134714949E+02  0.57374397545E+03  0.12699999809E+01 0.  1.
</event>
<event>
 5   0  0.2565416E-04  0.1505908E+04  0.7818609E-02  0.8880533E-01
       -1   -1    0    0    0  501  0.00000000000E+00  0.00000000000E+00  0.67012586005E+03  0.67012586007E+03  0.50400001928E-02 0. -1.
        1   -1    0    0  501    0  0.00000000000E+00  0.00000000000E+00 -0.84602032005E+03  0.84602032007E+03  0.50400001928E-02 0.  1.
    10030    2    1    2    0    0  0.00000000000E+00  0.00000000000E+00 -0.17589446000E+03  0.15161461801E+04  0.15059084894E+04 0.  0.
        5    1    3    3  502    0  0.30211564288E+03  0.22397183699E+03  0.56877611877E+03  0.68188386747E+03  0.46999998093E+01 0. -1.
       -5    1    3    3    0  502 -0.30211564288E+03 -0.22397183699E+03 -0.74467057877E+03  0.83426231266E+03  0.46999998093E+01 0.  1.
</event>
<event>
 5   0  0.2605471E-04  0.1488059E+04  0.7818609E-02  0.8892433E-01
        1   -1    0    0  501    0  0.00000000000E+00  0.00000000000E+00  0.51415993185E+03  0.51415993187E+03  0.50400001928E-02 0.  1.
       -1   -1    0    0    0  501  0.00000000000E+00  0.00000000000E+00 -0.10766681335E+04  0.10766681335E+04  0.50400001928E-02 0. -1.
    10030    2    1    2    0    0  0.00000000000E+00  0.00000000000E+00 -0.56250820163E+03  0.15908280654E+04  0.14880586200E+04 0.  0.
        3    1    3    3  502    0 -0.29067779931E+03 -0.65291930543E+02  0.44761074107E+03  0.53769136587E+03  0.10100000352E+00 0.  1.
       -3    1    3    3    0  502  0.29067779931E+03  0.65291930543E+02 -0.10101189427E+04  0.10531366995E+04  0.10100000352E+00 0. -1.
</event>
<event>
 5   0  0.2603873E-04  0.1512677E+04  0.7818609E-02  0.8876066E-01
        1   -1    0    0  501    0  0.00000000000E+00  0.00000000000E+00  0.22148128335E+04  0.22148128335E+04  0.50400001928E-02 0. -1.
       -1   -1    0    0    0  501  0.00000000000E+00  0.00000000000E+00 -0.25828272984E+03  0.25828272989E+03  0.50400001928E-02 0.  1.
    10030    2    1    2    0    0  0.00000000000E+00  0.00000000000E+00  0.19565301037E+04  0.24730955634E+04  0.15126769712E+04 0.  0.
        2    1    3    3  502    0  0.33513756827E+03  0.29493368621E+03  0.19764258761E+04  0.20262187228E+04  0.25500000920E-02 0. -1.
       -2    1    3    3    0  502 -0.33513756827E+03 -0.29493368621E+03 -0.19895772397E+02  0.44687684063E+03  0.25500000920E-02 0.  1.
</event>
<event>
 5   0  0.4785496E-04  0.1501121E+04  0.7818609E-02  0.8883708E-01
       -2   -1    0    0    0  501  0.00000000000E+00  0.00000000000E+00  0.18011540577E+03  0.18011540579E+03  0.25500000920E-02 0.  1.
        2   -1    0    0  501    0  0.00000000000E+00  0.00000000000E+00 -0.31276681233E+04  0.31276681233E+04  0.25500000920E-02 0. -1.
    10030    2    1    2    0    0  0.00000000000E+00  0.00000000000E+00 -0.29475527176E+04  0.33077835291E+04  0.15011211985E+04 0.  0.
        4    1    3    3  502    0 -0.13562575387E+03  0.49109688382E+03 -0.25928865041E+03  0.57166660873E+03  0.12699999809E+01 0.  1.
       -4    1    3    3    0  502  0.13562575387E+03 -0.49109688382E+03 -0.26882640672E+04  0.27361169204E+04  0.12699999809E+01 0. -1.
</event>
<event>
 5   0  0.2605471E-04  0.1515253E+04  0.7818609E-02  0.8874373E-01
        1   -1    0    0  501    0  0.00000000000E+00  0.00000000000E+00  0.78953191351E+03  0.78953191353E+03  0.50400001928E-02 0. -1.
       -1   -1    0    0    0  501  0.00000000000E+00  0.00000000000E+00 -0.72700993782E+03  0.72700993783E+03  0.50400001928E-02 0.  1.
    10030    2    1    2    0    0  0.00000000000E+00  0.00000000000E+00  0.62521975697E+02  0.15165418514E+04  0.15152525167E+04 0.  0.
        3    1    3    3  502    0  0.17756140075E+03  0.27252035832E+03  0.71609620138E+03  0.78650440340E+03  0.10100000352E+00 0. -1.
       -3    1    3    3    0  502 -0.17756140075E+03 -0.27252035832E+03 -0.65357422569E+03  0.73003744796E+03  0.10100000352E+00 0.  1.
</event>
<event>
 5   0  0.4726600E-04  0.1497669E+04  0.7818609E-02  0.8886005E-01
       -2   -1    0    0    0  501  0.00000000000E+00  0.00000000000E+00  0.92632160972E+03  0.92632160973E+03  0.25500000920E-02 0.  1.
        2   -1    0    0  501    0  0.00000000000E+00  0.00000000000E+00 -0.60535450328E+03  0.60535450328E+03  0.25500000920E-02 0. -1.
    10030    2    1    2    0    0  0.00000000000E+00  0.00000000000E+00  0.32096710644E+03  0.15316761130E+04  0.14976687991E+04 0.  0.
        2    1    3    3  502    0 -0.37915038270E+03 -0.54279559200E+03 -0.19727515810E+03  0.69086869621E+03  0.25500000920E-02 0. -1.
       -2    1    3    3    0  502  0.37915038270E+03  0.54279559200E+03  0.51824226454E+03  0.84080741680E+03  0.25500000920E-02 0.  1.
</event>
<event>
 5   0  0.4785496E-04  0.1493783E+04  0.7818609E-02  0.8888597E-01
       -2   -1    0    0    0  501  0.00000000000E+00  0.00000000000E+00  0.35387930264E+03  0.35387930265E+03  0.25500000920E-02 0.  1.
        2   -1    0    0  501    0  0.00000000000E+00  0.00000000000E+00 -0.15763772287E+04  0.15763772287E+04  0.25500000920E-02 0. -1.
    10030    2    1    2    0    0  0.00000000000E+00  0.00000000000E+00 -0.12224979261E+04  0.19302565314E+04  0.14937834842E+04 0.  0.
        4    1    3    3  502    0 -0.47007849779E+03  0.48770966281E+03 -0.10178508919E+04  0.12226432678E+04  0.12699999809E+01 0.  1.
       -4    1    3    3    0  502  0.47007849779E+03 -0.48770966281E+03 -0.20464703420E+03  0.70761326357E+03  0.12699999809E+01 0. -1.
</event>
<event>
 5   0  0.2565416E-04  0.1500229E+04  0.7818609E-02  0.8884301E-01
        1   -1    0    0  501    0  0.00000000000E+00  0.00000000000E+00  0.14040904123E+04  0.14040904123E+04  0.50400001928E-02 0.  1.
       -1   -1    0    0    0  501  0.00000000000E+00  0.00000000000E+00 -0.40073759083E+03  0.40073759087E+03  0.50400001928E-02 0. -1.
    10030    2    1    2    0    0  0.00000000000E+00  0.00000000000E+00  0.10033528215E+04  0.18048280032E+04  0.15002290614E+04 0.  0.
        5    1    3    3  502    0  0.24972591915E+03  0.31360651139E+03 -0.26103033242E+03  0.47840464372E+03  0.46999998093E+01 0. -1.
       -5    1    3    3    0  502 -0.24972591915E+03 -0.31360651139E+03  0.12643831539E+04  0.13264233595E+04  0.46999998093E+01 0.  1.
</event>
<event>
 5   0  0.1792000E-04  0.1524655E+04  0.7818609E-02  0.8868222E-01
        4   -1    0    0  501    0  0.00000000000E+00  0.00000000000E+00  0.56951502965E+03  0.56951644568E+03  0.12699999809E+01 0. -1.
       -4   -1    0    0    0  501  0.00000000000E+00  0.00000000000E+00 -0.10204139556E+04  0.10204147459E+04  0.12699999809E+01 0.  1.
    10030    2    1    2    0    0  0.00000000000E+00  0.00000000000E+00 -0.45089892597E+03  0.15899311916E+04  0.15246545027E+04 0.  0.
        1    1    3    3  502    0  0.62125624102E+02 -0.90630253704E+02  0.56121495404E+03  0.57187031810E+03  0.50400001928E-02 0. -1.
       -1    1    3    3    0  502 -0.62125624102E+02  0.90630253704E+02 -0.10121138800E+04  0.10180608735E+04  0.50400001928E-02 0.  1.
</event>
<event>
 5   0  0.4726600E-04  0.1489260E+04  0.7818609E-02  0.8891626E-01
       -2   -1    0    0    0  501  0.00000000000E+00  0.00000000000E+00  0.42189794058E+03  0.42189794059E+03  0.25500000920E-02 0. -1.
        2   -1    0    0  501    0  0.00000000000E+00  0.00000000000E+00 -0.13142377166E+04  0.13142377166E+04  0.25500000920E-02 0.  1.
    10030    2    1    2    0    0  0.00000000000E+00  0.00000000000E+00 -0.89233977603E+03  0.17361356572E+04  0.14892604689E+04 0.  0.
        2    1    3    3  502    0  0.10520936165E+02  0.65705751216E+03 -0.85442079361E+03  0.10779008103E+04  0.25500000920E-02 0.  1.
       -2    1    3    3    0  502 -0.10520936165E+02 -0.65705751216E+03 -0.37918982415E+02  0.65823484685E+03  0.25500000920E-02 0. -1.
</event>
<event>
 5   0  0.4768387E-04  0.1521822E+04  0.7818609E-02  0.8870070E-01
       -2   -1    0    0    0  501  0.00000000000E+00  0.00000000000E+00  0.11625396473E+04  0.11625396473E+04  0.25500000920E-02 0.  1.
        2   -1    0    0  501    0  0.00000000000E+00  0.00000000000E+00 -0.49803505139E+03  0.49803505139E+03  0.25500000920E-02 0. -1.
    10030    2    1    2    0    0  0.00000000000E+00  0.00000000000E+00  0.66450459595E+03  0.16605746987E+04  0.15218219252E+04 0.  0.
        3    1    3    3  502    0 -0.61956625735E+03  0.97475230036E+02 -0.13786796487E+03  0.64216147009E+03  0.10100000352E+00 0. -1.
       -3    1    3    3    0  502  0.61956625735E+03 -0.97475230036E+02  0.80237256082E+03  0.10184132286E+04  0.10100000352E+00 0.  1.
</event>
<event>
 5   0  0.4569211E-04  0.1494919E+04  0.7818609E-02  0.8887839E-01
       -2   -1    0    0    0  501  0.00000000000E+00  0.00000000000E+00  0.97894050005E+03  0.97894050006E+03  0.25500000920E-02 0. -1.
        2   -1    0    0  501    0  0.00000000000E+00  0.00000000000E+00 -0.57071496049E+03  0.57071496050E+03  0.25500000920E-02 0.  1.
    10030    2    1    2    0    0  0.00000000000E+00  0.00000000000E+00  0.40822553956E+03  0.15496554606E+04  0.14949193809E+04 0.  0.
        5    1    3    3  502    0 -0.27057006370E+03  0.69073331642E+03  0.10937035072E+03  0.74986974696E+03  0.46999998093E+01 0. -1.
       -5    1    3    3    0  502  0.27057006370E+03 -0.69073331642E+03  0.29885518884E+03  0.79978571360E+03  0.46999998093E+01 0.  1.
</event>
<event>
 5   0  0.2603873E-04  0.1497616E+04  0.7818609E-02  0.8886040E-01
       -1   -1    0    0    0  501  0.00000000000E+00  0.00000000000E+00  0.47968853165E+03  0.47968853168E+03  0.50400001928E-02 0.  1.
        1   -1    0    0  501    0  0.00000000000E+00  0.00000000000E+00 -0.11689120607E+04  0.11689120607E+04  0.50400001928E-02 0. -1.
    10030    2    1    2    0    0  0.00000000000E+00  0.00000000000E+00 -0.68922352902E+03  0.16486005924E+04  0.14976163862E+04 0.  0.
        2    1    3    3  502    0  0.65307338346E+03 -0.33996410631E+03 -0.49487731730E+03  0.88712118504E+03  0.25500000920E-02 0. -1.
       -2    1    3    3    0  502 -0.65307338346E+03  0.33996410631E+03 -0.19434621172E+03  0.76147940733E+03  0.25500000920E-02 0.  1.
</event>
<event>
 5   0  0.4726600E-04  0.1544423E+04  0.7818609E-02  0.8855438E-01
        2   -1    0    0  501    0  0.00000000000E+00  0.00000000000E+00  0.80755019918E+03  0.80755019919E+03  0.25500000920E-02 0. -1.
       -2   -1    0    0    0  501  0.00000000000E+00  0.00000000000E+00 -0.73841898659E+03  0.73841898660E+03  0.25500000920E-02 0.  1.
    10030    2    1    2    0    0  0.00000000000E+00  0.00000000000E+00  0.69131212589E+02  0.15459691858E+04  0.15444227397E+04 0.  0.
        2    1    3    3  502    0  0.89160607884E+02  0.33660259727E+03 -0.65537012784E+03  0.74213268824E+03  0.25500000920E-02 0.  1.
       -2    1    3    3    0  502 -0.89160607884E+02 -0.33660259727E+03  0.72450134043E+03  0.80383649754E+03  0.25500000920E-02 0. -1.
</event>
<event>
 5   0  0.2603873E-04  0.1503182E+04  0.7818609E-02  0.8882340E-01
        1   -1    0    0  501    0  0.00000000000E+00  0.00000000000E+00  0.10772335079E+04  0.10772335079E+04  0.50400001928E-02 0.  1.
       -1   -1    0    0    0  501  0.00000000000E+00  0.00000000000E+00 -0.52438882808E+03  0.52438882811E+03  0.50400001928E-02 0. -1.
    10030    2    1    2    0    0  0.00000000000E+00  0.00000000000E+00  0.55284467979E+03  0.16016223360E+04  0.15031822468E+04 0.  0.
        2    1    3    3  502    0 -0.65477078182E+03 -0.34135912199E+03  0.42573664518E+03  0.85235117055E+03  0.25500000920E-02 0.  1.
       -2    1    3    3    0  502  0.65477078182E+03  0.34135912199E+03  0.12710803461E+03  0.74927116544E+03  0.25500000920E-02 0. -1.
</event>
<event>
 5   0  0.4569211E-04  0.1481538E+04  0.7818609E-02  0.8896824E-01
       -2   -1    0    0    0  501  0.00000000000E+00  0.00000000000E+00  0.52510590122E+03  0.52510590122E+03  0.25500000920E-02 0. -1.
        2   -1    0    0  501    0  0.00000000000E+00  0.00000000000E+00 -0.10450051491E+04  0.10450051491E+04  0.25500000920E-02 0.  1.
    10030    2    1    2    0    0  0.00000000000E+00  0.00000000000E+00 -0.51989924786E+03  0.15701110503E+04  0.14815375400E+04 0.  0.
        5    1    3    3  502    0 -0.66255101981E+03 -0.15046223400E+03 -0.57272720729E+03  0.88862325069E+03  0.46999998093E+01 0. -1.
       -5    1    3    3    0  502  0.66255101981E+03  0.15046223400E+03  0.52827959433E+02  0.68148779960E+03  0.46999998093E+01 0.  1.
</event>
<event>
 5   0  0.2544374E-04  0.1495642E+04  0.7818609E-02  0.8887356E-01
       -1   -1    0    0    0  501  0.00000000000E+00  0.00000000000E+00  0.18046962055E+04  0.18046962055E+04  0.50400001928E-02 0. -1.
        1   -1    0    0  501    0  0.00000000000E+00  0.00000000000E+00 -0.30987851843E+03  0.30987851847E+03  0.50400001928E-02 0.  1.
    10030    2    1    2    0    0  0.00000000000E+00  0.00000000000E+00  0.14948176871E+04  0.21145747240E+04  0.14956424525E+04 0.  0.
        4    1    3    3  502    0 -0.56937778100E+03 -0.11438720979E+03  0.14134976026E+04  0.15281533223E+04  0.12699999809E+01 0. -1.
       -4    1    3    3    0  502  0.56937778100E+03  0.11438720979E+03  0.81320084534E+02  0.58642140165E+03  0.12699999809E+01 0.  1.
</event>
<event>
 5   0  0.2603873E-04  0.1497731E+04  0.7818609E-02  0.8885963E-01
        1   -1    0    0  501    0  0.00000000000E+00  0.00000000000E+00  0.18340172564E+04  0.18340172564E+04  0.50400001928E-02 0.  1.
       -1   -1    0    0    0  501  0.00000000000E+00  0.00000000000E+00 -0.30577675542E+03  0.30577675546E+03  0.50400001928E-02 0. -1.
    10030    2    1    2    0    0  0.00000000000E+00  0.00000000000E+00  0.15282405010E+04  0.21397940119E+04  0.14977314126E+04 0.  0.
        2    1    3    3  502    0 -0.30923028485E+03 -0.48290891000E+03  0.76008374804E+02  0.57844762726E+03  0.25500000920E-02 0. -1.
       -2    1    3    3    0  502  0.30923028485E+03  0.48290891000E+03  0.14522321262E+04  0.15613463846E+04  0.25500000920E-02 0.  1.
</event>
<event>
 5   0  0.2542737E-04  0.1500719E+04  0.7818609E-02  0.8883975E-01
        1   -1    0    0  501    0  0.00000000000E+00  0.00000000000E+00  0.57730908046E+03  0.57730908049E+03  0.50400001928E-02 0. -1.
       -1   -1    0    0    0  501  0.00000000000E+00  0.00000000000E+00 -0.97528213212E+03  0.97528213213E+03  0.50400001928E-02 0.  1.
    10030    2    1    2    0    0  0.00000000000E+00  0.00000000000E+00 -0.39797305166E+03  0.15525912126E+04  0.15007188023E+04 0.  0.
        1    1    3    3  502    0  0.34938713263E+03 -0.12866191652E+03 -0.87297525991E+03  0.94905798645E+03  0.50400001928E-02 0.  1.
       -1    1    3    3    0  502 -0.34938713263E+03  0.12866191652E+03  0.47500220825E+03  0.60353322616E+03  0.50400001928E-02 0. -1.
</event>
<event>
 5   0  0.4569211E-04  0.1494703E+04  0.7818609E-02  0.8887983E-01
        2   -1    0    0  501    0  0.00000000000E+00  0.00000000000E+00  0.12604399635E+04  0.12604399635E+04  0.25500000920E-02 0. -1.
       -2   -1    0    0    0  501  0.00000000000E+00  0.00000000000E+00 -0.44312656679E+03  0.44312656680E+03  0.25500000920E-02 0.  1.
    10030    2    1    2    0    0  0.00000000000E+00  0.00000000000E+00  0.81731339674E+03  0.17035665303E+04  0.14947032263E+04 0.  0.
        5    1    3    3  502    0  0.57625180679E+03  0.44760964063E+03  0.22455566847E+03  0.76345784000E+03  0.46999998093E+01 0.  1.
       -5    1    3    3    0  502 -0.57625180679E+03 -0.44760964063E+03  0.59275772827E+03  0.94010869033E+03  0.46999998093E+01 0. -1.
</event>
<event>
 5   0  0.2565416E-04  0.1503184E+04  0.7818609E-02  0.8882338E-01
        1   -1    0    0  501    0  0.00000000000E+00  0.00000000000E+00  0.83200449160E+03  0.83200449161E+03  0.50400001928E-02 0.  1.
       -1   -1    0    0    0  501  0.00000000000E+00  0.00000000000E+00 -0.67895157433E+03  0.67895157435E+03  0.50400001928E-02 0. -1.
    10030    2    1    2    0    0  0.00000000000E+00  0.00000000000E+00  0.15305291727E+03  0.15109560660E+04  0.15031842993E+04 0.  0.
        5    1    3    3  502    0  0.33252029230E+03 -0.62798391899E+03 -0.16955579926E+03  0.73055102927E+03  0.46999998093E+01 0. -1.
       -5    1    3    3    0  502 -0.33252029230E+03  0.62798391899E+03  0.32260871654E+03  0.78040503669E+03  0.46999998093E+01 0.  1.
</event>
<event>
 5   0  0.2605471E-04  0.1489928E+04  0.7818609E-02  0.8891178E-01
       -1   -1    0    0    0  501  0.00000000000E+00  0.00000000000E+00  0.63152739477E+03  0.63152739479E+03  0.50400001928E-02 0. -1.
        1   -1    0    0  501    0  0.00000000000E+00  0.00000000000E+00 -0.87877664245E+03  0.87877664247E+03  0.50400001928E-02 0.  1.
    10030    2    1    2    0    0  0.00000000000E+00  0.00000000000E+00 -0.24724924768E+03  0.15103040373E+04  0.14899282179E+04 0.  0.
        3    1    3    3  502    0  0.13515451061E+03  0.55890061658E+03 -0.60374200941E+03  0.83375120095E+03  0.10100000352E+00 0.  1.
       -3    1    3    3    0  502 -0.13515451061E+03 -0.55890061658E+03  0.35649276173E+03  0.67655283631E+03  0.10100000352E+00 0. -1.
</event>
<event>
 5   0  0.4948645E-04  0.1503693E+04  0.7818609E-02  0.8882001E-01
        2   -1    0    0  501    0  0.00000000000E+00  0.00000000000E+00  0.14808553121E+04  0.14808553121E+04  0.25500000920E-02 0.  1.
       -2   -1    0    0    0  501  0.00000000000E+00  0.00000000000E+00 -0.38172072038E+03  0.38172072038E+03  0.25500000920E-02 0. -1.
    10030    2    1    2    0    0  0.00000000000E+00  0.00000000000E+00  0.10991345917E+04  0.18625760324E+04  0.15036929959E+04 0.  0.
        1    1    3    3  502    0  0.33029589290E+03 -0.14997847387E+03  0.13652883127E+04  0.14126574590E+04  0.50400001928E-02 0.  1.
       -1    1    3    3    0  502 -0.33029589290E+03  0.14997847387E+03 -0.26615372106E+03  0.44991857346E+03  0.50400001928E-02 0. -1.
</event>
<event>
 5   0  0.2542737E-04  0.1483368E+04  0.7818609E-02  0.8895589E-01
        1   -1    0    0  501    0  0.00000000000E+00  0.00000000000E+00  0.20196829791E+04  0.20196829791E+04  0.50400001928E-02 0. -1.
       -1   -1    0    0    0  501  0.00000000000E+00  0.00000000000E+00 -0.27236698451E+03  0.27236698456E+03  0.50400001928E-02 0.  1.
    10030    2    1    2    0    0  0.00000000000E+00  0.00000000000E+00  0.17473159946E+04  0.22920499637E+04  0.14833677396E+04 0.  0.
        1    1    3    3  502    0 -0.13297891395E+03 -0.44784096320E+03 -0.16457146248E+02  0.46745669057E+03  0.50400001928E-02 0. -1.
       -1    1    3    3    0  502  0.13297891395E+03  0.44784096320E+03  0.17637731408E+04  0.18245932731E+04  0.50400001928E-02 0.  1.
</event>
<event>
 5   0  0.4768387E-04  0.1507781E+04  0.7818609E-02  0.8879295E-01
        2   -1    0    0  501    0  0.00000000000E+00  0.00000000000E+00  0.18361049582E+04  0.18361049582E+04  0.25500000920E-02 0.  1.
       -2   -1    0    0    0  501  0.00000000000E+00  0.00000000000E+00 -0.30954172793E+03  0.30954172794E+03  0.25500000920E-02 0. -1.
    10030    2    1    2    0    0  0.00000000000E+00  0.00000000000E+00  0.15265632303E+04  0.21456466862E+04  0.15077812858E+04 0.  0.
        3    1    3    3  502    0  0.58714816579E+01  0.72720048880E+03  0.10460929305E+04  0.12740351073E+04  0.10100000352E+00 0. -1.
       -3    1    3    3    0  502 -0.58714816579E+01 -0.72720048880E+03  0.48047029977E+03  0.87161157884E+03  0.10100000352E+00 0.  1.
</event>
<event>
 5   0  0.2542737E-04  0.1504496E+04  0.7818609E-02  0.8881468E-01
        1   -1    0    0  501    0  0.00000000000E+00  0.00000000000E+00  0.11689085782E+04  0.11689085782E+04  0.50400001928E-02 0.  1.
       -1   -1    0    0    0  501  0.00000000000E+00  0.00000000000E+00 -0.48410732456E+03  0.48410732459E+03  0.50400001928E-02 0. -1.
    10030    2    1    2    0    0  0.00000000000E+00  0.00000000000E+00  0.68480125366E+03  0.16530159028E+04  0.15044962007E+04 0.  0.
        1    1    3    3  502    0 -0.98486900643E+02 -0.10700505960E+03 -0.46851480957E+03  0.49056689573E+03  0.50400001928E-02 0. -1.
       -1    1    3    3    0  502  0.98486900643E+02  0.10700505960E+03  0.11533160632E+04  0.11624490071E+04  0.50400001928E-02 0.  1.
</event>
<event>
 5   0  0.2544374E-04  0.1513947E+04  0.7818609E-02  0.8875231E-01
       -1   -1    0    0    0  501  0.00000000000E+00  0.00000000000E+00  0.31316131598E+03  0.31316131602E+03  0.50400001928E-02 0.  1.
        1   -1    0    0  501    0  0.00000000000E+00  0.00000000000E+00 -0.18297563123E+04  0.18297563123E+04  0.50400001928E-02 0. -1.
    10030    2    1    2    0    0  0.00000000000E+00  0.00000000000E+00 -0.15165949963E+04  0.21429176283E+04  0.15139470199E+04 0.  0.
        4    1    3    3  502    0 -0.54276633405E+03 -0.50869884162E+03 -0.55994501364E+03  0.93107993000E+03  0.12699999809E+01 0. -1.
       -4    1    3    3    0  502  0.54276633405E+03  0.50869884162E+03 -0.95664998270E+03  0.12118376984E+04  0.12699999809E+01 0.  1.
</event>
<event>
 5   0  0.4948645E-04  0.1500402E+04  0.7818609E-02  0.8884186E-01
        2   -1    0    0  501    0  0.00000000000E+00  0.00000000000E+00  0.14764271782E+04  0.14764271782E+04  0.25500000920E-02 0.  1.
       -2   -1    0    0    0  501  0.00000000000E+00  0.00000000000E+00 -0.38119155188E+03  0.38119155189E+03  0.25500000920E-02 0. -1.
    10030    2    1    2    0    0  0.00000000000E+00  0.00000000000E+00  0.10952356263E+04  0.18576187300E+04  0.15004020358E+04 0.  0.
        1    1    3    3  502    0  0.43990543972E+02  0.68749845448E+03  0.91533459142E+03  0.11456119357E+04  0.50400001928E-02 0.  1.
       -1    1    3    3    0  502 -0.43990543972E+02 -0.68749845448E+03  0.17990103485E+03  0.71200679437E+03  0.50400001928E-02 0. -1.
</event>
<event>
 5   0  0.2542737E-04  0.1500453E+04  0.7818609E-02  0.8884152E-01
        1   -1    0    0  501    0  0.00000000000E+00  0.00000000000E+00  0.79236716517E+03  0.79236716519E+03  0.50400001928E-02 0. -1.
       -1   -1    0    0    0  501  0.00000000000E+00  0.00000000000E+00 -0.71032729044E+03  0.71032729045E+03  0.50400001928E-02 0.  1.
    10030    2    1    2    0    0  0.00000000000E+00  0.00000000000E+00  0.82039874737E+02  0.15026944556E+04  0.15004532935E+04 0.  0.
        1    1    3    3  502    0  0.10695733676E+03 -0.72551581949E+03 -0.11741542617E+03  0.74269742058E+03  0.50400001928E-02 0.  1.
       -1    1    3    3    0  502 -0.10695733676E+03  0.72551581949E+03  0.19945530091E+03  0.75999703506E+03  0.50400001928E-02 0. -1.
</event>
<event>
 5   0  0.2542737E-04  0.1517082E+04  0.7818609E-02  0.8873172E-01
       -1   -1    0    0    0  501  0.00000000000E+00  0.00000000000E+00  0.79126041938E+03  0.79126041940E+03  0.50400001928E-02 0. -1.
        1   -1    0    0  501    0  0.00000000000E+00  0.00000000000E+00 -0.72717489245E+03  0.72717489247E+03  0.50400001928E-02 0.  1.
    10030    2    1    2    0    0  0.00000000000E+00  0.00000000000E+00  0.64085526929E+02  0.15184353119E+04  0.15170823450E+04 0.  0.
        1    1    3    3  502    0  0.44125009931E+03 -0.67007118978E+02 -0.58185006084E+03  0.73330832360E+03  0.50400001928E-02 0.  1.
       -1    1    3    3    0  502 -0.44125009931E+03  0.67007118978E+02  0.64593558777E+03  0.78512698827E+03  0.50400001928E-02 0. -1.
</event>
<event>
 5   0  0.4768387E-04  0.1493008E+04  0.7818609E-02  0.8889116E-01
       -2   -1    0    0    0  501  0.00000000000E+00  0.00000000000E+00  0.46087147696E+03  0.46087147697E+03  0.25500000920E-02 0. -1.
        2   -1    0    0  501    0  0.00000000000E+00  0.00000000000E+00 -0.12091621798E+04  0.12091621798E+04  0.25500000920E-02 0.  1.
    10030    2    1    2    0    0  0.00000000000E+00  0.00000000000E+00 -0.74829070283E+03  0.16700336568E+04  0.14930081844E+04 0.  0.
        3    1    3    3  502    0  0.67880029487E+03 -0.11041083390E+03 -0.49359338562E+02  0.68949020810E+03  0.10100000352E+00 0. -1.
       -3    1    3    3    0  502 -0.67880029487E+03  0.11041083390E+03 -0.69893136426E+03  0.98054344866E+03  0.10100000352E+00 0.  1.
</event>
<event>
 5   0  0.4569211E-04  0.1515937E+04  0.7818609E-02  0.8873923E-01
        2   -1    0    0  501    0  0.00000000000E+00  0.00000000000E+00  0.13412879637E+04  0.13412879637E+04  0.25500000920E-02 0.  1.
       -2   -1    0    0    0  501  0.00000000000E+00  0.00000000000E+00 -0.42833200782E+03  0.42833200783E+03  0.25500000920E-02 0. -1.
    10030    2    1    2    0    0  0.00000000000E+00  0.00000000000E+00  0.91295595590E+03  0.17696199716E+04  0.15159374216E+04 0.  0.
        5    1    3    3  502    0 -0.17541926761E+03 -0.31607947306E+03  0.12341569804E+04  0.12860185438E+04  0.46999998093E+01 0.  1.
       -5    1    3    3    0  502  0.17541926761E+03  0.31607947306E+03 -0.32120102453E+03  0.48360142772E+03  0.46999998093E+01 0. -1.
</event>
<event>
 5   0  0.4726600E-04  0.1491519E+04  0.7818609E-02  0.8890112E-01
        2   -1    0    0  501    0  0.00000000000E+00  0.00000000000E+00  0.12583356820E+04  0.12583356820E+04  0.25500000920E-02 0.  1.
       -2   -1    0    0    0  501  0.00000000000E+00  0.00000000000E+00 -0.44197844736E+03  0.44197844736E+03  0.25500000920E-02 0. -1.
    10030    2    1    2    0    0  0.00000000000E+00  0.00000000000E+00  0.81635723461E+03  0.17003141293E+04  0.14915190257E+04 0.  0.
        2    1    3    3  502    0  0.31596845857E+03 -0.62821649950E+03  0.12509125139E+03  0.71424075649E+03  0.25500000920E-02 0. -1.
       -2    1    3    3    0  502 -0.31596845857E+03  0.62821649950E+03  0.69126598322E+03  0.98607337284E+03  0.25500000920E-02 0.  1.
</event>
<event>
 5   0  0.4726600E-04  0.1550774E+04  0.7818609E-02  0.8851373E-01
        2   -1    0    0  501    0  0.00000000000E+00  0.00000000000E+00  0.73065045237E+03  0.73065045238E+03  0.25500000920E-02 0. -1.
       -2   -1    0    0    0  501  0.00000000000E+00  0.00000000000E+00 -0.82286306324E+03  0.82286306324E+03  0.25500000920E-02 0.  1.
    10030    2    1    2    0    0  0.00000000000E+00  0.00000000000E+00 -0.92212610861E+02  0.15535135156E+04  0.15507743477E+04 0.  0.
        2    1    3    3  502    0 -0.27888481893E+03 -0.31508185477E+03  0.60632892078E+03  0.73802986228E+03  0.25500000920E-02 0. -1.
       -2    1    3    3    0  502  0.27888481893E+03  0.31508185477E+03 -0.69854153164E+03  0.81548365334E+03  0.25500000920E-02 0.  1.
</event>
<event>
 5   0  0.4768387E-04  0.1503844E+04  0.7818609E-02  0.8881900E-01
       -2   -1    0    0    0  501  0.00000000000E+00  0.00000000000E+00  0.16843884859E+04  0.16843884859E+04  0.25500000920E-02 0.  1.
        2   -1    0    0  501    0  0.00000000000E+00  0.00000000000E+00 -0.33566308903E+03  0.33566308904E+03  0.25500000920E-02 0. -1.
    10030    2    1    2    0    0  0.00000000000E+00  0.00000000000E+00  0.13487253969E+04  0.20200515749E+04  0.15038444631E+04 0.  0.
        3    1    3    3  502    0  0.50118214673E+03  0.50461583448E+03  0.10022012498E+04  0.12289133574E+04  0.10100000352E+00 0.  1.
       -3    1    3    3    0  502 -0.50118214673E+03 -0.50461583448E+03  0.34652414707E+03  0.79113821758E+03  0.10100000352E+00 0. -1.
</event>
<event>
 5   0  0.2603873E-04  0.1464436E+04  0.7818609E-02  0.8908453E-01
       -1   -1    0    0    0  501  0.00000000000E+00  0.00000000000E+00  0.59365333442E+03  0.59365333444E+03  0.50400001928E-02 0.  1.
        1   -1    0    0  501    0  0.00000000000E+00  0.00000000000E+00 -0.90312527789E+03  0.90312527791E+03  0.50400001928E-02 0. -1.
    10030    2    1    2    0    0  0.00000000000E+00  0.00000000000E+00 -0.30947194347E+03  0.14967786123E+04  0.14644361818E+04 0.  0.
        2    1    3    3  502    0 -0.59564139889E+03  0.24398046305E+03 -0.51148353448E+03  0.82214995498E+03  0.25500000920E-02 0.  1.
       -2    1    3    3    0  502  0.59564139889E+03 -0.24398046305E+03  0.20201159101E+03  0.67462865737E+03  0.25500000920E-02 0. -1.
</event>
<event>
 5   0  0.4948645E-04  0.1501715E+04  0.7818609E-02  0.8883313E-01
       -2   -1    0    0    0  501  0.00000000000E+00  0.00000000000E+00  0.34903298965E+03  0.34903298966E+03  0.25500000920E-02 0.  1.
        2   -1    0    0  501    0  0.00000000000E+00  0.00000000000E+00 -0.16152825125E+04  0.16152825125E+04  0.25500000920E-02 0. -1.
    10030    2    1    2    0    0  0.00000000000E+00  0.00000000000E+00 -0.12662495228E+04  0.19643155021E+04  0.15017148657E+04 0.  0.
        1    1    3    3  502    0  0.24847513199E+03 -0.17563292355E+03  0.26477206589E+03  0.40334980098E+03  0.50400001928E-02 0.  1.
       -1    1    3    3    0  502 -0.24847513199E+03  0.17563292355E+03 -0.15310215887E+04  0.15609657011E+04  0.50400001928E-02 0. -1.
</event>
<event>
 5   0  0.2542737E-04  0.1508139E+04  0.7818609E-02  0.8879059E-01
       -1   -1    0    0    0  501  0.00000000000E+00  0.00000000000E+00  0.11948928322E+04  0.11948928322E+04  0.50400001928E-02 0. -1.
        1   -1    0    0  501    0  0.00000000000E+00  0.00000000000E+00 -0.47587575260E+03  0.47587575263E+03  0.50400001928E-02 0.  1.
    10030    2    1    2    0    0  0.00000000000E+00  0.00000000000E+00  0.71901707963E+03  0.16707685849E+04  0.15081386221E+04 0.  0.
        1    1    3    3  502    0  0.61814602597E+03  0.17871656709E+03  0.79506718688E+03  0.10228274304E+04  0.50400001928E-02 0. -1.
       -1    1    3    3    0  502 -0.61814602597E+03 -0.17871656709E+03 -0.76050107252E+02  0.64794115444E+03  0.50400001928E-02 0.  1.
</event>
<event>
 5   0  0.2605471E-04  0.1490861E+04  0.7818609E-02  0.8890553E-01
       -1   -1    0    0    0  501  0.00000000000E+00  0.00000000000E+00  0.46984157390E+03  0.46984157393E+03  0.50400001928E-02 0.  1.
        1   -1    0    0  501    0  0.00000000000E+00  0.00000000000E+00 -0.11826679367E+04  0.11826679367E+04  0.50400001928E-02 0. -1.
    10030    2    1    2    0    0  0.00000000000E+00  0.00000000000E+00 -0.71282636275E+03  0.16525095106E+04  0.14908609121E+04 0.  0.
        3    1    3    3  502    0 -0.35345042832E+03 -0.17318158858E+03  0.34527189978E+03  0.52357593803E+03  0.10100000352E+00 0.  1.
       -3    1    3    3    0  502  0.35345042832E+03  0.17318158858E+03 -0.10580982625E+04  0.11289335726E+04  0.10100000352E+00 0. -1.
</event>
<event>
 5   0  0.2544374E-04  0.1505275E+04  0.7818609E-02  0.8880952E-01
        1   -1    0    0  501    0  0.00000000000E+00  0.00000000000E+00  0.46792523482E+03  0.46792523485E+03  0.50400001928E-02 0.  1.
       -1   -1    0    0    0  501  0.00000000000E+00  0.00000000000E+00 -0.12105856003E+04  0.12105856004E+04  0.50400001928E-02 0. -1.
    10030    2    1    2    0    0  0.00000000000E+00  0.00000000000E+00 -0.74266036553E+03  0.16785108352E+04  0.15052754583E+04 0.  0.
        4    1    3    3  502    0 -0.27744130816E+03  0.69284687292E+03 -0.26292305442E+03  0.79129047399E+03  0.12699999809E+01 0.  1.
       -4    1    3    3    0  502  0.27744130816E+03 -0.69284687292E+03 -0.47973731111E+03  0.88722036121E+03  0.12699999809E+01 0. -1.
</event>
<event>
 5   0  0.4785496E-04  0.1422431E+04  0.7818609E-02  0.8937740E-01
        2   -1    0    0  501    0  0.00000000000E+00  0.00000000000E+00  0.71506214198E+03  0.71506214199E+03  0.25500000920E-02 0. -1.
       -2   -1    0    0    0  501  0.00000000000E+00  0.00000000000E+00 -0.70738911183E+03  0.70738911183E+03  0.25500000920E-02 0.  1.
    10030    2    1    2    0    0  0.00000000000E+00  0.00000000000E+00  0.76730301535E+01  0.14224512538E+04  0.14224305586E+04 0.  0.
        4    1    3    3  502    0  0.60608177465E+03 -0.22674695183E+03  0.29892768181E+03  0.71281741673E+03  0.12699999809E+01 0. -1.
       -4    1    3    3    0  502 -0.60608177465E+03  0.22674695183E+03 -0.29125465166E+03  0.70963383709E+03  0.12699999809E+01 0.  1.
</event>
<event>
 5   0  0.2605471E-04  0.1504545E+04  0.7818609E-02  0.8881436E-01
       -1   -1    0    0    0  501  0.00000000000E+00  0.00000000000E+00  0.40327006413E+03  0.40327006416E+03  0.50400001928E-02 0. -1.
        1   -1    0    0  501    0  0.00000000000E+00  0.00000000000E+00 -0.14033125487E+04  0.14033125487E+04  0.50400001928E-02 0.  1.
    10030    2    1    2    0    0  0.00000000000E+00  0.00000000000E+00 -0.10000424846E+04  0.18065826129E+04  0.15045450363E+04 0.  0.
        3    1    3    3  502    0  0.36263928146E+03 -0.51391107117E+03 -0.99554288494E+03  0.11775896923E+04  0.10100000352E+00 0.  1.
       -3    1    3    3    0  502 -0.36263928146E+03  0.51391107117E+03 -0.44995996603E+01  0.62899292056E+03  0.10100000352E+00 0. -1.
</event>
<event>
 5   0  0.4569211E-04  0.1507293E+04  0.7818609E-02  0.8879618E-01
        2   -1    0    0  501    0  0.00000000000E+00  0.00000000000E+00  0.11275220514E+04  0.11275220514E+04  0.25500000920E-02 0.  1.
       -2   -1    0    0    0  501  0.00000000000E+00  0.00000000000E+00 -0.50374456553E+03  0.50374456554E+03  0.25500000920E-02 0. -1.
    10030    2    1    2    0    0  0.00000000000E+00  0.00000000000E+00  0.62377748586E+03  0.16312666169E+04  0.15072930782E+04 0.  0.
        5    1    3    3  502    0 -0.15887175216E+02  0.59265610931E+03  0.81541653210E+03  0.10081765109E+04  0.46999998093E+01 0. -1.
       -5    1    3    3    0  502  0.15887175216E+02 -0.59265610931E+03 -0.19163904624E+03  0.62309010607E+03  0.46999998093E+01 0.  1.
</event>
<event>
 5   0  0.2605471E-04  0.1437355E+04  0.7818609E-02  0.8927214E-01
        1   -1    0    0  501    0  0.00000000000E+00  0.00000000000E+00  0.12917065876E+04  0.12917065876E+04  0.50400001928E-02 0.  1.
       -1   -1    0    0    0  501  0.00000000000E+00  0.00000000000E+00 -0.39985652430E+03  0.39985652433E+03  0.50400001928E-02 0. -1.
    10030    2    1    2    0    0  0.00000000000E+00  0.00000000000E+00  0.89185006329E+03  0.16915631119E+04  0.14373549409E+04 0.  0.
        3    1    3    3  502    0  0.48699020112E+03  0.15137895273E+03  0.10418643441E+04  0.11599811917E+04  0.10100000352E+00 0.  1.
       -3    1    3    3    0  502 -0.48699020112E+03 -0.15137895273E+03 -0.15001428080E+03  0.53158192027E+03  0.10100000352E+00 0. -1.
</event>
<event>
 5   0  0.4948645E-04  0.1489055E+04  0.7818609E-02  0.8891764E-01
        2   -1    0    0  501    0  0.00000000000E+00  0.00000000000E+00  0.14711655639E+04  0.14711655639E+04  0.25500000920E-02 0. -1.
       -2   -1    0    0    0  501  0.00000000000E+00  0.00000000000E+00 -0.37679030201E+03  0.37679030202E+03  0.25500000920E-02 0.  1.
    10030    2    1    2    0    0  0.00000000000E+00  0.00000000000E+00  0.10943752618E+04  0.18479558659E+04  0.14890546224E+04 0.  0.
        1    1    3    3  502    0 -0.24863447106E+03  0.55818052583E+03  0.10750781223E+04  0.12365991948E+04  0.50400001928E-02 0.  1.
       -1    1    3    3    0  502  0.24863447106E+03 -0.55818052583E+03  0.19297139557E+02  0.61135667105E+03  0.50400001928E-02 0. -1.
</event>
<event>
 5   0  0.2605471E-04  0.1504144E+04  0.7818609E-02  0.8881702E-01
        1   -1    0    0  501    0  0.00000000000E+00  0.00000000000E+00  0.17425544001E+04  0.17425544001E+04  0.50400001928E-02 0.  1.
       -1   -1    0    0    0  501  0.00000000000E+00  0.00000000000E+00 -0.32458789968E+03  0.32458789972E+03  0.50400001928E-02 0. -1.
    10030    2    1    2    0    0  0.00000000000E+00  0.00000000000E+00  0.14179665004E+04  0.20671422998E+04  0.15041437070E+04 0.  0.
        3    1    3    3  502    0 -0.36210473759E+03 -0.62779127740E+02 -0.19278168825E+03  0.41500102336E+03  0.10100000352E+00 0. -1.
       -3    1    3    3    0  502  0.36210473759E+03  0.62779127740E+02  0.16107481886E+04  0.16521412764E+04  0.10100000352E+00 0.  1.
</event>
<event>
 5   0  0.4569211E-04  0.1492807E+04  0.7818609E-02  0.8889250E-01
        2   -1    0    0  501    0  0.00000000000E+00  0.00000000000E+00  0.18280230409E+04  0.18280230409E+04  0.25500000920E-02 0.  1.
       -2   -1    0    0    0  501  0.00000000000E+00  0.00000000000E+00 -0.30476543183E+03  0.30476543184E+03  0.25500000920E-02 0. -1.
    10030    2    1    2    0    0  0.00000000000E+00  0.00000000000E+00  0.15232576091E+04  0.21327884728E+04  0.14928070625E+04 0.  0.
        5    1    3    3  502    0 -0.64491464073E+03 -0.19259676028E+03  0.30068934949E+03  0.73718693748E+03  0.46999998093E+01 0. -1.
       -5    1    3    3    0  502  0.64491464073E+03  0.19259676028E+03  0.12225682596E+04  0.13956015353E+04  0.46999998093E+01 0.  1.
</event>
<event>
 5   0  0.4768387E-04  0.1512890E+04  0.7818609E-02  0.8875926E-01
       -2   -1    0    0    0  501  0.00000000000E+00  0.00000000000E+00  0.23883452863E+03  0.23883452865E+03  0.25500000920E-02 0.  1.
        2   -1    0    0  501    0  0.00000000000E+00  0.00000000000E+00 -0.23958394950E+04  0.23958394950E+04  0.25500000920E-02 0. -1.
    10030    2    1    2    0    0  0.00000000000E+00  0.00000000000E+00 -0.21570049664E+04  0.26346740236E+04  0.15128902095E+04 0.  0.
        3    1    3    3  502    0  0.30615449497E+03  0.16289999465E+03 -0.22492437489E+04  0.22758217055E+04  0.10100000352E+00 0. -1.
       -3    1    3    3    0  502 -0.30615449497E+03 -0.16289999465E+03  0.92238782520E+02  0.35885231816E+03  0.10100000352E+00 0.  1.
</event>
<event>
 5   0  0.4768387E-04  0.1551876E+04  0.7818609E-02  0.8850670E-01
        2   -1    0    0  501    0  0.00000000000E+00  0.00000000000E+00  0.13082096217E+04  0.13082096217E+04  0.25500000920E-02 0. -1.
       -2   -1    0    0    0  501  0.00000000000E+00  0.00000000000E+00 -0.46023177402E+03  0.46023177403E+03  0.25500000920E-02 0.  1.
    10030    2    1    2    0    0  0.00000000000E+00  0.00000000000E+00  0.84797784766E+03  0.17684413957E+04  0.15518758133E+04 0.  0.
        3    1    3    3  502    0 -0.36305250310E+03 -0.28865825674E+03 -0.28487116493E+03  0.54431819738E+03  0.10100000352E+00 0.  1.
       -3    1    3    3    0  502  0.36305250310E+03  0.28865825674E+03  0.11328490126E+04  0.12241231983E+04  0.10100000352E+00 0. -1.
</event>
<event>
 5   0  0.2542737E-04  0.1499937E+04  0.7818609E-02  0.8884495E-01
        1   -1    0    0  501    0  0.00000000000E+00  0.00000000000E+00  0.12055500869E+04  0.12055500869E+04  0.50400001928E-02 0.  1.
       -1   -1    0    0    0  501  0.00000000000E+00  0.00000000000E+00 -0.46655253134E+03  0.46655253137E+03  0.50400001928E-02 0. -1.
    10030    2    1    2    0    0  0.00000000000E+00  0.00000000000E+00  0.73899755551E+03  0.16721026182E+04  0.14999365916E+04 0.  0.
        1    1    3    3  502    0 -0.69072225984E+03 -0.37107508598E+02  0.69255149926E+03  0.97882673981E+03  0.50400001928E-02 0.  1.
       -1    1    3    3    0  502  0.69072225984E+03  0.37107508598E+02  0.46446056252E+02  0.69327587842E+03  0.50400001928E-02 0. -1.
</event>
<event>
 5   0  0.2544374E-04  0.1388970E+04  0.7818609E-02  0.8961842E-01
       -1   -1    0    0    0  501  0.00000000000E+00  0.00000000000E+00  0.40129677213E+03  0.40129677216E+03  0.50400001928E-02 0.  1.
        1   -1    0    0  501    0  0.00000000000E+00  0.00000000000E+00 -0.12018769270E+04  0.12018769270E+04  0.50400001928E-02 0. -1.
    10030    2    1    2    0    0  0.00000000000E+00  0.00000000000E+00 -0.80058015484E+03  0.16031736991E+04  0.13889698792E+04 0.  0.
        4    1    3    3  502    0 -0.88248166640E+02 -0.11157537196E+03 -0.11848788125E+04  0.11933885435E+04  0.12699999809E+01 0. -1.
       -4    1    3    3    0  502  0.88248166640E+02  0.11157537196E+03  0.38429865770E+03  0.40978515560E+03  0.12699999809E+01 0.  1.
</event>
<event>
 5   0  0.2542737E-04  0.1500403E+04  0.7818609E-02  0.8884185E-01
        1   -1    0    0  501    0  0.00000000000E+00  0.00000000000E+00  0.95457647229E+03  0.95457647231E+03  0.50400001928E-02 0. -1.
       -1   -1    0    0    0  501  0.00000000000E+00  0.00000000000E+00 -0.58958329949E+03  0.58958329951E+03  0.50400001928E-02 0.  1.
    10030    2    1    2    0    0  0.00000000000E+00  0.00000000000E+00  0.36499317281E+03  0.15441597718E+04  0.15004030741E+04 0.  0.
        1    1    3    3  502    0 -0.65783655596E+03  0.31896966685E+03  0.93285433409E+01  0.73114814127E+03  0.50400001928E-02 0.  1.
       -1    1    3    3    0  502  0.65783655596E+03 -0.31896966685E+03  0.35566462946E+03  0.81301163055E+03  0.50400001928E-02 0. -1.
</event>
<event>
 5   0  0.2565416E-04  0.1495344E+04  0.7818609E-02  0.8887555E-01
        1   -1    0    0  501    0  0.00000000000E+00  0.00000000000E+00  0.17235537860E+04  0.17235537860E+04  0.50400001928E-02 0. -1.
       -1   -1    0    0    0  501  0.00000000000E+00  0.00000000000E+00 -0.32433766487E+03  0.32433766491E+03  0.50400001928E-02 0.  1.
    10030    2    1    2    0    0  0.00000000000E+00  0.00000000000E+00  0.13992161212E+04  0.20478914509E+04  0.14953439876E+04 0.  0.
        5    1    3    3  502    0  0.32818325913E+03  0.14881676307E+03  0.15967592687E+04  0.16369217858E+04  0.46999998093E+01 0. -1.
       -5    1    3    3    0  502 -0.32818325913E+03 -0.14881676307E+03 -0.19754314755E+03  0.41096966516E+03  0.46999998093E+01 0.  1.
</event>
<event>
 5   0  0.2605471E-04  0.1585200E+04  0.7818609E-02  0.8829692E-01
       -1   -1    0    0    0  501  0.00000000000E+00  0.00000000000E+00  0.51992465881E+03  0.51992465884E+03  0.50400001928E-02 0.  1.
        1   -1    0    0  501    0  0.00000000000E+00  0.00000000000E+00 -0.12082809693E+04  0.12082809693E+04  0.50400001928E-02 0. -1.
    10030    2    1    2    0    0  0.00000000000E+00  0.00000000000E+00 -0.68835631046E+03  0.17282056281E+04  0.15852003920E+04 0.  0.
        3    1    3    3  502    0 -0.39861846800E+03  0.11648963087E+02  0.40258387800E+03  0.56666230720E+03  0.10100000352E+00 0.  1.
       -3    1    3    3    0  502  0.39861846800E+03 -0.11648963087E+02 -0.10909401885E+04  0.11615433209E+04  0.10100000352E+00 0. -1.
</event>
<event>
 5   0  0.2544374E-04  0.1495118E+04  0.7818609E-02  0.8887706E-01
        1   -1    0    0  501    0  0.00000000000E+00  0.00000000000E+00  0.31902515321E+03  0.31902515325E+03  0.50400001928E-02 0.  1.
       -1   -1    0    0    0  501  0.00000000000E+00  0.00000000000E+00 -0.17517251339E+04  0.17517251339E+04  0.50400001928E-02 0. -1.
    10030    2    1    2    0    0  0.00000000000E+00  0.00000000000E+00 -0.14326999807E+04  0.20707502872E+04  0.14951178941E+04 0.  0.
        4    1    3    3  502    0 -0.22524145568E+03  0.63361247431E+03 -0.26405572093E+03  0.72244412768E+03  0.12699999809E+01 0.  1.
       -4    1    3    3    0  502  0.22524145568E+03 -0.63361247431E+03 -0.11686442598E+04  0.13483061595E+04  0.12699999809E+01 0. -1.
</event>
<event>
 5   0  0.2603873E-04  0.1519057E+04  0.7818609E-02  0.8871878E-01
        1   -1    0    0  501    0  0.00000000000E+00  0.00000000000E+00  0.13746790568E+04  0.13746790569E+04  0.50400001928E-02 0.  1.
       -1   -1    0    0    0  501  0.00000000000E+00  0.00000000000E+00 -0.41964946660E+03  0.41964946663E+03  0.50400001928E-02 0. -1.
    10030    2    1    2    0    0  0.00000000000E+00  0.00000000000E+00  0.95502959025E+03  0.17943285235E+04  0.15190567244E+04 0.  0.
        2    1    3    3  502    0  0.15515403042E+03  0.73885451498E+03  0.37936347462E+03  0.84492331803E+03  0.25500000920E-02 0. -1.
       -2    1    3    3    0  502 -0.15515403042E+03 -0.73885451498E+03  0.57566611563E+03  0.94940520546E+03  0.25500000920E-02 0.  1.
</event>
<event>
 5   0  0.4726600E-04  0.1482033E+04  0.7818609E-02  0.8896489E-01
       -2   -1    0    0    0  501  0.00000000000E+00  0.00000000000E+00  0.55012052634E+03  0.55012052634E+03  0.25500000920E-02 0. -1.
        2   -1    0    0  501    0  0.00000000000E+00  0.00000000000E+00 -0.99815488903E+03  0.99815488903E+03  0.25500000920E-02 0.  1.
    10030    2    1    2    0    0  0.00000000000E+00  0.00000000000E+00 -0.44803436269E+03  0.15482754154E+04  0.14820330535E+04 0.  0.
        2    1    3    3  502    0 -0.38167472108E+03 -0.45412323574E+03 -0.68794025308E+03  0.90838609510E+03  0.25500000920E-02 0.  1.
       -2    1    3    3    0  502  0.38167472108E+03  0.45412323574E+03  0.23990589039E+03  0.63988932028E+03  0.25500000920E-02 0. -1.
</event>
<event>
 5   0  0.2565416E-04  0.1369245E+04  0.7818609E-02  0.8976386E-01
        1   -1    0    0  501    0  0.00000000000E+00  0.00000000000E+00  0.10169168656E+04  0.10169168656E+04  0.50400001928E-02 0.  1.
       -1   -1    0    0    0  501  0.00000000000E+00  0.00000000000E+00 -0.46091077091E+03  0.46091077094E+03  0.50400001928E-02 0. -1.
    10030    2    1    2    0    0  0.00000000000E+00  0.00000000000E+00  0.55600609464E+03  0.14778276365E+04  0.13692449547E+04 0.  0.
        5    1    3    3  502    0 -0.37626642262E+03  0.16807444508E+03 -0.31203066470E+03  0.51692423583E+03  0.46999998093E+01 0. -1.
       -5    1    3    3    0  502  0.37626642262E+03 -0.16807444508E+03  0.86803675934E+03  0.96090340068E+03  0.46999998093E+01 0.  1.
</event>
<event>
 5   0  0.2605471E-04  0.1503738E+04  0.7818609E-02  0.8881971E-01
       -1   -1    0    0    0  501  0.00000000000E+00  0.00000000000E+00  0.30262851329E+03  0.30262851333E+03  0.50400001928E-02 0. -1.
        1   -1    0    0  501    0  0.00000000000E+00  0.00000000000E+00 -0.18679895727E+04  0.18679895727E+04  0.50400001928E-02 0.  1.
    10030    2    1    2    0    0  0.00000000000E+00  0.00000000000E+00 -0.15653610595E+04  0.21706180861E+04  0.15037378858E+04 0.  0.
        3    1    3    3  502    0 -0.24696878657E+03  0.46453766813E+03 -0.73305405019E+01  0.52615831617E+03  0.10100000352E+00 0. -1.
       -3    1    3    3    0  502  0.24696878657E+03 -0.46453766813E+03 -0.15580305190E+04  0.16444597699E+04  0.10100000352E+00 0.  1.
</event>
<event>
 5   0  0.4726600E-04  0.1487997E+04  0.7818609E-02  0.8892474E-01
        2   -1    0    0  501    0  0.00000000000E+00  0.00000000000E+00  0.59035018656E+03  0.59035018657E+03  0.25500000920E-02 0. -1.
       -2   -1    0    0    0  501  0.00000000000E+00  0.00000000000E+00 -0.93763623856E+03  0.93763623856E+03  0.25500000920E-02 0.  1.
    10030    2    1    2    0    0  0.00000000000E+00  0.00000000000E+00 -0.34728605200E+03  0.15279864251E+04  0.14879969467E+04 0.  0.
        2    1    3    3  502    0  0.37201953791E+03  0.32341564288E+03 -0.74587812389E+03  0.89405278947E+03  0.25500000920E-02 0.  1.
       -2    1    3    3    0  502 -0.37201953791E+03 -0.32341564288E+03  0.39859207189E+03  0.63393363567E+03  0.25500000920E-02 0. -1.
</event>
<event>
 5   0  0.2603873E-04  0.1499169E+04  0.7818609E-02  0.8885006E-01
       -1   -1    0    0    0  501  0.00000000000E+00  0.00000000000E+00  0.31838684666E+03  0.31838684670E+03  0.50400001928E-02 0.  1.
        1   -1    0    0  501    0  0.00000000000E+00  0.00000000000E+00 -0.17647618938E+04  0.17647618938E+04  0.50400001928E-02 0. -1.
    10030    2    1    2    0    0  0.00000000000E+00  0.00000000000E+00 -0.14463750471E+04  0.20831487405E+04  0.14991690692E+04 0.  0.
        2    1    3    3  502    0 -0.58812040600E+03 -0.27491654972E+03 -0.20250599456E+03  0.68005396779E+03  0.25500000920E-02 0.  1.
       -2    1    3    3    0  502  0.58812040600E+03  0.27491654972E+03 -0.12438690526E+04  0.14030947727E+04  0.25500000920E-02 0. -1.
</event>
<event>
 5   0  0.2565416E-04  0.1507215E+04  0.7818609E-02  0.8879669E-01
       -1   -1    0    0    0  501  0.00000000000E+00  0.00000000000E+00  0.59824094419E+03  0.59824094421E+03  0.50400001928E-02 0. -1.
        1   -1    0    0  501    0  0.00000000000E+00  0.00000000000E+00 -0.94932339825E+03  0.94932339827E+03  0.50400001928E-02 0.  1.
    10030    2    1    2    0    0  0.00000000000E+00  0.00000000000E+00 -0.35108245406E+03  0.15475643425E+04  0.15072148170E+04 0.  0.
        5    1    3    3  502    0  0.13774088935E+03 -0.13209694327E+03 -0.92408460769E+03  0.94359769350E+03  0.46999998093E+01 0.  1.
       -5    1    3    3    0  502 -0.13774088935E+03  0.13209694327E+03  0.57300215362E+03  0.60396664898E+03  0.46999998093E+01 0. -1.
</event>
<event>
 5   0  0.4948645E-04  0.1360792E+04  0.7818609E-02  0.8982699E-01
       -2   -1    0    0    0  501  0.00000000000E+00  0.00000000000E+00  0.34737582304E+03  0.34737582305E+03  0.25500000920E-02 0. -1.
        2   -1    0    0  501    0  0.00000000000E+00  0.00000000000E+00 -0.13326744097E+04  0.13326744097E+04  0.25500000920E-02 0.  1.
    10030    2    1    2    0    0  0.00000000000E+00  0.00000000000E+00 -0.98529858669E+03  0.16800502328E+04  0.13607922250E+04 0.  0.
        1    1    3    3  502    0  0.43703850777E+03  0.10768140796E+03  0.13729431150E+03  0.47058226793E+03  0.50400001928E-02 0. -1.
       -1    1    3    3    0  502 -0.43703850777E+03 -0.10768140796E+03 -0.11225928982E+04  0.12094679648E+04  0.50400001928E-02 0.  1.
</event>
<event>
 5   0  0.4726600E-04  0.1500552E+04  0.7818609E-02  0.8884086E-01
        2   -1    0    0  501    0  0.00000000000E+00  0.00000000000E+00  0.19618307087E+04  0.19618307087E+04  0.25500000920E-02 0. -1.
       -2   -1    0    0    0  501  0.00000000000E+00  0.00000000000E+00 -0.28693319210E+03  0.28693319211E+03  0.25500000920E-02 0.  1.
    10030    2    1    2    0    0  0.00000000000E+00  0.00000000000E+00  0.16748975166E+04  0.22487639008E+04  0.15005523618E+04 0.  0.
        2    1    3    3  502    0 -0.23426562073E+03 -0.66678275057E+03  0.46000151796E+03  0.84325619716E+03  0.25500000920E-02 0.  1.
       -2    1    3    3    0  502  0.23426562073E+03  0.66678275057E+03  0.12148959986E+04  0.14055077036E+04  0.25500000920E-02 0. -1.
</event>
<event>
 5   0  0.4785496E-04  0.1490303E+04  0.7818609E-02  0.8890927E-01
        2   -1    0    0  501    0  0.00000000000E+00  0.00000000000E+00  0.58456005427E+03  0.58456005427E+03  0.25500000920E-02 0. -1.
       -2   -1    0    0    0  501  0.00000000000E+00  0.00000000000E+00 -0.94986062856E+03  0.94986062857E+03  0.25500000920E-02 0.  1.
    10030    2    1    2    0    0  0.00000000000E+00  0.00000000000E+00 -0.36530057430E+03  0.15344206828E+04  0.14903027620E+04 0.  0.
        4    1    3    3  502    0  0.70027624571E+03 -0.25200656755E+03 -0.22054804437E+03  0.77623268622E+03  0.12699999809E+01 0.  1.
       -4    1    3    3    0  502 -0.70027624571E+03  0.25200656755E+03 -0.14475252993E+03  0.75818799661E+03  0.12699999809E+01 0. -1.
</event>
<event>
 5   0  0.4569211E-04  0.1505747E+04  0.7818609E-02  0.8880640E-01
       -2   -1    0    0    0  501  0.00000000000E+00  0.00000000000E+00  0.11079191703E+04  0.11079191703E+04  0.25500000920E-02 0. -1.
        2   -1    0    0  501    0  0.00000000000E+00  0.00000000000E+00 -0.51160658645E+03  0.51160658645E+03  0.25500000920E-02 0.  1.
    10030    2    1    2    0    0  0.00000000000E+00  0.00000000000E+00  0.59631258383E+03  0.16195257567E+04  0.15057473158E+04 0.  0.
        5    1    3    3  502    0 -0.32793573597E+03  0.21629274749E+02 -0.43036341641E+03  0.54152048220E+03  0.46999998093E+01 0.  1.
       -5    1    3    3    0  502  0.32793573597E+03 -0.21629274749E+02  0.10266760002E+04  0.10780052745E+04  0.46999998093E+01 0. -1.
</event>
<event>
 5   0  0.4785496E-04  0.1563845E+04  0.7818609E-02  0.8843072E-01
       -2   -1    0    0    0  501  0.00000000000E+00  0.00000000000E+00  0.95942899024E+03  0.95942899024E+03  0.25500000920E-02 0.  1.
        2   -1    0    0  501    0  0.00000000000E+00  0.00000000000E+00 -0.63725721229E+03  0.63725721230E+03  0.25500000920E-02 0. -1.
    10030    2    1    2    0    0  0.00000000000E+00  0.00000000000E+00  0.32217177794E+03  0.15966862025E+04  0.15638453168E+04 0.  0.
        4    1    3    3  502    0  0.42926887568E+03 -0.17304004287E+03 -0.48237652762E+03  0.66850830313E+03  0.12699999809E+01 0. -1.
       -4    1    3    3    0  502 -0.42926887568E+03  0.17304004287E+03  0.80454830556E+03  0.92817789941E+03  0.12699999809E+01 0.  1.
</event>
<event>
 5   0  0.4948645E-04  0.1500366E+04  0.7818609E-02  0.8884209E-01
        2   -1    0    0  501    0  0.00000000000E+00  0.00000000000E+00  0.12261611040E+04  0.12261611040E+04  0.25500000920E-02 0. -1.
       -2   -1    0    0    0  501  0.00000000000E+00  0.00000000000E+00 -0.45897297868E+03  0.45897297869E+03  0.25500000920E-02 0.  1.
    10030    2    1    2    0    0  0.00000000000E+00  0.00000000000E+00  0.76718812535E+03  0.16851340827E+04  0.15003663743E+04 0.  0.
        1    1    3    3  502    0 -0.53753487410E+03  0.23106606524E+03 -0.14373522798E+03  0.60249073285E+03  0.50400001928E-02 0.  1.
       -1    1    3    3    0  502  0.53753487410E+03 -0.23106606524E+03  0.91092335332E+03  0.10826433499E+04  0.50400001928E-02 0. -1.
</event>
<event>
 5   0  0.2603873E-04  0.1492234E+04  0.7818609E-02  0.8889634E-01
        1   -1    0    0  501    0  0.00000000000E+00  0.00000000000E+00  0.97874664253E+03  0.97874664254E+03  0.50400001928E-02 0.  1.
       -1   -1    0    0    0  501  0.00000000000E+00  0.00000000000E+00 -0.56877867860E+03  0.56877867863E+03  0.50400001928E-02 0. -1.
    10030    2    1    2    0    0  0.00000000000E+00  0.00000000000E+00  0.40996796393E+03  0.15475253212E+04  0.14922335234E+04 0.  0.
        2    1    3    3  502    0  0.12541379325E+03 -0.62869871856E+03  0.60083342454E+03  0.87863046971E+03  0.25500000920E-02 0.  1.
       -2    1    3    3    0  502 -0.12541379325E+03  0.62869871856E+03 -0.19086546061E+03  0.66889485146E+03  0.25500000920E-02 0. -1.
</event>
<event>
 5   0  0.4726600E-04  0.1497636E+04  0.7818609E-02  0.8886026E-01
       -2   -1    0    0    0  501  0.00000000000E+00  0.00000000000E+00  0.64234160324E+03  0.64234160324E+03  0.25500000920E-02 0.  1.
        2   -1    0    0  501    0  0.00000000000E+00  0.00000000000E+00 -0.87294418529E+03  0.87294418529E+03  0.25500000920E-02 0. -1.
    10030    2    1    2    0    0  0.00000000000E+00  0.00000000000E+00 -0.23060258205E+03  0.15152857885E+04  0.14976359605E+04 0.  0.
        2    1    3    3  502    0 -0.35904109794E+03  0.20903608339E+03 -0.74563755608E+03  0.85357012554E+03  0.25500000920E-02 0. -1.
       -2    1    3    3    0  502  0.35904109794E+03 -0.20903608339E+03  0.51503497403E+03  0.66171566299E+03  0.25500000920E-02 0.  1.
</event>
<event>
 5   0  0.4768387E-04  0.1497187E+04  0.7818609E-02  0.8886326E-01
       -2   -1    0    0    0  501  0.00000000000E+00  0.00000000000E+00  0.45464190325E+03  0.45464190325E+03  0.25500000920E-02 0.  1.
        2   -1    0    0  501    0  0.00000000000E+00  0.00000000000E+00 -0.12326012145E+04  0.12326012145E+04  0.25500000920E-02 0. -1.
    10030    2    1    2    0    0  0.00000000000E+00  0.00000000000E+00 -0.77795931127E+03  0.16872431178E+04  0.14971869117E+04 0.  0.
        3    1    3    3  502    0  0.21064003698E+03  0.40215970703E+03  0.28180233669E+03  0.53433530887E+03  0.10100000352E+00 0.  1.
       -3    1    3    3    0  502 -0.21064003698E+03 -0.40215970703E+03 -0.10597616480E+04  0.11529078089E+04  0.10100000352E+00 0. -1.
</event>
<event>
 5   0  0.4569211E-04  0.1503083E+04  0.7818609E-02  0.8882405E-01
        2   -1    0    0  501    0  0.00000000000E+00  0.00000000000E+00  0.55511730906E+03  0.55511730907E+03  0.25500000920E-02 0. -1.
       -2   -1    0    0    0  501  0.00000000000E+00  0.00000000000E+00 -0.10174690439E+04  0.10174690439E+04  0.25500000920E-02 0.  1.
    10030    2    1    2    0    0  0.00000000000E+00  0.00000000000E+00 -0.46235173484E+03  0.15725863530E+04  0.15030830685E+04 0.  0.
        5    1    3    3  502    0  0.75821233888E+02 -0.73498198916E+03 -0.37480149495E+03  0.82852014732E+03  0.46999998093E+01 0.  1.
       -5    1    3    3    0  502 -0.75821233888E+02  0.73498198916E+03 -0.87550239894E+02  0.74406620566E+03  0.46999998093E+01 0. -1.
</event>
<event>
 5   0  0.4948645E-04  0.1477898E+04  0.7818609E-02  0.8899285E-01
        2   -1    0    0  501    0  0.00000000000E+00  0.00000000000E+00  0.14258261468E+04  0.14258261468E+04  0.25500000920E-02 0. -1.
       -2   -1    0    0    0  501  0.00000000000E+00  0.00000000000E+00 -0.38296798109E+03  0.38296798110E+03  0.25500000920E-02 0.  1.
    10030    2    1    2    0    0  0.00000000000E+00  0.00000000000E+00  0.10428581657E+04  0.18087941279E+04  0.14778981843E+04 0.  0.
        1    1    3    3  502    0 -0.67236892107E+02 -0.56680755773E+03  0.10958188278E+04  0.12355608081E+04  0.50400001928E-02 0. -1.
       -1    1    3    3    0  502  0.67236892107E+02  0.56680755773E+03 -0.52960662081E+02  0.57323331979E+03  0.50400001928E-02 0.  1.
</event>
<event>
 5   0  0.2542737E-04  0.1495111E+04  0.7818609E-02  0.8887711E-01
        1   -1    0    0  501    0  0.00000000000E+00  0.00000000000E+00  0.38148712941E+03  0.38148712944E+03  0.50400001928E-02 0. -1.
       -1   -1    0    0    0  501  0.00000000000E+00  0.00000000000E+00 -0.14648961727E+04  0.14648961727E+04  0.50400001928E-02 0.  1.
    10030    2    1    2    0    0  0.00000000000E+00  0.00000000000E+00 -0.10834090433E+04  0.18463833022E+04  0.14951107462E+04 0.  0.
        1    1    3    3  502    0  0.62976912167E+02  0.59478524649E+03 -0.10955112997E+04  0.12481508678E+04  0.50400001928E-02 0.  1.
       -1    1    3    3    0  502 -0.62976912167E+02 -0.59478524649E+03  0.12102256407E+02  0.59823243438E+03  0.50400001928E-02 0. -1.
</event>
<event>
 5   0  0.4726600E-04  0.1499595E+04  0.7818609E-02  0.8884722E-01
        2   -1    0    0  501    0  0.00000000000E+00  0.00000000000E+00  0.10599421122E+04  0.10599421123E+04  0.25500000920E-02 0. -1.
       -2   -1    0    0    0  501  0.00000000000E+00  0.00000000000E+00 -0.53040277026E+03  0.53040277026E+03  0.25500000920E-02 0.  1.
    10030    2    1    2    0    0  0.00000000000E+00  0.00000000000E+00  0.52953934199E+03  0.15903448825E+04  0.14995949222E+04 0.  0.
        2    1    3    3  502    0  0.14362492266E+02 -0.39637532556E+03  0.93957525521E+03  0.10198633929E+04  0.25500000920E-02 0. -1.
       -2    1    3    3    0  502 -0.14362492266E+02  0.39637532556E+03 -0.41003591322E+03  0.57048148965E+03  0.25500000920E-02 0.  1.
</event>
<event>
 5   0  0.2605471E-04  0.1489265E+04  0.7818609E-02  0.8891623E-01
        1   -1    0    0  501    0  0.00000000000E+00  0.00000000000E+00  0.10574031602E+04  0.10574031602E+04  0.50400001928E-02 0. -1.
       -1   -1    0    0    0  501  0.00000000000E+00  0.00000000000E+00 -0.52437695125E+03  0.52437695127E+03  0.50400001928E-02 0.  1.
    10030    2    1    2    0    0  0.00000000000E+00  0.00000000000E+00  0.53302620899E+03  0.15817801115E+04  0.14892653832E+04 0.  0.
        3    1    3    3  502    0 -0.62177682397E+02 -0.54984421276E+03  0.79574694542E+03  0.96923058858E+03  0.10100000352E+00 0. -1.
       -3    1    3    3    0  502  0.62177682397E+02  0.54984421276E+03 -0.26272073643E+03  0.61254952294E+03  0.10100000352E+00 0.  1.
</event>
<event>
 5   0  0.4569211E-04  0.1499012E+04  0.7818609E-02  0.8885110E-01
        2   -1    0    0  501    0  0.00000000000E+00  0.00000000000E+00  0.11346867806E+04  0.11346867806E+04  0.25500000920E-02 0.  1.
       -2   -1    0    0    0  501  0.00000000000E+00  0.00000000000E+00 -0.49507898724E+03  0.49507898724E+03  0.25500000920E-02 0. -1.
    10030    2    1    2    0    0  0.00000000000E+00  0.00000000000E+00  0.63960779340E+03  0.16297657679E+04  0.14990124512E+04 0.  0.
        5    1    3    3  502    0 -0.47375610961E+03 -0.46099745956E+03 -0.64240975540E+02  0.66416300864E+03  0.46999998093E+01 0. -1.
       -5    1    3    3    0  502  0.47375610961E+03  0.46099745956E+03  0.70384876894E+03  0.96560275924E+03  0.46999998093E+01 0.  1.
</event>
<event>
 5   0  0.2603873E-04  0.1500925E+04  0.7818609E-02  0.8883838E-01
       -1   -1    0    0    0  501  0.00000000000E+00  0.00000000000E+00  0.92790691486E+03  0.92790691488E+03  0.50400001928E-02 0. -1.
        1   -1    0    0  501    0  0.00000000000E+00  0.00000000000E+00 -0.60695095023E+03  0.60695095025E+03  0.50400001928E-02 0.  1.
    10030    2    1    2    0    0  0.00000000000E+00  0.00000000000E+00  0.32095596463E+03  0.15348578651E+04  0.15009250264E+04 0.  0.
        2    1    3    3  502    0 -0.43022103956E+03  0.57634781171E+03  0.37962895200E+03  0.81325585405E+03  0.25500000920E-02 0. -1.
       -2    1    3    3    0  502  0.43022103956E+03 -0.57634781171E+03 -0.58672987371E+02  0.72160201108E+03  0.25500000920E-02 0.  1.
</event>
<event>
 5   0  0.4785496E-04  0.1499743E+04  0.7818609E-02  0.8884624E-01
        2   -1    0    0  501    0  0.00000000000E+00  0.00000000000E+00  0.91679389778E+03  0.91679389778E+03  0.25500000920E-02 0.  1.
       -2   -1    0    0    0  501  0.00000000000E+00  0.00000000000E+00 -0.61334085182E+03  0.61334085183E+03  0.25500000920E-02 0. -1.
    10030    2    1    2    0    0  0.00000000000E+00  0.00000000000E+00  0.30345304596E+03  0.15301347496E+04  0.14997428449E+04 0.  0.
        4    1    3    3  502    0 -0.58672029701E+03 -0.33064992457E+03 -0.18470638784E+03  0.69834672058E+03  0.12699999809E+01 0. -1.
       -4    1    3    3    0  502  0.58672029701E+03  0.33064992457E+03  0.48815943380E+03  0.83178802903E+03  0.12699999809E+01 0.  1.
</event>
<event>
 5   0  0.2542737E-04  0.1503257E+04  0.7818609E-02  0.8882290E-01
        1   -1    0    0  501    0  0.00000000000E+00  0.00000000000E+00  0.55864520203E+03  0.55864520205E+03  0.50400001928E-02 0. -1.
       -1   -1    0    0    0  501  0.00000000000E+00  0.00000000000E+00 -0.10112771703E+04  0.10112771703E+04  0.50400001928E-02 0.  1.
    10030    2    1    2    0    0  0.00000000000E+00  0.00000000000E+00 -0.45263196826E+03  0.15699223724E+04  0.15032566503E+04 0.  0.
        1    1    3    3  502    0 -0.59884074369E+03  0.43468999889E+03 -0.88638227956E+02  0.74526664149E+03  0.50400001928E-02 0. -1.
       -1    1    3    3    0  502  0.59884074369E+03 -0.43468999889E+03 -0.36399374030E+03  0.82465573086E+03  0.50400001928E-02 0.  1.
</event>
<event>
 5   0  0.4948645E-04  0.1496203E+04  0.7818609E-02  0.8886982E-01
        2   -1    0    0  501    0  0.00000000000E+00  0.00000000000E+00  0.11477773281E+04  0.11477773282E+04  0.25500000920E-02 0.  1.
       -2   -1    0    0    0  501  0.00000000000E+00  0.00000000000E+00 -0.48759964309E+03  0.48759964309E+03  0.25500000920E-02 0. -1.
    10030    2    1    2    0    0  0.00000000000E+00  0.00000000000E+00  0.66017768506E+03  0.16353769712E+04  0.14962029482E+04 0.  0.
        1    1    3    3  502    0  0.19896224610E+03  0.10229083789E+03  0.11103586801E+04  0.11326719690E+04  0.50400001928E-02 0.  1.
       -1    1    3    3    0  502 -0.19896224610E+03 -0.10229083789E+03 -0.45018099507E+03  0.50270500220E+03  0.50400001928E-02 0. -1.
</event>
<event>
 5   0  0.2544374E-04  0.1497357E+04  0.7818609E-02  0.8886212E-01
       -1   -1    0    0    0  501  0.00000000000E+00  0.00000000000E+00  0.41042329815E+03  0.41042329818E+03  0.50400001928E-02 0. -1.
        1   -1    0    0  501    0  0.00000000000E+00  0.00000000000E+00 -0.13657109442E+04  0.13657109442E+04  0.50400001928E-02 0.  1.
    10030    2    1    2    0    0  0.00000000000E+00  0.00000000000E+00 -0.95528764606E+03  0.17761342424E+04  0.14973571252E+04 0.  0.
        4    1    3    3  502    0 -0.45567213116E+03 -0.23107370640E+03 -0.11267840631E+04  0.12372049494E+04  0.12699999809E+01 0.  1.
       -4    1    3    3    0  502  0.45567213116E+03  0.23107370640E+03  0.17149641708E+03  0.53892929302E+03  0.12699999809E+01 0. -1.
</event>
<event>
 5   0  0.1792000E-04  0.1492155E+04  0.7818609E-02  0.8889686E-01
        3   -1    0    0  501    0  0.00000000000E+00  0.00000000000E+00  0.12924528744E+04  0.12924528783E+04  0.10100000352E+00 0.  1.
       -3   -1    0    0    0  501  0.00000000000E+00  0.00000000000E+00 -0.43067853677E+03  0.43067854861E+03  0.10100000352E+00 0. -1.
    10030    2    1    2    0    0  0.00000000000E+00  0.00000000000E+00  0.86177433759E+03  0.17231314269E+04  0.14921551211E+04 0.  0.
        3    1    3    3  502    0 -0.17633669469E+03 -0.62329824843E+03  0.85837363306E+03  0.10753607025E+04  0.10100000352E+00 0. -1.
       -3    1    3    3    0  502  0.17633669469E+03  0.62329824843E+03  0.34007045251E+01  0.64777072439E+03  0.10100000352E+00 0.  1.
</event>
<event>
 5   0  0.4768387E-04  0.1415202E+04  0.7818609E-02  0.8942888E-01
        2   -1    0    0  501    0  0.00000000000E+00  0.00000000000E+00  0.22506666411E+04  0.22506666411E+04  0.25500000920E-02 0.  1.
       -2   -1    0    0    0  501  0.00000000000E+00  0.00000000000E+00 -0.22246698004E+03  0.22246698006E+03  0.25500000920E-02 0. -1.
    10030    2    1    2    0    0  0.00000000000E+00  0.00000000000E+00  0.20281996611E+04  0.24731336212E+04  0.14152017676E+04 0.  0.
        3    1    3    3  502    0  0.48872414575E+03 -0.73897080173E+02  0.12923453685E+03  0.51089494499E+03  0.10100000352E+00 0. -1.
       -3    1    3    3    0  502 -0.48872414575E+03  0.73897080173E+02  0.18989651242E+04  0.19622386762E+04  0.10100000352E+00 0.  1.
</event>
<event>
 5   0  0.2605471E-04  0.1495670E+04  0.7818609E-02  0.8887338E-01
       -1   -1    0    0    0  501  0.00000000000E+00  0.00000000000E+00  0.29855515148E+03  0.29855515152E+03  0.50400001928E-02 0.  1.
        1   -1    0    0  501    0  0.00000000000E+00  0.00000000000E+00 -0.18732117707E+04  0.18732117707E+04  0.50400001928E-02 0. -1.
    10030    2    1    2    0    0  0.00000000000E+00  0.00000000000E+00 -0.15746566193E+04  0.21717669223E+04  0.14956697818E+04 0.  0.
        3    1    3    3  502    0 -0.44527855301E+03 -0.47863182578E+01 -0.16597123356E+04  0.17184123329E+04  0.10100000352E+00 0. -1.
       -3    1    3    3    0  502  0.44527855301E+03  0.47863182578E+01  0.85055716366E+02  0.45335458937E+03  0.10100000352E+00 0.  1.
</event>
<event>
 5   0  0.4948645E-04  0.1492966E+04  0.7818609E-02  0.8889144E-01
        2   -1    0    0  501    0  0.00000000000E+00  0.00000000000E+00  0.43426886933E+03  0.43426886934E+03  0.25500000920E-02 0. -1.
       -2   -1    0    0    0  501  0.00000000000E+00  0.00000000000E+00 -0.12831604523E+04  0.12831604523E+04  0.25500000920E-02 0.  1.
    10030    2    1    2    0    0  0.00000000000E+00  0.00000000000E+00 -0.84889158300E+03  0.17174293217E+04  0.14929656913E+04 0.  0.
        1    1    3    3  502    0  0.69631472114E+03  0.24647822260E+03 -0.54850709381E+03  0.92003572597E+03  0.50400001928E-02 0.  1.
       -1    1    3    3    0  502 -0.69631472114E+03 -0.24647822260E+03 -0.30038448919E+03  0.79739359570E+03  0.50400001928E-02 0. -1.
</event>
<event>
 5   0  0.2544374E-04  0.1456875E+04  0.7818609E-02  0.8913648E-01
       -1   -1    0    0    0  501  0.00000000000E+00  0.00000000000E+00  0.52221789321E+03  0.52221789324E+03  0.50400001928E-02 0. -1.
        1   -1    0    0  501    0  0.00000000000E+00  0.00000000000E+00 -0.10160912817E+04  0.10160912817E+04  0.50400001928E-02 0.  1.
    10030    2    1    2    0    0  0.00000000000E+00  0.00000000000E+00 -0.49387338847E+03  0.15383091749E+04  0.14568748038E+04 0.  0.
        4    1    3    3  502    0 -0.31224251027E+03  0.63593128173E+03 -0.42586508291E+03  0.82659945684E+03  0.12699999809E+01 0.  1.
       -4    1    3    3    0  502  0.31224251027E+03 -0.63593128173E+03 -0.68008305557E+02  0.71170971809E+03  0.12699999809E+01 0. -1.
</event>
<event>
 5   0  0.4768387E-04  0.1532161E+04  0.7818609E-02  0.8863343E-01
       -2   -1    0    0    0  501  0.00000000000E+00  0.00000000000E+00  0.54226605044E+03  0.54226605044E+03  0.25500000920E-02 0. -1.
        2   -1    0    0  501    0  0.00000000000E+00  0.00000000000E+00 -0.10822719309E+04  0.10822719309E+04  0.25500000920E-02 0.  1.
    10030    2    1    2    0    0  0.00000000000E+00  0.00000000000E+00 -0.54000588050E+03  0.16245379814E+04  0.15321609909E+04 0.  0.
        3    1    3    3  502    0  0.21647349477E+03 -0.64087032503E+03 -0.65127155693E+03  0.93900489802E+03  0.10100000352E+00 0.  1.
       -3    1    3    3    0  502 -0.21647349477E+03  0.64087032503E+03  0.11126567643E+03  0.68553308337E+03  0.10100000352E+00 0. -1.
</event>
<event>
 5   0  0.2544374E-04  0.1502762E+04  0.7818609E-02  0.8882618E-01
       -1   -1    0    0    0  501  0.00000000000E+00  0.00000000000E+00  0.57455061729E+03  0.57455061731E+03  0.50400001928E-02 0. -1.
        1   -1    0    0  501    0  0.00000000000E+00  0.00000000000E+00 -0.98263503513E+03  0.98263503514E+03  0.50400001928E-02 0.  1.
    10030    2    1    2    0    0  0.00000000000E+00  0.00000000000E+00 -0.40808441784E+03  0.15571856525E+04  0.15027622114E+04 0.  0.
        4    1    3    3  502    0  0.10351718070E+03  0.57341165020E+02  0.56483265803E+03  0.57709735780E+03  0.12699999809E+01 0. -1.
       -4    1    3    3    0  502 -0.10351718070E+03 -0.57341165020E+02 -0.97291707587E+03  0.98008829466E+03  0.12699999809E+01 0.  1.
</event>
<event>
 5   0  0.2565416E-04  0.1502009E+04  0.7818609E-02  0.8883118E-01
        1   -1    0    0  501    0  0.00000000000E+00  0.00000000000E+00  0.71249140006E+03  0.71249140007E+03  0.50400001928E-02 0.  1.
       -1   -1    0    0    0  501  0.00000000000E+00  0.00000000000E+00 -0.79159965477E+03  0.79159965478E+03  0.50400001928E-02 0. -1.
    10030    2    1    2    0    0  0.00000000000E+00  0.00000000000E+00 -0.79108254710E+02  0.15040910549E+04  0.15020092494E+04 0.  0.
        5    1    3    3  502    0 -0.10519845856E+02 -0.43420736607E+03 -0.65305255760E+03  0.78431271626E+03  0.46999998093E+01 0. -1.
       -5    1    3    3    0  502  0.10519845856E+02  0.43420736607E+03  0.57394430289E+03  0.71977833860E+03  0.46999998093E+01 0.  1.
</event>
<event>
 5   0  0.2544374E-04  0.1494246E+04  0.7818609E-02  0.8888288E-01
        1   -1    0    0  501    0  0.00000000000E+00  0.00000000000E+00  0.30367354189E+03  0.30367354194E+03  0.50400001928E-02 0.  1.
       -1   -1    0    0    0  501  0.00000000000E+00  0.00000000000E+00 -0.18381348264E+04  0.18381348265E+04  0.50400001928E-02 0. -1.
    10030    2    1    2    0    0  0.00000000000E+00  0.00000000000E+00 -0.15344612846E+04  0.21418083684E+04  0.14942461822E+04 0.  0.
        4    1    3    3  502    0 -0.68274720700E+03  0.12245628555E+03 -0.36935216984E+03  0.78585108565E+03  0.12699999809E+01 0.  1.
       -4    1    3    3    0  502  0.68274720700E+03 -0.12245628555E+03 -0.11651091147E+04  0.13559572827E+04  0.12699999809E+01 0. -1.
</event>
<event>
 5   0  0.2605471E-04  0.1489989E+04  0.7818609E-02  0.8891138E-01
        1   -1    0    0  501    0  0.00000000000E+00  0.00000000000E+00  0.12079715175E+04  0.12079715175E+04  0.50400001928E-02 0.  1.
       -1   -1    0    0    0  501  0.00000000000E+00  0.00000000000E+00 -0.45946162860E+03  0.45946162862E+03  0.50400001928E-02 0. -1.
    10030    2    1    2    0    0  0.00000000000E+00  0.00000000000E+00  0.74850988891E+03  0.16674331461E+04  0.14899886721E+04 0.  0.
        3    1    3    3  502    0  0.48533667896E+03 -0.11788298219E+03 -0.24435903116E+03  0.55602107491E+03  0.10100000352E+00 0. -1.
       -3    1    3    3    0  502 -0.48533667896E+03  0.11788298219E+03  0.99286892007E+03  0.11114120712E+04  0.10100000352E+00 0.  1.
</event>
<event>
 5   0  0.4726600E-04  0.1499447E+04  0.7818609E-02  0.8884821E-01
        2   -1    0    0  501    0  0.00000000000E+00  0.00000000000E+00  0.13517861748E+04  0.13517861748E+04  0.25500000920E-02 0. -1.
       -2   -1    0    0    0  501  0.00000000000E+00  0.00000000000E+00 -0.41580927873E+03  0.41580927873E+03  0.25500000920E-02 0.  1.
    10030    2    1    2    0    0  0.00000000000E+00  0.00000000000E+00  0.93597689605E+03  0.17675954535E+04  0.14994468771E+04 0.  0.
        2    1    3    3  502    0 -0.17162040725E+03 -0.67834559162E+03  0.15062443884E+03  0.71574718123E+03  0.25500000920E-02 0.  1.
       -2    1    3    3    0  502  0.17162040725E+03  0.67834559162E+03  0.78535245721E+03  0.10518482723E+04  0.25500000920E-02 0. -1.
</event>
<event>
 5   0  0.4785496E-04  0.1501346E+04  0.7818609E-02  0.8883558E-01
       -2   -1    0    0    0  501  0.00000000000E+00  0.00000000000E+00  0.32518806257E+03  0.32518806258E+03  0.25500000920E-02 0. -1.
        2   -1    0    0  501    0  0.00000000000E+00  0.00000000000E+00 -0.17328742678E+04  0.17328742678E+04  0.25500000920E-02 0.  1.
    10030    2    1    2    0    0  0.00000000000E+00  0.00000000000E+00 -0.14076862053E+04  0.20580623304E+04  0.15013460971E+04 0.  0.
        4    1    3    3  502    0  0.51666306233E+03 -0.37040479146E+03 -0.15660258755E+03  0.65472621212E+03  0.12699999809E+01 0. -1.
       -4    1    3    3    0  502 -0.51666306233E+03  0.37040479146E+03 -0.12510836177E+04  0.14033361183E+04  0.12699999809E+01 0.  1.
</event>
<event>
 5   0  0.4569211E-04  0.1510135E+04  0.7818609E-02  0.8877741E-01
       -2   -1    0    0    0  501  0.00000000000E+00  0.00000000000E+00  0.38257300974E+03  0.38257300975E+03  0.25500000920E-02 0.  1.
        2   -1    0    0  501    0  0.00000000000E+00  0.00000000000E+00 -0.14902427880E+04  0.14902427880E+04  0.25500000920E-02 0. -1.
    10030    2    1    2    0    0  0.00000000000E+00  0.00000000000E+00 -0.11076697783E+04  0.18728157978E+04  0.15101346545E+04 0.  0.
        5    1    3    3  502    0  0.52073151872E+03  0.29793582945E+03  0.14720142085E+02  0.60013818879E+03  0.46999998093E+01 0.  1.
       -5    1    3    3    0  502 -0.52073151872E+03 -0.29793582945E+03 -0.11223899204E+04  0.12726776090E+04  0.46999998093E+01 0. -1.
</event>
<event>
 5   0  0.4569211E-04  0.1505059E+04  0.7818609E-02  0.8881096E-01
       -2   -1    0    0    0  501  0.00000000000E+00  0.00000000000E+00  0.40439002559E+03  0.40439002560E+03  0.25500000920E-02 0. -1.
        2   -1    0    0  501    0  0.00000000000E+00  0.00000000000E+00 -0.14003828631E+04  0.14003828631E+04  0.25500000920E-02 0.  1.
    10030    2    1    2    0    0  0.00000000000E+00  0.00000000000E+00 -0.99599283751E+03  0.18047728887E+04  0.15050592837E+04 0.  0.
        5    1    3    3  502    0 -0.14101389215E+03  0.71938220068E+03 -0.29420266014E+03  0.78991959316E+03  0.46999998093E+01 0. -1.
       -5    1    3    3    0  502  0.14101389215E+03 -0.71938220068E+03 -0.70179017737E+03  0.10148532955E+04  0.46999998093E+01 0.  1.
</event>
<event>
 5   0  0.2544374E-04  0.1499588E+04  0.7818609E-02  0.8884727E-01
       -1   -1    0    0    0  501  0.00000000000E+00  0.00000000000E+00  0.54112131191E+03  0.54112131194E+03  0.50400001928E-02 0. -1.
        1   -1    0    0  501    0  0.00000000000E+00  0.00000000000E+00 -0.10389365381E+04  0.10389365381E+04  0.50400001928E-02 0.  1.
    10030    2    1    2    0    0  0.00000000000E+00  0.00000000000E+00 -0.49781522621E+03  0.15800578501E+04  0.14995875467E+04 0.  0.
        4    1    3    3  502    0 -0.59348640390E+03 -0.11834413443E+03 -0.71533309322E+03  0.93698158622E+03  0.12699999809E+01 0.  1.
       -4    1    3    3    0  502  0.59348640390E+03  0.11834413443E+03  0.21751786701E+03  0.64307626385E+03  0.12699999809E+01 0. -1.
</event>
<event>
 5   0  0.2542737E-04  0.1509632E+04  0.7818609E-02  0.8878073E-01
        1   -1    0    0  501    0  0.00000000000E+00  0.00000000000E+00  0.88618917451E+03  0.88618917453E+03  0.50400001928E-02 0. -1.
       -1   -1    0    0    0  501  0.00000000000E+00  0.00000000000E+00 -0.64291857047E+03  0.64291857049E+03  0.50400001928E-02 0.  1.
    10030    2    1    2    0    0  0.00000000000E+00  0.00000000000E+00  0.24327060404E+03  0.15291077450E+04  0.15096323755E+04 0.  0.
        1    1    3    3  502    0 -0.27751097975E+03  0.30627204085E+03 -0.51812403733E+03  0.66277252882E+03  0.50400001928E-02 0.  1.
       -1    1    3    3    0  502  0.27751097975E+03 -0.30627204085E+03  0.76139464137E+03  0.86633521619E+03  0.50400001928E-02 0. -1.
</event>
<event>
 5   0  0.4768387E-04  0.1493754E+04  0.7818609E-02  0.8888617E-01
        2   -1    0    0  501    0  0.00000000000E+00  0.00000000000E+00  0.20974918016E+04  0.20974918016E+04  0.25500000920E-02 0. -1.
       -2   -1    0    0    0  501  0.00000000000E+00  0.00000000000E+00 -0.26594861390E+03  0.26594861391E+03  0.25500000920E-02 0.  1.
    10030    2    1    2    0    0  0.00000000000E+00  0.00000000000E+00  0.18315431877E+04  0.23634404156E+04  0.14937537111E+04 0.  0.
        3    1    3    3  502    0  0.46151028436E+03 -0.57523185017E+03  0.72895217444E+03  0.10369448909E+04  0.10100000352E+00 0.  1.
       -3    1    3    3    0  502 -0.46151028436E+03  0.57523185017E+03  0.11025910133E+04  0.13264955246E+04  0.10100000352E+00 0. -1.
</event>
<event>
 5   0  0.4948645E-04  0.1489478E+04  0.7818609E-02  0.8891481E-01
       -2   -1    0    0    0  501  0.00000000000E+00  0.00000000000E+00  0.90705377729E+03  0.90705377729E+03  0.25500000920E-02 0. -1.
        2   -1    0    0  501    0  0.00000000000E+00  0.00000000000E+00 -0.61146964637E+03  0.61146964637E+03  0.25500000920E-02 0.  1.
    10030    2    1    2    0    0  0.00000000000E+00  0.00000000000E+00  0.29558413092E+03  0.15185234237E+04  0.14894775627E+04 0.  0.
        1    1    3    3  502    0 -0.16027222091E+03  0.72111903676E+03  0.51418224183E+02  0.74050231855E+03  0.50400001928E-02 0.  1.
       -1    1    3    3    0  502  0.16027222091E+03 -0.72111903676E+03  0.24416590674E+03  0.77802110512E+03  0.50400001928E-02 0. -1.
</event>
<event>
 5   0  0.1792000E-04  0.1526600E+04  0.7818609E-02  0.8866955E-01
       -3   -1    0    0    0  501  0.00000000000E+00  0.00000000000E+00  0.66082939670E+03  0.66082940441E+03  0.10100000352E+00 0. -1.
        3   -1    0    0  501    0  0.00000000000E+00  0.00000000000E+00 -0.88165958201E+03  0.88165958779E+03  0.10100000352E+00 0.  1.
    10030    2    1    2    0    0  0.00000000000E+00  0.00000000000E+00 -0.22083018531E+03  0.15424889922E+04  0.15265995940E+04 0.  0.
        1    1    3    3  502    0  0.26962545208E+03 -0.46546906076E+03 -0.65759320093E+03  0.84958116085E+03  0.50400001928E-02 0.  1.
       -1    1    3    3    0  502 -0.26962545208E+03  0.46546906076E+03  0.43676301562E+03  0.69290783136E+03  0.50400001928E-02 0. -1.
</event>
<event>
 5   0  0.4569211E-04  0.1521808E+04  0.7818609E-02  0.8870079E-01
       -2   -1    0    0    0  501  0.00000000000E+00  0.00000000000E+00  0.60036404024E+03  0.60036404025E+03  0.25500000920E-02 0.  1.
        2   -1    0    0  501    0  0.00000000000E+00  0.00000000000E+00 -0.96437336036E+03  0.96437336036E+03  0.25500000920E-02 0. -1.
    10030    2    1    2    0    0  0.00000000000E+00  0.00000000000E+00 -0.36400932012E+03  0.15647374006E+04  0.15218082493E+04 0.  0.
        5    1    3    3  502    0 -0.58858243740E+03 -0.52891456615E+02  0.31081360849E+03  0.66772298224E+03  0.46999998093E+01 0.  1.
       -5    1    3    3    0  502  0.58858243740E+03  0.52891456615E+02 -0.67482292861E+03  0.89701441837E+03  0.46999998093E+01 0. -1.
</event>
<event>
 5   0  0.2605471E-04  0.1495023E+04  0.7818609E-02  0.8887769E-01
       -1   -1    0    0    0  501  0.00000000000E+00  0.00000000000E+00  0.12305412604E+04  0.12305412604E+04  0.50400001928E-02 0.  1.
        1   -1    0    0  501    0  0.00000000000E+00  0.00000000000E+00 -0.45408767573E+03  0.45408767576E+03  0.50400001928E-02 0. -1.
    10030    2    1    2    0    0  0.00000000000E+00  0.00000000000E+00  0.77645358468E+03  0.16846289362E+04  0.14950232384E+04 0.  0.
        3    1    3    3  502    0 -0.57477382264E+03  0.30422151623E+03  0.80356206305E+03  0.10337444933E+04  0.10100000352E+00 0.  1.
       -3    1    3    3    0  502  0.57477382264E+03 -0.30422151623E+03 -0.27108478375E+02  0.65088444284E+03  0.10100000352E+00 0. -1.
</event>
<event>
 5   0  0.1792000E-04  0.1517574E+04  0.7818609E-02  0.8872850E-01
       -3   -1    0    0    0  501  0.00000000000E+00  0.00000000000E+00  0.83103923133E+03  0.83103923747E+03  0.10100000352E+00 0. -1.
        3   -1    0    0  501    0  0.00000000000E+00  0.00000000000E+00 -0.69281674253E+03  0.69281674989E+03  0.10100000352E+00 0.  1.
    10030    2    1    2    0    0  0.00000000000E+00  0.00000000000E+00  0.13822248880E+03  0.15238559874E+04  0.15175742531E+04 0.  0.
        5    1    3    3  502    0 -0.64878834859E+03  0.20805106587E+03  0.40444604338E+03  0.79234478561E+03  0.46999998093E+01 0. -1.
       -5    1    3    3    0  502  0.64878834859E+03 -0.20805106587E+03 -0.26622355457E+03  0.73151120175E+03  0.46999998093E+01 0.  1.
</event>
<event>
 5   0  0.4726600E-04  0.1448125E+04  0.7818609E-02  0.8919701E-01
        2   -1    0    0  501    0  0.00000000000E+00  0.00000000000E+00  0.81122857947E+03  0.81122857948E+03  0.25500000920E-02 0. -1.
       -2   -1    0    0    0  501  0.00000000000E+00  0.00000000000E+00 -0.64626270042E+03  0.64626270042E+03  0.25500000920E-02 0.  1.
    10030    2    1    2    0    0  0.00000000000E+00  0.00000000000E+00  0.16496587906E+03  0.14574912799E+04  0.14481253709E+04 0.  0.
        2    1    3    3  502    0 -0.61994455362E+03  0.36566717730E+03  0.30864977160E+01  0.71975916847E+03  0.25500000920E-02 0. -1.
       -2    1    3    3    0  502  0.61994455362E+03 -0.36566717730E+03  0.16187938134E+03  0.73773211143E+03  0.25500000920E-02 0.  1.
</event>
<event>
 5   0  0.2542737E-04  0.1482041E+04  0.7818609E-02  0.8896484E-01
       -1   -1    0    0    0  501  0.00000000000E+00  0.00000000000E+00  0.57391594038E+03  0.57391594040E+03  0.50400001928E-02 0.  1.
        1   -1    0    0  501    0  0.00000000000E+00  0.00000000000E+00 -0.95677986452E+03  0.95677986453E+03  0.50400001928E-02 0. -1.
    10030    2    1    2    0    0  0.00000000000E+00  0.00000000000E+00 -0.38286392413E+03  0.15306958049E+04  0.14820407764E+04 0.  0.
        1    1    3    3  502    0  0.21234055612E+03 -0.67382188041E+03 -0.42234917580E+03  0.82310586477E+03  0.50400001928E-02 0. -1.
       -1    1    3    3    0  502 -0.21234055612E+03  0.67382188041E+03  0.39485251661E+02  0.70758994016E+03  0.50400001928E-02 0.  1.
</event>
<event>
 5   0  0.4768387E-04  0.1486007E+04  0.7818609E-02  0.8893812E-01
        2   -1    0    0  501    0  0.00000000000E+00  0.00000000000E+00  0.56987223951E+03  0.56987223951E+03  0.25500000920E-02 0. -1.
       -2   -1    0    0    0  501  0.00000000000E+00  0.00000000000E+00 -0.96873312446E+03  0.96873312446E+03  0.25500000920E-02 0.  1.
    10030    2    1    2    0    0  0.00000000000E+00  0.00000000000E+00 -0.39886088495E+03  0.15386053640E+04  0.14860068844E+04 0.  0.
        3    1    3    3  502    0 -0.39519821301E+03  0.61173479796E+03 -0.47072323459E+02  0.72980607317E+03  0.10100000352E+00 0. -1.
       -3    1    3    3    0  502  0.39519821301E+03 -0.61173479796E+03 -0.35178856149E+03  0.80879929080E+03  0.10100000352E+00 0.  1.
</event>
<event>
 5   0  0.4726600E-04  0.1496628E+04  0.7818609E-02  0.8886698E-01
       -2   -1    0    0    0  501  0.00000000000E+00  0.00000000000E+00  0.37659602304E+03  0.37659602305E+03  0.25500000920E-02 0.  1.
        2   -1    0    0  501    0  0.00000000000E+00  0.00000000000E+00 -0.14869357192E+04  0.14869357192E+04  0.25500000920E-02 0. -1.
    10030    2    1    2    0    0  0.00000000000E+00  0.00000000000E+00 -0.11103396962E+04  0.18635317422E+04  0.14966283151E+04 0.  0.
        2    1    3    3  502    0 -0.25784396317E+03  0.70107735551E+03 -0.49974848545E+03  0.89874441109E+03  0.25500000920E-02 0.  1.
       -2    1    3    3    0  502  0.25784396317E+03 -0.70107735551E+03 -0.61059121070E+03  0.96478733115E+03  0.25500000920E-02 0. -1.
</event>
<event>
 5   0  0.2542737E-04  0.1505231E+04  0.7818609E-02  0.8880982E-01
       -1   -1    0    0    0  501  0.00000000000E+00  0.00000000000E+00  0.62664394014E+03  0.62664394016E+03  0.50400001928E-02 0. -1.
        1   -1    0    0  501    0  0.00000000000E+00  0.00000000000E+00 -0.90391040295E+03  0.90391040297E+03  0.50400001928E-02 0.  1.
    10030    2    1    2    0    0  0.00000000000E+00  0.00000000000E+00 -0.27726646281E+03  0.15305543431E+04  0.15052308480E+04 0.  0.
        1    1    3    3  502    0  0.25573466697E+03  0.64162133953E+03  0.16531339611E+03  0.71021594053E+03  0.50400001928E-02 0. -1.
       -1    1    3    3    0  502 -0.25573466697E+03 -0.64162133953E+03 -0.44257985892E+03  0.82033840260E+03  0.50400001928E-02 0.  1.
</event>
<event>
 5   0  0.4569211E-04  0.1502867E+04  0.7818609E-02  0.8882549E-01
       -2   -1    0    0    0  501  0.00000000000E+00  0.00000000000E+00  0.44229374584E+03  0.44229374584E+03  0.25500000920E-02 0.  1.
        2   -1    0    0  501    0  0.00000000000E+00  0.00000000000E+00 -0.12766451810E+04  0.12766451810E+04  0.25500000920E-02 0. -1.
    10030    2    1    2    0    0  0.00000000000E+00  0.00000000000E+00 -0.83435143517E+03  0.17189389269E+04  0.15028668327E+04 0.  0.
        5    1    3    3  502    0  0.71780422158E+03 -0.47870204177E+02 -0.66539199755E+03  0.97995053822E+03  0.46999998093E+01 0. -1.
       -5    1    3    3    0  502 -0.71780422158E+03  0.47870204177E+02 -0.16895943763E+03  0.73898838863E+03  0.46999998093E+01 0.  1.
</event>
<event>
 5   0  0.4726600E-04  0.1501827E+04  0.7818609E-02  0.8883239E-01
        2   -1    0    0  501    0  0.00000000000E+00  0.00000000000E+00  0.12363960976E+04  0.12363960976E+04  0.25500000920E-02 0. -1.
       -2   -1    0    0    0  501  0.00000000000E+00  0.00000000000E+00 -0.45605992305E+03  0.45605992306E+03  0.25500000920E-02 0.  1.
    10030    2    1    2    0    0  0.00000000000E+00  0.00000000000E+00  0.78033617458E+03  0.16924560207E+04  0.15018265002E+04 0.  0.
        2    1    3    3  502    0 -0.36272556125E+01 -0.42456750159E+03  0.10881383532E+04  0.11680392956E+04  0.25500000920E-02 0. -1.
       -2    1    3    3    0  502  0.36272556125E+01  0.42456750159E+03 -0.30780217860E+03  0.52441672509E+03  0.25500000920E-02 0.  1.
</event>
<event>
 5   0  0.4569211E-04  0.1507502E+04  0.7818609E-02  0.8879480E-01
       -2   -1    0    0    0  501  0.00000000000E+00  0.00000000000E+00  0.31804528641E+03  0.31804528642E+03  0.25500000920E-02 0. -1.
        2   -1    0    0  501    0  0.00000000000E+00  0.00000000000E+00 -0.17863504157E+04  0.17863504157E+04  0.25500000920E-02 0.  1.
    10030    2    1    2    0    0  0.00000000000E+00  0.00000000000E+00 -0.14683051293E+04  0.21043957021E+04  0.15075016811E+04 0.  0.
        5    1    3    3  502    0 -0.25283531095E+03  0.70833715010E+03 -0.80326300225E+03  0.11004184447E+04  0.46999998093E+01 0. -1.
       -5    1    3    3    0  502  0.25283531095E+03 -0.70833715010E+03 -0.66504212705E+03  0.10039772574E+04  0.46999998093E+01 0.  1.
</event>
<event>
 5   0  0.2542737E-04  0.1490815E+04  0.7818609E-02  0.8890584E-01
        1   -1    0    0  501    0  0.00000000000E+00  0.00000000000E+00  0.17806164532E+04  0.17806164533E+04  0.50400001928E-02 0. -1.
       -1   -1    0    0    0  501  0.00000000000E+00  0.00000000000E+00 -0.31204499386E+03  0.31204499390E+03  0.50400001928E-02 0.  1.
    10030    2    1    2    0    0  0.00000000000E+00  0.00000000000E+00  0.14685714594E+04  0.20926614472E+04  0.14908151465E+04 0.  0.
        1    1    3    3  502    0 -0.37243955120E+03  0.65042896269E+02 -0.16746705695E+03  0.41350575914E+03  0.50400001928E-02 0.  1.
       -1    1    3    3    0  502  0.37243955120E+03 -0.65042896269E+02  0.16360385163E+04  0.16791556880E+04  0.50400001928E-02 0. -1.
</event>
<event>
 5   0  0.4785496E-04  0.1502572E+04  0.7818609E-02  0.8882744E-01
       -2   -1    0    0    0  501  0.00000000000E+00  0.00000000000E+00  0.83060211089E+03  0.83060211090E+03  0.25500000920E-02 0. -1.
        2   -1    0    0  501    0  0.00000000000E+00  0.00000000000E+00 -0.67954435571E+03  0.67954435572E+03  0.25500000920E-02 0.  1.
    10030    2    1    2    0    0  0.00000000000E+00  0.00000000000E+00  0.15105775518E+03  0.15101464666E+04  0.15025724293E+04 0.  0.
        4    1    3    3  502    0  0.15767452620E+03  0.73092763418E+03  0.14878594141E+03  0.76240103088E+03  0.12699999809E+01 0. -1.
       -4    1    3    3    0  502 -0.15767452620E+03 -0.73092763418E+03  0.22718137677E+01  0.74774543574E+03  0.12699999809E+01 0.  1.
</event>
<event>
 5   0  0.4768387E-04  0.1344781E+04  0.7818609E-02  0.8994788E-01
       -2   -1    0    0    0  501  0.00000000000E+00  0.00000000000E+00  0.62587853431E+03  0.62587853431E+03  0.25500000920E-02 0.  1.
        2   -1    0    0  501    0  0.00000000000E+00  0.00000000000E+00 -0.72235907336E+03  0.72235907337E+03  0.25500000920E-02 0. -1.
    10030    2    1    2    0    0  0.00000000000E+00  0.00000000000E+00 -0.96480539052E+02  0.13482376077E+04  0.13447810797E+04 0.  0.
        3    1    3    3  502    0  0.20212098460E+03  0.30840755970E+02 -0.69043722563E+03  0.72007473041E+03  0.10100000352E+00 0. -1.
       -3    1    3    3    0  502 -0.20212098460E+03 -0.30840755970E+02  0.59395668658E+03  0.62816287727E+03  0.10100000352E+00 0.  1.
</event>
<event>
 5   0  0.4569211E-04  0.1483435E+04  0.7818609E-02  0.8895544E-01
       -2   -1    0    0    0  501  0.00000000000E+00  0.00000000000E+00  0.37341843158E+03  0.37341843159E+03  0.25500000920E-02 0. -1.
        2   -1    0    0  501    0  0.00000000000E+00  0.00000000000E+00 -0.14732659151E+04  0.14732659151E+04  0.25500000920E-02 0.  1.
    10030    2    1    2    0    0  0.00000000000E+00  0.00000000000E+00 -0.10998474836E+04  0.18466843467E+04  0.14834347270E+04 0.  0.
        5    1    3    3  502    0 -0.70929150483E+03  0.18950940433E+03 -0.41868400043E+03  0.84517846362E+03  0.46999998093E+01 0. -1.
       -5    1    3    3    0  502  0.70929150483E+03 -0.18950940433E+03 -0.68116348314E+03  0.10015058831E+04  0.46999998093E+01 0.  1.
</event>
<event>
 5   0  0.4768387E-04  0.1499211E+04  0.7818609E-02  0.8884978E-01
        2   -1    0    0  501    0  0.00000000000E+00  0.00000000000E+00  0.93487606758E+03  0.93487606758E+03  0.25500000920E-02 0. -1.
       -2   -1    0    0    0  501  0.00000000000E+00  0.00000000000E+00 -0.60105150502E+03  0.60105150502E+03  0.25500000920E-02 0.  1.
    10030    2    1    2    0    0  0.00000000000E+00  0.00000000000E+00  0.33382456256E+03  0.15359275726E+04  0.14992113493E+04 0.  0.
        3    1    3    3  502    0  0.73572402045E+03 -0.59650910581E+02  0.33097243195E+02  0.73887989762E+03  0.10100000352E+00 0.  1.
       -3    1    3    3    0  502 -0.73572402045E+03  0.59650910581E+02  0.30072731936E+03  0.79704767499E+03  0.10100000352E+00 0. -1.
</event>
<event>
 5   0  0.2605471E-04  0.1499802E+04  0.7818609E-02  0.8884585E-01
        1   -1    0    0  501    0  0.00000000000E+00  0.00000000000E+00  0.13364992712E+04  0.13364992712E+04  0.50400001928E-02 0. -1.
       -1   -1    0    0    0  501  0.00000000000E+00  0.00000000000E+00 -0.42076460612E+03  0.42076460615E+03  0.50400001928E-02 0.  1.
    10030    2    1    2    0    0  0.00000000000E+00  0.00000000000E+00  0.91573466504E+03  0.17572638773E+04  0.14998021062E+04 0.  0.
        3    1    3    3  502    0  0.17622036504E+03  0.47736816137E+03 -0.18752441432E+03  0.54230931646E+03  0.10100000352E+00 0.  1.
       -3    1    3    3    0  502 -0.17622036504E+03 -0.47736816137E+03  0.11032590794E+04  0.12149545609E+04  0.10100000352E+00 0. -1.
</event>
<event>
 5   0  0.2605471E-04  0.1492528E+04  0.7818609E-02  0.8889437E-01
        1   -1    0    0  501    0  0.00000000000E+00  0.00000000000E+00  0.11166225125E+04  0.11166225125E+04  0.50400001928E-02 0.  1.
       -1   -1    0    0    0  501  0.00000000000E+00  0.00000000000E+00 -0.49874488959E+03  0.49874488961E+03  0.50400001928E-02 0. -1.
    10030    2    1    2    0    0  0.00000000000E+00  0.00000000000E+00  0.61787762292E+03  0.16153674021E+04  0.14925277508E+04 0.  0.
        3    1    3    3  502    0  0.35449290027E+03 -0.26958765204E+02  0.10190795721E+04  0.10793123625E+04  0.10100000352E+00 0.  1.
       -3    1    3    3    0  502 -0.35449290027E+03  0.26958765204E+02 -0.40120194914E+03  0.53605503967E+03  0.10100000352E+00 0. -1.
</event>
<event>
 5   0  0.4785496E-04  0.1501681E+04  0.7818609E-02  0.8883336E-01
       -2   -1    0    0    0  501  0.00000000000E+00  0.00000000000E+00  0.30508308436E+03  0.30508308437E+03  0.25500000920E-02 0.  1.
        2   -1    0    0  501    0  0.00000000000E+00  0.00000000000E+00 -0.18478959466E+04  0.18478959466E+04  0.25500000920E-02 0. -1.
    10030    2    1    2    0    0  0.00000000000E+00  0.00000000000E+00 -0.15428128623E+04  0.21529790310E+04  0.15016814509E+04 0.  0.
        4    1    3    3  502    0  0.21524643006E+03  0.25922655450E+03  0.19060351080E+03  0.38711851343E+03  0.12699999809E+01 0.  1.
       -4    1    3    3    0  502 -0.21524643006E+03 -0.25922655450E+03 -0.17334163731E+04  0.17658605176E+04  0.12699999809E+01 0. -1.
</event>
<event>
 5   0  0.2565416E-04  0.1503636E+04  0.7818609E-02  0.8882039E-01
        1   -1    0    0  501    0  0.00000000000E+00  0.00000000000E+00  0.81434248292E+03  0.81434248294E+03  0.50400001928E-02 0.  1.
       -1   -1    0    0    0  501  0.00000000000E+00  0.00000000000E+00 -0.69409416838E+03  0.69409416840E+03  0.50400001928E-02 0. -1.
    10030    2    1    2    0    0  0.00000000000E+00  0.00000000000E+00  0.12024831454E+03  0.15084366513E+04  0.15036360843E+04 0.  0.
        5    1    3    3  502    0  0.43974658078E+03 -0.60723030513E+03  0.42455193977E+01  0.74976383829E+03  0.46999998093E+01 0. -1.
       -5    1    3    3    0  502 -0.43974658078E+03  0.60723030513E+03  0.11600279515E+03  0.75867281305E+03  0.46999998093E+01 0.  1.
</event>
<event>
 5   0  0.1792000E-04  0.1504149E+04  0.7818609E-02  0.8881699E-01
        3   -1    0    0  501    0  0.00000000000E+00  0.00000000000E+00  0.54588882666E+03  0.54588883601E+03  0.10100000352E+00 0. -1.
       -3   -1    0    0    0  501  0.00000000000E+00  0.00000000000E+00 -0.10361374521E+04  0.10361374571E+04  0.10100000352E+00 0.  1.
    10030    2    1    2    0    0  0.00000000000E+00  0.00000000000E+00 -0.49024862547E+03  0.15820262931E+04  0.15041487550E+04 0.  0.
        1    1    3    3  502    0 -0.47899672642E+03  0.55494571243E+03 -0.68459703788E+02  0.73626716532E+03  0.50400001928E-02 0. -1.
       -1    1    3    3    0  502  0.47899672642E+03 -0.55494571243E+03 -0.42178892168E+03  0.84575912773E+03  0.50400001928E-02 0.  1.
</event>
<event>
 5   0  0.2605471E-04  0.1454035E+04  0.7818609E-02  0.8915608E-01
       -1   -1    0    0    0  501  0.00000000000E+00  0.00000000000E+00  0.60402633035E+03  0.60402633037E+03  0.50400001928E-02 0.  1.
        1   -1    0    0  501    0  0.00000000000E+00  0.00000000000E+00 -0.87505146936E+03  0.87505146937E+03  0.50400001928E-02 0. -1.
    10030    2    1    2    0    0  0.00000000000E+00  0.00000000000E+00 -0.27102513900E+03  0.14790777997E+04  0.14540345635E+04 0.  0.
        3    1    3    3  502    0 -0.19378372087E+03 -0.30181442927E+03 -0.77878870613E+03  0.85741235073E+03  0.10100000352E+00 0. -1.
       -3    1    3    3    0  502  0.19378372087E+03  0.30181442927E+03  0.50776356713E+03  0.62166544901E+03  0.10100000352E+00 0.  1.
</event>
<event>
 5   0  0.1792000E-04  0.1497369E+04  0.7818609E-02  0.8886205E-01
       -3   -1    0    0    0  501  0.00000000000E+00  0.00000000000E+00  0.76897051764E+03  0.76897052427E+03  0.10100000352E+00 0. -1.
        3   -1    0    0  501    0  0.00000000000E+00  0.00000000000E+00 -0.72893338601E+03  0.72893339300E+03  0.10100000352E+00 0.  1.
    10030    2    1    2    0    0  0.00000000000E+00  0.00000000000E+00  0.40037131632E+02  0.14979039173E+04  0.14973687500E+04 0.  0.
        2    1    3    3  502    0 -0.48969844786E+03  0.29925359871E+03  0.50099286878E+03  0.76180781091E+03  0.25500000920E-02 0. -1.
       -2    1    3    3    0  502  0.48969844786E+03 -0.29925359871E+03 -0.46095573715E+03  0.73609610636E+03  0.25500000920E-02 0.  1.
</event>
<event>
 5   0  0.2605471E-04  0.1443928E+04  0.7818609E-02  0.8922621E-01
        1   -1    0    0  501    0  0.00000000000E+00  0.00000000000E+00  0.69070090660E+03  0.69070090662E+03  0.50400001928E-02 0.  1.
       -1   -1    0    0    0  501  0.00000000000E+00  0.00000000000E+00 -0.75464241803E+03  0.75464241805E+03  0.50400001928E-02 0. -1.
    10030    2    1    2    0    0  0.00000000000E+00  0.00000000000E+00 -0.63941511434E+02  0.14453433247E+04  0.14439282563E+04 0.  0.
        3    1    3    3  502    0 -0.29422464613E+03  0.58312373265E+03 -0.33989336252E+03  0.73629405678E+03  0.10100000352E+00 0. -1.
       -3    1    3    3    0  502  0.29422464613E+03 -0.58312373265E+03  0.27595185108E+03  0.70904926788E+03  0.10100000352E+00 0.  1.
</event>
<event>
 5   0  0.4948645E-04  0.1513585E+04  0.7818609E-02  0.8875469E-01
        2   -1    0    0  501    0  0.00000000000E+00  0.00000000000E+00  0.74050435116E+03  0.74050435117E+03  0.25500000920E-02 0. -1.
       -2   -1    0    0    0  501  0.00000000000E+00  0.00000000000E+00 -0.77343876162E+03  0.77343876162E+03  0.25500000920E-02 0.  1.
    10030    2    1    2    0    0  0.00000000000E+00  0.00000000000E+00 -0.32934410455E+02  0.15139431128E+04  0.15135848418E+04 0.  0.
        1    1    3    3  502    0 -0.28060758170E+03 -0.67912540540E+02 -0.71619125415E+03  0.77219339587E+03  0.50400001928E-02 0.  1.
       -1    1    3    3    0  502  0.28060758170E+03  0.67912540540E+02  0.68325684370E+03  0.74174971692E+03  0.50400001928E-02 0. -1.
</event>
<event>
 5   0  0.2603873E-04  0.1551462E+04  0.7818609E-02  0.8850934E-01
        1   -1    0    0  501    0  0.00000000000E+00  0.00000000000E+00  0.68766024566E+03  0.68766024568E+03  0.50400001928E-02 0.  1.
       -1   -1    0    0    0  501  0.00000000000E+00  0.00000000000E+00 -0.87508124270E+03  0.87508124271E+03  0.50400001928E-02 0. -1.
    10030    2    1    2    0    0  0.00000000000E+00  0.00000000000E+00 -0.18742099703E+03  0.15627414884E+04  0.15514619974E+04 0.  0.
        2    1    3    3  502    0 -0.38741118299E+03  0.25672550540E+03  0.53190339137E+03  0.70634030579E+03  0.25500000920E-02 0.  1.
       -2    1    3    3    0  502  0.38741118299E+03 -0.25672550540E+03 -0.71932438840E+03  0.85640118261E+03  0.25500000920E-02 0. -1.
</event>
<event>
 5   0  0.2605471E-04  0.1507932E+04  0.7818609E-02  0.8879195E-01
       -1   -1    0    0    0  501  0.00000000000E+00  0.00000000000E+00  0.34142032067E+03  0.34142032071E+03  0.50400001928E-02 0. -1.
        1   -1    0    0  501    0  0.00000000000E+00  0.00000000000E+00 -0.16650003555E+04  0.16650003555E+04  0.50400001928E-02 0.  1.
    10030    2    1    2    0    0  0.00000000000E+00  0.00000000000E+00 -0.13235800348E+04  0.20064206762E+04  0.15079323000E+04 0.  0.
        3    1    3    3  502    0 -0.36964965319E+03 -0.24208503989E+03 -0.14746616580E+04  0.15394391994E+04  0.10100000352E+00 0.  1.
       -3    1    3    3    0  502  0.36964965319E+03  0.24208503989E+03  0.15108162322E+03  0.46698147685E+03  0.10100000352E+00 0. -1.
</event>
<event>
 5   0  0.2603873E-04  0.1487887E+04  0.7818609E-02  0.8892548E-01
        1   -1    0    0  501    0  0.00000000000E+00  0.00000000000E+00  0.67968604214E+03  0.67968604216E+03  0.50400001928E-02 0.  1.
       -1   -1    0    0    0  501  0.00000000000E+00  0.00000000000E+00 -0.81427549796E+03  0.81427549798E+03  0.50400001928E-02 0. -1.
    10030    2    1    2    0    0  0.00000000000E+00  0.00000000000E+00 -0.13458945583E+03  0.14939615401E+04  0.14878866764E+04 0.  0.
        2    1    3    3  502    0  0.55689858706E+03  0.48621801298E+03  0.16157173131E+02  0.73946267429E+03  0.25500000920E-02 0. -1.
       -2    1    3    3    0  502 -0.55689858706E+03 -0.48621801298E+03 -0.15074662896E+03  0.75449886585E+03  0.25500000920E-02 0.  1.
</event>
<event>
 5   0  0.2605471E-04  0.1495861E+04  0.7818609E-02  0.8887210E-01
       -1   -1    0    0    0  501  0.00000000000E+00  0.00000000000E+00  0.69614024232E+03  0.69614024234E+03  0.50400001928E-02 0. -1.
        1   -1    0    0  501    0  0.00000000000E+00  0.00000000000E+00 -0.80357373901E+03  0.80357373903E+03  0.50400001928E-02 0.  1.
    10030    2    1    2    0    0  0.00000000000E+00  0.00000000000E+00 -0.10743349669E+03  0.14997139814E+04  0.14958609794E+04 0.  0.
        3    1    3    3  502    0 -0.18388032583E+03 -0.12001841015E+03  0.66309591486E+03  0.69850740547E+03  0.10100000352E+00 0. -1.
       -3    1    3    3    0  502  0.18388032583E+03  0.12001841015E+03 -0.77052941154E+03  0.80120657589E+03  0.10100000352E+00 0.  1.
</event>
<event>
 5   0  0.4569211E-04  0.1457291E+04  0.7818609E-02  0.8913362E-01
       -2   -1    0    0    0  501  0.00000000000E+00  0.00000000000E+00  0.10171579400E+04  0.10171579400E+04  0.25500000920E-02 0.  1.
        2   -1    0    0  501    0  0.00000000000E+00  0.00000000000E+00 -0.52196818962E+03  0.52196818962E+03  0.25500000920E-02 0. -1.
    10030    2    1    2    0    0  0.00000000000E+00  0.00000000000E+00  0.49518975034E+03  0.15391261296E+04  0.14572907582E+04 0.  0.
        5    1    3    3  502    0 -0.14604554784E+03 -0.71054588082E+03  0.17520968312E+03  0.74627426182E+03  0.46999998093E+01 0. -1.
       -5    1    3    3    0  502  0.14604554784E+03  0.71054588082E+03  0.31998006722E+03  0.79285186776E+03  0.46999998093E+01 0.  1.
</event>
<event>
 5   0  0.4948645E-04  0.1494519E+04  0.7818609E-02  0.8888106E-01
       -2   -1    0    0    0  501  0.00000000000E+00  0.00000000000E+00  0.53830538420E+03  0.53830538421E+03  0.25500000920E-02 0. -1.
        2   -1    0    0  501    0  0.00000000000E+00  0.00000000000E+00 -0.10373227444E+04  0.10373227444E+04  0.25500000920E-02 0.  1.
    10030    2    1    2    0    0  0.00000000000E+00  0.00000000000E+00 -0.49901736015E+03  0.15756281286E+04  0.14945185425E+04 0.  0.
        1    1    3    3  502    0 -0.92575623218E+02  0.69775013874E+03  0.15050249121E+02  0.70402557634E+03  0.50400001928E-02 0. -1.
       -1    1    3    3    0  502  0.92575623218E+02 -0.69775013874E+03 -0.51406760928E+03  0.87160255223E+03  0.50400001928E-02 0.  1.
</event>
<event>
 5   0  0.2542737E-04  0.1493750E+04  0.7818609E-02  0.8888620E-01
       -1   -1    0    0    0  501  0.00000000000E+00  0.00000000000E+00  0.32136221345E+03  0.32136221349E+03  0.50400001928E-02 0.  1.
        1   -1    0    0  501    0  0.00000000000E+00  0.00000000000E+00 -0.17358043114E+04  0.17358043114E+04  0.50400001928E-02 0. -1.
    10030    2    1    2    0    0  0.00000000000E+00  0.00000000000E+00 -0.14144420979E+04  0.20571665248E+04  0.14937495314E+04 0.  0.
        1    1    3    3  502    0 -0.13271458097E+03 -0.11575044125E+03 -0.17068041730E+04  0.17158647411E+04  0.50400001928E-02 0. -1.
       -1    1    3    3    0  502  0.13271458097E+03  0.11575044125E+03  0.29236207508E+03  0.34130178379E+03  0.50400001928E-02 0.  1.
</event>
<event>
 5   0  0.4726600E-04  0.1475306E+04  0.7818609E-02  0.8901042E-01
        2   -1    0    0  501    0  0.00000000000E+00  0.00000000000E+00  0.60481236284E+03  0.60481236285E+03  0.25500000920E-02 0.  1.
       -2   -1    0    0    0  501  0.00000000000E+00  0.00000000000E+00 -0.89967054181E+03  0.89967054182E+03  0.25500000920E-02 0. -1.
    10030    2    1    2    0    0  0.00000000000E+00  0.00000000000E+00 -0.29485817897E+03  0.15044829047E+04  0.14753058885E+04 0.  0.
        2    1    3    3  502    0 -0.42198511490E+03 -0.37197998519E+03  0.33917798482E+03  0.65687308666E+03  0.25500000920E-02 0.  1.
       -2    1    3    3    0  502  0.42198511490E+03  0.37197998519E+03 -0.63403616379E+03  0.84760981801E+03  0.25500000920E-02 0. -1.
</event>
<event>
 5   0  0.4569211E-04  0.1447610E+04  0.7818609E-02  0.8920059E-01
        2   -1    0    0  501    0  0.00000000000E+00  0.00000000000E+00  0.79839304541E+03  0.79839304542E+03  0.25500000920E-02 0. -1.
       -2   -1    0    0    0  501  0.00000000000E+00  0.00000000000E+00 -0.65618487675E+03  0.65618487676E+03  0.25500000920E-02 0.  1.
    10030    2    1    2    0    0  0.00000000000E+00  0.00000000000E+00  0.14220816866E+03  0.14545779222E+04  0.14476096741E+04 0.  0.
        5    1    3    3  502    0 -0.46277092419E+03  0.67937008905E+01 -0.48805304722E+03  0.67262244205E+03  0.46999998093E+01 0.  1.
       -5    1    3    3    0  502  0.46277092419E+03 -0.67937008905E+01  0.63026121588E+03  0.78195548012E+03  0.46999998093E+01 0. -1.
</event>
<event>
 5   0  0.2603873E-04  0.1500735E+04  0.7818609E-02  0.8883965E-01
        1   -1    0    0  501    0  0.00000000000E+00  0.00000000000E+00  0.21018605948E+04  0.21018605948E+04  0.50400001928E-02 0.  1.
       -1   -1    0    0    0  501  0.00000000000E+00  0.00000000000E+00 -0.26788222052E+03  0.26788222056E+03  0.50400001928E-02 0. -1.
    10030    2    1    2    0    0  0.00000000000E+00  0.00000000000E+00  0.18339783742E+04  0.23697428153E+04  0.15007345980E+04 0.  0.
        2    1    3    3  502    0  0.71221464674E+03  0.23382901972E+03  0.96996101592E+03  0.12258670751E+04  0.25500000920E-02 0. -1.
       -2    1    3    3    0  502 -0.71221464674E+03 -0.23382901972E+03  0.86401735832E+03  0.11438757402E+04  0.25500000920E-02 0.  1.
</event>
<event>
 5   0  0.4726600E-04  0.1502367E+04  0.7818609E-02  0.8882881E-01
        2   -1    0    0  501    0  0.00000000000E+00  0.00000000000E+00  0.10947031729E+04  0.10947031729E+04  0.25500000920E-02 0.  1.
       -2   -1    0    0    0  501  0.00000000000E+00  0.00000000000E+00 -0.51546061737E+03  0.51546061738E+03  0.25500000920E-02 0. -1.
    10030    2    1    2    0    0  0.00000000000E+00  0.00000000000E+00  0.57924255556E+03  0.16101637903E+04  0.15023666308E+04 0.  0.
        2    1    3    3  502    0  0.27625918056E+03  0.19666680307E+02 -0.45874260549E+03  0.53586443365E+03  0.25500000920E-02 0. -1.
       -2    1    3    3    0  502 -0.27625918056E+03 -0.19666680307E+02  0.10379851610E+04  0.10742993567E+04  0.25500000920E-02 0.  1.
</event>
<event>
 5   0  0.4768387E-04  0.1510785E+04  0.7818609E-02  0.8877312E-01
        2   -1    0    0  501    0  0.00000000000E+00  0.00000000000E+00  0.12054434687E+04  0.12054434687E+04  0.25500000920E-02 0. -1.
       -2   -1    0    0    0  501  0.00000000000E+00  0.00000000000E+00 -0.47336774290E+03  0.47336774291E+03  0.25500000920E-02 0.  1.
    10030    2    1    2    0    0  0.00000000000E+00  0.00000000000E+00  0.73207572577E+03  0.16788112116E+04  0.15107852977E+04 0.  0.
        3    1    3    3  502    0 -0.47214436592E+03 -0.45372382007E+03  0.78452960529E+03  0.10218964326E+04  0.10100000352E+00 0. -1.
       -3    1    3    3    0  502  0.47214436592E+03  0.45372382007E+03 -0.52453879528E+02  0.65691477898E+03  0.10100000352E+00 0.  1.
</event>
<event>
 5   0  0.2565416E-04  0.1501848E+04  0.7818609E-02  0.8883225E-01
        1   -1    0    0  501    0  0.00000000000E+00  0.00000000000E+00  0.12129830772E+04  0.12129830773E+04  0.50400001928E-02 0.  1.
       -1   -1    0    0    0  501  0.00000000000E+00  0.00000000000E+00 -0.46487595139E+03  0.46487595142E+03  0.50400001928E-02 0. -1.
    10030    2    1    2    0    0  0.00000000000E+00  0.00000000000E+00  0.74810712585E+03  0.16778590287E+04  0.15018477447E+04 0.  0.
        5    1    3    3  502    0  0.30297033882E+03  0.45660393322E+03  0.94762967646E+03  0.10946699374E+04  0.46999998093E+01 0.  1.
       -5    1    3    3    0  502 -0.30297033882E+03 -0.45660393322E+03 -0.19952255061E+03  0.58318909132E+03  0.46999998093E+01 0. -1.
</event>
<event>
 5   0  0.2565416E-04  0.1500668E+04  0.7818609E-02  0.8884009E-01
        1   -1    0    0  501    0  0.00000000000E+00  0.00000000000E+00  0.81566299771E+03  0.81566299773E+03  0.50400001928E-02 0.  1.
       -1   -1    0    0    0  501  0.00000000000E+00  0.00000000000E+00 -0.69023736795E+03  0.69023736796E+03  0.50400001928E-02 0. -1.
    10030    2    1    2    0    0  0.00000000000E+00  0.00000000000E+00  0.12542562977E+03  0.15059003657E+04  0.15006679589E+04 0.  0.
        5    1    3    3  502    0 -0.20126132713E+03 -0.67649722111E+03 -0.19278124677E+03  0.73167022017E+03  0.46999998093E+01 0. -1.
       -5    1    3    3    0  502  0.20126132713E+03  0.67649722111E+03  0.31820687654E+03  0.77423014553E+03  0.46999998093E+01 0.  1.
</event>
<event>
 5   0  0.4948645E-04  0.1491679E+04  0.7818609E-02  0.8890005E-01
        2   -1    0    0  501    0  0.00000000000E+00  0.00000000000E+00  0.10124666894E+04  0.10124666894E+04  0.25500000920E-02 0.  1.
       -2   -1    0    0    0  501  0.00000000000E+00  0.00000000000E+00 -0.54942677839E+03  0.54942677840E+03  0.25500000920E-02 0. -1.
    10030    2    1    2    0    0  0.00000000000E+00  0.00000000000E+00  0.46303991098E+03  0.15618934678E+04  0.14916786670E+04 0.  0.
        1    1    3    3  502    0  0.13141900936E+03  0.68753381146E+03 -0.38093432239E+02  0.70101698091E+03  0.50400001928E-02 0. -1.
       -1    1    3    3    0  502 -0.13141900936E+03 -0.68753381146E+03  0.50113334322E+03  0.86087648686E+03  0.50400001928E-02 0.  1.
</event>
<event>
 5   0  0.2544374E-04  0.1502326E+04  0.7818609E-02  0.8882908E-01
       -1   -1    0    0    0  501  0.00000000000E+00  0.00000000000E+00  0.63559265179E+03  0.63559265181E+03  0.50400001928E-02 0. -1.
        1   -1    0    0  501    0  0.00000000000E+00  0.00000000000E+00 -0.88774764857E+03  0.88774764858E+03  0.50400001928E-02 0.  1.
    10030    2    1    2    0    0  0.00000000000E+00  0.00000000000E+00 -0.25215499678E+03  0.15233403004E+04  0.15023260393E+04 0.  0.
        4    1    3    3  502    0 -0.18356070541E+03 -0.63229261622E+03 -0.49273720916E+03  0.82236248412E+03  0.12699999809E+01 0.  1.
       -4    1    3    3    0  502  0.18356070541E+03  0.63229261622E+03  0.24058221238E+03  0.70097781627E+03  0.12699999809E+01 0. -1.
</event>
<event>
 5   0  0.2603873E-04  0.1487645E+04  0.7818609E-02  0.8892711E-01
        1   -1    0    0  501    0  0.00000000000E+00  0.00000000000E+00  0.10926433552E+04  0.10926433552E+04  0.50400001928E-02 0.  1.
       -1   -1    0    0    0  501  0.00000000000E+00  0.00000000000E+00 -0.50636098062E+03  0.50636098065E+03  0.50400001928E-02 0. -1.
    10030    2    1    2    0    0  0.00000000000E+00  0.00000000000E+00  0.58628237455E+03  0.15990043358E+04  0.14876450663E+04 0.  0.
        2    1    3    3  502    0 -0.70114762642E+03 -0.21152702023E+03  0.43295631744E+03  0.85076603548E+03  0.25500000920E-02 0. -1.
       -2    1    3    3    0  502  0.70114762642E+03  0.21152702023E+03  0.15332605711E+03  0.74823830035E+03  0.25500000920E-02 0.  1.
</event>
<event>
 5   0  0.4785496E-04  0.1478606E+04  0.7818609E-02  0.8898806E-01
       -2   -1    0    0    0  501  0.00000000000E+00  0.00000000000E+00  0.58578911985E+03  0.58578911986E+03  0.25500000920E-02 0.  1.
        2   -1    0    0  501    0  0.00000000000E+00  0.00000000000E+00 -0.93304692942E+03  0.93304692942E+03  0.25500000920E-02 0. -1.
    10030    2    1    2    0    0  0.00000000000E+00  0.00000000000E+00 -0.34725780957E+03  0.15188360493E+04  0.14786057481E+04 0.  0.
        4    1    3    3  502    0 -0.12918351213E+03  0.10174327682E+03 -0.91402239168E+03  0.92869727015E+03  0.12699999809E+01 0. -1.
       -4    1    3    3    0  502  0.12918351213E+03 -0.10174327682E+03  0.56676458212E+03  0.59013877913E+03  0.12699999809E+01 0.  1.
</event>
<event>
 5   0  0.4726600E-04  0.1505146E+04  0.7818609E-02  0.8881038E-01
       -2   -1    0    0    0  501  0.00000000000E+00  0.00000000000E+00  0.57720710330E+03  0.57720710331E+03  0.25500000920E-02 0.  1.
        2   -1    0    0  501    0  0.00000000000E+00  0.00000000000E+00 -0.98121861860E+03  0.98121861860E+03  0.25500000920E-02 0. -1.
    10030    2    1    2    0    0  0.00000000000E+00  0.00000000000E+00 -0.40401151530E+03  0.15584257219E+04  0.15051463139E+04 0.  0.
        2    1    3    3  502    0 -0.28806465218E+02  0.38337066170E+03  0.46786042693E+03  0.60555450273E+03  0.25500000920E-02 0.  1.
       -2    1    3    3    0  502  0.28806465218E+02 -0.38337066170E+03 -0.87187194222E+03  0.95287121917E+03  0.25500000920E-02 0. -1.
</event>
<event>
 5   0  0.4768387E-04  0.1511101E+04  0.7818609E-02  0.8877104E-01
        2   -1    0    0  501    0  0.00000000000E+00  0.00000000000E+00  0.13995515263E+04  0.13995515263E+04  0.25500000920E-02 0.  1.
       -2   -1    0    0    0  501  0.00000000000E+00  0.00000000000E+00 -0.40788524081E+03  0.40788524082E+03  0.25500000920E-02 0. -1.
    10030    2    1    2    0    0  0.00000000000E+00  0.00000000000E+00  0.99166628547E+03  0.18074367671E+04  0.15111008058E+04 0.  0.
        3    1    3    3  502    0  0.40069547815E+03  0.40268931061E+03 -0.99991980730E+02  0.57681362111E+03  0.10100000352E+00 0. -1.
       -3    1    3    3    0  502 -0.40069547815E+03 -0.40268931061E+03  0.10916582662E+04  0.12306231460E+04  0.10100000352E+00 0.  1.
</event>
<event>
 5   0  0.1792000E-04  0.1497212E+04  0.7818609E-02  0.8886309E-01
        4   -1    0    0  501    0  0.00000000000E+00  0.00000000000E+00  0.11197719642E+04  0.11197726844E+04  0.12699999809E+01 0. -1.
       -4   -1    0    0    0  501  0.00000000000E+00  0.00000000000E+00 -0.50046714934E+03  0.50046876074E+03  0.12699999809E+01 0.  1.
    10030    2    1    2    0    0  0.00000000000E+00  0.00000000000E+00  0.61930481484E+03  0.16202414451E+04  0.14972120380E+04 0.  0.
        4    1    3    3  502    0  0.50706231710E+03 -0.20840928418E+03 -0.24200369890E+03  0.59926123380E+03  0.12699999809E+01 0.  1.
       -4    1    3    3    0  502 -0.50706231710E+03  0.20840928418E+03  0.86130851374E+03  0.10209802113E+04  0.12699999809E+01 0. -1.
</event>
<event>
 5   0  0.4785496E-04  0.1489106E+04  0.7818609E-02  0.8891729E-01
       -2   -1    0    0    0  501  0.00000000000E+00  0.00000000000E+00  0.63442443456E+03  0.63442443457E+03  0.25500000920E-02 0. -1.
        2   -1    0    0  501    0  0.00000000000E+00  0.00000000000E+00 -0.87379909928E+03  0.87379909928E+03  0.25500000920E-02 0.  1.
    10030    2    1    2    0    0  0.00000000000E+00  0.00000000000E+00 -0.23937466472E+03  0.15082235339E+04  0.14891064428E+04 0.  0.
        4    1    3    3  502    0 -0.48476931577E+03  0.31796844725E+03 -0.59286010536E+03  0.82921043191E+03  0.12699999809E+01 0. -1.
       -4    1    3    3    0  502  0.48476931577E+03 -0.31796844725E+03  0.35348544064E+03  0.67901310194E+03  0.12699999809E+01 0.  1.
</event>
<event>
 5   0  0.4768387E-04  0.1531280E+04  0.7818609E-02  0.8863915E-01
       -2   -1    0    0    0  501  0.00000000000E+00  0.00000000000E+00  0.78418836374E+03  0.78418836375E+03  0.25500000920E-02 0.  1.
        2   -1    0    0  501    0  0.00000000000E+00  0.00000000000E+00 -0.74753010661E+03  0.74753010661E+03  0.25500000920E-02 0. -1.
    10030    2    1    2    0    0  0.00000000000E+00  0.00000000000E+00  0.36658257138E+02  0.15317184704E+04  0.15312797408E+04 0.  0.
        3    1    3    3  502    0  0.23837683716E+03 -0.81320795840E+02 -0.70490486795E+03  0.74855024640E+03  0.10100000352E+00 0. -1.
       -3    1    3    3    0  502 -0.23837683716E+03  0.81320795840E+02  0.74156312509E+03  0.78316822396E+03  0.10100000352E+00 0.  1.
</event>
<event>
 5   0  0.2605471E-04  0.1532084E+04  0.7818609E-02  0.8863393E-01
       -1   -1    0    0    0  501  0.00000000000E+00  0.00000000000E+00  0.71052818881E+03  0.71052818883E+03  0.50400001928E-02 0.  1.
        1   -1    0    0  501    0  0.00000000000E+00  0.00000000000E+00 -0.82589336116E+03  0.82589336118E+03  0.50400001928E-02 0. -1.
    10030    2    1    2    0    0  0.00000000000E+00  0.00000000000E+00 -0.11536517236E+03  0.15364215500E+04  0.15320842197E+04 0.  0.
        3    1    3    3  502    0 -0.42792148725E+03 -0.10310688684E+03 -0.68641257769E+03  0.81542017781E+03  0.10100000352E+00 0. -1.
       -3    1    3    3    0  502  0.42792148725E+03  0.10310688684E+03  0.57104740534E+03  0.72100137219E+03  0.10100000352E+00 0.  1.
</event>
<event>
 5   0  0.4768387E-04  0.1505866E+04  0.7818609E-02  0.8880562E-01
       -2   -1    0    0    0  501  0.00000000000E+00  0.00000000000E+00  0.71208251011E+03  0.71208251012E+03  0.25500000920E-02 0. -1.
        2   -1    0    0  501    0  0.00000000000E+00  0.00000000000E+00 -0.79612650722E+03  0.79612650722E+03  0.25500000920E-02 0.  1.
    10030    2    1    2    0    0  0.00000000000E+00  0.00000000000E+00 -0.84043997107E+02  0.15082090173E+04  0.15058655473E+04 0.  0.
        3    1    3    3  502    0 -0.21513163230E+03  0.49954777528E+03  0.47943991543E+03  0.72504637211E+03  0.10100000352E+00 0. -1.
       -3    1    3    3    0  502  0.21513163230E+03 -0.49954777528E+03 -0.56348391253E+03  0.78316264523E+03  0.10100000352E+00 0.  1.
</event>
<event>
 5   0  0.2603873E-04  0.1516776E+04  0.7818609E-02  0.8873373E-01
       -1   -1    0    0    0  501  0.00000000000E+00  0.00000000000E+00  0.88602937012E+03  0.88602937013E+03  0.50400001928E-02 0. -1.
        1   -1    0    0  501    0  0.00000000000E+00  0.00000000000E+00 -0.64913495969E+03  0.64913495971E+03  0.50400001928E-02 0.  1.
    10030    2    1    2    0    0  0.00000000000E+00  0.00000000000E+00  0.23689441043E+03  0.15351643298E+04  0.15167763704E+04 0.  0.
        2    1    3    3  502    0 -0.74556861514E+03 -0.13289723836E+03  0.77730114664E+02  0.76129902573E+03  0.25500000920E-02 0. -1.
       -2    1    3    3    0  502  0.74556861514E+03  0.13289723836E+03  0.15916429576E+03  0.77386530411E+03  0.25500000920E-02 0.  1.
</event>
<event>
 5   0  0.2542737E-04  0.1510709E+04  0.7818609E-02  0.8877363E-01
        1   -1    0    0  501    0  0.00000000000E+00  0.00000000000E+00  0.59155792743E+03  0.59155792745E+03  0.50400001928E-02 0. -1.
       -1   -1    0    0    0  501  0.00000000000E+00  0.00000000000E+00 -0.96450484072E+03  0.96450484074E+03  0.50400001928E-02 0.  1.
    10030    2    1    2    0    0  0.00000000000E+00  0.00000000000E+00 -0.37294691330E+03  0.15560627682E+04  0.15107090846E+04 0.  0.
        1    1    3    3  502    0 -0.26956205066E+03 -0.21232402263E+03 -0.87959087739E+03  0.94415321922E+03  0.50400001928E-02 0.  1.
       -1    1    3    3    0  502  0.26956205066E+03  0.21232402263E+03  0.50664396409E+03  0.61190954897E+03  0.50400001928E-02 0. -1.
</event>
<event>
 5   0  0.4785496E-04  0.1519255E+04  0.7818609E-02  0.8871748E-01
        2   -1    0    0  501    0  0.00000000000E+00  0.00000000000E+00  0.57677163973E+03  0.57677163973E+03  0.25500000920E-02 0.  1.
       -2   -1    0    0    0  501  0.00000000000E+00  0.00000000000E+00 -0.10004553606E+04  0.10004553607E+04  0.25500000920E-02 0. -1.
    10030    2    1    2    0    0  0.00000000000E+00  0.00000000000E+00 -0.42368372092E+03  0.15772270004E+04  0.15192554477E+04 0.  0.
        4    1    3    3  502    0 -0.43783055482E+03  0.22822210306E+03 -0.81114922637E+03  0.94960286615E+03  0.12699999809E+01 0. -1.
       -4    1    3    3    0  502  0.43783055482E+03 -0.22822210306E+03  0.38746550545E+03  0.62762413423E+03  0.12699999809E+01 0.  1.
</event>
<event>
 5   0  0.4785496E-04  0.1497049E+04  0.7818609E-02  0.8886417E-01
        2   -1    0    0  501    0  0.00000000000E+00  0.00000000000E+00  0.75657186239E+03  0.75657186240E+03  0.25500000920E-02 0.  1.
       -2   -1    0    0    0  501  0.00000000000E+00  0.00000000000E+00 -0.74056322268E+03  0.74056322269E+03  0.25500000920E-02 0. -1.
    10030    2    1    2    0    0  0.00000000000E+00  0.00000000000E+00  0.16008639710E+02  0.14971350851E+04  0.14970494937E+04 0.  0.
        4    1    3    3  502    0  0.42241738866E+03  0.90499200736E+01  0.62591449762E+03  0.75517476290E+03  0.12699999809E+01 0.  1.
       -4    1    3    3    0  502 -0.42241738866E+03 -0.90499200736E+01 -0.60990585791E+03  0.74196032219E+03  0.12699999809E+01 0. -1.
</event>
<event>
 5   0  0.4785496E-04  0.1520224E+04  0.7818609E-02  0.8871114E-01
       -2   -1    0    0    0  501  0.00000000000E+00  0.00000000000E+00  0.64835929046E+03  0.64835929047E+03  0.25500000920E-02 0.  1.
        2   -1    0    0  501    0  0.00000000000E+00  0.00000000000E+00 -0.89112702292E+03  0.89112702293E+03  0.25500000920E-02 0. -1.
    10030    2    1    2    0    0  0.00000000000E+00  0.00000000000E+00 -0.24276773246E+03  0.15394863134E+04  0.15202243049E+04 0.  0.
        4    1    3    3  502    0  0.55124037738E+02 -0.50394800746E+03 -0.69492258648E+03  0.86018676336E+03  0.12699999809E+01 0. -1.
       -4    1    3    3    0  502 -0.55124037738E+02  0.50394800746E+03  0.45215485402E+03  0.67929955003E+03  0.12699999809E+01 0.  1.
</event>
<event>
 5   0  0.1792000E-04  0.1497676E+04  0.7818609E-02  0.8886000E-01
       -3   -1    0    0    0  501  0.00000000000E+00  0.00000000000E+00  0.93821103467E+03  0.93821104011E+03  0.10100000352E+00 0.  1.
        3   -1    0    0  501    0  0.00000000000E+00  0.00000000000E+00 -0.59768880240E+03  0.59768881094E+03  0.10100000352E+00 0. -1.
    10030    2    1    2    0    0  0.00000000000E+00  0.00000000000E+00  0.34052223227E+03  0.15358998510E+04  0.14976758534E+04 0.  0.
        1    1    3    3  502    0  0.30084856221E+03  0.66886767260E+03  0.15192053714E+02  0.73356977811E+03  0.50400001928E-02 0.  1.
       -1    1    3    3    0  502 -0.30084856221E+03 -0.66886767260E+03  0.32533017856E+03  0.80233007294E+03  0.50400001928E-02 0. -1.
</event>
<event>
 5   0  0.2542737E-04  0.1492329E+04  0.7818609E-02  0.8889570E-01
       -1   -1    0    0    0  501  0.00000000000E+00  0.00000000000E+00  0.47592575834E+03  0.47592575836E+03  0.50400001928E-02 0. -1.
        1   -1    0    0  501    0  0.00000000000E+00  0.00000000000E+00 -0.11698493480E+04  0.11698493480E+04  0.50400001928E-02 0.  1.
    10030    2    1    2    0    0  0.00000000000E+00  0.00000000000E+00 -0.69392358965E+03  0.16457751064E+04  0.14923289692E+04 0.  0.
        1    1    3    3  502    0  0.47494960326E+03 -0.50112401215E+03 -0.65900239172E+03  0.95445615588E+03  0.50400001928E-02 0. -1.
       -1    1    3    3    0  502 -0.47494960326E+03  0.50112401215E+03 -0.34921197930E+02  0.69131895047E+03  0.50400001928E-02 0.  1.
</event>
<event>
 5   0  0.1792000E-04  0.1514242E+04  0.7818609E-02  0.8875037E-01
       -3   -1    0    0    0  501  0.00000000000E+00  0.00000000000E+00  0.42726101843E+03  0.42726103037E+03  0.10100000352E+00 0. -1.
        3   -1    0    0  501    0  0.00000000000E+00  0.00000000000E+00 -0.13416439191E+04  0.13416439229E+04  0.10100000352E+00 0.  1.
    10030    2    1    2    0    0  0.00000000000E+00  0.00000000000E+00 -0.91438290068E+03  0.17689049533E+04  0.15142419373E+04 0.  0.
        3    1    3    3  502    0  0.42088300211E+03  0.62921449795E+03 -0.47281035487E+03  0.89252620565E+03  0.10100000352E+00 0. -1.
       -3    1    3    3    0  502 -0.42088300211E+03 -0.62921449795E+03 -0.44157254581E+03  0.87637874763E+03  0.10100000352E+00 0.  1.
</event>
<event>
 5   0  0.4768387E-04  0.1495923E+04  0.7818609E-02  0.8887168E-01
        2   -1    0    0  501    0  0.00000000000E+00  0.00000000000E+00  0.10453073649E+04  0.10453073649E+04  0.25500000920E-02 0. -1.
       -2   -1    0    0    0  501  0.00000000000E+00  0.00000000000E+00 -0.53519811245E+03  0.53519811246E+03  0.25500000920E-02 0.  1.
    10030    2    1    2    0    0  0.00000000000E+00  0.00000000000E+00  0.51010925248E+03  0.15805054774E+04  0.14959231647E+04 0.  0.
        3    1    3    3  502    0  0.66865576236E+03 -0.10620164299E+03 -0.80831323058E+02  0.68184531274E+03  0.10100000352E+00 0.  1.
       -3    1    3    3    0  502 -0.66865576236E+03  0.10620164299E+03  0.59094057554E+03  0.89866016465E+03  0.10100000352E+00 0. -1.
</event>
<event>
 5   0  0.4948645E-04  0.1397808E+04  0.7818609E-02  0.8955407E-01
       -2   -1    0    0    0  501  0.00000000000E+00  0.00000000000E+00  0.11652954827E+04  0.11652954827E+04  0.25500000920E-02 0.  1.
        2   -1    0    0  501    0  0.00000000000E+00  0.00000000000E+00 -0.41917865232E+03  0.41917865233E+03  0.25500000920E-02 0. -1.
    10030    2    1    2    0    0  0.00000000000E+00  0.00000000000E+00  0.74611683035E+03  0.15844741350E+04  0.13978082701E+04 0.  0.
        1    1    3    3  502    0  0.27716666315E+03  0.36540358761E+03  0.97086160147E+03  0.10737380454E+04  0.50400001928E-02 0.  1.
       -1    1    3    3    0  502 -0.27716666315E+03 -0.36540358761E+03 -0.22474477112E+03  0.51073608955E+03  0.50400001928E-02 0. -1.
</event>
<event>
 5   0  0.1792000E-04  0.1505138E+04  0.7818609E-02  0.8881043E-01
       -4   -1    0    0    0  501  0.00000000000E+00  0.00000000000E+00  0.92461666449E+03  0.92461753669E+03  0.12699999809E+01 0.  1.
        4   -1    0    0  501    0  0.00000000000E+00  0.00000000000E+00 -0.61253355983E+03  0.61253487641E+03  0.12699999809E+01 0. -1.
    10030    2    1    2    0    0  0.00000000000E+00  0.00000000000E+00  0.31208310466E+03  0.15371524131E+04  0.15051384245E+04 0.  0.
        1    1    3    3  502    0 -0.37058199887E+03 -0.73513495289E+02 -0.50866715056E+03  0.63362253903E+03  0.50400001928E-02 0. -1.
       -1    1    3    3    0  502  0.37058199887E+03  0.73513495289E+02  0.82075025523E+03  0.90352987408E+03  0.50400001928E-02 0.  1.
</event>
<event>
 5   0  0.2542737E-04  0.1500141E+04  0.7818609E-02  0.8884359E-01
        1   -1    0    0  501    0  0.00000000000E+00  0.00000000000E+00  0.63739336969E+03  0.63739336971E+03  0.50400001928E-02 0.  1.
       -1   -1    0    0    0  501  0.00000000000E+00  0.00000000000E+00 -0.88266693574E+03  0.88266693575E+03  0.50400001928E-02 0. -1.
    10030    2    1    2    0    0  0.00000000000E+00  0.00000000000E+00 -0.24527356604E+03  0.15200603055E+04  0.15001413967E+04 0.  0.
        1    1    3    3  502    0  0.74698199234E+03  0.63085161476E+02 -0.14835524843E+03  0.76418002738E+03  0.50400001928E-02 0.  1.
       -1    1    3    3    0  502 -0.74698199234E+03 -0.63085161476E+02 -0.96918317613E+02  0.75588027809E+03  0.50400001928E-02 0. -1.
</event>
<event>
 5   0  0.2603873E-04  0.1501297E+04  0.7818609E-02  0.8883591E-01
        1   -1    0    0  501    0  0.00000000000E+00  0.00000000000E+00  0.45771894672E+03  0.45771894675E+03  0.50400001928E-02 0. -1.
       -1   -1    0    0    0  501  0.00000000000E+00  0.00000000000E+00 -0.12310462189E+04  0.12310462189E+04  0.50400001928E-02 0.  1.
    10030    2    1    2    0    0  0.00000000000E+00  0.00000000000E+00 -0.77332727215E+03  0.16887651656E+04  0.15012970108E+04 0.  0.
        2    1    3    3  502    0 -0.59889673813E+02 -0.72347832527E+03 -0.17185890673E+03  0.74601819280E+03  0.25500000920E-02 0. -1.
       -2    1    3    3    0  502  0.59889673813E+02  0.72347832527E+03 -0.60146836541E+03  0.94274697282E+03  0.25500000920E-02 0.  1.
</event>
<event>
 5   0  0.4768387E-04  0.1501806E+04  0.7818609E-02  0.8883253E-01
        2   -1    0    0  501    0  0.00000000000E+00  0.00000000000E+00  0.24787735138E+04  0.24787735138E+04  0.25500000920E-02 0.  1.
       -2   -1    0    0    0  501  0.00000000000E+00  0.00000000000E+00 -0.22747352537E+03  0.22747352538E+03  0.25500000920E-02 0. -1.
    10030    2    1    2    0    0  0.00000000000E+00  0.00000000000E+00  0.22512999884E+04  0.27062470392E+04  0.15018060458E+04 0.  0.
        3    1    3    3  502    0  0.33353322413E+03  0.25880015533E+03  0.66220927502E+01  0.42221534116E+03  0.10100000352E+00 0. -1.
       -3    1    3    3    0  502 -0.33353322413E+03 -0.25880015533E+03  0.22446778957E+04  0.22840316980E+04  0.10100000352E+00 0.  1.
</event>
<event>
 5   0  0.2603873E-04  0.1497537E+04  0.7818609E-02  0.8886092E-01
        1   -1    0    0  501    0  0.00000000000E+00  0.00000000000E+00  0.62053721202E+03  0.62053721205E+03  0.50400001928E-02 0. -1.
       -1   -1    0    0    0  501  0.00000000000E+00  0.00000000000E+00 -0.90349814739E+03  0.90349814740E+03  0.50400001928E-02 0.  1.
    10030    2    1    2    0    0  0.00000000000E+00  0.00000000000E+00 -0.28296093536E+03  0.15240353594E+04  0.14975369397E+04 0.  0.
        2    1    3    3  502    0  0.32789155754E+02  0.58735203506E+03  0.32996232243E+03  0.67448697249E+03  0.25500000920E-02 0. -1.
       -2    1    3    3    0  502 -0.32789155754E+02 -0.58735203506E+03 -0.61292325779E+03  0.84954838696E+03  0.25500000920E-02 0.  1.
</event>
<event>
 5   0  0.4726600E-04  0.1498987E+04  0.7818609E-02  0.8885127E-01
       -2   -1    0    0    0  501  0.00000000000E+00  0.00000000000E+00  0.27954699832E+03  0.27954699833E+03  0.25500000920E-02 0.  1.
        2   -1    0    0  501    0  0.00000000000E+00  0.00000000000E+00 -0.20094683608E+04  0.20094683608E+04  0.25500000920E-02 0. -1.
    10030    2    1    2    0    0  0.00000000000E+00  0.00000000000E+00 -0.17299213625E+04  0.22890153591E+04  0.14989874562E+04 0.  0.
        2    1    3    3  502    0 -0.56692944205E+03 -0.12163825096E+02 -0.16133415074E+04  0.17100958366E+04  0.25500000920E-02 0. -1.
       -2    1    3    3    0  502  0.56692944205E+03  0.12163825096E+02 -0.11657985506E+03  0.57891952249E+03  0.25500000920E-02 0.  1.
</event>
<event>
 5   0  0.2605471E-04  0.1504394E+04  0.7818609E-02  0.8881536E-01
        1   -1    0    0  501    0  0.00000000000E+00  0.00000000000E+00  0.95932504117E+03  0.95932504118E+03  0.50400001928E-02 0. -1.
       -1   -1    0    0    0  501  0.00000000000E+00  0.00000000000E+00 -0.58979033946E+03  0.58979033948E+03  0.50400001928E-02 0.  1.
    10030    2    1    2    0    0  0.00000000000E+00  0.00000000000E+00  0.36953470170E+03  0.15491153807E+04  0.15043944186E+04 0.  0.
        3    1    3    3  502    0 -0.20731850950E+03 -0.18679207571E+03 -0.53451614504E+03  0.60297575692E+03  0.10100000352E+00 0.  1.
       -3    1    3    3    0  502  0.20731850950E+03  0.18679207571E+03  0.90405084674E+03  0.94613962375E+03  0.10100000352E+00 0. -1.
</event>
<event>
 5   0  0.2542737E-04  0.1498446E+04  0.7818609E-02  0.8885487E-01
       -1   -1    0    0    0  501  0.00000000000E+00  0.00000000000E+00  0.77203241380E+03  0.77203241382E+03  0.50400001928E-02 0. -1.
        1   -1    0    0  501    0  0.00000000000E+00  0.00000000000E+00 -0.72708752964E+03  0.72708752966E+03  0.50400001928E-02 0.  1.
    10030    2    1    2    0    0  0.00000000000E+00  0.00000000000E+00  0.44944884163E+02  0.14991199435E+04  0.14984460492E+04 0.  0.
        1    1    3    3  502    0 -0.32676799691E+03 -0.44579289044E+03 -0.48354798480E+03  0.73438905125E+03  0.50400001928E-02 0.  1.
       -1    1    3    3    0  502  0.32676799691E+03  0.44579289044E+03  0.52849286896E+03  0.76473089223E+03  0.50400001928E-02 0. -1.
</event>
<event>
 5   0  0.4785496E-04  0.1353284E+04  0.7818609E-02  0.8988346E-01
       -2   -1    0    0    0  501  0.00000000000E+00  0.00000000000E+00  0.32110078969E+03  0.32110078970E+03  0.25500000920E-02 0. -1.
        2   -1    0    0  501    0  0.00000000000E+00  0.00000000000E+00 -0.14258585875E+04  0.14258585875E+04  0.25500000920E-02 0.  1.
    10030    2    1    2    0    0  0.00000000000E+00  0.00000000000E+00 -0.11047577978E+04  0.17469593772E+04  0.13532838851E+04 0.  0.
        4    1    3    3  502    0 -0.64298169287E+03  0.13197961887E+03 -0.76449065845E+03  0.10076168205E+04  0.12699999809E+01 0. -1.
       -4    1    3    3    0  502  0.64298169287E+03 -0.13197961887E+03 -0.34026713938E+03  0.73934255674E+03  0.12699999809E+01 0.  1.
</event>
<event>
 5   0  0.4569211E-04  0.1499376E+04  0.7818609E-02  0.8884868E-01
        2   -1    0    0  501    0  0.00000000000E+00  0.00000000000E+00  0.12048774743E+04  0.12048774743E+04  0.25500000920E-02 0.  1.
       -2   -1    0    0    0  501  0.00000000000E+00  0.00000000000E+00 -0.46646402736E+03  0.46646402737E+03  0.25500000920E-02 0. -1.
    10030    2    1    2    0    0  0.00000000000E+00  0.00000000000E+00  0.73841344693E+03  0.16713415017E+04  0.14993758690E+04 0.  0.
        5    1    3    3  502    0  0.64149821330E+03 -0.18896371837E+03  0.74685963011E+03  0.10025211427E+04  0.46999998093E+01 0.  1.
       -5    1    3    3    0  502 -0.64149821330E+03  0.18896371837E+03 -0.84461831812E+01  0.66882035894E+03  0.46999998093E+01 0. -1.
</event>
<event>
 5   0  0.2603873E-04  0.1491040E+04  0.7818609E-02  0.8890433E-01
       -1   -1    0    0    0  501  0.00000000000E+00  0.00000000000E+00  0.53797792958E+03  0.53797792961E+03  0.50400001928E-02 0.  1.
        1   -1    0    0  501    0  0.00000000000E+00  0.00000000000E+00 -0.10331273738E+04  0.10331273738E+04  0.50400001928E-02 0. -1.
    10030    2    1    2    0    0  0.00000000000E+00  0.00000000000E+00 -0.49514944417E+03  0.15711053034E+04  0.14910395374E+04 0.  0.
        2    1    3    3  502    0  0.10131879020E+03  0.43743637811E+03 -0.87466545883E+03  0.98318652707E+03  0.25500000920E-02 0. -1.
       -2    1    3    3    0  502 -0.10131879020E+03 -0.43743637811E+03  0.37951601466E+03  0.58791877630E+03  0.25500000920E-02 0.  1.
</event>
<event>
 5   0  0.2603873E-04  0.1505282E+04  0.7818609E-02  0.8880948E-01
       -1   -1    0    0    0  501  0.00000000000E+00  0.00000000000E+00  0.14159303448E+04  0.14159303448E+04  0.50400001928E-02 0.  1.
        1   -1    0    0  501    0  0.00000000000E+00  0.00000000000E+00 -0.40006820212E+03  0.40006820216E+03  0.50400001928E-02 0. -1.
    10030    2    1    2    0    0  0.00000000000E+00  0.00000000000E+00  0.10158621427E+04  0.18159985469E+04  0.15052823089E+04 0.  0.
        2    1    3    3  502    0 -0.65853427636E+03 -0.21996450164E+03  0.15741145954E+03  0.71192003956E+03  0.25500000920E-02 0. -1.
       -2    1    3    3    0  502  0.65853427636E+03  0.21996450164E+03  0.85845068311E+03  0.11040785074E+04  0.25500000920E-02 0.  1.
</event>
<event>
 5   0  0.2542737E-04  0.1494070E+04  0.7818609E-02  0.8888406E-01
       -1   -1    0    0    0  501  0.00000000000E+00  0.00000000000E+00  0.53457572859E+03  0.53457572861E+03  0.50400001928E-02 0. -1.
        1   -1    0    0  501    0  0.00000000000E+00  0.00000000000E+00 -0.10439331971E+04  0.10439331971E+04  0.50400001928E-02 0.  1.
    10030    2    1    2    0    0  0.00000000000E+00  0.00000000000E+00 -0.50935746850E+03  0.15785089257E+04  0.14940700780E+04 0.  0.
        1    1    3    3  502    0 -0.32858200181E+03  0.55457271190E+03 -0.65356679667E+03  0.91796872629E+03  0.50400001928E-02 0.  1.
       -1    1    3    3    0  502  0.32858200181E+03 -0.55457271190E+03  0.14420932817E+03  0.66054019943E+03  0.50400001928E-02 0. -1.
</event>
<event>
 5   0  0.2565416E-04  0.1503619E+04  0.7818609E-02  0.8882050E-01
        1   -1    0    0  501    0  0.00000000000E+00  0.00000000000E+00  0.12344136860E+04  0.12344136860E+04  0.50400001928E-02 0. -1.
       -1   -1    0    0    0  501  0.00000000000E+00  0.00000000000E+00 -0.45788331027E+03  0.45788331030E+03  0.50400001928E-02 0.  1.
    10030    2    1    2    0    0  0.00000000000E+00  0.00000000000E+00  0.77653037574E+03  0.16922969963E+04  0.15036188677E+04 0.  0.
        5    1    3    3  502    0 -0.53813785527E+03 -0.19660006033E+03 -0.15959337796E+03  0.59475715320E+03  0.46999998093E+01 0.  1.
       -5    1    3    3    0  502  0.53813785527E+03  0.19660006033E+03  0.93612375370E+03  0.10975398431E+04  0.46999998093E+01 0. -1.
</event>
<event>
 5   0  0.2605471E-04  0.1502829E+04  0.7818609E-02  0.8882574E-01
        1   -1    0    0  501    0  0.00000000000E+00  0.00000000000E+00  0.98601846889E+03  0.98601846890E+03  0.50400001928E-02 0. -1.
       -1   -1    0    0    0  501  0.00000000000E+00  0.00000000000E+00 -0.57262977607E+03  0.57262977609E+03  0.50400001928E-02 0.  1.
    10030    2    1    2    0    0  0.00000000000E+00  0.00000000000E+00  0.41338869282E+03  0.15586482450E+04  0.15028287129E+04 0.  0.
        3    1    3    3  502    0  0.42138615126E+03  0.95099788497E+01  0.85186630328E+03  0.95043828681E+03  0.10100000352E+00 0. -1.
       -3    1    3    3    0  502 -0.42138615126E+03 -0.95099788497E+01 -0.43847761046E+03  0.60820995819E+03  0.10100000352E+00 0.  1.
</event>
<event>
 5   0  0.4948645E-04  0.1507380E+04  0.7818609E-02  0.8879560E-01
       -2   -1    0    0    0  501  0.00000000000E+00  0.00000000000E+00  0.47302982638E+03  0.47302982639E+03  0.25500000920E-02 0.  1.
        2   -1    0    0  501    0  0.00000000000E+00  0.00000000000E+00 -0.12008733871E+04  0.12008733871E+04  0.25500000920E-02 0. -1.
    10030    2    1    2    0    0  0.00000000000E+00  0.00000000000E+00 -0.72784356071E+03  0.16739032135E+04  0.15073804162E+04 0.  0.
        1    1    3    3  502    0 -0.12400910420E+03  0.41226431845E+03 -0.10508979952E+04  0.11356613591E+04  0.50400001928E-02 0. -1.
       -1    1    3    3    0  502  0.12400910420E+03 -0.41226431845E+03  0.32305443447E+03  0.53824185441E+03  0.50400001928E-02 0.  1.
</event>
<event>
 5   0  0.2565416E-04  0.1495849E+04  0.7818609E-02  0.8887218E-01
        1   -1    0    0  501    0  0.00000000000E+00  0.00000000000E+00  0.57871937198E+03  0.57871937200E+03  0.50400001928E-02 0.  1.
       -1   -1    0    0    0  501  0.00000000000E+00  0.00000000000E+00 -0.96660137739E+03  0.96660137741E+03  0.50400001928E-02 0. -1.
    10030    2    1    2    0    0  0.00000000000E+00  0.00000000000E+00 -0.38788200541E+03  0.15453207494E+04  0.14958488455E+04 0.  0.
        5    1    3    3  502    0 -0.28271698041E+03  0.27835292240E+03  0.46103009260E+03  0.60825987596E+03  0.46999998093E+01 0.  1.
       -5    1    3    3    0  502  0.28271698041E+03 -0.27835292240E+03 -0.84891209801E+03  0.93706087346E+03  0.46999998093E+01 0. -1.
</event>
<event>
 5   0  0.2542737E-04  0.1507685E+04  0.7818609E-02  0.8879358E-01
        1   -1    0    0  501    0  0.00000000000E+00  0.00000000000E+00  0.90602445223E+03  0.90602445225E+03  0.50400001928E-02 0. -1.
       -1   -1    0    0    0  501  0.00000000000E+00  0.00000000000E+00 -0.62722229467E+03  0.62722229469E+03  0.50400001928E-02 0.  1.
    10030    2    1    2    0    0  0.00000000000E+00  0.00000000000E+00  0.27880215756E+03  0.15332467469E+04  0.15076852934E+04 0.  0.
        1    1    3    3  502    0 -0.39294565160E+03 -0.56363624471E+03  0.45479892116E+03  0.82397461137E+03  0.50400001928E-02 0.  1.
       -1    1    3    3    0  502  0.39294565160E+03  0.56363624471E+03 -0.17599676360E+03  0.70927213557E+03  0.50400001928E-02 0. -1.
</event>
<event>
 5   0  0.2542737E-04  0.1500966E+04  0.7818609E-02  0.8883811E-01
       -1   -1    0    0    0  501  0.00000000000E+00  0.00000000000E+00  0.44633589240E+03  0.44633589242E+03  0.50400001928E-02 0. -1.
        1   -1    0    0  501    0  0.00000000000E+00  0.00000000000E+00 -0.12618847796E+04  0.12618847796E+04  0.50400001928E-02 0.  1.
    10030    2    1    2    0    0  0.00000000000E+00  0.00000000000E+00 -0.81554888716E+03  0.17082206720E+04  0.15009656481E+04 0.  0.
        1    1    3    3  502    0 -0.18811437487E+03  0.65703358942E+03 -0.76066092523E+03  0.10225875018E+04  0.50400001928E-02 0.  1.
       -1    1    3    3    0  502  0.18811437487E+03 -0.65703358942E+03 -0.54887961930E+02  0.68563317018E+03  0.50400001928E-02 0. -1.
</event>
<event>
 5   0  0.2603873E-04  0.1479357E+04  0.7818609E-02  0.8898297E-01
        1   -1    0    0  501    0  0.00000000000E+00  0.00000000000E+00  0.35665333959E+03  0.35665333962E+03  0.50400001928E-02 0.  1.
       -1   -1    0    0    0  501  0.00000000000E+00  0.00000000000E+00 -0.15340509860E+04  0.15340509860E+04  0.50400001928E-02 0. -1.
    10030    2    1    2    0    0  0.00000000000E+00  0.00000000000E+00 -0.11773976464E+04  0.18907043256E+04  0.14793571675E+04 0.  0.
        2    1    3    3  502    0  0.34937491546E+02  0.19498225857E+03  0.32212329660E+03  0.37815622127E+03  0.25500000920E-02 0.  1.
       -2    1    3    3    0  502 -0.34937491546E+02 -0.19498225857E+03 -0.14995209430E+04  0.15125481043E+04  0.25500000920E-02 0. -1.
</event>
<event>
 5   0  0.2605471E-04  0.1495246E+04  0.7818609E-02  0.8887620E-01
        1   -1    0    0  501    0  0.00000000000E+00  0.00000000000E+00  0.12391941631E+04  0.12391941631E+04  0.50400001928E-02 0.  1.
       -1   -1    0    0    0  501  0.00000000000E+00  0.00000000000E+00 -0.45105143598E+03  0.45105143601E+03  0.50400001928E-02 0. -1.
    10030    2    1    2    0    0  0.00000000000E+00  0.00000000000E+00  0.78814272709E+03  0.16902455991E+04  0.14952462095E+04 0.  0.
        3    1    3    3  502    0  0.16833704198E+03  0.21954444142E+03 -0.39105973981E+03  0.47902489681E+03  0.10100000352E+00 0. -1.
       -3    1    3    3    0  502 -0.16833704198E+03 -0.21954444142E+03  0.11792024669E+04  0.12112207023E+04  0.10100000352E+00 0.  1.
</event>
<event>
 5   0  0.4948645E-04  0.1528310E+04  0.7818609E-02  0.8865842E-01
       -2   -1    0    0    0  501  0.00000000000E+00  0.00000000000E+00  0.27546564678E+03  0.27546564680E+03  0.25500000920E-02 0.  1.
        2   -1    0    0  501    0  0.00000000000E+00  0.00000000000E+00 -0.21198028751E+04  0.21198028751E+04  0.25500000920E-02 0. -1.
    10030    2    1    2    0    0  0.00000000000E+00  0.00000000000E+00 -0.18443372283E+04  0.23952685219E+04  0.15283100079E+04 0.  0.
        1    1    3    3  502    0 -0.31962211557E+03  0.47305024151E+03 -0.12609916854E+03  0.58466727982E+03  0.50400001928E-02 0.  1.
       -1    1    3    3    0  502  0.31962211557E+03 -0.47305024151E+03 -0.17182380598E+04  0.18106012421E+04  0.50400001928E-02 0. -1.
</event>
<event>
 5   0  0.4768387E-04  0.1489576E+04  0.7818609E-02  0.8891415E-01
       -2   -1    0    0    0  501  0.00000000000E+00  0.00000000000E+00  0.18031698741E+03  0.18031698743E+03  0.25500000920E-02 0. -1.
        2   -1    0    0  501    0  0.00000000000E+00  0.00000000000E+00 -0.30762994206E+04  0.30762994206E+04  0.25500000920E-02 0.  1.
    10030    2    1    2    0    0  0.00000000000E+00  0.00000000000E+00 -0.28959824332E+04  0.32566164080E+04  0.14895758375E+04 0.  0.
        3    1    3    3  502    0 -0.42152152702E+03 -0.52456191096E+03 -0.75021983756E+03  0.10078072291E+04  0.10100000352E+00 0. -1.
       -3    1    3    3    0  502  0.42152152702E+03  0.52456191096E+03 -0.21457625956E+04  0.22488091789E+04  0.10100000352E+00 0.  1.
</event>
<event>
 5   0  0.2605471E-04  0.1501361E+04  0.7818609E-02  0.8883548E-01
       -1   -1    0    0    0  501  0.00000000000E+00  0.00000000000E+00  0.75913082825E+03  0.75913082827E+03  0.50400001928E-02 0. -1.
        1   -1    0    0  501    0  0.00000000000E+00  0.00000000000E+00 -0.74232409458E+03  0.74232409460E+03  0.50400001928E-02 0.  1.
    10030    2    1    2    0    0  0.00000000000E+00  0.00000000000E+00  0.16806733673E+02  0.15014549229E+04  0.15013608557E+04 0.  0.
        3    1    3    3  502    0  0.45503819470E+03 -0.53820710705E+03 -0.25005904064E+03  0.74783432839E+03  0.10100000352E+00 0.  1.
       -3    1    3    3    0  502 -0.45503819470E+03  0.53820710705E+03  0.26686577431E+03  0.75362059447E+03  0.10100000352E+00 0. -1.
</event>
<event>
 5   0  0.4569211E-04  0.1506582E+04  0.7818609E-02  0.8880088E-01
        2   -1    0    0  501    0  0.00000000000E+00  0.00000000000E+00  0.15352087658E+04  0.15352087658E+04  0.25500000920E-02 0. -1.
       -2   -1    0    0    0  501  0.00000000000E+00  0.00000000000E+00 -0.36962212636E+03  0.36962212637E+03  0.25500000920E-02 0.  1.
    10030    2    1    2    0    0  0.00000000000E+00  0.00000000000E+00  0.11655866395E+04  0.19048308922E+04  0.15065817315E+04 0.  0.
        5    1    3    3  502    0 -0.18356940629E+03 -0.22118805474E+03 -0.29753859765E+03  0.41373081777E+03  0.46999998093E+01 0.  1.
       -5    1    3    3    0  502  0.18356940629E+03  0.22118805474E+03  0.14631252371E+04  0.14911000744E+04  0.46999998093E+01 0. -1.
</event>
<event>
 5   0  0.2544374E-04  0.1501866E+04  0.7818609E-02  0.8883213E-01
        1   -1    0    0  501    0  0.00000000000E+00  0.00000000000E+00  0.18046222714E+04  0.18046222714E+04  0.50400001928E-02 0.  1.
       -1   -1    0    0    0  501  0.00000000000E+00  0.00000000000E+00 -0.31247574139E+03  0.31247574143E+03  0.50400001928E-02 0. -1.
    10030    2    1    2    0    0  0.00000000000E+00  0.00000000000E+00  0.14921465300E+04  0.21170980129E+04  0.15018664152E+04 0.  0.
        4    1    3    3  502    0 -0.31066697567E+03  0.30747087290E+03  0.16068189351E+04  0.16652089990E+04  0.12699999809E+01 0.  1.
       -4    1    3    3    0  502  0.31066697567E+03 -0.30747087290E+03 -0.11467240503E+03  0.45188901384E+03  0.12699999809E+01 0. -1.
</event>
<event>
 5   0  0.2603873E-04  0.1522202E+04  0.7818609E-02  0.8869822E-01
        1   -1    0    0  501    0  0.00000000000E+00  0.00000000000E+00  0.65909766157E+03  0.65909766159E+03  0.50400001928E-02 0.  1.
       -1   -1    0    0    0  501  0.00000000000E+00  0.00000000000E+00 -0.87889068163E+03  0.87889068165E+03  0.50400001928E-02 0. -1.
    10030    2    1    2    0    0  0.00000000000E+00  0.00000000000E+00 -0.21979302006E+03  0.15379883432E+04  0.15222020800E+04 0.  0.
        2    1    3    3  502    0 -0.96927410108E+02 -0.75396450280E+03 -0.71857714673E+02  0.76355806948E+03  0.25500000920E-02 0. -1.
       -2    1    3    3    0  502  0.96927410108E+02  0.75396450280E+03 -0.14793530539E+03  0.77443027375E+03  0.25500000920E-02 0.  1.
</event>
<event>
 5   0  0.2542737E-04  0.1512861E+04  0.7818609E-02  0.8875945E-01
       -1   -1    0    0    0  501  0.00000000000E+00  0.00000000000E+00  0.10283800795E+04  0.10283800795E+04  0.50400001928E-02 0. -1.
        1   -1    0    0  501    0  0.00000000000E+00  0.00000000000E+00 -0.55639641042E+03  0.55639641044E+03  0.50400001928E-02 0.  1.
    10030    2    1    2    0    0  0.00000000000E+00  0.00000000000E+00  0.47198366911E+03  0.15847764900E+04  0.15128608460E+04 0.  0.
        1    1    3    3  502    0 -0.21907450423E+03  0.91573319808E+02  0.98832972683E+03  0.10164521436E+04  0.50400001928E-02 0. -1.
       -1    1    3    3    0  502  0.21907450423E+03 -0.91573319808E+02 -0.51634605773E+03  0.56832434636E+03  0.50400001928E-02 0.  1.
</event>
<event>
 5   0  0.2565416E-04  0.1509594E+04  0.7818609E-02  0.8878098E-01
        1   -1    0    0  501    0  0.00000000000E+00  0.00000000000E+00  0.65277164318E+03  0.65277164320E+03  0.50400001928E-02 0. -1.
       -1   -1    0    0    0  501  0.00000000000E+00  0.00000000000E+00 -0.87276901636E+03  0.87276901638E+03  0.50400001928E-02 0.  1.
    10030    2    1    2    0    0  0.00000000000E+00  0.00000000000E+00 -0.21999737319E+03  0.15255406596E+04  0.15095944687E+04 0.  0.
        5    1    3    3  502    0  0.47224527825E+03  0.73760056797E+02 -0.70032733033E+03  0.84790129639E+03  0.46999998093E+01 0.  1.
       -5    1    3    3    0  502 -0.47224527825E+03 -0.73760056797E+02  0.48032995715E+03  0.67763936319E+03  0.46999998093E+01 0. -1.
</event>
<event>
 5   0  0.4569211E-04  0.1484105E+04  0.7818609E-02  0.8895092E-01
       -2   -1    0    0    0  501  0.00000000000E+00  0.00000000000E+00  0.35818891278E+03  0.35818891278E+03  0.25500000920E-02 0. -1.
        2   -1    0    0  501    0  0.00000000000E+00  0.00000000000E+00 -0.15372946284E+04  0.15372946284E+04  0.25500000920E-02 0.  1.
    10030    2    1    2    0    0  0.00000000000E+00  0.00000000000E+00 -0.11791057156E+04  0.18954835412E+04  0.14841049714E+04 0.  0.
        5    1    3    3  502    0  0.36632321533E+03 -0.27375468941E+03 -0.13359011008E+04  0.14120156406E+04  0.46999998093E+01 0.  1.
       -5    1    3    3    0  502 -0.36632321533E+03  0.27375468941E+03  0.15679538523E+03  0.48346790058E+03  0.46999998093E+01 0. -1.
</event>
<event>
 5   0  0.4785496E-04  0.1497239E+04  0.7818609E-02  0.8886291E-01
       -2   -1    0    0    0  501  0.00000000000E+00  0.00000000000E+00  0.56656599903E+03  0.56656599903E+03  0.25500000920E-02 0.  1.
        2   -1    0    0  501    0  0.00000000000E+00  0.00000000000E+00 -0.98917178031E+03  0.98917178031E+03  0.25500000920E-02 0. -1.
    10030    2    1    2    0    0  0.00000000000E+00  0.00000000000E+00 -0.42260578128E+03  0.15557377793E+04  0.14972389227E+04 0.  0.
        4    1    3    3  502    0  0.37058440681E+03  0.15828425918E+03 -0.86685944306E+03  0.95594645049E+03  0.12699999809E+01 0. -1.
       -4    1    3    3    0  502 -0.37058440681E+03 -0.15828425918E+03  0.44425366178E+03  0.59979132886E+03  0.12699999809E+01 0.  1.
</event>
<event>
 5   0  0.2565416E-04  0.1506611E+04  0.7818609E-02  0.8880068E-01
        1   -1    0    0  501    0  0.00000000000E+00  0.00000000000E+00  0.76707604805E+03  0.76707604807E+03  0.50400001928E-02 0. -1.
       -1   -1    0    0    0  501  0.00000000000E+00  0.00000000000E+00 -0.73978256063E+03  0.73978256064E+03  0.50400001928E-02 0.  1.
    10030    2    1    2    0    0  0.00000000000E+00  0.00000000000E+00  0.27293487425E+02  0.15068586087E+04  0.15066114072E+04 0.  0.
        5    1    3    3  502    0 -0.23349649158E+03  0.60658787000E+03  0.39446890257E+03  0.76032707482E+03  0.46999998093E+01 0. -1.
       -5    1    3    3    0  502  0.23349649158E+03 -0.60658787000E+03 -0.36717541515E+03  0.74653153389E+03  0.46999998093E+01 0.  1.
</event>
<event>
 5   0  0.2565416E-04  0.1500826E+04  0.7818609E-02  0.8883904E-01
        1   -1    0    0  501    0  0.00000000000E+00  0.00000000000E+00  0.46757410615E+03  0.46757410617E+03  0.50400001928E-02 0. -1.
       -1   -1    0    0    0  501  0.00000000000E+00  0.00000000000E+00 -0.12043425957E+04  0.12043425957E+04  0.50400001928E-02 0.  1.
    10030    2    1    2    0    0  0.00000000000E+00  0.00000000000E+00 -0.73676848956E+03  0.16719167019E+04  0.15008256564E+04 0.  0.
        5    1    3    3  502    0 -0.41791065149E+03 -0.40604983991E+03  0.15835132632E+03  0.60384022528E+03  0.46999998093E+01 0. -1.
       -5    1    3    3    0  502  0.41791065149E+03  0.40604983991E+03 -0.89511981588E+03  0.10680764766E+04  0.46999998093E+01 0.  1.
</event>
<event>
 5   0  0.4948645E-04  0.1503524E+04  0.7818609E-02  0.8882113E-01
        2   -1    0    0  501    0  0.00000000000E+00  0.00000000000E+00  0.29198175462E+03  0.29198175463E+03  0.25500000920E-02 0.  1.
       -2   -1    0    0    0  501  0.00000000000E+00  0.00000000000E+00 -0.19355524525E+04  0.19355524525E+04  0.25500000920E-02 0. -1.
    10030    2    1    2    0    0  0.00000000000E+00  0.00000000000E+00 -0.16435706979E+04  0.22275342072E+04  0.15035238625E+04 0.  0.
        1    1    3    3  502    0  0.45598274284E+03  0.38090483834E+03 -0.15041594224E+04  0.16172520909E+04  0.50400001928E-02 0. -1.
       -1    1    3    3    0  502 -0.45598274284E+03 -0.38090483834E+03 -0.13941127555E+03  0.61028211625E+03  0.50400001928E-02 0.  1.
</event>
<event>
 5   0  0.4785496E-04  0.1510987E+04  0.7818609E-02  0.8877179E-01
        2   -1    0    0  501    0  0.00000000000E+00  0.00000000000E+00  0.92990928039E+03  0.92990928039E+03  0.25500000920E-02 0. -1.
       -2   -1    0    0    0  501  0.00000000000E+00  0.00000000000E+00 -0.61379178351E+03  0.61379178352E+03  0.25500000920E-02 0.  1.
    10030    2    1    2    0    0  0.00000000000E+00  0.00000000000E+00  0.31611749688E+03  0.15437010639E+04  0.15109873272E+04 0.  0.
        4    1    3    3  502    0  0.33483726560E+03 -0.95141251174E+02  0.84309904279E+03  0.91213237031E+03  0.12699999809E+01 0. -1.
       -4    1    3    3    0  502 -0.33483726560E+03  0.95141251174E+02 -0.52698154591E+03  0.63156869360E+03  0.12699999809E+01 0.  1.
</event>
<event>
 5   0  0.4785496E-04  0.1511707E+04  0.7818609E-02  0.8876705E-01
        2   -1    0    0  501    0  0.00000000000E+00  0.00000000000E+00  0.22116882192E+04  0.22116882192E+04  0.25500000920E-02 0.  1.
       -2   -1    0    0    0  501  0.00000000000E+00  0.00000000000E+00 -0.25831612097E+03  0.25831612098E+03  0.25500000920E-02 0. -1.
    10030    2    1    2    0    0  0.00000000000E+00  0.00000000000E+00  0.19533720983E+04  0.24700043402E+04  0.15117072754E+04 0.  0.
        4    1    3    3  502    0 -0.39743266574E+03  0.15413954547E+03 -0.43173248357E+02  0.42845917606E+03  0.12699999809E+01 0. -1.
       -4    1    3    3    0  502  0.39743266574E+03 -0.15413954547E+03  0.19965453466E+04  0.20415451642E+04  0.12699999809E+01 0.  1.
</event>
<event>
 5   0  0.2544374E-04  0.1485433E+04  0.7818609E-02  0.8894198E-01
       -1   -1    0    0    0  501  0.00000000000E+00  0.00000000000E+00  0.49604563246E+03  0.49604563248E+03  0.50400001928E-02 0.  1.
        1   -1    0    0  501    0  0.00000000000E+00  0.00000000000E+00 -0.11120512449E+04  0.11120512449E+04  0.50400001928E-02 0. -1.
    10030    2    1    2    0    0  0.00000000000E+00  0.00000000000E+00 -0.61600561246E+03  0.16080968774E+04  0.14854334898E+04 0.  0.
        4    1    3    3  502    0  0.42116905823E+03 -0.60545273123E+03 -0.21319123424E+03  0.76772944493E+03  0.12699999809E+01 0. -1.
       -4    1    3    3    0  502 -0.42116905823E+03  0.60545273123E+03 -0.40281437822E+03  0.84036743247E+03  0.12699999809E+01 0.  1.
</event>
<event>
 5   0  0.2605471E-04  0.1495818E+04  0.7818609E-02  0.8887239E-01
        1   -1    0    0  501    0  0.00000000000E+00  0.00000000000E+00  0.69150215253E+03  0.69150215255E+03  0.50400001928E-02 0. -1.
       -1   -1    0    0    0  501  0.00000000000E+00  0.00000000000E+00 -0.80891689580E+03  0.80891689581E+03  0.50400001928E-02 0.  1.
    10030    2    1    2    0    0  0.00000000000E+00  0.00000000000E+00 -0.11741474327E+03  0.15004190484E+04  0.14958178695E+04 0.  0.
        3    1    3    3  502    0  0.52594269410E+02  0.32873172675E+03  0.61308182819E+03  0.69763890632E+03  0.10100000352E+00 0. -1.
       -3    1    3    3    0  502 -0.52594269410E+02 -0.32873172675E+03 -0.73049657146E+03  0.80278014204E+03  0.10100000352E+00 0.  1.
</event>
<event>
 5   0  0.2605471E-04  0.1497254E+04  0.7818609E-02  0.8886281E-01
        1   -1    0    0  501    0  0.00000000000E+00  0.00000000000E+00  0.81181029529E+03  0.81181029531E+03  0.50400001928E-02 0.  1.
       -1   -1    0    0    0  501  0.00000000000E+00  0.00000000000E+00 -0.69036093218E+03  0.69036093220E+03  0.50400001928E-02 0. -1.
    10030    2    1    2    0    0  0.00000000000E+00  0.00000000000E+00  0.12144936311E+03  0.15021712275E+04  0.14972536355E+04 0.  0.
        3    1    3    3  502    0 -0.20920085744E+03 -0.70231902280E+03  0.21427995281E+03  0.76350043675E+03  0.10100000352E+00 0.  1.
       -3    1    3    3    0  502  0.20920085744E+03  0.70231902280E+03 -0.92830589694E+02  0.73867079076E+03  0.10100000352E+00 0. -1.
</event>
<event>
 5   0  0.4785496E-04  0.1498763E+04  0.7818609E-02  0.8885276E-01
        2   -1    0    0  501    0  0.00000000000E+00  0.00000000000E+00  0.99633789720E+03  0.99633789720E+03  0.25500000920E-02 0. -1.
       -2   -1    0    0    0  501  0.00000000000E+00  0.00000000000E+00 -0.56363679104E+03  0.56363679104E+03  0.25500000920E-02 0.  1.
    10030    2    1    2    0    0  0.00000000000E+00  0.00000000000E+00  0.43270110616E+03  0.15599746882E+04  0.14987630836E+04 0.  0.
        4    1    3    3  502    0  0.53102197335E+03  0.48455791821E+03  0.43663147696E+03  0.84108820694E+03  0.12699999809E+01 0. -1.
       -4    1    3    3    0  502 -0.53102197335E+03 -0.48455791821E+03 -0.39303707982E+01  0.71888648130E+03  0.12699999809E+01 0.  1.
</event>
<event>
 5   0  0.2544374E-04  0.1493507E+04  0.7818609E-02  0.8888782E-01
        1   -1    0    0  501    0  0.00000000000E+00  0.00000000000E+00  0.43772636272E+03  0.43772636275E+03  0.50400001928E-02 0. -1.
       -1   -1    0    0    0  501  0.00000000000E+00  0.00000000000E+00 -0.12739483333E+04  0.12739483333E+04  0.50400001928E-02 0.  1.
    10030    2    1    2    0    0  0.00000000000E+00  0.00000000000E+00 -0.83622197058E+03  0.17116746961E+04  0.14935069739E+04 0.  0.
        4    1    3    3  502    0  0.54697920678E+03 -0.50629974601E+03 -0.36542292454E+03  0.83009711007E+03  0.12699999809E+01 0.  1.
       -4    1    3    3    0  502 -0.54697920678E+03  0.50629974601E+03 -0.47079904604E+03  0.88157758599E+03  0.12699999809E+01 0. -1.
</event>
<event>
 5   0  0.4948645E-04  0.1500652E+04  0.7818609E-02  0.8884019E-01
        2   -1    0    0  501    0  0.00000000000E+00  0.00000000000E+00  0.12697221488E+04  0.12697221488E+04  0.25500000920E-02 0.  1.
       -2   -1    0    0    0  501  0.00000000000E+00  0.00000000000E+00 -0.44339554736E+03  0.44339554737E+03  0.25500000920E-02 0. -1.
    10030    2    1    2    0    0  0.00000000000E+00  0.00000000000E+00  0.82632660148E+03  0.17131176962E+04  0.15006520545E+04 0.  0.
        1    1    3    3  502    0  0.94602113821E+01 -0.63370920746E+03 -0.45338372624E+02  0.63539942026E+03  0.50400001928E-02 0. -1.
       -1    1    3    3    0  502 -0.94602113821E+01  0.63370920746E+03  0.87166497410E+03  0.10777182759E+04  0.50400001928E-02 0.  1.
</event>
<event>
 5   0  0.2565416E-04  0.1507577E+04  0.7818609E-02  0.8879430E-01
        1   -1    0    0  501    0  0.00000000000E+00  0.00000000000E+00  0.11470508730E+04  0.11470508730E+04  0.50400001928E-02 0. -1.
       -1   -1    0    0    0  501  0.00000000000E+00  0.00000000000E+00 -0.49535504136E+03  0.49535504138E+03  0.50400001928E-02 0.  1.
    10030    2    1    2    0    0  0.00000000000E+00  0.00000000000E+00  0.65169583160E+03  0.16424059144E+04  0.15075774377E+04 0.  0.
        5    1    3    3  502    0 -0.35756729391E+03 -0.46962736328E+02 -0.39525153950E+03  0.53507545052E+03  0.46999998093E+01 0.  1.
       -5    1    3    3    0  502  0.35756729391E+03  0.46962736328E+02  0.10469473711E+04  0.11073304638E+04  0.46999998093E+01 0. -1.
</event>
<event>
 5   0  0.4768387E-04  0.1499386E+04  0.7818609E-02  0.8884861E-01
        2   -1    0    0  501    0  0.00000000000E+00  0.00000000000E+00  0.19455588461E+04  0.19455588461E+04  0.25500000920E-02 0.  1.
       -2   -1    0    0    0  501  0.00000000000E+00  0.00000000000E+00 -0.28888332407E+03  0.28888332408E+03  0.25500000920E-02 0. -1.
    10030    2    1    2    0    0  0.00000000000E+00  0.00000000000E+00  0.16566755220E+04  0.22344421702E+04  0.14993858832E+04 0.  0.
        3    1    3    3  502    0 -0.37787782656E+03  0.62635307636E+03  0.10728897527E+04  0.12985385091E+04  0.10100000352E+00 0. -1.
       -3    1    3    3    0  502  0.37787782656E+03 -0.62635307636E+03  0.58378576932E+03  0.93590366103E+03  0.10100000352E+00 0.  1.
</event>
<event>
 5   0  0.4948645E-04  0.1510948E+04  0.7818609E-02  0.8877205E-01
        2   -1    0    0  501    0  0.00000000000E+00  0.00000000000E+00  0.15110761177E+04  0.15110761177E+04  0.25500000920E-02 0.  1.
       -2   -1    0    0    0  501  0.00000000000E+00  0.00000000000E+00 -0.37770515515E+03  0.37770515516E+03  0.25500000920E-02 0. -1.
    10030    2    1    2    0    0  0.00000000000E+00  0.00000000000E+00  0.11333709625E+04  0.18887812728E+04  0.15109483637E+04 0.  0.
        1    1    3    3  502    0 -0.31324139635E+03 -0.68702101970E+03  0.53547929244E+03  0.92566523461E+03  0.50400001928E-02 0. -1.
       -1    1    3    3    0  502  0.31324139635E+03  0.68702101970E+03  0.59789167007E+03  0.96311603821E+03  0.50400001928E-02 0.  1.
</event>
<event>
 5   0  0.2565416E-04  0.1506087E+04  0.7818609E-02  0.8880415E-01
       -1   -1    0    0    0  501  0.00000000000E+00  0.00000000000E+00  0.31248314950E+03  0.31248314954E+03  0.50400001928E-02 0.  1.
        1   -1    0    0  501    0  0.00000000000E+00  0.00000000000E+00 -0.18147354042E+04  0.18147354042E+04  0.50400001928E-02 0. -1.
    10030    2    1    2    0    0  0.00000000000E+00  0.00000000000E+00 -0.15022522547E+04  0.21272185538E+04  0.15060866305E+04 0.  0.
        5    1    3    3  502    0  0.59862985893E+03  0.44446212297E+03 -0.90025367338E+03  0.11689238868E+04  0.46999998093E+01 0. -1.
       -5    1    3    3    0  502 -0.59862985893E+03 -0.44446212297E+03 -0.60199858136E+03  0.95829466696E+03  0.46999998093E+01 0.  1.
</event>
<event>
 5   0  0.2603873E-04  0.1471403E+04  0.7818609E-02  0.8903696E-01
        1   -1    0    0  501    0  0.00000000000E+00  0.00000000000E+00  0.51499640533E+03  0.51499640536E+03  0.50400001928E-02 0.  1.
       -1   -1    0    0    0  501  0.00000000000E+00  0.00000000000E+00 -0.10509909277E+04  0.10509909277E+04  0.50400001928E-02 0. -1.
    10030    2    1    2    0    0  0.00000000000E+00  0.00000000000E+00 -0.53599452235E+03  0.15659873331E+04  0.14714027998E+04 0.  0.
        2    1    3    3  502    0 -0.67769214750E+03 -0.25977998231E+03 -0.39617261122E+03  0.82686457408E+03  0.25500000920E-02 0.  1.
       -2    1    3    3    0  502  0.67769214750E+03  0.25977998231E+03 -0.13982191114E+03  0.73912275897E+03  0.25500000920E-02 0. -1.
</event>
<event>
 5   0  0.4726600E-04  0.1478510E+04  0.7818609E-02  0.8898871E-01
        2   -1    0    0  501    0  0.00000000000E+00  0.00000000000E+00  0.17303975409E+04  0.17303975409E+04  0.25500000920E-02 0.  1.
       -2   -1    0    0    0  501  0.00000000000E+00  0.00000000000E+00 -0.31582214502E+03  0.31582214503E+03  0.25500000920E-02 0. -1.
    10030    2    1    2    0    0  0.00000000000E+00  0.00000000000E+00  0.14145753959E+04  0.20462196860E+04  0.14785098757E+04 0.  0.
        2    1    3    3  502    0 -0.46132431874E+03  0.18737787656E+03 -0.48933984773E+02  0.50032502492E+03  0.25500000920E-02 0. -1.
       -2    1    3    3    0  502  0.46132431874E+03 -0.18737787656E+03  0.14635093807E+04  0.15458946610E+04  0.25500000920E-02 0.  1.
</event>
<event>
 5   0  0.4726600E-04  0.1469286E+04  0.7818609E-02  0.8905138E-01
        2   -1    0    0  501    0  0.00000000000E+00  0.00000000000E+00  0.12265949530E+04  0.12265949530E+04  0.25500000920E-02 0.  1.
       -2   -1    0    0    0  501  0.00000000000E+00  0.00000000000E+00 -0.43999870092E+03  0.43999870092E+03  0.25500000920E-02 0. -1.
    10030    2    1    2    0    0  0.00000000000E+00  0.00000000000E+00  0.78659625213E+03  0.16665936540E+04  0.14692857937E+04 0.  0.
        2    1    3    3  502    0 -0.12226968105E+03 -0.31112114170E+03 -0.34873272479E+03  0.48307427282E+03  0.25500000920E-02 0. -1.
       -2    1    3    3    0  502  0.12226968105E+03  0.31112114170E+03  0.11353289769E+04  0.11835193811E+04  0.25500000920E-02 0.  1.
</event>
<event>
 5   0  0.2605471E-04  0.1496104E+04  0.7818609E-02  0.8887048E-01
        1   -1    0    0  501    0  0.00000000000E+00  0.00000000000E+00  0.12315045247E+04  0.12315045247E+04  0.50400001928E-02 0.  1.
       -1   -1    0    0    0  501  0.00000000000E+00  0.00000000000E+00 -0.45438880926E+03  0.45438880929E+03  0.50400001928E-02 0. -1.
    10030    2    1    2    0    0  0.00000000000E+00  0.00000000000E+00  0.77711571542E+03  0.16858933340E+04  0.14961041068E+04 0.  0.
        3    1    3    3  502    0 -0.66106695915E+03 -0.32917017144E+03  0.52292960663E+03  0.90488557837E+03  0.10100000352E+00 0.  1.
       -3    1    3    3    0  502  0.66106695915E+03  0.32917017144E+03  0.25418610879E+03  0.78100775562E+03  0.10100000352E+00 0. -1.
</event>
<event>
 5   0  0.2603873E-04  0.1499145E+04  0.7818609E-02  0.8885022E-01
        1   -1    0    0  501    0  0.00000000000E+00  0.00000000000E+00  0.14125006019E+04  0.14125006020E+04  0.50400001928E-02 0.  1.
       -1   -1    0    0    0  501  0.00000000000E+00  0.00000000000E+00 -0.39777613338E+03  0.39777613341E+03  0.50400001928E-02 0. -1.
    10030    2    1    2    0    0  0.00000000000E+00  0.00000000000E+00  0.10147244686E+04  0.18102767354E+04  0.14991451269E+04 0.  0.
        2    1    3    3  502    0  0.91751558995E+02 -0.67502005743E+03  0.12975056215E+03  0.69347360072E+03  0.25500000920E-02 0. -1.
       -2    1    3    3    0  502 -0.91751558995E+02  0.67502005743E+03  0.88497390642E+03  0.11168031346E+04  0.25500000920E-02 0.  1.
</event>
<event>
 5   0  0.4948645E-04  0.1483187E+04  0.7818609E-02  0.8895711E-01
        2   -1    0    0  501    0  0.00000000000E+00  0.00000000000E+00  0.54124486492E+03  0.54124486492E+03  0.25500000920E-02 0. -1.
       -2   -1    0    0    0  501  0.00000000000E+00  0.00000000000E+00 -0.10161035612E+04  0.10161035612E+04  0.25500000920E-02 0.  1.
    10030    2    1    2    0    0  0.00000000000E+00  0.00000000000E+00 -0.47485869626E+03  0.15573484261E+04  0.14831868860E+04 0.  0.
        1    1    3    3  502    0  0.26629699986E+03 -0.50248542181E+03  0.26234835243E+03  0.62628455938E+03  0.50400001928E-02 0. -1.
       -1    1    3    3    0  502 -0.26629699986E+03  0.50248542181E+03 -0.73720704869E+03  0.93106386673E+03  0.50400001928E-02 0.  1.
</event>
<event>
 5   0  0.2544374E-04  0.1522748E+04  0.7818609E-02  0.8869465E-01
       -1   -1    0    0    0  501  0.00000000000E+00  0.00000000000E+00  0.73444143722E+03  0.73444143724E+03  0.50400001928E-02 0.  1.
        1   -1    0    0  501    0  0.00000000000E+00  0.00000000000E+00 -0.78929371930E+03  0.78929371932E+03  0.50400001928E-02 0. -1.
    10030    2    1    2    0    0  0.00000000000E+00  0.00000000000E+00 -0.54852282080E+02  0.15237351566E+04  0.15227475347E+04 0.  0.
        4    1    3    3  502    0  0.53523764604E+03 -0.25886472053E+03  0.44848522596E+03  0.74473545106E+03  0.12699999809E+01 0. -1.
       -4    1    3    3    0  502 -0.53523764604E+03  0.25886472053E+03 -0.50333750804E+03  0.77899970550E+03  0.12699999809E+01 0.  1.
</event>
<event>
 5   0  0.4948645E-04  0.1503809E+04  0.7818609E-02  0.8881924E-01
        2   -1    0    0  501    0  0.00000000000E+00  0.00000000000E+00  0.69285284453E+03  0.69285284454E+03  0.25500000920E-02 0.  1.
       -2   -1    0    0    0  501  0.00000000000E+00  0.00000000000E+00 -0.81598935508E+03  0.81598935508E+03  0.25500000920E-02 0. -1.
    10030    2    1    2    0    0  0.00000000000E+00  0.00000000000E+00 -0.12313651055E+03  0.15088421996E+04  0.15038092243E+04 0.  0.
        1    1    3    3  502    0  0.72785867187E+03  0.49589142602E+02  0.12103870579E+03  0.73951855798E+03  0.50400001928E-02 0.  1.
       -1    1    3    3    0  502 -0.72785867187E+03 -0.49589142602E+02 -0.24417521634E+03  0.76932364163E+03  0.50400001928E-02 0. -1.
</event>
<event>
 5   0  0.2542737E-04  0.1494923E+04  0.7818609E-02  0.8887836E-01
       -1   -1    0    0    0  501  0.00000000000E+00  0.00000000000E+00  0.76597672219E+03  0.76597672221E+03  0.50400001928E-02 0. -1.
        1   -1    0    0  501    0  0.00000000000E+00  0.00000000000E+00 -0.72939391530E+03  0.72939391532E+03  0.50400001928E-02 0.  1.
    10030    2    1    2    0    0  0.00000000000E+00  0.00000000000E+00  0.36582806887E+02  0.14953706375E+04  0.14949230889E+04 0.  0.
        1    1    3    3  502    0 -0.31693739373E+03  0.55330565737E+03  0.40841110880E+03  0.75722922279E+03  0.50400001928E-02 0. -1.
       -1    1    3    3    0  502  0.31693739373E+03 -0.55330565737E+03 -0.37182830192E+03  0.73814141474E+03  0.50400001928E-02 0.  1.
</event>
<event>
 5   0  0.4785496E-04  0.1508881E+04  0.7818609E-02  0.8878568E-01
       -2   -1    0    0    0  501  0.00000000000E+00  0.00000000000E+00  0.94244372594E+03  0.94244372595E+03  0.25500000920E-02 0.  1.
        2   -1    0    0  501    0  0.00000000000E+00  0.00000000000E+00 -0.60394132515E+03  0.60394132516E+03  0.25500000920E-02 0. -1.
    10030    2    1    2    0    0  0.00000000000E+00  0.00000000000E+00  0.33850240079E+03  0.15463850511E+04  0.15088813243E+04 0.  0.
        4    1    3    3  502    0 -0.65916530064E+03 -0.17509296051E+03  0.49979311629E+03  0.84554787587E+03  0.12699999809E+01 0.  1.
       -4    1    3    3    0  502  0.65916530064E+03  0.17509296051E+03 -0.16129071550E+03  0.70083717524E+03  0.12699999809E+01 0. -1.
</event>
<event>
 5   0  0.2565416E-04  0.1512794E+04  0.7818609E-02  0.8875990E-01
        1   -1    0    0  501    0  0.00000000000E+00  0.00000000000E+00  0.10024313566E+04  0.10024313566E+04  0.50400001928E-02 0. -1.
       -1   -1    0    0    0  501  0.00000000000E+00  0.00000000000E+00 -0.57074848261E+03  0.57074848264E+03  0.50400001928E-02 0.  1.
    10030    2    1    2    0    0  0.00000000000E+00  0.00000000000E+00  0.43168287394E+03  0.15731798392E+04  0.15127936749E+04 0.  0.
        5    1    3    3  502    0 -0.30630700661E+03 -0.32478418162E+03  0.85079173834E+03  0.96082122112E+03  0.46999998093E+01 0. -1.
       -5    1    3    3    0  502  0.30630700661E+03  0.32478418162E+03 -0.41910886440E+03  0.61235861809E+03  0.46999998093E+01 0.  1.
</event>
<event>
 5   0  0.4768387E-04  0.1471060E+04  0.7818609E-02  0.8903929E-01
        2   -1    0    0  501    0  0.00000000000E+00  0.00000000000E+00  0.89280435037E+03  0.89280435038E+03  0.25500000920E-02 0.  1.
       -2   -1    0    0    0  501  0.00000000000E+00  0.00000000000E+00 -0.60596110400E+03  0.60596110401E+03  0.25500000920E-02 0. -1.
    10030    2    1    2    0    0  0.00000000000E+00  0.00000000000E+00  0.28684324637E+03  0.14987654544E+04  0.14710604472E+04 0.  0.
        3    1    3    3  502    0  0.28576589797E+02 -0.42038240036E+03  0.75765792355E+03  0.86693916934E+03  0.10100000352E+00 0.  1.
       -3    1    3    3    0  502 -0.28576589797E+02  0.42038240036E+03 -0.47081467718E+03  0.63182628504E+03  0.10100000352E+00 0. -1.
</event>
<event>
 5   0  0.4726600E-04  0.1497133E+04  0.7818609E-02  0.8886361E-01
        2   -1    0    0  501    0  0.00000000000E+00  0.00000000000E+00  0.11652395216E+04  0.11652395216E+04  0.25500000920E-02 0.  1.
       -2   -1    0    0    0  501  0.00000000000E+00  0.00000000000E+00 -0.48088998145E+03  0.48088998146E+03  0.25500000920E-02 0. -1.
    10030    2    1    2    0    0  0.00000000000E+00  0.00000000000E+00  0.68434954014E+03  0.16461295031E+04  0.14971332765E+04 0.  0.
        2    1    3    3  502    0 -0.20554456165E+03  0.51770245926E+03  0.89203159791E+03  0.10516581074E+04  0.25500000920E-02 0.  1.
       -2    1    3    3    0  502  0.20554456165E+03 -0.51770245926E+03 -0.20768205777E+03  0.59447139568E+03  0.25500000920E-02 0. -1.
</event>
<event>
 5   0  0.4948645E-04  0.1497226E+04  0.7818609E-02  0.8886300E-01
       -2   -1    0    0    0  501  0.00000000000E+00  0.00000000000E+00  0.24087485252E+03  0.24087485254E+03  0.25500000920E-02 0. -1.
        2   -1    0    0  501    0  0.00000000000E+00  0.00000000000E+00 -0.23266077242E+04  0.23266077242E+04  0.25500000920E-02 0.  1.
    10030    2    1    2    0    0  0.00000000000E+00  0.00000000000E+00 -0.20857328717E+04  0.25674825767E+04  0.14972258246E+04 0.  0.
        1    1    3    3  502    0 -0.12250595314E+03  0.24612358678E+03  0.15117106743E+03  0.31374706401E+03  0.50400001928E-02 0. -1.
       -1    1    3    3    0  502  0.12250595314E+03 -0.24612358678E+03 -0.22369039391E+04  0.22537355127E+04  0.50400001928E-02 0.  1.
</event>
<event>
 5   0  0.2603873E-04  0.1502272E+04  0.7818609E-02  0.8882943E-01
       -1   -1    0    0    0  501  0.00000000000E+00  0.00000000000E+00  0.33310389181E+03  0.33310389185E+03  0.50400001928E-02 0.  1.
        1   -1    0    0  501    0  0.00000000000E+00  0.00000000000E+00 -0.16937825579E+04  0.16937825579E+04  0.50400001928E-02 0. -1.
    10030    2    1    2    0    0  0.00000000000E+00  0.00000000000E+00 -0.13606786661E+04  0.20268864498E+04  0.15022723614E+04 0.  0.
        2    1    3    3  502    0 -0.91007910773E+02  0.16205572170E+03  0.30158894424E+03  0.35426033937E+03  0.25500000920E-02 0.  1.
       -2    1    3    3    0  502  0.91007910773E+02 -0.16205572170E+03 -0.16622676104E+04  0.16726261104E+04  0.25500000920E-02 0. -1.
</event>
<event>
 5   0  0.4726600E-04  0.1509836E+04  0.7818609E-02  0.8877938E-01
       -2   -1    0    0    0  501  0.00000000000E+00  0.00000000000E+00  0.57762193122E+03  0.57762193123E+03  0.25500000920E-02 0.  1.
        2   -1    0    0  501    0  0.00000000000E+00  0.00000000000E+00 -0.98663346372E+03  0.98663346373E+03  0.25500000920E-02 0. -1.
    10030    2    1    2    0    0  0.00000000000E+00  0.00000000000E+00 -0.40901153250E+03  0.15642553950E+04  0.15098359205E+04 0.  0.
        2    1    3    3  502    0 -0.20265652875E+03 -0.39929619579E+02 -0.95678813357E+03  0.97882969699E+03  0.25500000920E-02 0. -1.
       -2    1    3    3    0  502  0.20265652875E+03  0.39929619579E+02  0.54777660106E+03  0.58542569797E+03  0.25500000920E-02 0.  1.
</event>
<event>
 5   0  0.2605471E-04  0.1495321E+04  0.7818609E-02  0.8887570E-01
        1   -1    0    0  501    0  0.00000000000E+00  0.00000000000E+00  0.11268235717E+04  0.11268235717E+04  0.50400001928E-02 0.  1.
       -1   -1    0    0    0  501  0.00000000000E+00  0.00000000000E+00 -0.49608154459E+03  0.49608154461E+03  0.50400001928E-02 0. -1.
    10030    2    1    2    0    0  0.00000000000E+00  0.00000000000E+00  0.63074202713E+03  0.16229051163E+04  0.14953212069E+04 0.  0.
        3    1    3    3  502    0  0.55601440604E+03 -0.16121857949E+02  0.85758084066E+03  0.10221823920E+04  0.10100000352E+00 0.  1.
       -3    1    3    3    0  502 -0.55601440604E+03  0.16121857949E+02 -0.22683881352E+03  0.60072272435E+03  0.10100000352E+00 0. -1.
</event>
<event>
 5   0  0.2544374E-04  0.1447644E+04  0.7818609E-02  0.8920035E-01
       -1   -1    0    0    0  501  0.00000000000E+00  0.00000000000E+00  0.58243661487E+03  0.58243661489E+03  0.50400001928E-02 0. -1.
        1   -1    0    0  501    0  0.00000000000E+00  0.00000000000E+00 -0.89952861845E+03  0.89952861847E+03  0.50400001928E-02 0.  1.
    10030    2    1    2    0    0  0.00000000000E+00  0.00000000000E+00 -0.31709200359E+03  0.14819652334E+04  0.14476441601E+04 0.  0.
        4    1    3    3  502    0  0.16967084748E+03  0.36359682822E+03 -0.77526197668E+03  0.87293962871E+03  0.12699999809E+01 0.  1.
       -4    1    3    3    0  502 -0.16967084748E+03 -0.36359682822E+03  0.45816997310E+03  0.60902560465E+03  0.12699999809E+01 0. -1.
</event>
<event>
 5   0  0.2603873E-04  0.1502836E+04  0.7818609E-02  0.8882569E-01
        1   -1    0    0  501    0  0.00000000000E+00  0.00000000000E+00  0.25901359348E+04  0.25901359348E+04  0.50400001928E-02 0.  1.
       -1   -1    0    0    0  501  0.00000000000E+00  0.00000000000E+00 -0.21799211980E+03  0.21799211985E+03  0.50400001928E-02 0. -1.
    10030    2    1    2    0    0  0.00000000000E+00  0.00000000000E+00  0.23721438150E+04  0.28081280546E+04  0.15028362826E+04 0.  0.
        2    1    3    3  502    0  0.62309405010E+02 -0.74095450778E+03  0.98367071083E+03  0.12330872280E+04  0.25500000920E-02 0.  1.
       -2    1    3    3    0  502 -0.62309405010E+02  0.74095450778E+03  0.13884731041E+04  0.15750408266E+04  0.25500000920E-02 0. -1.
</event>
<event>
 5   0  0.2565416E-04  0.1485599E+04  0.7818609E-02  0.8894086E-01
       -1   -1    0    0    0  501  0.00000000000E+00  0.00000000000E+00  0.98281714918E+03  0.98281714920E+03  0.50400001928E-02 0. -1.
        1   -1    0    0  501    0  0.00000000000E+00  0.00000000000E+00 -0.56139762559E+03  0.56139762561E+03  0.50400001928E-02 0.  1.
    10030    2    1    2    0    0  0.00000000000E+00  0.00000000000E+00  0.42141952359E+03  0.15442147748E+04  0.14855991572E+04 0.  0.
        5    1    3    3  502    0 -0.11745980844E+02  0.23975567331E+03 -0.51995332241E+03  0.57270786483E+03  0.46999998093E+01 0.  1.
       -5    1    3    3    0  502  0.11745980844E+02 -0.23975567331E+03  0.94137284601E+03  0.97150690998E+03  0.46999998093E+01 0. -1.
</event>
<event>
 5   0  0.4768387E-04  0.1498321E+04  0.7818609E-02  0.8885570E-01
       -2   -1    0    0    0  501  0.00000000000E+00  0.00000000000E+00  0.10320929648E+04  0.10320929648E+04  0.25500000920E-02 0. -1.
        2   -1    0    0  501    0  0.00000000000E+00  0.00000000000E+00 -0.54378931884E+03  0.54378931885E+03  0.25500000920E-02 0.  1.
    10030    2    1    2    0    0  0.00000000000E+00  0.00000000000E+00  0.48830364596E+03  0.15758822837E+04  0.14983205669E+04 0.  0.
        3    1    3    3  502    0  0.11939690578E+03  0.46850858077E+03  0.84603870328E+03  0.97444210142E+03  0.10100000352E+00 0. -1.
       -3    1    3    3    0  502 -0.11939690578E+03 -0.46850858077E+03 -0.35773505732E+03  0.60144018223E+03  0.10100000352E+00 0.  1.
</event>
<event>
 5   0  0.4785496E-04  0.1510993E+04  0.7818609E-02  0.8877176E-01
       -2   -1    0    0    0  501  0.00000000000E+00  0.00000000000E+00  0.84891409993E+03  0.84891409993E+03  0.25500000920E-02 0. -1.
        2   -1    0    0  501    0  0.00000000000E+00  0.00000000000E+00 -0.67235854003E+03  0.67235854003E+03  0.25500000920E-02 0.  1.
    10030    2    1    2    0    0  0.00000000000E+00  0.00000000000E+00  0.17655555990E+03  0.15212726400E+04  0.15109925808E+04 0.  0.
        4    1    3    3  502    0  0.74175205106E+03  0.14194881486E+03  0.67461995038E+02  0.75822048572E+03  0.12699999809E+01 0.  1.
       -4    1    3    3    0  502 -0.74175205106E+03 -0.14194881486E+03  0.10909356486E+03  0.76305215424E+03  0.12699999809E+01 0. -1.
</event>
<event>
 5   0  0.4768387E-04  0.1501785E+04  0.7818609E-02  0.8883267E-01
       -2   -1    0    0    0  501  0.00000000000E+00  0.00000000000E+00  0.40731816409E+03  0.40731816409E+03  0.25500000920E-02 0. -1.
        2   -1    0    0  501    0  0.00000000000E+00  0.00000000000E+00 -0.13842732930E+04  0.13842732931E+04  0.25500000920E-02 0.  1.
    10030    2    1    2    0    0  0.00000000000E+00  0.00000000000E+00 -0.97695512896E+03  0.17915914571E+04  0.15017851462E+04 0.  0.
        3    1    3    3  502    0  0.57027004938E+03 -0.28346178708E+03 -0.96309725572E+03  0.11546059276E+04  0.10100000352E+00 0. -1.
       -3    1    3    3    0  502 -0.57027004938E+03  0.28346178708E+03 -0.13857873237E+02  0.63698552951E+03  0.10100000352E+00 0.  1.
</event>
<event>
 5   0  0.2603873E-04  0.1491814E+04  0.7818609E-02  0.8889915E-01
       -1   -1    0    0    0  501  0.00000000000E+00  0.00000000000E+00  0.39920706261E+03  0.39920706264E+03  0.50400001928E-02 0. -1.
        1   -1    0    0  501    0  0.00000000000E+00  0.00000000000E+00 -0.13937068213E+04  0.13937068213E+04  0.50400001928E-02 0.  1.
    10030    2    1    2    0    0  0.00000000000E+00  0.00000000000E+00 -0.99449975872E+03  0.17929138840E+04  0.14918144741E+04 0.  0.
        2    1    3    3  502    0  0.28937707514E+03  0.66770661804E+03 -0.30047767327E+03  0.78731064487E+03  0.25500000920E-02 0. -1.
       -2    1    3    3    0  502 -0.28937707514E+03 -0.66770661804E+03 -0.69402208546E+03  0.10056032391E+04  0.25500000920E-02 0.  1.
</event>
<event>
 5   0  0.1792000E-04  0.1517457E+04  0.7818609E-02  0.8872927E-01
        4   -1    0    0  501    0  0.00000000000E+00  0.00000000000E+00  0.10724372091E+04  0.10724379610E+04  0.12699999809E+01 0. -1.
       -4   -1    0    0    0  501  0.00000000000E+00  0.00000000000E+00 -0.53678373036E+03  0.53678523273E+03  0.12699999809E+01 0.  1.
    10030    2    1    2    0    0  0.00000000000E+00  0.00000000000E+00  0.53565347869E+03  0.16092231938E+04  0.15174566347E+04 0.  0.
        4    1    3    3  502    0  0.14264428276E+03  0.73135221621E+03  0.41945445326E+03  0.85508309937E+03  0.12699999809E+01 0. -1.
       -4    1    3    3    0  502 -0.14264428276E+03 -0.73135221621E+03  0.11619902543E+03  0.75414009440E+03  0.12699999809E+01 0.  1.
</event>
<event>
 5   0  0.1792000E-04  0.1499695E+04  0.7818609E-02  0.8884656E-01
        3   -1    0    0  501    0  0.00000000000E+00  0.00000000000E+00  0.11002171715E+04  0.11002171762E+04  0.10100000352E+00 0.  1.
       -3   -1    0    0    0  501  0.00000000000E+00  0.00000000000E+00 -0.51105484744E+03  0.51105485742E+03  0.10100000352E+00 0. -1.
    10030    2    1    2    0    0  0.00000000000E+00  0.00000000000E+00  0.58916232410E+03  0.16112720336E+04  0.14996950764E+04 0.  0.
        2    1    3    3  502    0 -0.19430082209E+03 -0.30276964417E+03  0.10014423638E+04  0.10641001245E+04  0.25500000920E-02 0.  1.
       -2    1    3    3    0  502  0.19430082209E+03  0.30276964417E+03 -0.41228003974E+03  0.54717190907E+03  0.25500000920E-02 0. -1.
</event>
<event>
 5   0  0.2565416E-04  0.1609792E+04  0.7818609E-02  0.8814555E-01
       -1   -1    0    0    0  501  0.00000000000E+00  0.00000000000E+00  0.49150844389E+03  0.49150844392E+03  0.50400001928E-02 0. -1.
        1   -1    0    0  501    0  0.00000000000E+00  0.00000000000E+00 -0.13181005392E+04  0.13181005392E+04  0.50400001928E-02 0.  1.
    10030    2    1    2    0    0  0.00000000000E+00  0.00000000000E+00 -0.82659209529E+03  0.18096089831E+04  0.16097919679E+04 0.  0.
        5    1    3    3  502    0  0.53487133118E+03 -0.38644378764E+03  0.10478984238E+03  0.66815353250E+03  0.46999998093E+01 0. -1.
       -5    1    3    3    0  502 -0.53487133118E+03  0.38644378764E+03 -0.93138193767E+03  0.11414554506E+04  0.46999998093E+01 0.  1.
</event>
<event>
 5   0  0.2544374E-04  0.1595073E+04  0.7818609E-02  0.8823580E-01
        1   -1    0    0  501    0  0.00000000000E+00  0.00000000000E+00  0.12741641700E+04  0.12741641700E+04  0.50400001928E-02 0.  1.
       -1   -1    0    0    0  501  0.00000000000E+00  0.00000000000E+00 -0.49920162148E+03  0.49920162150E+03  0.50400001928E-02 0. -1.
    10030    2    1    2    0    0  0.00000000000E+00  0.00000000000E+00  0.77496254849E+03  0.17733657915E+04  0.15950734400E+04 0.  0.
        4    1    3    3  502    0 -0.39165553398E+02 -0.79330009299E+03  0.46768523765E+03  0.92173210453E+03  0.12699999809E+01 0.  1.
       -4    1    3    3    0  502  0.39165553398E+02  0.79330009299E+03  0.30727731085E+03  0.85163368696E+03  0.12699999809E+01 0. -1.
</event>
<event>
 5   0  0.2542737E-04  0.1487552E+04  0.7818609E-02  0.8892773E-01
        1   -1    0    0  501    0  0.00000000000E+00  0.00000000000E+00  0.80745355225E+03  0.80745355227E+03  0.50400001928E-02 0. -1.
       -1   -1    0    0    0  501  0.00000000000E+00  0.00000000000E+00 -0.68511976548E+03  0.68511976550E+03  0.50400001928E-02 0.  1.
    10030    2    1    2    0    0  0.00000000000E+00  0.00000000000E+00  0.12233378677E+03  0.14925733178E+04  0.14875515297E+04 0.  0.
        1    1    3    3  502    0  0.51046342159E+02 -0.32174050098E+03 -0.60973054657E+03  0.69129879102E+03  0.50400001928E-02 0.  1.
       -1    1    3    3    0  502 -0.51046342159E+02  0.32174050098E+03  0.73206433335E+03  0.80127452674E+03  0.50400001928E-02 0. -1.
</event>
<event>
 5   0  0.4785496E-04  0.1500338E+04  0.7818609E-02  0.8884228E-01
       -2   -1    0    0    0  501  0.00000000000E+00  0.00000000000E+00  0.66392917923E+03  0.66392917924E+03  0.25500000920E-02 0.  1.
        2   -1    0    0  501    0  0.00000000000E+00  0.00000000000E+00 -0.84761095160E+03  0.84761095161E+03  0.25500000920E-02 0. -1.
    10030    2    1    2    0    0  0.00000000000E+00  0.00000000000E+00 -0.18368177237E+03  0.15115401308E+04  0.15003381531E+04 0.  0.
        4    1    3    3  502    0  0.26822530411E+03 -0.53164830163E+03  0.36780814788E+03  0.69991369249E+03  0.12699999809E+01 0.  1.
       -4    1    3    3    0  502 -0.26822530411E+03  0.53164830163E+03 -0.55148992025E+03  0.81162643835E+03  0.12699999809E+01 0. -1.
</event>
<event>
 5   0  0.4569211E-04  0.1495469E+04  0.7818609E-02  0.8887472E-01
        2   -1    0    0  501    0  0.00000000000E+00  0.00000000000E+00  0.11398289821E+04  0.11398289821E+04  0.25500000920E-02 0. -1.
       -2   -1    0    0    0  501  0.00000000000E+00  0.00000000000E+00 -0.49051826576E+03  0.49051826576E+03  0.25500000920E-02 0.  1.
    10030    2    1    2    0    0  0.00000000000E+00  0.00000000000E+00  0.64931071637E+03  0.16303472479E+04  0.14954690710E+04 0.  0.
        5    1    3    3  502    0  0.73967323266E+03 -0.10389294213E+03  0.28729167170E+03  0.80029296458E+03  0.46999998093E+01 0.  1.
       -5    1    3    3    0  502 -0.73967323266E+03  0.10389294213E+03  0.36201904467E+03  0.83005428331E+03  0.46999998093E+01 0. -1.
</event>
<event>
 5   0  0.2565416E-04  0.1492441E+04  0.7818609E-02  0.8889495E-01
       -1   -1    0    0    0  501  0.00000000000E+00  0.00000000000E+00  0.39801297054E+03  0.39801297057E+03  0.50400001928E-02 0.  1.
        1   -1    0    0  501    0  0.00000000000E+00  0.00000000000E+00 -0.13990625803E+04  0.13990625803E+04  0.50400001928E-02 0. -1.
    10030    2    1    2    0    0  0.00000000000E+00  0.00000000000E+00 -0.10010496097E+04  0.17970755509E+04  0.14924410254E+04 0.  0.
        5    1    3    3  502    0  0.49278194790E+03  0.38776156897E+02 -0.11736315930E+04  0.12734876696E+04  0.46999998093E+01 0. -1.
       -5    1    3    3    0  502 -0.49278194790E+03 -0.38776156897E+02  0.17258198322E+03  0.52358788130E+03  0.46999998093E+01 0.  1.
</event>
<event>
 5   0  0.4948645E-04  0.1505180E+04  0.7818609E-02  0.8881015E-01
       -2   -1    0    0    0  501  0.00000000000E+00  0.00000000000E+00  0.51319950300E+03  0.51319950300E+03  0.25500000920E-02 0.  1.
        2   -1    0    0  501    0  0.00000000000E+00  0.00000000000E+00 -0.11036484101E+04  0.11036484101E+04  0.25500000920E-02 0. -1.
    10030    2    1    2    0    0  0.00000000000E+00  0.00000000000E+00 -0.59044890706E+03  0.16168479131E+04  0.15051801428E+04 0.  0.
        1    1    3    3  502    0  0.58662153177E+03  0.12645153027E+03  0.19264777614E+03  0.63026024524E+03  0.50400001928E-02 0.  1.
       -1    1    3    3    0  502 -0.58662153177E+03 -0.12645153027E+03 -0.78309668320E+03  0.98658766783E+03  0.50400001928E-02 0. -1.
</event>
<event>
 5   0  0.4726600E-04  0.1494697E+04  0.7818609E-02  0.8887987E-01
        2   -1    0    0  501    0  0.00000000000E+00  0.00000000000E+00  0.93198937397E+03  0.93198937397E+03  0.25500000920E-02 0.  1.
       -2   -1    0    0    0  501  0.00000000000E+00  0.00000000000E+00 -0.59928732978E+03  0.59928732978E+03  0.25500000920E-02 0. -1.
    10030    2    1    2    0    0  0.00000000000E+00  0.00000000000E+00  0.33270204419E+03  0.15312767038E+04  0.14946965221E+04 0.  0.
        2    1    3    3  502    0 -0.44854305655E+03  0.13001427938E+03 -0.43139631358E+03  0.63576518134E+03  0.25500000920E-02 0. -1.
       -2    1    3    3    0  502  0.44854305655E+03 -0.13001427938E+03  0.76409835778E+03  0.89551152242E+03  0.25500000920E-02 0.  1.
</event>
<event>
 5   0  0.4726600E-04  0.1496551E+04  0.7818609E-02  0.8886750E-01
        2   -1    0    0  501    0  0.00000000000E+00  0.00000000000E+00  0.10244182099E+04  0.10244182099E+04  0.25500000920E-02 0. -1.
       -2   -1    0    0    0  501  0.00000000000E+00  0.00000000000E+00 -0.54657007837E+03  0.54657007838E+03  0.25500000920E-02 0.  1.
    10030    2    1    2    0    0  0.00000000000E+00  0.00000000000E+00  0.47784813150E+03  0.15709882883E+04  0.14965511568E+04 0.  0.
        2    1    3    3  502    0  0.24030393604E+03 -0.45118813066E+03  0.81254634824E+03  0.95997306159E+03  0.25500000920E-02 0. -1.
       -2    1    3    3    0  502 -0.24030393604E+03  0.45118813066E+03 -0.33469821674E+03  0.61101522667E+03  0.25500000920E-02 0.  1.
</event>
<event>
 5   0  0.2544374E-04  0.1506854E+04  0.7818609E-02  0.8879908E-01
       -1   -1    0    0    0  501  0.00000000000E+00  0.00000000000E+00  0.43367755124E+03  0.43367755127E+03  0.50400001928E-02 0.  1.
        1   -1    0    0  501    0  0.00000000000E+00  0.00000000000E+00 -0.13089272912E+04  0.13089272913E+04  0.50400001928E-02 0. -1.
    10030    2    1    2    0    0  0.00000000000E+00  0.00000000000E+00 -0.87524974001E+03  0.17426048425E+04  0.15068541833E+04 0.  0.
        4    1    3    3  502    0  0.24468841914E+03  0.36214790345E+03  0.27208942699E+03  0.51483764005E+03  0.12699999809E+01 0.  1.
       -4    1    3    3    0  502 -0.24468841914E+03 -0.36214790345E+03 -0.11473391670E+04  0.12277672025E+04  0.12699999809E+01 0. -1.
</event>
<event>
 5   0  0.2542737E-04  0.1498551E+04  0.7818609E-02  0.8885417E-01
        1   -1    0    0  501    0  0.00000000000E+00  0.00000000000E+00  0.68161876252E+03  0.68161876254E+03  0.50400001928E-02 0.  1.
       -1   -1    0    0    0  501  0.00000000000E+00  0.00000000000E+00 -0.82364800564E+03  0.82364800565E+03  0.50400001928E-02 0. -1.
    10030    2    1    2    0    0  0.00000000000E+00  0.00000000000E+00 -0.14202924312E+03  0.15052667682E+04  0.14985512128E+04 0.  0.
        1    1    3    3  502    0  0.21930644334E+03  0.27525889777E+03  0.59342619428E+03  0.68994016043E+03  0.50400001928E-02 0.  1.
       -1    1    3    3    0  502 -0.21930644334E+03 -0.27525889777E+03 -0.73545543740E+03  0.81532660776E+03  0.50400001928E-02 0. -1.
</event>
<event>
 5   0  0.4569211E-04  0.1501257E+04  0.7818609E-02  0.8883617E-01
        2   -1    0    0  501    0  0.00000000000E+00  0.00000000000E+00  0.25451721469E+04  0.25451721469E+04  0.25500000920E-02 0.  1.
       -2   -1    0    0    0  501  0.00000000000E+00  0.00000000000E+00 -0.22137737012E+03  0.22137737014E+03  0.25500000920E-02 0. -1.
    10030    2    1    2    0    0  0.00000000000E+00  0.00000000000E+00  0.23237947768E+04  0.27665495171E+04  0.15012574948E+04 0.  0.
        5    1    3    3  502    0  0.12082916343E+03  0.46247836239E+01 -0.20328428494E+03  0.23657486312E+03  0.46999998093E+01 0. -1.
       -5    1    3    3    0  502 -0.12082916343E+03 -0.46247836239E+01  0.25270790617E+04  0.25299746539E+04  0.46999998093E+01 0.  1.
</event>
<event>
 5   0  0.2565416E-04  0.1502872E+04  0.7818609E-02  0.8882546E-01
        1   -1    0    0  501    0  0.00000000000E+00  0.00000000000E+00  0.19958828649E+04  0.19958828649E+04  0.50400001928E-02 0. -1.
       -1   -1    0    0    0  501  0.00000000000E+00  0.00000000000E+00 -0.28291028871E+03  0.28291028876E+03  0.50400001928E-02 0.  1.
    10030    2    1    2    0    0  0.00000000000E+00  0.00000000000E+00  0.17129725762E+04  0.22787931537E+04  0.15028716480E+04 0.  0.
        5    1    3    3  502    0  0.97837231625E+02  0.64619280059E+03  0.29423720701E+03  0.71675301423E+03  0.46999998093E+01 0.  1.
       -5    1    3    3    0  502 -0.97837231625E+02 -0.64619280059E+03  0.14187353692E+04  0.15620401394E+04  0.46999998093E+01 0. -1.
</event>
<event>
 5   0  0.4726600E-04  0.1498471E+04  0.7818609E-02  0.8885471E-01
        2   -1    0    0  501    0  0.00000000000E+00  0.00000000000E+00  0.14024717568E+04  0.14024717568E+04  0.25500000920E-02 0.  1.
       -2   -1    0    0    0  501  0.00000000000E+00  0.00000000000E+00 -0.40026020065E+03  0.40026020066E+03  0.25500000920E-02 0. -1.
    10030    2    1    2    0    0  0.00000000000E+00  0.00000000000E+00  0.10022115561E+04  0.18027319574E+04  0.14984707228E+04 0.  0.
        2    1    3    3  502    0  0.44133185688E+03  0.28706958205E+03 -0.14021111070E+03  0.54483200017E+03  0.25500000920E-02 0. -1.
       -2    1    3    3    0  502 -0.44133185688E+03 -0.28706958205E+03  0.11424226668E+04  0.12578999573E+04  0.25500000920E-02 0.  1.
</event>
<event>
 5   0  0.4785496E-04  0.1482065E+04  0.7818609E-02  0.8896468E-01
       -2   -1    0    0    0  501  0.00000000000E+00  0.00000000000E+00  0.39385116049E+03  0.39385116049E+03  0.25500000920E-02 0.  1.
        2   -1    0    0  501    0  0.00000000000E+00  0.00000000000E+00 -0.13942560917E+04  0.13942560917E+04  0.25500000920E-02 0. -1.
    10030    2    1    2    0    0  0.00000000000E+00  0.00000000000E+00 -0.10004049312E+04  0.17881072522E+04  0.14820652884E+04 0.  0.
        4    1    3    3  502    0  0.63275934960E+02 -0.49304007351E+03 -0.11632660223E+04  0.12650224542E+04  0.12699999809E+01 0. -1.
       -4    1    3    3    0  502 -0.63275934960E+02  0.49304007351E+03  0.16286109109E+03  0.52308479802E+03  0.12699999809E+01 0.  1.
</event>
<event>
 5   0  0.2544374E-04  0.1499992E+04  0.7818609E-02  0.8884458E-01
       -1   -1    0    0    0  501  0.00000000000E+00  0.00000000000E+00  0.56164869314E+03  0.56164869316E+03  0.50400001928E-02 0.  1.
        1   -1    0    0  501    0  0.00000000000E+00  0.00000000000E+00 -0.10015047410E+04  0.10015047410E+04  0.50400001928E-02 0. -1.
    10030    2    1    2    0    0  0.00000000000E+00  0.00000000000E+00 -0.43985604788E+03  0.15631534342E+04  0.14999917720E+04 0.  0.
        4    1    3    3  502    0 -0.40137983821E+03 -0.64316109391E+02  0.43688933087E+03  0.59675475429E+03  0.12699999809E+01 0.  1.
       -4    1    3    3    0  502  0.40137983821E+03  0.64316109391E+02 -0.87674537875E+03  0.96639867989E+03  0.12699999809E+01 0. -1.
</event>
<event>
 5   0  0.4569211E-04  0.1571994E+04  0.7818609E-02  0.8837940E-01
       -2   -1    0    0    0  501  0.00000000000E+00  0.00000000000E+00  0.10780867623E+04  0.10780867623E+04  0.25500000920E-02 0.  1.
        2   -1    0    0  501    0  0.00000000000E+00  0.00000000000E+00 -0.57304444376E+03  0.57304444376E+03  0.25500000920E-02 0. -1.
    10030    2    1    2    0    0  0.00000000000E+00  0.00000000000E+00  0.50504231856E+03  0.16511312061E+04  0.15719944390E+04 0.  0.
        5    1    3    3  502    0 -0.27546212360E+03  0.64006815125E+03 -0.12938011088E+03  0.70875095970E+03  0.46999998093E+01 0. -1.
       -5    1    3    3    0  502  0.27546212360E+03 -0.64006815125E+03  0.63442242944E+03  0.94238024638E+03  0.46999998093E+01 0.  1.
</event>
<event>
 5   0  0.4768387E-04  0.1453860E+04  0.7818609E-02  0.8915729E-01
       -2   -1    0    0    0  501  0.00000000000E+00  0.00000000000E+00  0.60319203679E+03  0.60319203680E+03  0.25500000920E-02 0. -1.
        2   -1    0    0  501    0  0.00000000000E+00  0.00000000000E+00 -0.87605136246E+03  0.87605136247E+03  0.25500000920E-02 0.  1.
    10030    2    1    2    0    0  0.00000000000E+00  0.00000000000E+00 -0.27285932567E+03  0.14792433993E+04  0.14538599735E+04 0.  0.
        3    1    3    3  502    0  0.35071449715E+02  0.19734364153E+03  0.57452085696E+03  0.60848068558E+03  0.10100000352E+00 0. -1.
       -3    1    3    3    0  502 -0.35071449715E+02 -0.19734364153E+03 -0.84738018263E+03  0.87076271369E+03  0.10100000352E+00 0.  1.
</event>
<event>
 5   0  0.4785496E-04  0.1477126E+04  0.7818609E-02  0.8899808E-01
       -2   -1    0    0    0  501  0.00000000000E+00  0.00000000000E+00  0.60756467808E+03  0.60756467808E+03  0.25500000920E-02 0.  1.
        2   -1    0    0  501    0  0.00000000000E+00  0.00000000000E+00 -0.89780656602E+03  0.89780656603E+03  0.25500000920E-02 0. -1.
    10030    2    1    2    0    0  0.00000000000E+00  0.00000000000E+00 -0.29024188794E+03  0.15053712441E+04  0.14771263416E+04 0.  0.
        4    1    3    3  502    0 -0.50598033383E+03  0.20286201520E+03  0.36270931319E+03  0.65477381912E+03  0.12699999809E+01 0.  1.
       -4    1    3    3    0  502  0.50598033383E+03 -0.20286201520E+03 -0.65295120114E+03  0.85059742499E+03  0.12699999809E+01 0. -1.
</event>
<event>
 5   0  0.2603873E-04  0.1486641E+04  0.7818609E-02  0.8893385E-01
        1   -1    0    0  501    0  0.00000000000E+00  0.00000000000E+00  0.15693745592E+04  0.15693745592E+04  0.50400001928E-02 0. -1.
       -1   -1    0    0    0  501  0.00000000000E+00  0.00000000000E+00 -0.35206727916E+03  0.35206727920E+03  0.50400001928E-02 0.  1.
    10030    2    1    2    0    0  0.00000000000E+00  0.00000000000E+00  0.12173072800E+04  0.19214418384E+04  0.14866410879E+04 0.  0.
        2    1    3    3  502    0  0.30423952522E+03 -0.55374860648E+03  0.10256180546E+03  0.64009228384E+03  0.25500000920E-02 0.  1.
       -2    1    3    3    0  502 -0.30423952522E+03  0.55374860648E+03  0.11147454745E+04  0.12813495545E+04  0.25500000920E-02 0. -1.
</event>
<event>
 5   0  0.4569211E-04  0.1495430E+04  0.7818609E-02  0.8887498E-01
        2   -1    0    0  501    0  0.00000000000E+00  0.00000000000E+00  0.13828565305E+04  0.13828565305E+04  0.25500000920E-02 0. -1.
       -2   -1    0    0    0  501  0.00000000000E+00  0.00000000000E+00 -0.40429165853E+03  0.40429165854E+03  0.25500000920E-02 0.  1.
    10030    2    1    2    0    0  0.00000000000E+00  0.00000000000E+00  0.97856487197E+03  0.17871481890E+04  0.14954295172E+04 0.  0.
        5    1    3    3  502    0 -0.22780346066E+03 -0.41529921995E+03 -0.20209357346E+03  0.51500656424E+03  0.46999998093E+01 0.  1.
       -5    1    3    3    0  502  0.22780346066E+03  0.41529921995E+03  0.11806584454E+04  0.12721416248E+04  0.46999998093E+01 0. -1.
</event>
<event>
 5   0  0.2605471E-04  0.1496144E+04  0.7818609E-02  0.8887021E-01
       -1   -1    0    0    0  501  0.00000000000E+00  0.00000000000E+00  0.54675273168E+03  0.54675273171E+03  0.50400001928E-02 0. -1.
        1   -1    0    0  501    0  0.00000000000E+00  0.00000000000E+00 -0.10235186412E+04  0.10235186412E+04  0.50400001928E-02 0.  1.
    10030    2    1    2    0    0  0.00000000000E+00  0.00000000000E+00 -0.47676590953E+03  0.15702713729E+04  0.14961438608E+04 0.  0.
        3    1    3    3  502    0 -0.28396859004E+03  0.45158805586E+02  0.48643769431E+03  0.56506558778E+03  0.10100000352E+00 0. -1.
       -3    1    3    3    0  502  0.28396859004E+03 -0.45158805586E+02 -0.96320360384E+03  0.10052057851E+04  0.10100000352E+00 0.  1.
</event>
<event>
 5   0  0.4785496E-04  0.1591134E+04  0.7818609E-02  0.8826013E-01
        2   -1    0    0  501    0  0.00000000000E+00  0.00000000000E+00  0.13847805698E+04  0.13847805698E+04  0.25500000920E-02 0.  1.
       -2   -1    0    0    0  501  0.00000000000E+00  0.00000000000E+00 -0.45705927079E+03  0.45705927079E+03  0.25500000920E-02 0. -1.
    10030    2    1    2    0    0  0.00000000000E+00  0.00000000000E+00  0.92772129902E+03  0.18418398406E+04  0.15911339321E+04 0.  0.
        4    1    3    3  502    0 -0.32442954215E+03 -0.12861772444E+03 -0.36371941458E+03  0.50407387584E+03  0.12699999809E+01 0. -1.
       -4    1    3    3    0  502  0.32442954215E+03  0.12861772444E+03  0.12914407136E+04  0.13377659648E+04  0.12699999809E+01 0.  1.
</event>
<event>
 5   0  0.2542737E-04  0.1489538E+04  0.7818609E-02  0.8891440E-01
        1   -1    0    0  501    0  0.00000000000E+00  0.00000000000E+00  0.68848367496E+03  0.68848367497E+03  0.50400001928E-02 0.  1.
       -1   -1    0    0    0  501  0.00000000000E+00  0.00000000000E+00 -0.80565580150E+03  0.80565580152E+03  0.50400001928E-02 0. -1.
    10030    2    1    2    0    0  0.00000000000E+00  0.00000000000E+00 -0.11717212654E+03  0.14941394765E+04  0.14895380049E+04 0.  0.
        1    1    3    3  502    0 -0.49069567103E+03  0.50280570869E+03 -0.30650345825E+03  0.76651170389E+03  0.50400001928E-02 0.  1.
       -1    1    3    3    0  502  0.49069567103E+03 -0.50280570869E+03  0.18933133171E+03  0.72762777260E+03  0.50400001928E-02 0. -1.
</event>
<event>
 5   0  0.4569211E-04  0.1511947E+04  0.7818609E-02  0.8876547E-01
       -2   -1    0    0    0  501  0.00000000000E+00  0.00000000000E+00  0.75195865655E+03  0.75195865656E+03  0.25500000920E-02 0. -1.
        2   -1    0    0  501    0  0.00000000000E+00  0.00000000000E+00 -0.76000998037E+03  0.76000998037E+03  0.25500000920E-02 0.  1.
    10030    2    1    2    0    0  0.00000000000E+00  0.00000000000E+00 -0.80513238135E+01  0.15119686369E+04  0.15119471999E+04 0.  0.
        5    1    3    3  502    0  0.19893836872E+03 -0.39170261695E+03 -0.61923075888E+03  0.75926032256E+03  0.46999998093E+01 0.  1.
       -5    1    3    3    0  502 -0.19893836872E+03  0.39170261695E+03  0.61117943506E+03  0.75270831437E+03  0.46999998093E+01 0. -1.
</event>
<event>
 5   0  0.2565416E-04  0.1495146E+04  0.7818609E-02  0.8887687E-01
        1   -1    0    0  501    0  0.00000000000E+00  0.00000000000E+00  0.34060122475E+03  0.34060122479E+03  0.50400001928E-02 0.  1.
       -1   -1    0    0    0  501  0.00000000000E+00  0.00000000000E+00 -0.16408200303E+04  0.16408200303E+04  0.50400001928E-02 0. -1.
    10030    2    1    2    0    0  0.00000000000E+00  0.00000000000E+00 -0.13002188055E+04  0.19814212551E+04  0.14951458952E+04 0.  0.
        5    1    3    3  502    0 -0.45791260726E+03  0.56898665939E+03 -0.43884562731E+03  0.85207825289E+03  0.46999998093E+01 0.  1.
       -5    1    3    3    0  502  0.45791260726E+03 -0.56898665939E+03 -0.86137317823E+03  0.11293430022E+04  0.46999998093E+01 0. -1.
</event>
<event>
 5   0  0.2565416E-04  0.1505366E+04  0.7818609E-02  0.8880893E-01
       -1   -1    0    0    0  501  0.00000000000E+00  0.00000000000E+00  0.35447841849E+03  0.35447841853E+03  0.50400001928E-02 0.  1.
        1   -1    0    0  501    0  0.00000000000E+00  0.00000000000E+00 -0.15982117352E+04  0.15982117352E+04  0.50400001928E-02 0. -1.
    10030    2    1    2    0    0  0.00000000000E+00  0.00000000000E+00 -0.12437333167E+04  0.19526901537E+04  0.15053658271E+04 0.  0.
        5    1    3    3  502    0  0.40253727619E+03 -0.37686181330E+03  0.42661277102E+02  0.55308512872E+03  0.46999998093E+01 0.  1.
       -5    1    3    3    0  502 -0.40253727619E+03  0.37686181330E+03 -0.12863945938E+04  0.13996050250E+04  0.46999998093E+01 0. -1.
</event>
<event>
 5   0  0.4569211E-04  0.1508148E+04  0.7818609E-02  0.8879052E-01
        2   -1    0    0  501    0  0.00000000000E+00  0.00000000000E+00  0.84761258798E+03  0.84761258799E+03  0.25500000920E-02 0.  1.
       -2   -1    0    0    0  501  0.00000000000E+00  0.00000000000E+00 -0.67085807137E+03  0.67085807138E+03  0.25500000920E-02 0. -1.
    10030    2    1    2    0    0  0.00000000000E+00  0.00000000000E+00  0.17675451661E+03  0.15184706594E+04  0.15081481970E+04 0.  0.
        5    1    3    3  502    0  0.41672922862E+03  0.11341729180E+03  0.71073332368E+03  0.83167943311E+03  0.46999998093E+01 0.  1.
       -5    1    3    3    0  502 -0.41672922862E+03 -0.11341729180E+03 -0.53397880707E+03  0.68679122626E+03  0.46999998093E+01 0. -1.
</event>
<event>
 5   0  0.2544374E-04  0.1541463E+04  0.7818609E-02  0.8857339E-01
       -1   -1    0    0    0  501  0.00000000000E+00  0.00000000000E+00  0.63081879008E+03  0.63081879010E+03  0.50400001928E-02 0. -1.
        1   -1    0    0  501    0  0.00000000000E+00  0.00000000000E+00 -0.94167633758E+03  0.94167633759E+03  0.50400001928E-02 0.  1.
    10030    2    1    2    0    0  0.00000000000E+00  0.00000000000E+00 -0.31085754750E+03  0.15724951277E+04  0.15414631075E+04 0.  0.
        4    1    3    3  502    0 -0.61384081854E+03 -0.46494916204E+03 -0.18844135960E+03  0.79277363270E+03  0.12699999809E+01 0.  1.
       -4    1    3    3    0  502  0.61384081854E+03  0.46494916204E+03 -0.12241618790E+03  0.77972149499E+03  0.12699999809E+01 0. -1.
</event>
<event>
 5   0  0.2544374E-04  0.1499458E+04  0.7818609E-02  0.8884813E-01
       -1   -1    0    0    0  501  0.00000000000E+00  0.00000000000E+00  0.12802640328E+04  0.12802640328E+04  0.50400001928E-02 0.  1.
        1   -1    0    0  501    0  0.00000000000E+00  0.00000000000E+00 -0.43904532517E+03  0.43904532520E+03  0.50400001928E-02 0. -1.
    10030    2    1    2    0    0  0.00000000000E+00  0.00000000000E+00  0.84121870762E+03  0.17193093580E+04  0.14994584871E+04 0.  0.
        4    1    3    3  502    0  0.20330196423E+03  0.24627089772E+03 -0.35716034867E+03  0.47910976956E+03  0.12699999809E+01 0. -1.
       -4    1    3    3    0  502 -0.20330196423E+03 -0.24627089772E+03  0.11983790563E+04  0.12401995885E+04  0.12699999809E+01 0.  1.
</event>
<event>
 5   0  0.2565416E-04  0.1486862E+04  0.7818609E-02  0.8893237E-01
        1   -1    0    0  501    0  0.00000000000E+00  0.00000000000E+00  0.13869476024E+04  0.13869476024E+04  0.50400001928E-02 0. -1.
       -1   -1    0    0    0  501  0.00000000000E+00  0.00000000000E+00 -0.39849375867E+03  0.39849375870E+03  0.50400001928E-02 0.  1.
    10030    2    1    2    0    0  0.00000000000E+00  0.00000000000E+00  0.98845384372E+03  0.17854413611E+04  0.14868624189E+04 0.  0.
        5    1    3    3  502    0  0.26612327257E+03  0.27121733371E+03 -0.27306003208E+03  0.46793622368E+03  0.46999998093E+01 0.  1.
       -5    1    3    3    0  502 -0.26612327257E+03 -0.27121733371E+03  0.12615138758E+04  0.13175051374E+04  0.46999998093E+01 0. -1.
</event>
<event>
 5   0  0.2603873E-04  0.1500340E+04  0.7818609E-02  0.8884227E-01
        1   -1    0    0  501    0  0.00000000000E+00  0.00000000000E+00  0.10325807105E+04  0.10325807105E+04  0.50400001928E-02 0.  1.
       -1   -1    0    0    0  501  0.00000000000E+00  0.00000000000E+00 -0.54499865905E+03  0.54499865907E+03  0.50400001928E-02 0. -1.
    10030    2    1    2    0    0  0.00000000000E+00  0.00000000000E+00  0.48758205147E+03  0.15775793696E+04  0.15003400983E+04 0.  0.
        2    1    3    3  502    0  0.91040921760E+02 -0.16957036780E+03  0.10061783581E+04  0.10244205422E+04  0.25500000920E-02 0.  1.
       -2    1    3    3    0  502 -0.91040921760E+02  0.16957036780E+03 -0.51859630660E+03  0.55315882737E+03  0.25500000920E-02 0. -1.
</event>
<event>
 5   0  0.2544374E-04  0.1509203E+04  0.7818609E-02  0.8878356E-01
       -1   -1    0    0    0  501  0.00000000000E+00  0.00000000000E+00  0.85092859847E+03  0.85092859849E+03  0.50400001928E-02 0.  1.
        1   -1    0    0  501    0  0.00000000000E+00  0.00000000000E+00 -0.66917929597E+03  0.66917929599E+03  0.50400001928E-02 0. -1.
    10030    2    1    2    0    0  0.00000000000E+00  0.00000000000E+00  0.18174930250E+03  0.15201078945E+04  0.15092034992E+04 0.  0.
        4    1    3    3  502    0 -0.55066328591E+03  0.51538034791E+03  0.66717405590E+02  0.75716562427E+03  0.12699999809E+01 0.  1.
       -4    1    3    3    0  502  0.55066328591E+03 -0.51538034791E+03  0.11503189691E+03  0.76294227021E+03  0.12699999809E+01 0. -1.
</event>
<event>
 5   0  0.2544374E-04  0.1495740E+04  0.7818609E-02  0.8887291E-01
       -1   -1    0    0    0  501  0.00000000000E+00  0.00000000000E+00  0.60699843997E+03  0.60699843999E+03  0.50400001928E-02 0.  1.
        1   -1    0    0  501    0  0.00000000000E+00  0.00000000000E+00 -0.92143491801E+03  0.92143491802E+03  0.50400001928E-02 0. -1.
    10030    2    1    2    0    0  0.00000000000E+00  0.00000000000E+00 -0.31443647804E+03  0.15284333580E+04  0.14957400279E+04 0.  0.
        4    1    3    3  502    0  0.40468159231E+02 -0.20554351028E+03 -0.89083952806E+03  0.91514069092E+03  0.12699999809E+01 0. -1.
       -4    1    3    3    0  502 -0.40468159231E+02  0.20554351028E+03  0.57640305002E+03  0.61329266709E+03  0.12699999809E+01 0.  1.
</event>
<event>
 5   0  0.2542737E-04  0.1486794E+04  0.7818609E-02  0.8893283E-01
       -1   -1    0    0    0  501  0.00000000000E+00  0.00000000000E+00  0.70573941198E+03  0.70573941200E+03  0.50400001928E-02 0.  1.
        1   -1    0    0  501    0  0.00000000000E+00  0.00000000000E+00 -0.78306392352E+03  0.78306392354E+03  0.50400001928E-02 0. -1.
    10030    2    1    2    0    0  0.00000000000E+00  0.00000000000E+00 -0.77324511543E+02  0.14888033355E+04  0.14867939641E+04 0.  0.
        1    1    3    3  502    0 -0.37966932253E+03 -0.30656319373E+02  0.60059731987E+03  0.71120021446E+03  0.50400001928E-02 0.  1.
       -1    1    3    3    0  502  0.37966932253E+03  0.30656319373E+02 -0.67792183141E+03  0.77760312108E+03  0.50400001928E-02 0. -1.
</event>
<event>
 5   0  0.4726600E-04  0.1499990E+04  0.7818609E-02  0.8884459E-01
       -2   -1    0    0    0  501  0.00000000000E+00  0.00000000000E+00  0.75184317986E+03  0.75184317986E+03  0.25500000920E-02 0.  1.
        2   -1    0    0  501    0  0.00000000000E+00  0.00000000000E+00 -0.74815155383E+03  0.74815155384E+03  0.25500000920E-02 0. -1.
    10030    2    1    2    0    0  0.00000000000E+00  0.00000000000E+00  0.36916260242E+01  0.14999947337E+04  0.14999901910E+04 0.  0.
        2    1    3    3  502    0 -0.28327365806E+03  0.67549383534E+03 -0.15926568109E+03  0.74960085654E+03  0.25500000920E-02 0.  1.
       -2    1    3    3    0  502  0.28327365806E+03 -0.67549383534E+03  0.16295730712E+03  0.75039387717E+03  0.25500000920E-02 0. -1.
</event>
<event>
 5   0  0.2542737E-04  0.1491954E+04  0.7818609E-02  0.8889821E-01
       -1   -1    0    0    0  501  0.00000000000E+00  0.00000000000E+00  0.40820062173E+03  0.40820062176E+03  0.50400001928E-02 0. -1.
        1   -1    0    0  501    0  0.00000000000E+00  0.00000000000E+00 -0.13632557755E+04  0.13632557755E+04  0.50400001928E-02 0.  1.
    10030    2    1    2    0    0  0.00000000000E+00  0.00000000000E+00 -0.95505515376E+03  0.17714563973E+04  0.14919542287E+04 0.  0.
        1    1    3    3  502    0  0.64702864232E+03 -0.13397330640E+03 -0.88864029555E+03  0.11073736884E+04  0.50400001928E-02 0.  1.
       -1    1    3    3    0  502 -0.64702864232E+03  0.13397330640E+03 -0.66414858214E+02  0.66408270888E+03  0.50400001928E-02 0. -1.
</event>
<event>
 5   0  0.2544374E-04  0.1516052E+04  0.7818609E-02  0.8873848E-01
        1   -1    0    0  501    0  0.00000000000E+00  0.00000000000E+00  0.83377382654E+03  0.83377382655E+03  0.50400001928E-02 0.  1.
       -1   -1    0    0    0  501  0.00000000000E+00  0.00000000000E+00 -0.68916009623E+03  0.68916009624E+03  0.50400001928E-02 0. -1.
    10030    2    1    2    0    0  0.00000000000E+00  0.00000000000E+00  0.14461373031E+03  0.15229339228E+04  0.15160523085E+04 0.  0.
        4    1    3    3  502    0  0.27790963438E+03 -0.67761185546E+03 -0.12405535263E+03  0.74282093062E+03  0.12699999809E+01 0. -1.
       -4    1    3    3    0  502 -0.27790963438E+03  0.67761185546E+03  0.26866908294E+03  0.78011299218E+03  0.12699999809E+01 0.  1.
</event>
<event>
 5   0  0.4569211E-04  0.1497589E+04  0.7818609E-02  0.8886058E-01
        2   -1    0    0  501    0  0.00000000000E+00  0.00000000000E+00  0.23452887598E+04  0.23452887598E+04  0.25500000920E-02 0. -1.
       -2   -1    0    0    0  501  0.00000000000E+00  0.00000000000E+00 -0.23907220081E+03  0.23907220083E+03  0.25500000920E-02 0.  1.
    10030    2    1    2    0    0  0.00000000000E+00  0.00000000000E+00  0.21062165590E+04  0.25843609607E+04  0.14975891898E+04 0.  0.
        5    1    3    3  502    0  0.15767271017E+03 -0.71647332695E+03  0.13118254419E+04  0.15030312012E+04  0.46999998093E+01 0. -1.
       -5    1    3    3    0  502 -0.15767271017E+03  0.71647332695E+03  0.79439111716E+03  0.10813297595E+04  0.46999998093E+01 0.  1.
</event>
<event>
 5   0  0.4569211E-04  0.1456708E+04  0.7818609E-02  0.8913763E-01
        2   -1    0    0  501    0  0.00000000000E+00  0.00000000000E+00  0.84166918648E+03  0.84166918648E+03  0.25500000920E-02 0.  1.
       -2   -1    0    0    0  501  0.00000000000E+00  0.00000000000E+00 -0.63029457770E+03  0.63029457770E+03  0.25500000920E-02 0. -1.
    10030    2    1    2    0    0  0.00000000000E+00  0.00000000000E+00  0.21137460878E+03  0.14719637642E+04  0.14567079659E+04 0.  0.
        5    1    3    3  502    0  0.25604735201E+03 -0.13658894299E+03 -0.56933623844E+03  0.63904822057E+03  0.46999998093E+01 0. -1.
       -5    1    3    3    0  502 -0.25604735201E+03  0.13658894299E+03  0.78071084722E+03  0.83291554361E+03  0.46999998093E+01 0.  1.
</event>
<event>
 5   0  0.2605471E-04  0.1504471E+04  0.7818609E-02  0.8881485E-01
       -1   -1    0    0    0  501  0.00000000000E+00  0.00000000000E+00  0.51788700186E+03  0.51788700188E+03  0.50400001928E-02 0.  1.
        1   -1    0    0  501    0  0.00000000000E+00  0.00000000000E+00 -0.10926285307E+04  0.10926285307E+04  0.50400001928E-02 0. -1.
    10030    2    1    2    0    0  0.00000000000E+00  0.00000000000E+00 -0.57474152885E+03  0.16105155326E+04  0.15044708225E+04 0.  0.
        3    1    3    3  502    0 -0.28644653304E+03 -0.18819168853E+03 -0.10041894033E+04  0.10610674323E+04  0.10100000352E+00 0. -1.
       -3    1    3    3    0  502  0.28644653304E+03  0.18819168853E+03  0.42944787444E+03  0.54944810035E+03  0.10100000352E+00 0.  1.
</event>
<event>
 5   0  0.2544374E-04  0.1488889E+04  0.7818609E-02  0.8891876E-01
       -1   -1    0    0    0  501  0.00000000000E+00  0.00000000000E+00  0.12739710134E+04  0.12739710134E+04  0.50400001928E-02 0. -1.
        1   -1    0    0  501    0  0.00000000000E+00  0.00000000000E+00 -0.43501559664E+03  0.43501559667E+03  0.50400001928E-02 0.  1.
    10030    2    1    2    0    0  0.00000000000E+00  0.00000000000E+00  0.83895541675E+03  0.17089866101E+04  0.14888885258E+04 0.  0.
        4    1    3    3  502    0 -0.11574269879E+03  0.53554491193E+03 -0.15899859711E+03  0.57051458509E+03  0.12699999809E+01 0.  1.
       -4    1    3    3    0  502  0.11574269879E+03 -0.53554491193E+03  0.99795401386E+03  0.11384720250E+04  0.12699999809E+01 0. -1.
</event>
<event>
 5   0  0.2544374E-04  0.1483407E+04  0.7818609E-02  0.8895562E-01
       -1   -1    0    0    0  501  0.00000000000E+00  0.00000000000E+00  0.54795979970E+03  0.54795979973E+03  0.50400001928E-02 0.  1.
        1   -1    0    0  501    0  0.00000000000E+00  0.00000000000E+00 -0.10039502620E+04  0.10039502621E+04  0.50400001928E-02 0. -1.
    10030    2    1    2    0    0  0.00000000000E+00  0.00000000000E+00 -0.45599046235E+03  0.15519100618E+04  0.14834074080E+04 0.  0.
        4    1    3    3  502    0  0.15473100315E+03  0.13533944790E+03 -0.97355069545E+03  0.99501809984E+03  0.12699999809E+01 0. -1.
       -4    1    3    3    0  502 -0.15473100315E+03 -0.13533944790E+03  0.51756023310E+03  0.55689196195E+03  0.12699999809E+01 0.  1.
</event>
<event>
 5   0  0.4785496E-04  0.1490906E+04  0.7818609E-02  0.8890523E-01
        2   -1    0    0  501    0  0.00000000000E+00  0.00000000000E+00  0.11857876137E+04  0.11857876137E+04  0.25500000920E-02 0. -1.
       -2   -1    0    0    0  501  0.00000000000E+00  0.00000000000E+00 -0.46863377970E+03  0.46863377971E+03  0.25500000920E-02 0.  1.
    10030    2    1    2    0    0  0.00000000000E+00  0.00000000000E+00  0.71715383397E+03  0.16544213934E+04  0.14909059411E+04 0.  0.
        4    1    3    3  502    0  0.25690208400E+03 -0.34610323459E+03 -0.31633225492E+03  0.53465300725E+03  0.12699999809E+01 0.  1.
       -4    1    3    3    0  502 -0.25690208400E+03  0.34610323459E+03  0.10334860889E+04  0.11197683861E+04  0.12699999809E+01 0. -1.
</event>
<event>
 5   0  0.1792000E-04  0.1499271E+04  0.7818609E-02  0.8884938E-01
       -3   -1    0    0    0  501  0.00000000000E+00  0.00000000000E+00  0.22536171706E+03  0.22536173969E+03  0.10100000352E+00 0.  1.
        3   -1    0    0  501    0  0.00000000000E+00  0.00000000000E+00 -0.24935611128E+04  0.24935611149E+04  0.10100000352E+00 0. -1.
    10030    2    1    2    0    0  0.00000000000E+00  0.00000000000E+00 -0.22681993958E+04  0.27189228546E+04  0.14992708195E+04 0.  0.
        2    1    3    3  502    0  0.17845407027E+02 -0.13853099561E+03 -0.24697545087E+04  0.24737009982E+04  0.25500000920E-02 0. -1.
       -2    1    3    3    0  502 -0.17845407027E+02  0.13853099561E+03  0.20155511291E+03  0.24522185637E+03  0.25500000920E-02 0.  1.
</event>
<event>
 5   0  0.2605471E-04  0.1498528E+04  0.7818609E-02  0.8885432E-01
       -1   -1    0    0    0  501  0.00000000000E+00  0.00000000000E+00  0.14778539004E+04  0.14778539005E+04  0.50400001928E-02 0.  1.
        1   -1    0    0  501    0  0.00000000000E+00  0.00000000000E+00 -0.37987291819E+03  0.37987291822E+03  0.50400001928E-02 0. -1.
    10030    2    1    2    0    0  0.00000000000E+00  0.00000000000E+00  0.10979809823E+04  0.18577268187E+04  0.14985281764E+04 0.  0.
        3    1    3    3  502    0  0.56834913542E+03 -0.17624061650E+02 -0.55883626242E+02  0.57136182684E+03  0.10100000352E+00 0. -1.
       -3    1    3    3    0  502 -0.56834913542E+03  0.17624061650E+02  0.11538646085E+04  0.12863649918E+04  0.10100000352E+00 0.  1.
</event>
<event>
 5   0  0.4726600E-04  0.1462869E+04  0.7818609E-02  0.8909527E-01
       -2   -1    0    0    0  501  0.00000000000E+00  0.00000000000E+00  0.74901270543E+03  0.74901270543E+03  0.25500000920E-02 0.  1.
        2   -1    0    0  501    0  0.00000000000E+00  0.00000000000E+00 -0.71426879674E+03  0.71426879674E+03  0.25500000920E-02 0. -1.
    10030    2    1    2    0    0  0.00000000000E+00  0.00000000000E+00  0.34743908688E+02  0.14632815022E+04  0.14628689673E+04 0.  0.
        2    1    3    3  502    0 -0.37247941924E+03 -0.59038275137E+02  0.64426231541E+03  0.74652552987E+03  0.25500000920E-02 0.  1.
       -2    1    3    3    0  502  0.37247941924E+03  0.59038275137E+02 -0.60951840672E+03  0.71675597230E+03  0.25500000920E-02 0. -1.
</event>
<event>
 5   0  0.4569211E-04  0.1500963E+04  0.7818609E-02  0.8883813E-01
       -2   -1    0    0    0  501  0.00000000000E+00  0.00000000000E+00  0.59981131417E+03  0.59981131418E+03  0.25500000920E-02 0.  1.
        2   -1    0    0  501    0  0.00000000000E+00  0.00000000000E+00 -0.93899923959E+03  0.93899923959E+03  0.25500000920E-02 0. -1.
    10030    2    1    2    0    0  0.00000000000E+00  0.00000000000E+00 -0.33918792541E+03  0.15388105538E+04  0.15009628482E+04 0.  0.
        5    1    3    3  502    0 -0.13508469053E+03 -0.59597810511E+03  0.27700777958E+03  0.67096436219E+03  0.46999998093E+01 0.  1.
       -5    1    3    3    0  502  0.13508469053E+03  0.59597810511E+03 -0.61619570499E+03  0.86784619158E+03  0.46999998093E+01 0. -1.
</event>
<event>
 5   0  0.4768387E-04  0.1507353E+04  0.7818609E-02  0.8879578E-01
        2   -1    0    0  501    0  0.00000000000E+00  0.00000000000E+00  0.13407012224E+04  0.13407012224E+04  0.25500000920E-02 0.  1.
       -2   -1    0    0    0  501  0.00000000000E+00  0.00000000000E+00 -0.42367979361E+03  0.42367979362E+03  0.25500000920E-02 0. -1.
    10030    2    1    2    0    0  0.00000000000E+00  0.00000000000E+00  0.91702142882E+03  0.17643810160E+04  0.15073526690E+04 0.  0.
        3    1    3    3  502    0 -0.35274100366E+03  0.62557850374E+03  0.19094252747E+03  0.74312430925E+03  0.10100000352E+00 0. -1.
       -3    1    3    3    0  502  0.35274100366E+03 -0.62557850374E+03  0.72607890134E+03  0.10212567068E+04  0.10100000352E+00 0.  1.
</event>
<event>
 5   0  0.2603873E-04  0.1480646E+04  0.7818609E-02  0.8897426E-01
       -1   -1    0    0    0  501  0.00000000000E+00  0.00000000000E+00  0.59958789130E+03  0.59958789132E+03  0.50400001928E-02 0.  1.
        1   -1    0    0  501    0  0.00000000000E+00  0.00000000000E+00 -0.91409184949E+03  0.91409184950E+03  0.50400001928E-02 0. -1.
    10030    2    1    2    0    0  0.00000000000E+00  0.00000000000E+00 -0.31450395819E+03  0.15136797408E+04  0.14806463514E+04 0.  0.
        2    1    3    3  502    0 -0.35405910191E+02 -0.16312857567E+03  0.58009793011E+03  0.60363740706E+03  0.25500000920E-02 0.  1.
       -2    1    3    3    0  502  0.35405910191E+02  0.16312857567E+03 -0.89460188830E+03  0.91004233376E+03  0.25500000920E-02 0. -1.
</event>
<event>
 5   0  0.4768387E-04  0.1489902E+04  0.7818609E-02  0.8891196E-01
       -2   -1    0    0    0  501  0.00000000000E+00  0.00000000000E+00  0.61676139446E+03  0.61676139447E+03  0.25500000920E-02 0. -1.
        2   -1    0    0  501    0  0.00000000000E+00  0.00000000000E+00 -0.89978383458E+03  0.89978383458E+03  0.25500000920E-02 0.  1.
    10030    2    1    2    0    0  0.00000000000E+00  0.00000000000E+00 -0.28302244012E+03  0.15165452291E+04  0.14899019196E+04 0.  0.
        3    1    3    3  502    0 -0.36680848477E+03  0.64283828470E+03 -0.22765559006E+03  0.77434914778E+03  0.10100000352E+00 0.  1.
       -3    1    3    3    0  502  0.36680848477E+03 -0.64283828470E+03 -0.55366850057E+02  0.74219608128E+03  0.10100000352E+00 0. -1.
</event>
<event>
 5   0  0.2565416E-04  0.1499081E+04  0.7818609E-02  0.8885064E-01
        1   -1    0    0  501    0  0.00000000000E+00  0.00000000000E+00  0.15324082810E+04  0.15324082810E+04  0.50400001928E-02 0.  1.
       -1   -1    0    0    0  501  0.00000000000E+00  0.00000000000E+00 -0.36661953142E+03  0.36661953145E+03  0.50400001928E-02 0. -1.
    10030    2    1    2    0    0  0.00000000000E+00  0.00000000000E+00  0.11657887495E+04  0.18990278124E+04  0.14990807930E+04 0.  0.
        5    1    3    3  502    0  0.20736974814E+03 -0.56507778738E+03  0.17112545011E+02  0.60218771777E+03  0.46999998093E+01 0. -1.
       -5    1    3    3    0  502 -0.20736974814E+03  0.56507778738E+03  0.11486762045E+04  0.12968400947E+04  0.46999998093E+01 0.  1.
</event>
<event>
 5   0  0.2605471E-04  0.1530028E+04  0.7818609E-02  0.8864726E-01
        1   -1    0    0  501    0  0.00000000000E+00  0.00000000000E+00  0.18128712845E+04  0.18128712845E+04  0.50400001928E-02 0.  1.
       -1   -1    0    0    0  501  0.00000000000E+00  0.00000000000E+00 -0.32282862243E+03  0.32282862247E+03  0.50400001928E-02 0. -1.
    10030    2    1    2    0    0  0.00000000000E+00  0.00000000000E+00  0.14900426621E+04  0.21356999070E+04  0.15300284173E+04 0.  0.
        3    1    3    3  502    0  0.10875220012E+03  0.74786749699E+03  0.57919092069E+03  0.95215280649E+03  0.10100000352E+00 0. -1.
       -3    1    3    3    0  502 -0.10875220012E+03 -0.74786749699E+03  0.91085174139E+03  0.11835471005E+04  0.10100000352E+00 0.  1.
</event>
<event>
 5   0  0.2544374E-04  0.1497796E+04  0.7818609E-02  0.8885920E-01
       -1   -1    0    0    0  501  0.00000000000E+00  0.00000000000E+00  0.56318421928E+03  0.56318421931E+03  0.50400001928E-02 0.  1.
        1   -1    0    0  501    0  0.00000000000E+00  0.00000000000E+00 -0.99585252771E+03  0.99585252772E+03  0.50400001928E-02 0. -1.
    10030    2    1    2    0    0  0.00000000000E+00  0.00000000000E+00 -0.43266830842E+03  0.15590367470E+04  0.14977962857E+04 0.  0.
        4    1    3    3  502    0  0.30414036434E+03  0.38783637364E+03 -0.80323977095E+03  0.94239808811E+03  0.12699999809E+01 0. -1.
       -4    1    3    3    0  502 -0.30414036434E+03 -0.38783637364E+03  0.37057146252E+03  0.61663865892E+03  0.12699999809E+01 0.  1.
</event>
<event>
 5   0  0.4785496E-04  0.1495604E+04  0.7818609E-02  0.8887381E-01
       -2   -1    0    0    0  501  0.00000000000E+00  0.00000000000E+00  0.52618009091E+03  0.52618009092E+03  0.25500000920E-02 0.  1.
        2   -1    0    0  501    0  0.00000000000E+00  0.00000000000E+00 -0.10627693436E+04  0.10627693436E+04  0.25500000920E-02 0. -1.
    10030    2    1    2    0    0  0.00000000000E+00  0.00000000000E+00 -0.53658925267E+03  0.15889494345E+04  0.14956043191E+04 0.  0.
        4    1    3    3  502    0  0.65279900758E+02  0.16508978736E+03 -0.10400558315E+04  0.10550989758E+04  0.12699999809E+01 0. -1.
       -4    1    3    3    0  502 -0.65279900758E+02 -0.16508978736E+03  0.50346657881E+03  0.53385045866E+03  0.12699999809E+01 0.  1.
</event>
<event>
 5   0  0.2544374E-04  0.1502963E+04  0.7818609E-02  0.8882485E-01
        1   -1    0    0  501    0  0.00000000000E+00  0.00000000000E+00  0.15656731248E+04  0.15656731248E+04  0.50400001928E-02 0. -1.
       -1   -1    0    0    0  501  0.00000000000E+00  0.00000000000E+00 -0.36069121380E+03  0.36069121384E+03  0.50400001928E-02 0.  1.
    10030    2    1    2    0    0  0.00000000000E+00  0.00000000000E+00  0.12049819110E+04  0.19263643387E+04  0.15029631264E+04 0.  0.
        4    1    3    3  502    0  0.46429294447E+03 -0.55828838143E+03  0.35439106556E+03  0.80799040549E+03  0.12699999809E+01 0.  1.
       -4    1    3    3    0  502 -0.46429294447E+03  0.55828838143E+03  0.85059084547E+03  0.11183739332E+04  0.12699999809E+01 0. -1.
</event>
<event>
 5   0  0.4569211E-04  0.1504044E+04  0.7818609E-02  0.8881768E-01
        2   -1    0    0  501    0  0.00000000000E+00  0.00000000000E+00  0.13173276876E+04  0.13173276876E+04  0.25500000920E-02 0. -1.
       -2   -1    0    0    0  501  0.00000000000E+00  0.00000000000E+00 -0.42930630287E+03  0.42930630288E+03  0.25500000920E-02 0.  1.
    10030    2    1    2    0    0  0.00000000000E+00  0.00000000000E+00  0.88802138470E+03  0.17466339905E+04  0.15040439877E+04 0.  0.
        5    1    3    3  502    0  0.21381924903E+03 -0.54641339294E+03  0.99022380878E+03  0.11510219584E+04  0.46999998093E+01 0. -1.
       -5    1    3    3    0  502 -0.21381924903E+03  0.54641339294E+03 -0.10220242408E+03  0.59561203206E+03  0.46999998093E+01 0.  1.
</event>
<event>
 5   0  0.2605471E-04  0.1488610E+04  0.7818609E-02  0.8892063E-01
       -1   -1    0    0    0  501  0.00000000000E+00  0.00000000000E+00  0.98662274004E+03  0.98662274005E+03  0.50400001928E-02 0. -1.
        1   -1    0    0  501    0  0.00000000000E+00  0.00000000000E+00 -0.56150130135E+03  0.56150130138E+03  0.50400001928E-02 0.  1.
    10030    2    1    2    0    0  0.00000000000E+00  0.00000000000E+00  0.42512143868E+03  0.15481240414E+04  0.14886100262E+04 0.  0.
        3    1    3    3  502    0 -0.32067185825E+03  0.75024239182E+02  0.90672731886E+03  0.96468311797E+03  0.10100000352E+00 0. -1.
       -3    1    3    3    0  502  0.32067185825E+03 -0.75024239182E+02 -0.48160588018E+03  0.58344092345E+03  0.10100000352E+00 0.  1.
</event>
<event>
 5   0  0.4726600E-04  0.1493613E+04  0.7818609E-02  0.8888712E-01
        2   -1    0    0  501    0  0.00000000000E+00  0.00000000000E+00  0.64412120364E+03  0.64412120365E+03  0.25500000920E-02 0.  1.
       -2   -1    0    0    0  501  0.00000000000E+00  0.00000000000E+00 -0.86586139481E+03  0.86586139481E+03  0.25500000920E-02 0. -1.
    10030    2    1    2    0    0  0.00000000000E+00  0.00000000000E+00 -0.22174019116E+03  0.15099825985E+04  0.14936126457E+04 0.  0.
        2    1    3    3  502    0 -0.36450566955E+03  0.18626173326E+03 -0.74234540019E+03  0.84772313263E+03  0.25500000920E-02 0. -1.
       -2    1    3    3    0  502  0.36450566955E+03 -0.18626173326E+03  0.52060520902E+03  0.66225946583E+03  0.25500000920E-02 0.  1.
</event>
<event>
 5   0  0.4785496E-04  0.1496456E+04  0.7818609E-02  0.8886813E-01
       -2   -1    0    0    0  501  0.00000000000E+00  0.00000000000E+00  0.41184503237E+03  0.41184503238E+03  0.25500000920E-02 0.  1.
        2   -1    0    0  501    0  0.00000000000E+00  0.00000000000E+00 -0.13593591748E+04  0.13593591748E+04  0.25500000920E-02 0. -1.
    10030    2    1    2    0    0  0.00000000000E+00  0.00000000000E+00 -0.94751414242E+03  0.17712042072E+04  0.14964562451E+04 0.  0.
        4    1    3    3  502    0  0.53665451629E+03 -0.91574987452E+02  0.13376446433E+03  0.56060555919E+03  0.12699999809E+01 0.  1.
       -4    1    3    3    0  502 -0.53665451629E+03  0.91574987452E+02 -0.10812786067E+04  0.12105986480E+04  0.12699999809E+01 0. -1.
</event>
<event>
 5   0  0.4726600E-04  0.1522917E+04  0.7818609E-02  0.8869355E-01
       -2   -1    0    0    0  501  0.00000000000E+00  0.00000000000E+00  0.39711672069E+03  0.39711672069E+03  0.25500000920E-02 0.  1.
        2   -1    0    0  501    0  0.00000000000E+00  0.00000000000E+00 -0.14600728269E+04  0.14600728269E+04  0.25500000920E-02 0. -1.
    10030    2    1    2    0    0  0.00000000000E+00  0.00000000000E+00 -0.10629561062E+04  0.18571895476E+04  0.15229173753E+04 0.  0.
        2    1    3    3  502    0 -0.65009369801E+03  0.19705988184E+03 -0.95103546059E+03  0.11687270257E+04  0.25500000920E-02 0. -1.
       -2    1    3    3    0  502  0.65009369801E+03 -0.19705988184E+03 -0.11192064566E+03  0.68846252196E+03  0.25500000920E-02 0.  1.
</event>
<event>
 5   0  0.2544374E-04  0.1485182E+04  0.7818609E-02  0.8894367E-01
       -1   -1    0    0    0  501  0.00000000000E+00  0.00000000000E+00  0.48613218744E+03  0.48613218747E+03  0.50400001928E-02 0.  1.
        1   -1    0    0  501    0  0.00000000000E+00  0.00000000000E+00 -0.11343452741E+04  0.11343452741E+04  0.50400001928E-02 0. -1.
    10030    2    1    2    0    0  0.00000000000E+00  0.00000000000E+00 -0.64821308668E+03  0.16204774616E+04  0.14851824796E+04 0.  0.
        4    1    3    3  502    0  0.67155704217E+03  0.26695781788E+03 -0.51050466518E+03  0.88480052186E+03  0.12699999809E+01 0.  1.
       -4    1    3    3    0  502 -0.67155704217E+03 -0.26695781788E+03 -0.13770842150E+03  0.73567693974E+03  0.12699999809E+01 0. -1.
</event>
<event>
 5   0  0.4569211E-04  0.1502932E+04  0.7818609E-02  0.8882505E-01
       -2   -1    0    0    0  501  0.00000000000E+00  0.00000000000E+00  0.30941088385E+03  0.30941088386E+03  0.25500000920E-02 0. -1.
        2   -1    0    0  501    0  0.00000000000E+00  0.00000000000E+00 -0.18250851753E+04  0.18250851753E+04  0.25500000920E-02 0.  1.
    10030    2    1    2    0    0  0.00000000000E+00  0.00000000000E+00 -0.15156742914E+04  0.21344960592E+04  0.15029320906E+04 0.  0.
        5    1    3    3  502    0 -0.24113034964E+03  0.68286084132E+03 -0.47295495199E+03  0.86495736932E+03  0.46999998093E+01 0. -1.
       -5    1    3    3    0  502  0.24113034964E+03 -0.68286084132E+03 -0.10427193395E+04  0.12695386898E+04  0.46999998093E+01 0.  1.
</event>
<event>
 5   0  0.2603873E-04  0.1503697E+04  0.7818609E-02  0.8881998E-01
       -1   -1    0    0    0  501  0.00000000000E+00  0.00000000000E+00  0.16458743945E+04  0.16458743945E+04  0.50400001928E-02 0.  1.
        1   -1    0    0  501    0  0.00000000000E+00  0.00000000000E+00 -0.34345019654E+03  0.34345019657E+03  0.50400001928E-02 0. -1.
    10030    2    1    2    0    0  0.00000000000E+00  0.00000000000E+00  0.13024241979E+04  0.19893245911E+04  0.15036966241E+04 0.  0.
        2    1    3    3  502    0  0.56065204474E+03 -0.12389048052E+03  0.90721698093E+01  0.57424896230E+03  0.25500000920E-02 0. -1.
       -2    1    3    3    0  502 -0.56065204474E+03  0.12389048052E+03  0.12933520281E+04  0.14150756288E+04  0.25500000920E-02 0.  1.
</event>
<event>
 5   0  0.2542737E-04  0.1406208E+04  0.7818609E-02  0.8949337E-01
        1   -1    0    0  501    0  0.00000000000E+00  0.00000000000E+00  0.18634856086E+04  0.18634856086E+04  0.50400001928E-02 0. -1.
       -1   -1    0    0    0  501  0.00000000000E+00  0.00000000000E+00 -0.26528521096E+03  0.26528521101E+03  0.50400001928E-02 0.  1.
    10030    2    1    2    0    0  0.00000000000E+00  0.00000000000E+00  0.15982003977E+04  0.21287708197E+04  0.14062079119E+04 0.  0.
        1    1    3    3  502    0 -0.11917751012E+03  0.22236273314E+03 -0.19440510421E+03  0.31849930703E+03  0.50400001928E-02 0.  1.
       -1    1    3    3    0  502  0.11917751012E+03 -0.22236273314E+03  0.17926055019E+04  0.18102715126E+04  0.50400001928E-02 0. -1.
</event>
<event>
 5   0  0.2565416E-04  0.1506636E+04  0.7818609E-02  0.8880052E-01
        1   -1    0    0  501    0  0.00000000000E+00  0.00000000000E+00  0.10318015456E+04  0.10318015456E+04  0.50400001928E-02 0. -1.
       -1   -1    0    0    0  501  0.00000000000E+00  0.00000000000E+00 -0.54999745162E+03  0.54999745164E+03  0.50400001928E-02 0.  1.
    10030    2    1    2    0    0  0.00000000000E+00  0.00000000000E+00  0.48180409399E+03  0.15817989973E+04  0.15066362808E+04 0.  0.
        5    1    3    3  502    0 -0.39328265599E+02 -0.10142253527E+03 -0.54169255191E+03  0.55252706171E+03  0.46999998093E+01 0.  1.
       -5    1    3    3    0  502  0.39328265599E+02  0.10142253527E+03  0.10234966459E+04  0.10292719355E+04  0.46999998093E+01 0. -1.
</event>
<event>
 5   0  0.2544374E-04  0.1490567E+04  0.7818609E-02  0.8890750E-01
       -1   -1    0    0    0  501  0.00000000000E+00  0.00000000000E+00  0.44489171473E+03  0.44489171476E+03  0.50400001928E-02 0.  1.
        1   -1    0    0  501    0  0.00000000000E+00  0.00000000000E+00 -0.12485008441E+04  0.12485008441E+04  0.50400001928E-02 0. -1.
    10030    2    1    2    0    0  0.00000000000E+00  0.00000000000E+00 -0.80360912936E+03  0.16933925589E+04  0.14905672496E+04 0.  0.
        4    1    3    3  502    0  0.22578833943E+03 -0.36307106801E+03 -0.10953162389E+04  0.11758062131E+04  0.12699999809E+01 0. -1.
       -4    1    3    3    0  502 -0.22578833943E+03  0.36307106801E+03  0.29170710956E+03  0.51758634575E+03  0.12699999809E+01 0.  1.
</event>
<event>
 5   0  0.4948645E-04  0.1478803E+04  0.7818609E-02  0.8898672E-01
       -2   -1    0    0    0  501  0.00000000000E+00  0.00000000000E+00  0.11810583009E+04  0.11810583009E+04  0.25500000920E-02 0. -1.
        2   -1    0    0  501    0  0.00000000000E+00  0.00000000000E+00 -0.46290220549E+03  0.46290220550E+03  0.25500000920E-02 0.  1.
    10030    2    1    2    0    0  0.00000000000E+00  0.00000000000E+00  0.71815609540E+03  0.16439605064E+04  0.14788028838E+04 0.  0.
        1    1    3    3  502    0  0.60292181347E+03 -0.14809267389E+03  0.80551038770E+03  0.10170020344E+04  0.50400001928E-02 0. -1.
       -1    1    3    3    0  502 -0.60292181347E+03  0.14809267389E+03 -0.87354292300E+02  0.62695847201E+03  0.50400001928E-02 0.  1.
</event>
<event>
 5   0  0.2542737E-04  0.1515954E+04  0.7818609E-02  0.8873913E-01
       -1   -1    0    0    0  501  0.00000000000E+00  0.00000000000E+00  0.55746600645E+03  0.55746600648E+03  0.50400001928E-02 0.  1.
        1   -1    0    0  501    0  0.00000000000E+00  0.00000000000E+00 -0.10306082603E+04  0.10306082603E+04  0.50400001928E-02 0. -1.
    10030    2    1    2    0    0  0.00000000000E+00  0.00000000000E+00 -0.47314225385E+03  0.15880742668E+04  0.15159539190E+04 0.  0.
        1    1    3    3  502    0  0.44656886783E+03  0.26623074809E+03  0.34123658408E+03  0.62188823054E+03  0.50400001928E-02 0.  1.
       -1    1    3    3    0  502 -0.44656886783E+03 -0.26623074809E+03 -0.81437883793E+03  0.96618603625E+03  0.50400001928E-02 0. -1.
</event>
<event>
 5   0  0.4768387E-04  0.1516033E+04  0.7818609E-02  0.8873860E-01
        2   -1    0    0  501    0  0.00000000000E+00  0.00000000000E+00  0.72197511706E+03  0.72197511707E+03  0.25500000920E-02 0.  1.
       -2   -1    0    0    0  501  0.00000000000E+00  0.00000000000E+00 -0.79585737750E+03  0.79585737750E+03  0.25500000920E-02 0. -1.
    10030    2    1    2    0    0  0.00000000000E+00  0.00000000000E+00 -0.73882260434E+02  0.15178324946E+04  0.15160332757E+04 0.  0.
        3    1    3    3  502    0  0.63273927340E+03 -0.29155422824E+03 -0.33600344684E+03  0.77347345306E+03  0.10100000352E+00 0. -1.
       -3    1    3    3    0  502 -0.63273927340E+03  0.29155422824E+03  0.26212118640E+03  0.74435904150E+03  0.10100000352E+00 0.  1.
</event>
<event>
 5   0  0.4948645E-04  0.1485662E+04  0.7818609E-02  0.8894044E-01
        2   -1    0    0  501    0  0.00000000000E+00  0.00000000000E+00  0.21161876831E+04  0.21161876831E+04  0.25500000920E-02 0.  1.
       -2   -1    0    0    0  501  0.00000000000E+00  0.00000000000E+00 -0.26075102891E+03  0.26075102892E+03  0.25500000920E-02 0. -1.
    10030    2    1    2    0    0  0.00000000000E+00  0.00000000000E+00  0.18554366541E+04  0.23769387120E+04  0.14856622978E+04 0.  0.
        1    1    3    3  502    0 -0.44958718020E+02 -0.65559153553E+03  0.37354438771E+03  0.75588157631E+03  0.50400001928E-02 0.  1.
       -1    1    3    3    0  502  0.44958718020E+02  0.65559153553E+03  0.14818922664E+04  0.16210571357E+04  0.50400001928E-02 0. -1.
</event>
<event>
 5   0  0.4948645E-04  0.1491314E+04  0.7818609E-02  0.8890250E-01
       -2   -1    0    0    0  501  0.00000000000E+00  0.00000000000E+00  0.35788440640E+03  0.35788440641E+03  0.25500000920E-02 0. -1.
        2   -1    0    0  501    0  0.00000000000E+00  0.00000000000E+00 -0.15535859106E+04  0.15535859106E+04  0.25500000920E-02 0.  1.
    10030    2    1    2    0    0  0.00000000000E+00  0.00000000000E+00 -0.11957015042E+04  0.19114703170E+04  0.14913137449E+04 0.  0.
        1    1    3    3  502    0  0.66290299070E+03  0.32300480851E+03 -0.45609464749E+03  0.86706101798E+03  0.50400001928E-02 0. -1.
       -1    1    3    3    0  502 -0.66290299070E+03 -0.32300480851E+03 -0.73960685670E+03  0.10444092990E+04  0.50400001928E-02 0.  1.
</event>
<event>
 5   0  0.4569211E-04  0.1496105E+04  0.7818609E-02  0.8887047E-01
        2   -1    0    0  501    0  0.00000000000E+00  0.00000000000E+00  0.14436070193E+04  0.14436070193E+04  0.25500000920E-02 0. -1.
       -2   -1    0    0    0  501  0.00000000000E+00  0.00000000000E+00 -0.38762823564E+03  0.38762823565E+03  0.25500000920E-02 0.  1.
    10030    2    1    2    0    0  0.00000000000E+00  0.00000000000E+00  0.10559787837E+04  0.18312352550E+04  0.14961053999E+04 0.  0.
        5    1    3    3  502    0 -0.63727284061E+03 -0.34560590166E+03  0.75368623850E+03  0.10457653412E+04  0.46999998093E+01 0.  1.
       -5    1    3    3    0  502  0.63727284061E+03  0.34560590166E+03  0.30229254516E+03  0.78546991381E+03  0.46999998093E+01 0. -1.
</event>
<event>
 5   0  0.2565416E-04  0.1483060E+04  0.7818609E-02  0.8895796E-01
        1   -1    0    0  501    0  0.00000000000E+00  0.00000000000E+00  0.14413338981E+04  0.14413338981E+04  0.50400001928E-02 0. -1.
       -1   -1    0    0    0  501  0.00000000000E+00  0.00000000000E+00 -0.38149871284E+03  0.38149871287E+03  0.50400001928E-02 0.  1.
    10030    2    1    2    0    0  0.00000000000E+00  0.00000000000E+00  0.10598351853E+04  0.18228326110E+04  0.14830603857E+04 0.  0.
        5    1    3    3  502    0 -0.24904367122E+03  0.84012577034E+02 -0.32230679557E+03  0.41591420239E+03  0.46999998093E+01 0.  1.
       -5    1    3    3    0  502  0.24904367122E+03 -0.84012577034E+02  0.13821419808E+04  0.14069184086E+04  0.46999998093E+01 0. -1.
</event>
<event>
 5   0  0.4768387E-04  0.1498463E+04  0.7818609E-02  0.8885476E-01
        2   -1    0    0  501    0  0.00000000000E+00  0.00000000000E+00  0.11116381643E+04  0.11116381643E+04  0.25500000920E-02 0. -1.
       -2   -1    0    0    0  501  0.00000000000E+00  0.00000000000E+00 -0.50497350754E+03  0.50497350755E+03  0.25500000920E-02 0.  1.
    10030    2    1    2    0    0  0.00000000000E+00  0.00000000000E+00  0.60666465673E+03  0.16166116718E+04  0.14984629764E+04 0.  0.
        3    1    3    3  502    0  0.50672764775E+03  0.54909736113E+03  0.24358534307E+03  0.78588462929E+03  0.10100000352E+00 0.  1.
       -3    1    3    3    0  502 -0.50672764775E+03 -0.54909736113E+03  0.36307931365E+03  0.83072704253E+03  0.10100000352E+00 0. -1.
</event>
<event>
 5   0  0.2603873E-04  0.1508081E+04  0.7818609E-02  0.8879097E-01
        1   -1    0    0  501    0  0.00000000000E+00  0.00000000000E+00  0.95299097910E+03  0.95299097911E+03  0.50400001928E-02 0. -1.
       -1   -1    0    0    0  501  0.00000000000E+00  0.00000000000E+00 -0.59662396967E+03  0.59662396969E+03  0.50400001928E-02 0.  1.
    10030    2    1    2    0    0  0.00000000000E+00  0.00000000000E+00  0.35636700944E+03  0.15496149488E+04  0.15080812459E+04 0.  0.
        2    1    3    3  502    0  0.21154685212E+03  0.59011241473E+02  0.91939792428E+03  0.94526553965E+03  0.25500000920E-02 0. -1.
       -2    1    3    3    0  502 -0.21154685212E+03 -0.59011241473E+02 -0.56303091485E+03  0.60434940915E+03  0.25500000920E-02 0.  1.
</event>
<event>
 5   0  0.2542737E-04  0.1347575E+04  0.7818609E-02  0.8992666E-01
        1   -1    0    0  501    0  0.00000000000E+00  0.00000000000E+00  0.75106153282E+03  0.75106153284E+03  0.50400001928E-02 0.  1.
       -1   -1    0    0    0  501  0.00000000000E+00  0.00000000000E+00 -0.60446398540E+03  0.60446398542E+03  0.50400001928E-02 0. -1.
    10030    2    1    2    0    0  0.00000000000E+00  0.00000000000E+00  0.14659754743E+03  0.13555255183E+04  0.13475750776E+04 0.  0.
        1    1    3    3  502    0 -0.26665875836E+03 -0.68778709537E+02 -0.54527010736E+03  0.61086569252E+03  0.50400001928E-02 0. -1.
       -1    1    3    3    0  502  0.26665875836E+03  0.68778709537E+02  0.69186765479E+03  0.74465982573E+03  0.50400001928E-02 0.  1.
</event>
<event>
 5   0  0.2605471E-04  0.1503832E+04  0.7818609E-02  0.8881909E-01
       -1   -1    0    0    0  501  0.00000000000E+00  0.00000000000E+00  0.27715860976E+04  0.27715860976E+04  0.50400001928E-02 0.  1.
        1   -1    0    0  501    0  0.00000000000E+00  0.00000000000E+00 -0.20399059803E+03  0.20399059810E+03  0.50400001928E-02 0. -1.
    10030    2    1    2    0    0  0.00000000000E+00  0.00000000000E+00  0.25675954995E+04  0.29755766957E+04  0.15038317800E+04 0.  0.
        3    1    3    3  502    0  0.50041448795E+03 -0.52030375971E+02  0.23894716570E+04  0.24418633519E+04  0.10100000352E+00 0.  1.
       -3    1    3    3    0  502 -0.50041448795E+03  0.52030375971E+02  0.17812384252E+03  0.53371334370E+03  0.10100000352E+00 0. -1.
</event>
<event>
 5   0  0.2605471E-04  0.1514723E+04  0.7818609E-02  0.8874721E-01
       -1   -1    0    0    0  501  0.00000000000E+00  0.00000000000E+00  0.11293477710E+04  0.11293477711E+04  0.50400001928E-02 0.  1.
        1   -1    0    0  501    0  0.00000000000E+00  0.00000000000E+00 -0.50790092978E+03  0.50790092980E+03  0.50400001928E-02 0. -1.
    10030    2    1    2    0    0  0.00000000000E+00  0.00000000000E+00  0.62144684127E+03  0.16372487009E+04  0.15147234507E+04 0.  0.
        3    1    3    3  502    0  0.30848869748E+03 -0.68527171003E+03  0.20913027180E+03  0.78006286530E+03  0.10100000352E+00 0. -1.
       -3    1    3    3    0  502 -0.30848869748E+03  0.68527171003E+03  0.41231656946E+03  0.85718583556E+03  0.10100000352E+00 0.  1.
</event>
<event>
 5   0  0.4726600E-04  0.1490077E+04  0.7818609E-02  0.8891079E-01
        2   -1    0    0  501    0  0.00000000000E+00  0.00000000000E+00  0.93032460289E+03  0.93032460290E+03  0.25500000920E-02 0. -1.
       -2   -1    0    0    0  501  0.00000000000E+00  0.00000000000E+00 -0.59665436341E+03  0.59665436341E+03  0.25500000920E-02 0.  1.
    10030    2    1    2    0    0  0.00000000000E+00  0.00000000000E+00  0.33367023948E+03  0.15269789663E+04  0.14900768218E+04 0.  0.
        2    1    3    3  502    0  0.65765353790E+03 -0.19278659455E+03  0.46631807663E+03  0.82893147820E+03  0.25500000920E-02 0. -1.
       -2    1    3    3    0  502 -0.65765353790E+03  0.19278659455E+03 -0.13264783714E+03  0.69804748811E+03  0.25500000920E-02 0.  1.
</event>
<event>
 5   0  0.2565416E-04  0.1492316E+04  0.7818609E-02  0.8889579E-01
       -1   -1    0    0    0  501  0.00000000000E+00  0.00000000000E+00  0.48080138386E+03  0.48080138389E+03  0.50400001928E-02 0. -1.
        1   -1    0    0  501    0  0.00000000000E+00  0.00000000000E+00 -0.11579655867E+04  0.11579655867E+04  0.50400001928E-02 0.  1.
    10030    2    1    2    0    0  0.00000000000E+00  0.00000000000E+00 -0.67716420283E+03  0.16387669706E+04  0.14923155921E+04 0.  0.
        5    1    3    3  502    0 -0.73540019127E+02  0.73481105387E+03 -0.45569699578E+03  0.86777719563E+03  0.46999998093E+01 0.  1.
       -5    1    3    3    0  502  0.73540019127E+02 -0.73481105387E+03 -0.22146720705E+03  0.77098977496E+03  0.46999998093E+01 0. -1.
</event>
<event>
 5   0  0.4569211E-04  0.1571370E+04  0.7818609E-02  0.8838332E-01
        2   -1    0    0  501    0  0.00000000000E+00  0.00000000000E+00  0.57740795707E+03  0.57740795707E+03  0.25500000920E-02 0. -1.
       -2   -1    0    0    0  501  0.00000000000E+00  0.00000000000E+00 -0.10690896758E+04  0.10690896758E+04  0.25500000920E-02 0.  1.
    10030    2    1    2    0    0  0.00000000000E+00  0.00000000000E+00 -0.49168171874E+03  0.16464976329E+04  0.15713699572E+04 0.  0.
        5    1    3    3  502    0  0.45182462740E+03  0.20213553345E+03 -0.88515502247E+03  0.10141625962E+04  0.46999998093E+01 0.  1.
       -5    1    3    3    0  502 -0.45182462740E+03 -0.20213553345E+03  0.39347330373E+03  0.63233503664E+03  0.46999998093E+01 0. -1.
</event>
<event>
 5   0  0.2603873E-04  0.1505923E+04  0.7818609E-02  0.8880524E-01
       -1   -1    0    0    0  501  0.00000000000E+00  0.00000000000E+00  0.38245991267E+03  0.38245991270E+03  0.50400001928E-02 0.  1.
        1   -1    0    0  501    0  0.00000000000E+00  0.00000000000E+00 -0.14823806451E+04  0.14823806451E+04  0.50400001928E-02 0. -1.
    10030    2    1    2    0    0  0.00000000000E+00  0.00000000000E+00 -0.10999207324E+04  0.18648405578E+04  0.15059232014E+04 0.  0.
        2    1    3    3  502    0 -0.23537231479E+03  0.39402531631E+03  0.18920873421E+03  0.49644337197E+03  0.25500000920E-02 0.  1.
       -2    1    3    3    0  502  0.23537231479E+03 -0.39402531631E+03 -0.12891294666E+04  0.13683971859E+04  0.25500000920E-02 0. -1.
</event>
<event>
 5   0  0.1792000E-04  0.1520605E+04  0.7818609E-02  0.8870865E-01
        4   -1    0    0  501    0  0.00000000000E+00  0.00000000000E+00  0.17851537029E+04  0.17851541546E+04  0.12699999809E+01 0.  1.
       -4   -1    0    0    0  501  0.00000000000E+00  0.00000000000E+00 -0.32381355307E+03  0.32381604353E+03  0.12699999809E+01 0. -1.
    10030    2    1    2    0    0  0.00000000000E+00  0.00000000000E+00  0.14613401498E+04  0.21089701982E+04  0.15206052293E+04 0.  0.
        2    1    3    3  502    0  0.49560422309E+03 -0.20761020518E+03  0.14766962937E+04  0.15714189407E+04  0.25500000920E-02 0.  1.
       -2    1    3    3    0  502 -0.49560422309E+03  0.20761020518E+03 -0.15356143927E+02  0.53755125747E+03  0.25500000920E-02 0. -1.
</event>
<event>
 5   0  0.2542737E-04  0.1499385E+04  0.7818609E-02  0.8884862E-01
       -1   -1    0    0    0  501  0.00000000000E+00  0.00000000000E+00  0.43407113546E+03  0.43407113549E+03  0.50400001928E-02 0. -1.
        1   -1    0    0  501    0  0.00000000000E+00  0.00000000000E+00 -0.12948076057E+04  0.12948076058E+04  0.50400001928E-02 0.  1.
    10030    2    1    2    0    0  0.00000000000E+00  0.00000000000E+00 -0.86073647028E+03  0.17288787412E+04  0.14993846840E+04 0.  0.
        1    1    3    3  502    0  0.15040060830E+03 -0.25342708455E+03 -0.12252206002E+04  0.12601631439E+04  0.50400001928E-02 0.  1.
       -1    1    3    3    0  502 -0.15040060830E+03  0.25342708455E+03  0.36448412993E+03  0.46871559730E+03  0.50400001928E-02 0. -1.
</event>
<event>
 5   0  0.2603873E-04  0.1489840E+04  0.7818609E-02  0.8891237E-01
        1   -1    0    0  501    0  0.00000000000E+00  0.00000000000E+00  0.89876891291E+03  0.89876891293E+03  0.50400001928E-02 0.  1.
       -1   -1    0    0    0  501  0.00000000000E+00  0.00000000000E+00 -0.61740694268E+03  0.61740694270E+03  0.50400001928E-02 0. -1.
    10030    2    1    2    0    0  0.00000000000E+00  0.00000000000E+00  0.28136197023E+03  0.15161758556E+04  0.14898404837E+04 0.  0.
        2    1    3    3  502    0 -0.40563941175E+03  0.21258495029E+03  0.73857832909E+03  0.86904179512E+03  0.25500000920E-02 0.  1.
       -2    1    3    3    0  502  0.40563941175E+03 -0.21258495029E+03 -0.45721635885E+03  0.64713406051E+03  0.25500000920E-02 0. -1.
</event>
<event>
 5   0  0.4948645E-04  0.1504271E+04  0.7818609E-02  0.8881618E-01
       -2   -1    0    0    0  501  0.00000000000E+00  0.00000000000E+00  0.24134491942E+03  0.24134491944E+03  0.25500000920E-02 0.  1.
        2   -1    0    0  501    0  0.00000000000E+00  0.00000000000E+00 -0.23439816274E+04  0.23439816274E+04  0.25500000920E-02 0. -1.
    10030    2    1    2    0    0  0.00000000000E+00  0.00000000000E+00 -0.21026367080E+04  0.25853265469E+04  0.15042713280E+04 0.  0.
        1    1    3    3  502    0  0.26010944399E+03  0.76200789009E+02  0.15449391010E+03  0.31198053046E+03  0.50400001928E-02 0.  1.
       -1    1    3    3    0  502 -0.26010944399E+03 -0.76200789009E+02 -0.22571306181E+04  0.22733460164E+04  0.50400001928E-02 0. -1.
</event>
<event>
 5   0  0.4948645E-04  0.1519537E+04  0.7818609E-02  0.8871564E-01
       -2   -1    0    0    0  501  0.00000000000E+00  0.00000000000E+00  0.47886557392E+03  0.47886557393E+03  0.25500000920E-02 0.  1.
        2   -1    0    0  501    0  0.00000000000E+00  0.00000000000E+00 -0.12054493863E+04  0.12054493863E+04  0.25500000920E-02 0. -1.
    10030    2    1    2    0    0  0.00000000000E+00  0.00000000000E+00 -0.72658381239E+03  0.16843149602E+04  0.15195370508E+04 0.  0.
        1    1    3    3  502    0  0.27839424764E+03  0.45982154140E+02  0.41863382695E+03  0.50484848887E+03  0.50400001928E-02 0.  1.
       -1    1    3    3    0  502 -0.27839424764E+03 -0.45982154140E+02 -0.11452176393E+04  0.11794664714E+04  0.50400001928E-02 0. -1.
</event>
<event>
 5   0  0.1792000E-04  0.1489801E+04  0.7818609E-02  0.8891263E-01
       -3   -1    0    0    0  501  0.00000000000E+00  0.00000000000E+00  0.89353498804E+03  0.89353499375E+03  0.10100000352E+00 0. -1.
        3   -1    0    0  501    0  0.00000000000E+00  0.00000000000E+00 -0.62099080575E+03  0.62099081396E+03  0.10100000352E+00 0.  1.
    10030    2    1    2    0    0  0.00000000000E+00  0.00000000000E+00  0.27254418229E+03  0.15145258077E+04  0.14898013595E+04 0.  0.
        2    1    3    3  502    0 -0.66393519526E+03  0.19316913961E+03  0.41791272971E+03  0.80794511550E+03  0.25500000920E-02 0. -1.
       -2    1    3    3    0  502  0.66393519526E+03 -0.19316913961E+03 -0.14536854742E+03  0.70658069220E+03  0.25500000920E-02 0.  1.
</event>
<event>
 5   0  0.2544374E-04  0.1589139E+04  0.7818609E-02  0.8827248E-01
       -1   -1    0    0    0  501  0.00000000000E+00  0.00000000000E+00  0.44096288313E+03  0.44096288316E+03  0.50400001928E-02 0. -1.
        1   -1    0    0  501    0  0.00000000000E+00  0.00000000000E+00 -0.14317316347E+04  0.14317316347E+04  0.50400001928E-02 0.  1.
    10030    2    1    2    0    0  0.00000000000E+00  0.00000000000E+00 -0.99076875154E+03  0.18726945178E+04  0.15891387724E+04 0.  0.
        4    1    3    3  502    0  0.36203212738E+03 -0.36901934666E+03  0.21568714032E+03  0.56014738673E+03  0.12699999809E+01 0. -1.
       -4    1    3    3    0  502 -0.36203212738E+03  0.36901934666E+03 -0.12064558919E+04  0.13125471311E+04  0.12699999809E+01 0.  1.
</event>
<event>
 5   0  0.4569211E-04  0.1519714E+04  0.7818609E-02  0.8871448E-01
        2   -1    0    0  501    0  0.00000000000E+00  0.00000000000E+00  0.10266333549E+04  0.10266333549E+04  0.25500000920E-02 0.  1.
       -2   -1    0    0    0  501  0.00000000000E+00  0.00000000000E+00 -0.56240392538E+03  0.56240392539E+03  0.25500000920E-02 0. -1.
    10030    2    1    2    0    0  0.00000000000E+00  0.00000000000E+00  0.46422942954E+03  0.15890372803E+04  0.15197139583E+04 0.  0.
        5    1    3    3  502    0 -0.26679495628E+03  0.38051761758E+03 -0.39646259043E+03  0.61088287060E+03  0.46999998093E+01 0. -1.
       -5    1    3    3    0  502  0.26679495628E+03 -0.38051761758E+03  0.86069201997E+03  0.97815440971E+03  0.46999998093E+01 0.  1.
</event>
<event>
 5   0  0.2565416E-04  0.1502649E+04  0.7818609E-02  0.8882693E-01
        1   -1    0    0  501    0  0.00000000000E+00  0.00000000000E+00  0.55564868403E+03  0.55564868405E+03  0.50400001928E-02 0.  1.
       -1   -1    0    0    0  501  0.00000000000E+00  0.00000000000E+00 -0.10159087863E+04  0.10159087863E+04  0.50400001928E-02 0. -1.
    10030    2    1    2    0    0  0.00000000000E+00  0.00000000000E+00 -0.46026010223E+03  0.15715574703E+04  0.15026488348E+04 0.  0.
        5    1    3    3  502    0  0.11431714572E+03  0.66790628123E+03  0.10924901996E+03  0.68638520429E+03  0.46999998093E+01 0.  1.
       -5    1    3    3    0  502 -0.11431714572E+03 -0.66790628123E+03 -0.56950912220E+03  0.88517226604E+03  0.46999998093E+01 0. -1.
</event>
<event>
 5   0  0.2603873E-04  0.1501847E+04  0.7818609E-02  0.8883226E-01
       -1   -1    0    0    0  501  0.00000000000E+00  0.00000000000E+00  0.82816194091E+03  0.82816194092E+03  0.50400001928E-02 0. -1.
        1   -1    0    0  501    0  0.00000000000E+00  0.00000000000E+00 -0.68088857516E+03  0.68088857518E+03  0.50400001928E-02 0.  1.
    10030    2    1    2    0    0  0.00000000000E+00  0.00000000000E+00  0.14727336574E+03  0.15090505161E+04  0.15018468683E+04 0.  0.
        2    1    3    3  502    0 -0.74032742855E+03 -0.10069337610E+03  0.14924484416E+03  0.76190411534E+03  0.25500000920E-02 0. -1.
       -2    1    3    3    0  502  0.74032742855E+03  0.10069337610E+03 -0.19714784203E+01  0.74714640077E+03  0.25500000920E-02 0.  1.
</event>
<event>
 5   0  0.4569211E-04  0.1526454E+04  0.7818609E-02  0.8867050E-01
        2   -1    0    0  501    0  0.00000000000E+00  0.00000000000E+00  0.96615903575E+03  0.96615903575E+03  0.25500000920E-02 0.  1.
       -2   -1    0    0    0  501  0.00000000000E+00  0.00000000000E+00 -0.60291849775E+03  0.60291849776E+03  0.25500000920E-02 0. -1.
    10030    2    1    2    0    0  0.00000000000E+00  0.00000000000E+00  0.36324053799E+03  0.15690775335E+04  0.15264536081E+04 0.  0.
        5    1    3    3  502    0 -0.11409139134E+03 -0.41068330497E+03 -0.46915796156E+03  0.63388398422E+03  0.46999998093E+01 0. -1.
       -5    1    3    3    0  502  0.11409139134E+03  0.41068330497E+03  0.83239849956E+03  0.93519354928E+03  0.46999998093E+01 0.  1.
</event>
<event>
 5   0  0.4948645E-04  0.1502844E+04  0.7818609E-02  0.8882564E-01
        2   -1    0    0  501    0  0.00000000000E+00  0.00000000000E+00  0.15290812579E+04  0.15290812579E+04  0.25500000920E-02 0. -1.
       -2   -1    0    0    0  501  0.00000000000E+00  0.00000000000E+00 -0.36926430979E+03  0.36926430980E+03  0.25500000920E-02 0.  1.
    10030    2    1    2    0    0  0.00000000000E+00  0.00000000000E+00  0.11598169481E+04  0.18983455677E+04  0.15028441507E+04 0.  0.
        1    1    3    3  502    0  0.25599774973E+03  0.58366564902E+03  0.10826982952E+04  0.12563582436E+04  0.50400001928E-02 0. -1.
       -1    1    3    3    0  502 -0.25599774973E+03 -0.58366564902E+03  0.77118652926E+02  0.64198732415E+03  0.50400001928E-02 0.  1.
</event>
<event>
 5   0  0.2603873E-04  0.1509375E+04  0.7818609E-02  0.8878242E-01
        1   -1    0    0  501    0  0.00000000000E+00  0.00000000000E+00  0.71454669795E+03  0.71454669797E+03  0.50400001928E-02 0. -1.
       -1   -1    0    0    0  501  0.00000000000E+00  0.00000000000E+00 -0.79708333188E+03  0.79708333190E+03  0.50400001928E-02 0.  1.
    10030    2    1    2    0    0  0.00000000000E+00  0.00000000000E+00 -0.82536633932E+02  0.15116300299E+04  0.15093750532E+04 0.  0.
        2    1    3    3  502    0 -0.65970421013E+03  0.44617367674E+02 -0.40561522464E+03  0.77570875001E+03  0.25500000920E-02 0.  1.
       -2    1    3    3    0  502  0.65970421013E+03 -0.44617367674E+02  0.32307859071E+03  0.73592127986E+03  0.25500000920E-02 0. -1.
</event>
<event>
 5   0  0.2565416E-04  0.1513156E+04  0.7818609E-02  0.8875751E-01
       -1   -1    0    0    0  501  0.00000000000E+00  0.00000000000E+00  0.79773293409E+03  0.79773293410E+03  0.50400001928E-02 0. -1.
        1   -1    0    0  501    0  0.00000000000E+00  0.00000000000E+00 -0.71754629886E+03  0.71754629887E+03  0.50400001928E-02 0.  1.
    10030    2    1    2    0    0  0.00000000000E+00  0.00000000000E+00  0.80186635231E+02  0.15152792330E+04  0.15131560585E+04 0.  0.
        5    1    3    3  502    0 -0.12948489016E+03 -0.10339006647E+03  0.77932446605E+03  0.79675878156E+03  0.46999998093E+01 0. -1.
       -5    1    3    3    0  502  0.12948489016E+03  0.10339006647E+03 -0.69913783081E+03  0.71852045141E+03  0.46999998093E+01 0.  1.
</event>
<event>
 5   0  0.2605471E-04  0.1486811E+04  0.7818609E-02  0.8893271E-01
        1   -1    0    0  501    0  0.00000000000E+00  0.00000000000E+00  0.24928436242E+04  0.24928436242E+04  0.50400001928E-02 0.  1.
       -1   -1    0    0    0  501  0.00000000000E+00  0.00000000000E+00 -0.22169523177E+03  0.22169523183E+03  0.50400001928E-02 0. -1.
    10030    2    1    2    0    0  0.00000000000E+00  0.00000000000E+00  0.22711483924E+04  0.27145388560E+04  0.14868107413E+04 0.  0.
        3    1    3    3  502    0  0.58874385758E+03  0.24010600703E+03  0.18388569600E+04  0.19456785845E+04  0.10100000352E+00 0.  1.
       -3    1    3    3    0  502 -0.58874385758E+03 -0.24010600703E+03  0.43229143242E+03  0.76886027157E+03  0.10100000352E+00 0. -1.
</event>
<event>
 5   0  0.2605471E-04  0.1512737E+04  0.7818609E-02  0.8876027E-01
        1   -1    0    0  501    0  0.00000000000E+00  0.00000000000E+00  0.98079707734E+03  0.98079707735E+03  0.50400001928E-02 0.  1.
       -1   -1    0    0    0  501  0.00000000000E+00  0.00000000000E+00 -0.58329414068E+03  0.58329414070E+03  0.50400001928E-02 0. -1.
    10030    2    1    2    0    0  0.00000000000E+00  0.00000000000E+00  0.39750293666E+03  0.15640912181E+04  0.15127368422E+04 0.  0.
        3    1    3    3  502    0 -0.64353187585E+03 -0.37262445908E+03  0.55816187430E+02  0.74571959859E+03  0.10100000352E+00 0.  1.
       -3    1    3    3    0  502  0.64353187585E+03  0.37262445908E+03  0.34168674923E+03  0.81837161946E+03  0.10100000352E+00 0. -1.
</event>
<event>
 5   0  0.2565416E-04  0.1519672E+04  0.7818609E-02  0.8871476E-01
        1   -1    0    0  501    0  0.00000000000E+00  0.00000000000E+00  0.12382299615E+04  0.12382299616E+04  0.50400001928E-02 0.  1.
       -1   -1    0    0    0  501  0.00000000000E+00  0.00000000000E+00 -0.46627078545E+03  0.46627078548E+03  0.50400001928E-02 0. -1.
    10030    2    1    2    0    0  0.00000000000E+00  0.00000000000E+00  0.77195917610E+03  0.17045007470E+04  0.15196716182E+04 0.  0.
        5    1    3    3  502    0 -0.43774234334E+03  0.61026161160E+03  0.51528674530E+03  0.91081288618E+03  0.46999998093E+01 0.  1.
       -5    1    3    3    0  502  0.43774234334E+03 -0.61026161160E+03  0.25667243080E+03  0.79368786086E+03  0.46999998093E+01 0. -1.
</event>
<event>
 5   0  0.2544374E-04  0.1499963E+04  0.7818609E-02  0.8884478E-01
       -1   -1    0    0    0  501  0.00000000000E+00  0.00000000000E+00  0.80452673812E+03  0.80452673813E+03  0.50400001928E-02 0.  1.
        1   -1    0    0  501    0  0.00000000000E+00  0.00000000000E+00 -0.69913409592E+03  0.69913409593E+03  0.50400001928E-02 0. -1.
    10030    2    1    2    0    0  0.00000000000E+00  0.00000000000E+00  0.10539264220E+03  0.15036608341E+04  0.14999627645E+04 0.  0.
        4    1    3    3  502    0 -0.22355217069E+03 -0.48340978342E+03 -0.47662998877E+03  0.71472956482E+03  0.12699999809E+01 0. -1.
       -4    1    3    3    0  502  0.22355217069E+03  0.48340978342E+03  0.58202263098E+03  0.78893126925E+03  0.12699999809E+01 0.  1.
</event>
<event>
 5   0  0.2565416E-04  0.1513271E+04  0.7818609E-02  0.8875676E-01
       -1   -1    0    0    0  501  0.00000000000E+00  0.00000000000E+00  0.77472801085E+03  0.77472801086E+03  0.50400001928E-02 0. -1.
        1   -1    0    0  501    0  0.00000000000E+00  0.00000000000E+00 -0.73896537775E+03  0.73896537777E+03  0.50400001928E-02 0.  1.
    10030    2    1    2    0    0  0.00000000000E+00  0.00000000000E+00  0.35762633096E+02  0.15136933886E+04  0.15132708643E+04 0.  0.
        5    1    3    3  502    0 -0.27005044283E+03  0.33435797048E+03  0.64075301616E+03  0.77156270763E+03  0.46999998093E+01 0. -1.
       -5    1    3    3    0  502  0.27005044283E+03 -0.33435797048E+03 -0.60499038306E+03  0.74213068100E+03  0.46999998093E+01 0.  1.
</event>
<event>
 5   0  0.4785496E-04  0.1648217E+04  0.7818609E-02  0.8791462E-01
       -2   -1    0    0    0  501  0.00000000000E+00  0.00000000000E+00  0.12810992245E+04  0.12810992245E+04  0.25500000920E-02 0.  1.
        2   -1    0    0  501    0  0.00000000000E+00  0.00000000000E+00 -0.53013444918E+03  0.53013444918E+03  0.25500000920E-02 0. -1.
    10030    2    1    2    0    0  0.00000000000E+00  0.00000000000E+00  0.75096477528E+03  0.18112336736E+04  0.16482170145E+04 0.  0.
        4    1    3    3  502    0 -0.12378557516E+03  0.81172003041E+03  0.45272642891E+03  0.93764338035E+03  0.12699999809E+01 0. -1.
       -4    1    3    3    0  502  0.12378557516E+03 -0.81172003041E+03  0.29823834637E+03  0.87359029329E+03  0.12699999809E+01 0.  1.
</event>
<event>
 5   0  0.2605471E-04  0.1496453E+04  0.7818609E-02  0.8886815E-01
        1   -1    0    0  501    0  0.00000000000E+00  0.00000000000E+00  0.26571992449E+04  0.26571992449E+04  0.50400001928E-02 0. -1.
       -1   -1    0    0    0  501  0.00000000000E+00  0.00000000000E+00 -0.21068919120E+03  0.21068919126E+03  0.50400001928E-02 0.  1.
    10030    2    1    2    0    0  0.00000000000E+00  0.00000000000E+00  0.24465100537E+04  0.28678884361E+04  0.14964533536E+04 0.  0.
        3    1    3    3  502    0  0.31788617245E+03  0.63606321674E+03  0.16694855379E+04  0.18146101526E+04  0.10100000352E+00 0. -1.
       -3    1    3    3    0  502 -0.31788617245E+03 -0.63606321674E+03  0.77702451575E+03  0.10532782836E+04  0.10100000352E+00 0.  1.
</event>
<event>
 5   0  0.4768387E-04  0.1486450E+04  0.7818609E-02  0.8893514E-01
        2   -1    0    0  501    0  0.00000000000E+00  0.00000000000E+00  0.17953805178E+04  0.17953805178E+04  0.25500000920E-02 0. -1.
       -2   -1    0    0    0  501  0.00000000000E+00  0.00000000000E+00 -0.30766942663E+03  0.30766942664E+03  0.25500000920E-02 0.  1.
    10030    2    1    2    0    0  0.00000000000E+00  0.00000000000E+00  0.14877110912E+04  0.21030499445E+04  0.14864503954E+04 0.  0.
        3    1    3    3  502    0 -0.13528659590E+03 -0.14953442055E+03 -0.26822633400E+03  0.33557172469E+03  0.10100000352E+00 0.  1.
       -3    1    3    3    0  502  0.13528659590E+03  0.14953442055E+03  0.17559374252E+04  0.17674782198E+04  0.10100000352E+00 0. -1.
</event>
<event>
 5   0  0.4768387E-04  0.1498394E+04  0.7818609E-02  0.8885522E-01
       -2   -1    0    0    0  501  0.00000000000E+00  0.00000000000E+00  0.76990361454E+03  0.76990361455E+03  0.25500000920E-02 0.  1.
        2   -1    0    0  501    0  0.00000000000E+00  0.00000000000E+00 -0.72904703577E+03  0.72904703578E+03  0.25500000920E-02 0. -1.
    10030    2    1    2    0    0  0.00000000000E+00  0.00000000000E+00  0.40856578768E+02  0.14989506503E+04  0.14983937373E+04 0.  0.
        3    1    3    3  502    0 -0.55483253844E+03 -0.50255223671E+03  0.50406767711E+02  0.75029244216E+03  0.10100000352E+00 0. -1.
       -3    1    3    3    0  502  0.55483253844E+03  0.50255223671E+03 -0.95501889438E+01  0.74865820816E+03  0.10100000352E+00 0.  1.
</event>
<event>
 5   0  0.1792000E-04  0.1501109E+04  0.7818609E-02  0.8883715E-01
       -4   -1    0    0    0  501  0.00000000000E+00  0.00000000000E+00  0.83076884648E+03  0.83076981720E+03  0.12699999809E+01 0. -1.
        4   -1    0    0  501    0  0.00000000000E+00  0.00000000000E+00 -0.67808362994E+03  0.67808481924E+03  0.12699999809E+01 0.  1.
    10030    2    1    2    0    0  0.00000000000E+00  0.00000000000E+00  0.15268521654E+03  0.15088546364E+04  0.15011094359E+04 0.  0.
        4    1    3    3  502    0 -0.36769700762E+03  0.65105278913E+03  0.10737568870E+02  0.74778856098E+03  0.12699999809E+01 0. -1.
       -4    1    3    3    0  502  0.36769700762E+03 -0.65105278913E+03  0.14194764767E+03  0.76106607547E+03  0.12699999809E+01 0.  1.
</event>
<event>
 5   0  0.4569211E-04  0.1515107E+04  0.7818609E-02  0.8874468E-01
        2   -1    0    0  501    0  0.00000000000E+00  0.00000000000E+00  0.14646557755E+04  0.14646557755E+04  0.25500000920E-02 0.  1.
       -2   -1    0    0    0  501  0.00000000000E+00  0.00000000000E+00 -0.39182416157E+03  0.39182416158E+03  0.25500000920E-02 0. -1.
    10030    2    1    2    0    0  0.00000000000E+00  0.00000000000E+00  0.10728316140E+04  0.18564799371E+04  0.15151072850E+04 0.  0.
        5    1    3    3  502    0  0.12649975832E+03 -0.63294472021E+03  0.50529987960E+02  0.64745391911E+03  0.46999998093E+01 0. -1.
       -5    1    3    3    0  502 -0.12649975832E+03  0.63294472021E+03  0.10223016260E+04  0.12090260180E+04  0.46999998093E+01 0.  1.
</event>
<event>
 5   0  0.2565416E-04  0.1517810E+04  0.7818609E-02  0.8872695E-01
        1   -1    0    0  501    0  0.00000000000E+00  0.00000000000E+00  0.10179286317E+04  0.10179286317E+04  0.50400001928E-02 0.  1.
       -1   -1    0    0    0  501  0.00000000000E+00  0.00000000000E+00 -0.56579279350E+03  0.56579279352E+03  0.50400001928E-02 0. -1.
    10030    2    1    2    0    0  0.00000000000E+00  0.00000000000E+00  0.45213583821E+03  0.15837214253E+04  0.15178098486E+04 0.  0.
        5    1    3    3  502    0 -0.22817244652E+03 -0.54196960395E+03  0.72660866447E+03  0.93475983987E+03  0.46999998093E+01 0.  1.
       -5    1    3    3    0  502  0.22817244652E+03  0.54196960395E+03 -0.27447282625E+03  0.64896158538E+03  0.46999998093E+01 0. -1.
</event>
<event>
 5   0  0.2603873E-04  0.1555326E+04  0.7818609E-02  0.8848473E-01
        1   -1    0    0  501    0  0.00000000000E+00  0.00000000000E+00  0.17015799954E+04  0.17015799954E+04  0.50400001928E-02 0.  1.
       -1   -1    0    0    0  501  0.00000000000E+00  0.00000000000E+00 -0.35541058958E+03  0.35541058961E+03  0.50400001928E-02 0. -1.
    10030    2    1    2    0    0  0.00000000000E+00  0.00000000000E+00  0.13461694058E+04  0.20569905850E+04  0.15553257529E+04 0.  0.
        2    1    3    3  502    0  0.13392263926E+03  0.21347175237E+03 -0.29991237326E+03  0.39173063961E+03  0.25500000920E-02 0. -1.
       -2    1    3    3    0  502 -0.13392263926E+03 -0.21347175237E+03  0.16460817791E+04  0.16652599454E+04  0.25500000920E-02 0.  1.
</event>
<event>
 5   0  0.4569211E-04  0.1492036E+04  0.7818609E-02  0.8889766E-01
        2   -1    0    0  501    0  0.00000000000E+00  0.00000000000E+00  0.10215643862E+04  0.10215643862E+04  0.25500000920E-02 0. -1.
       -2   -1    0    0    0  501  0.00000000000E+00  0.00000000000E+00 -0.54479448958E+03  0.54479448958E+03  0.25500000920E-02 0.  1.
    10030    2    1    2    0    0  0.00000000000E+00  0.00000000000E+00  0.47676989666E+03  0.15663588758E+04  0.14920357213E+04 0.  0.
        5    1    3    3  502    0 -0.32079817415E+03  0.48653256013E+03  0.72730402142E+03  0.93199711919E+03  0.46999998093E+01 0. -1.
       -5    1    3    3    0  502  0.32079817415E+03 -0.48653256013E+03 -0.25053412476E+03  0.63436175663E+03  0.46999998093E+01 0.  1.
</event>
<event>
 5   0  0.4948645E-04  0.1514393E+04  0.7818609E-02  0.8874938E-01
        2   -1    0    0  501    0  0.00000000000E+00  0.00000000000E+00  0.77032189966E+03  0.77032189967E+03  0.25500000920E-02 0. -1.
       -2   -1    0    0    0  501  0.00000000000E+00  0.00000000000E+00 -0.74429503837E+03  0.74429503837E+03  0.25500000920E-02 0.  1.
    10030    2    1    2    0    0  0.00000000000E+00  0.00000000000E+00  0.26026861294E+02  0.15146169380E+04  0.15143933015E+04 0.  0.
        1    1    3    3  502    0 -0.31050224920E+03 -0.68993640811E+03 -0.17369894416E+02  0.75678636831E+03  0.50400001928E-02 0. -1.
       -1    1    3    3    0  502  0.31050224920E+03  0.68993640811E+03  0.43396755710E+02  0.75783056974E+03  0.50400001928E-02 0.  1.
</event>
<event>
 5   0  0.2603873E-04  0.1509567E+04  0.7818609E-02  0.8878116E-01
       -1   -1    0    0    0  501  0.00000000000E+00  0.00000000000E+00  0.34937875929E+03  0.34937875932E+03  0.50400001928E-02 0. -1.
        1   -1    0    0  501    0  0.00000000000E+00  0.00000000000E+00 -0.16306026470E+04  0.16306026470E+04  0.50400001928E-02 0.  1.
    10030    2    1    2    0    0  0.00000000000E+00  0.00000000000E+00 -0.12812238877E+04  0.19799814063E+04  0.15095667322E+04 0.  0.
        2    1    3    3  502    0 -0.26546989790E+03 -0.70652769293E+03 -0.63208315501E+03  0.98447181901E+03  0.25500000920E-02 0.  1.
       -2    1    3    3    0  502  0.26546989790E+03  0.70652769293E+03 -0.64914073267E+03  0.99550958729E+03  0.25500000920E-02 0. -1.
</event>
<event>
 5   0  0.4948645E-04  0.1494446E+04  0.7818609E-02  0.8888155E-01
        2   -1    0    0  501    0  0.00000000000E+00  0.00000000000E+00  0.14795750795E+04  0.14795750795E+04  0.25500000920E-02 0. -1.
       -2   -1    0    0    0  501  0.00000000000E+00  0.00000000000E+00 -0.37736657280E+03  0.37736657281E+03  0.25500000920E-02 0.  1.
    10030    2    1    2    0    0  0.00000000000E+00  0.00000000000E+00  0.11022085067E+04  0.18569416523E+04  0.14944459534E+04 0.  0.
        1    1    3    3  502    0 -0.43274243074E+03  0.52870588746E+03  0.17514712456E+03  0.70531726341E+03  0.50400001928E-02 0.  1.
       -1    1    3    3    0  502  0.43274243074E+03 -0.52870588746E+03  0.92706138210E+03  0.11516243889E+04  0.50400001928E-02 0. -1.
</event>
<event>
 5   0  0.2544374E-04  0.1501856E+04  0.7818609E-02  0.8883220E-01
       -1   -1    0    0    0  501  0.00000000000E+00  0.00000000000E+00  0.66912164993E+03  0.66912164995E+03  0.50400001928E-02 0.  1.
        1   -1    0    0  501    0  0.00000000000E+00  0.00000000000E+00 -0.84273544409E+03  0.84273544411E+03  0.50400001928E-02 0. -1.
    10030    2    1    2    0    0  0.00000000000E+00  0.00000000000E+00 -0.17361379417E+03  0.15118570941E+04  0.15018555601E+04 0.  0.
        4    1    3    3  502    0 -0.64787348699E+02 -0.18084697495E+03 -0.81758056958E+03  0.83984678934E+03  0.12699999809E+01 0. -1.
       -4    1    3    3    0  502  0.64787348699E+02  0.18084697495E+03  0.64396677542E+03  0.67201030472E+03  0.12699999809E+01 0.  1.
</event>
<event>
 5   0  0.4768387E-04  0.1507055E+04  0.7818609E-02  0.8879775E-01
        2   -1    0    0  501    0  0.00000000000E+00  0.00000000000E+00  0.11869904417E+04  0.11869904417E+04  0.25500000920E-02 0.  1.
       -2   -1    0    0    0  501  0.00000000000E+00  0.00000000000E+00 -0.47835580603E+03  0.47835580604E+03  0.25500000920E-02 0. -1.
    10030    2    1    2    0    0  0.00000000000E+00  0.00000000000E+00  0.70863463562E+03  0.16653462477E+04  0.15070551012E+04 0.  0.
        3    1    3    3  502    0 -0.60615822177E+03 -0.40626030185E+03  0.14661648612E+03  0.74429270243E+03  0.10100000352E+00 0. -1.
       -3    1    3    3    0  502  0.60615822177E+03  0.40626030185E+03  0.56201814950E+03  0.92105354527E+03  0.10100000352E+00 0.  1.
</event>
<event>
 5   0  0.2544374E-04  0.1501061E+04  0.7818609E-02  0.8883747E-01
       -1   -1    0    0    0  501  0.00000000000E+00  0.00000000000E+00  0.39279754948E+03  0.39279754951E+03  0.50400001928E-02 0. -1.
        1   -1    0    0  501    0  0.00000000000E+00  0.00000000000E+00 -0.14340625969E+04  0.14340625969E+04  0.50400001928E-02 0.  1.
    10030    2    1    2    0    0  0.00000000000E+00  0.00000000000E+00 -0.10412650474E+04  0.18268601464E+04  0.15010613231E+04 0.  0.
        4    1    3    3  502    0 -0.53389606201E+03  0.45612650117E+03 -0.19817681195E+03  0.72963830203E+03  0.12699999809E+01 0.  1.
       -4    1    3    3    0  502  0.53389606201E+03 -0.45612650117E+03 -0.84308823546E+03  0.10972218444E+04  0.12699999809E+01 0. -1.
</event>
<event>
 5   0  0.4768387E-04  0.1495682E+04  0.7818609E-02  0.8887329E-01
       -2   -1    0    0    0  501  0.00000000000E+00  0.00000000000E+00  0.48055546468E+03  0.48055546469E+03  0.25500000920E-02 0.  1.
        2   -1    0    0  501    0  0.00000000000E+00  0.00000000000E+00 -0.11637915843E+04  0.11637915843E+04  0.25500000920E-02 0. -1.
    10030    2    1    2    0    0  0.00000000000E+00  0.00000000000E+00 -0.68323611964E+03  0.16443470490E+04  0.14956823267E+04 0.  0.
        3    1    3    3  502    0  0.28932564590E+03  0.12520899131E+03  0.40393108462E+03  0.51239335690E+03  0.10100000352E+00 0.  1.
       -3    1    3    3    0  502 -0.28932564590E+03 -0.12520899131E+03 -0.10871672043E+04  0.11319536921E+04  0.10100000352E+00 0. -1.
</event>
<event>
 5   0  0.4785496E-04  0.1491471E+04  0.7818609E-02  0.8890144E-01
       -2   -1    0    0    0  501  0.00000000000E+00  0.00000000000E+00  0.40448022971E+03  0.40448022972E+03  0.25500000920E-02 0. -1.
        2   -1    0    0  501    0  0.00000000000E+00  0.00000000000E+00 -0.13749040605E+04  0.13749040605E+04  0.25500000920E-02 0.  1.
    10030    2    1    2    0    0  0.00000000000E+00  0.00000000000E+00 -0.97042383082E+03  0.17793842902E+04  0.14914710996E+04 0.  0.
        4    1    3    3  502    0  0.58424996932E+03 -0.40525183856E+03 -0.75342788722E+03  0.10359692435E+04  0.12699999809E+01 0.  1.
       -4    1    3    3    0  502 -0.58424996932E+03  0.40525183856E+03 -0.21699594360E+03  0.74341504676E+03  0.12699999809E+01 0. -1.
</event>
<event>
 5   0  0.4726600E-04  0.1495320E+04  0.7818609E-02  0.8887571E-01
       -2   -1    0    0    0  501  0.00000000000E+00  0.00000000000E+00  0.42218386000E+03  0.42218386001E+03  0.25500000920E-02 0. -1.
        2   -1    0    0  501    0  0.00000000000E+00  0.00000000000E+00 -0.13240566082E+04  0.13240566082E+04  0.25500000920E-02 0.  1.
    10030    2    1    2    0    0  0.00000000000E+00  0.00000000000E+00 -0.90187274821E+03  0.17462404682E+04  0.14953198049E+04 0.  0.
        2    1    3    3  502    0 -0.69498285039E+03  0.26440806309E+03 -0.35985856459E+03  0.82608169855E+03  0.25500000920E-02 0.  1.
       -2    1    3    3    0  502  0.69498285039E+03 -0.26440806309E+03 -0.54201418362E+03  0.92015876968E+03  0.25500000920E-02 0. -1.
</event>
<event>
 5   0  0.4726600E-04  0.1500204E+04  0.7818609E-02  0.8884318E-01
       -2   -1    0    0    0  501  0.00000000000E+00  0.00000000000E+00  0.72266032991E+03  0.72266032992E+03  0.25500000920E-02 0. -1.
        2   -1    0    0  501    0  0.00000000000E+00  0.00000000000E+00 -0.77858532627E+03  0.77858532628E+03  0.25500000920E-02 0.  1.
    10030    2    1    2    0    0  0.00000000000E+00  0.00000000000E+00 -0.55924996359E+02  0.15012456562E+04  0.15002036245E+04 0.  0.
        2    1    3    3  502    0 -0.22484152239E+03 -0.46579032710E+03  0.51568125884E+03  0.73037079606E+03  0.25500000920E-02 0. -1.
       -2    1    3    3    0  502  0.22484152239E+03  0.46579032710E+03 -0.57160625520E+03  0.77087486014E+03  0.25500000920E-02 0.  1.
</event>
<event>
 5   0  0.2603873E-04  0.1496066E+04  0.7818609E-02  0.8887073E-01
        1   -1    0    0  501    0  0.00000000000E+00  0.00000000000E+00  0.90746699318E+03  0.90746699320E+03  0.50400001928E-02 0. -1.
       -1   -1    0    0    0  501  0.00000000000E+00  0.00000000000E+00 -0.61660990266E+03  0.61660990268E+03  0.50400001928E-02 0.  1.
    10030    2    1    2    0    0  0.00000000000E+00  0.00000000000E+00  0.29085709052E+03  0.15240768959E+04  0.14960656862E+04 0.  0.
        2    1    3    3  502    0  0.40436578522E+03 -0.61114361037E+03 -0.75324489252E+01  0.73284714542E+03  0.25500000920E-02 0.  1.
       -2    1    3    3    0  502 -0.40436578522E+03  0.61114361037E+03  0.29838953944E+03  0.79122975046E+03  0.25500000920E-02 0. -1.
</event>
<event>
 5   0  0.4726600E-04  0.1487370E+04  0.7818609E-02  0.8892896E-01
       -2   -1    0    0    0  501  0.00000000000E+00  0.00000000000E+00  0.47121760672E+03  0.47121760673E+03  0.25500000920E-02 0. -1.
        2   -1    0    0  501    0  0.00000000000E+00  0.00000000000E+00 -0.11736980580E+04  0.11736980580E+04  0.25500000920E-02 0.  1.
    10030    2    1    2    0    0  0.00000000000E+00  0.00000000000E+00 -0.70248045126E+03  0.16449156647E+04  0.14873697454E+04 0.  0.
        2    1    3    3  502    0 -0.27357495422E+03 -0.25506152108E+03  0.35962586488E+03  0.51887416375E+03  0.25500000920E-02 0. -1.
       -2    1    3    3    0  502  0.27357495422E+03  0.25506152108E+03 -0.10621063161E+04  0.11260415010E+04  0.25500000920E-02 0.  1.
</event>
<event>
 5   0  0.4569211E-04  0.1466193E+04  0.7818609E-02  0.8907251E-01
       -2   -1    0    0    0  501  0.00000000000E+00  0.00000000000E+00  0.56826075068E+03  0.56826075068E+03  0.25500000920E-02 0. -1.
        2   -1    0    0  501    0  0.00000000000E+00  0.00000000000E+00 -0.94574658224E+03  0.94574658225E+03  0.25500000920E-02 0.  1.
    10030    2    1    2    0    0  0.00000000000E+00  0.00000000000E+00 -0.37748583157E+03  0.15140073329E+04  0.14661932516E+04 0.  0.
        5    1    3    3  502    0 -0.34905682558E+03  0.48520668877E+02  0.47503697618E+03  0.59150413483E+03  0.46999998093E+01 0. -1.
       -5    1    3    3    0  502  0.34905682558E+03 -0.48520668877E+02 -0.85252280774E+03  0.92250319810E+03  0.46999998093E+01 0.  1.
</event>
<event>
 5   0  0.4569211E-04  0.1488286E+04  0.7818609E-02  0.8892280E-01
       -2   -1    0    0    0  501  0.00000000000E+00  0.00000000000E+00  0.46179587412E+03  0.46179587413E+03  0.25500000920E-02 0.  1.
        2   -1    0    0  501    0  0.00000000000E+00  0.00000000000E+00 -0.11991197087E+04  0.11991197087E+04  0.25500000920E-02 0. -1.
    10030    2    1    2    0    0  0.00000000000E+00  0.00000000000E+00 -0.73732383456E+03  0.16609155828E+04  0.14882856366E+04 0.  0.
        5    1    3    3  502    0 -0.17971565341E+03 -0.13759126551E+03  0.42243222090E+03  0.47927042854E+03  0.46999998093E+01 0.  1.
       -5    1    3    3    0  502  0.17971565341E+03  0.13759126551E+03 -0.11597560555E+04  0.11816451543E+04  0.46999998093E+01 0. -1.
</event>
<event>
 5   0  0.4768387E-04  0.1488025E+04  0.7818609E-02  0.8892455E-01
       -2   -1    0    0    0  501  0.00000000000E+00  0.00000000000E+00  0.55850230403E+03  0.55850230404E+03  0.25500000920E-02 0. -1.
        2   -1    0    0  501    0  0.00000000000E+00  0.00000000000E+00 -0.99114126238E+03  0.99114126239E+03  0.25500000920E-02 0.  1.
    10030    2    1    2    0    0  0.00000000000E+00  0.00000000000E+00 -0.43263895835E+03  0.15496435664E+04  0.14880251055E+04 0.  0.
        3    1    3    3  502    0 -0.52107611976E+03 -0.48714212974E+03  0.39254489190E+01  0.71333245861E+03  0.10100000352E+00 0. -1.
       -3    1    3    3    0  502  0.52107611976E+03  0.48714212974E+03 -0.43656440727E+03  0.83631110781E+03  0.10100000352E+00 0.  1.
</event>
<event>
 5   0  0.2565416E-04  0.1415566E+04  0.7818609E-02  0.8942628E-01
        1   -1    0    0  501    0  0.00000000000E+00  0.00000000000E+00  0.21479779548E+04  0.21479779548E+04  0.50400001928E-02 0. -1.
       -1   -1    0    0    0  501  0.00000000000E+00  0.00000000000E+00 -0.23322248043E+03  0.23322248048E+03  0.50400001928E-02 0.  1.
    10030    2    1    2    0    0  0.00000000000E+00  0.00000000000E+00  0.19147554744E+04  0.23812004353E+04  0.14155659598E+04 0.  0.
        5    1    3    3  502    0 -0.40917178097E+03  0.27088262763E+03  0.99420125586E+02  0.50070489878E+03  0.46999998093E+01 0.  1.
       -5    1    3    3    0  502  0.40917178097E+03 -0.27088262763E+03  0.18153353488E+04  0.18804955365E+04  0.46999998093E+01 0. -1.
</event>
<event>
 5   0  0.2542737E-04  0.1514582E+04  0.7818609E-02  0.8874814E-01
       -1   -1    0    0    0  501  0.00000000000E+00  0.00000000000E+00  0.45712939245E+03  0.45712939248E+03  0.50400001928E-02 0.  1.
        1   -1    0    0  501    0  0.00000000000E+00  0.00000000000E+00 -0.12545449217E+04  0.12545449217E+04  0.50400001928E-02 0. -1.
    10030    2    1    2    0    0  0.00000000000E+00  0.00000000000E+00 -0.79741552927E+03  0.17116743142E+04  0.15145816028E+04 0.  0.
        1    1    3    3  502    0  0.65717714058E+03  0.19410999427E+03 -0.34376394430E+02  0.68610656643E+03  0.50400001928E-02 0.  1.
       -1    1    3    3    0  502 -0.65717714058E+03 -0.19410999427E+03 -0.76303913484E+03  0.10255677478E+04  0.50400001928E-02 0. -1.
</event>
<event>
 5   0  0.4768387E-04  0.1499600E+04  0.7818609E-02  0.8884719E-01
        2   -1    0    0  501    0  0.00000000000E+00  0.00000000000E+00  0.91712416802E+03  0.91712416803E+03  0.25500000920E-02 0.  1.
       -2   -1    0    0    0  501  0.00000000000E+00  0.00000000000E+00 -0.61300313539E+03  0.61300313539E+03  0.25500000920E-02 0. -1.
    10030    2    1    2    0    0  0.00000000000E+00  0.00000000000E+00  0.30412103264E+03  0.15301273034E+04  0.14995999340E+04 0.  0.
        3    1    3    3  502    0  0.17789653416E+02  0.70041440961E+02 -0.60944150034E+03  0.61371102952E+03  0.10100000352E+00 0. -1.
       -3    1    3    3    0  502 -0.17789653416E+02 -0.70041440961E+02  0.91356253297E+03  0.91641627390E+03  0.10100000352E+00 0.  1.
</event>
<event>
 5   0  0.1792000E-04  0.1484519E+04  0.7818609E-02  0.8894813E-01
        4   -1    0    0  501    0  0.00000000000E+00  0.00000000000E+00  0.78210461042E+03  0.78210564155E+03  0.12699999809E+01 0.  1.
       -4   -1    0    0    0  501  0.00000000000E+00  0.00000000000E+00 -0.70444220387E+03  0.70444334868E+03  0.12699999809E+01 0. -1.
    10030    2    1    2    0    0  0.00000000000E+00  0.00000000000E+00  0.77662406551E+02  0.14865489902E+04  0.14845189291E+04 0.  0.
        5    1    3    3  502    0  0.36609853033E+03  0.41521639526E+03  0.53397095806E+03  0.76914229038E+03  0.46999998093E+01 0.  1.
       -5    1    3    3    0  502 -0.36609853033E+03 -0.41521639526E+03 -0.45630855151E+03  0.71740669985E+03  0.46999998093E+01 0. -1.
</event>
<event>
 5   0  0.4785496E-04  0.1497002E+04  0.7818609E-02  0.8886449E-01
        2   -1    0    0  501    0  0.00000000000E+00  0.00000000000E+00  0.14453678285E+04  0.14453678285E+04  0.25500000920E-02 0.  1.
       -2   -1    0    0    0  501  0.00000000000E+00  0.00000000000E+00 -0.38761996691E+03  0.38761996692E+03  0.25500000920E-02 0. -1.
    10030    2    1    2    0    0  0.00000000000E+00  0.00000000000E+00  0.10577478616E+04  0.18329877954E+04  0.14970015763E+04 0.  0.
        4    1    3    3  502    0  0.30197595217E+03 -0.46449198766E+03 -0.87384798672E+02  0.56087431589E+03  0.12699999809E+01 0. -1.
       -4    1    3    3    0  502 -0.30197595217E+03  0.46449198766E+03  0.11451326603E+04  0.12721134796E+04  0.12699999809E+01 0.  1.
</event>
<event>
 5   0  0.1792000E-04  0.1479568E+04  0.7818609E-02  0.8898155E-01
       -3   -1    0    0    0  501  0.00000000000E+00  0.00000000000E+00  0.68312391727E+03  0.68312392473E+03  0.10100000352E+00 0. -1.
        3   -1    0    0  501    0  0.00000000000E+00  0.00000000000E+00 -0.80114320091E+03  0.80114320728E+03  0.10100000352E+00 0.  1.
    10030    2    1    2    0    0  0.00000000000E+00  0.00000000000E+00 -0.11801928364E+03  0.14842671320E+04  0.14795676287E+04 0.  0.
        5    1    3    3  502    0 -0.48001015206E+03 -0.55995709235E+03 -0.14137757082E+01  0.73755391675E+03  0.46999998093E+01 0. -1.
       -5    1    3    3    0  502  0.48001015206E+03  0.55995709235E+03 -0.11660550794E+03  0.74671321525E+03  0.46999998093E+01 0.  1.
</event>
<event>
 5   0  0.2544374E-04  0.1492340E+04  0.7818609E-02  0.8889563E-01
        1   -1    0    0  501    0  0.00000000000E+00  0.00000000000E+00  0.19468923256E+04  0.19468923256E+04  0.50400001928E-02 0. -1.
       -1   -1    0    0    0  501  0.00000000000E+00  0.00000000000E+00 -0.28597869785E+03  0.28597869790E+03  0.50400001928E-02 0.  1.
    10030    2    1    2    0    0  0.00000000000E+00  0.00000000000E+00  0.16609136278E+04  0.22328710235E+04  0.14923400848E+04 0.  0.
        4    1    3    3  502    0  0.23985759385E+03  0.28689829554E+03 -0.13565018911E+03  0.39780005533E+03  0.12699999809E+01 0.  1.
       -4    1    3    3    0  502 -0.23985759385E+03 -0.28689829554E+03  0.17965638169E+04  0.18350709682E+04  0.12699999809E+01 0. -1.
</event>
<event>
 5   0  0.4785496E-04  0.1501872E+04  0.7818609E-02  0.8883209E-01
       -2   -1    0    0    0  501  0.00000000000E+00  0.00000000000E+00  0.28565046434E+03  0.28565046435E+03  0.25500000920E-02 0.  1.
        2   -1    0    0  501    0  0.00000000000E+00  0.00000000000E+00 -0.19741083544E+04  0.19741083544E+04  0.25500000920E-02 0. -1.
    10030    2    1    2    0    0  0.00000000000E+00  0.00000000000E+00 -0.16884578900E+04  0.22597588187E+04  0.15018721225E+04 0.  0.
        4    1    3    3  502    0 -0.66942854913E+03 -0.11607050181E+03 -0.36299158769E+03  0.77030607515E+03  0.12699999809E+01 0.  1.
       -4    1    3    3    0  502  0.66942854913E+03  0.11607050181E+03 -0.13254663023E+04  0.14894527436E+04  0.12699999809E+01 0. -1.
</event>
<event>
 5   0  0.4948645E-04  0.1452539E+04  0.7818609E-02  0.8916642E-01
       -2   -1    0    0    0  501  0.00000000000E+00  0.00000000000E+00  0.64225673759E+03  0.64225673759E+03  0.25500000920E-02 0.  1.
        2   -1    0    0  501    0  0.00000000000E+00  0.00000000000E+00 -0.82127172865E+03  0.82127172866E+03  0.25500000920E-02 0. -1.
    10030    2    1    2    0    0  0.00000000000E+00  0.00000000000E+00 -0.17901499107E+03  0.14635284662E+04  0.14525388823E+04 0.  0.
        1    1    3    3  502    0  0.57405976334E+03  0.44173269306E+03 -0.36240540413E+02  0.72524875788E+03  0.50400001928E-02 0.  1.
       -1    1    3    3    0  502 -0.57405976334E+03 -0.44173269306E+03 -0.14277445065E+03  0.73827970837E+03  0.50400001928E-02 0. -1.
</event>
<event>
 5   0  0.4726600E-04  0.1487684E+04  0.7818609E-02  0.8892685E-01
        2   -1    0    0  501    0  0.00000000000E+00  0.00000000000E+00  0.13150136359E+04  0.13150136359E+04  0.25500000920E-02 0.  1.
       -2   -1    0    0    0  501  0.00000000000E+00  0.00000000000E+00 -0.42075651682E+03  0.42075651682E+03  0.25500000920E-02 0. -1.
    10030    2    1    2    0    0  0.00000000000E+00  0.00000000000E+00  0.89425711909E+03  0.17357701527E+04  0.14876835107E+04 0.  0.
        2    1    3    3  502    0  0.51167511742E+03 -0.32089626264E+03 -0.59458743257E+02  0.60689470200E+03  0.25500000920E-02 0. -1.
       -2    1    3    3    0  502 -0.51167511742E+03  0.32089626264E+03  0.95371586235E+03  0.11288754507E+04  0.25500000920E-02 0.  1.
</event>
<event>
 5   0  0.2605471E-04  0.1502037E+04  0.7818609E-02  0.8883100E-01
        1   -1    0    0  501    0  0.00000000000E+00  0.00000000000E+00  0.11183731372E+04  0.11183731372E+04  0.50400001928E-02 0.  1.
       -1   -1    0    0    0  501  0.00000000000E+00  0.00000000000E+00 -0.50432959757E+03  0.50432959759E+03  0.50400001928E-02 0. -1.
    10030    2    1    2    0    0  0.00000000000E+00  0.00000000000E+00  0.61404353961E+03  0.16227027348E+04  0.15020368494E+04 0.  0.
        3    1    3    3  502    0 -0.34154933719E+03 -0.59359278843E+03 -0.25995392300E+02  0.68533504131E+03  0.10100000352E+00 0. -1.
       -3    1    3    3    0  502  0.34154933719E+03  0.59359278843E+03  0.64003893191E+03  0.93736769348E+03  0.10100000352E+00 0.  1.
</event>
<event>
 5   0  0.1792000E-04  0.1499412E+04  0.7818609E-02  0.8884844E-01
       -3   -1    0    0    0  501  0.00000000000E+00  0.00000000000E+00  0.49468882497E+03  0.49468883528E+03  0.10100000352E+00 0.  1.
        3   -1    0    0  501    0  0.00000000000E+00  0.00000000000E+00 -0.11361867910E+04  0.11361867955E+04  0.10100000352E+00 0. -1.
    10030    2    1    2    0    0  0.00000000000E+00  0.00000000000E+00 -0.64149796602E+03  0.16308756308E+04  0.14994117789E+04 0.  0.
        3    1    3    3  502    0  0.58342584683E+03 -0.35896674938E+02 -0.83136045405E+03  0.10162846574E+04  0.10100000352E+00 0. -1.
       -3    1    3    3    0  502 -0.58342584683E+03  0.35896674938E+02  0.18986248802E+03  0.61459097340E+03  0.10100000352E+00 0.  1.
</event>
<event>
 5   0  0.2542737E-04  0.1473320E+04  0.7818609E-02  0.8902391E-01
        1   -1    0    0  501    0  0.00000000000E+00  0.00000000000E+00  0.61721110073E+03  0.61721110075E+03  0.50400001928E-02 0. -1.
       -1   -1    0    0    0  501  0.00000000000E+00  0.00000000000E+00 -0.87922624913E+03  0.87922624914E+03  0.50400001928E-02 0.  1.
    10030    2    1    2    0    0  0.00000000000E+00  0.00000000000E+00 -0.26201514840E+03  0.14964373499E+04  0.14733203332E+04 0.  0.
        1    1    3    3  502    0 -0.22884987510E+03 -0.18631242873E+03  0.55455232259E+03  0.62818219089E+03  0.50400001928E-02 0. -1.
       -1    1    3    3    0  502  0.22884987510E+03  0.18631242873E+03 -0.81656747099E+03  0.86825515900E+03  0.50400001928E-02 0.  1.
</event>
<event>
 5   0  0.2603873E-04  0.1498338E+04  0.7818609E-02  0.8885559E-01
       -1   -1    0    0    0  501  0.00000000000E+00  0.00000000000E+00  0.65989059112E+03  0.65989059114E+03  0.50400001928E-02 0. -1.
        1   -1    0    0  501    0  0.00000000000E+00  0.00000000000E+00 -0.85052641731E+03  0.85052641732E+03  0.50400001928E-02 0.  1.
    10030    2    1    2    0    0  0.00000000000E+00  0.00000000000E+00 -0.19063582619E+03  0.15104170085E+04  0.14983382533E+04 0.  0.
        2    1    3    3  502    0  0.51530868091E+03  0.53940347636E+03 -0.16483201527E+03  0.76398215960E+03  0.25500000920E-02 0.  1.
       -2    1    3    3    0  502 -0.51530868091E+03 -0.53940347636E+03 -0.25803810922E+02  0.74643484886E+03  0.25500000920E-02 0. -1.
</event>
<event>
 5   0  0.4726600E-04  0.1494365E+04  0.7818609E-02  0.8888209E-01
       -2   -1    0    0    0  501  0.00000000000E+00  0.00000000000E+00  0.11759631416E+04  0.11759631416E+04  0.25500000920E-02 0.  1.
        2   -1    0    0  501    0  0.00000000000E+00  0.00000000000E+00 -0.47474446187E+03  0.47474446188E+03  0.25500000920E-02 0. -1.
    10030    2    1    2    0    0  0.00000000000E+00  0.00000000000E+00  0.70121867970E+03  0.16507076035E+04  0.14943654022E+04 0.  0.
        2    1    3    3  502    0  0.16410736633E+03  0.12066099224E+03 -0.44348318300E+03  0.48802421697E+03  0.25500000920E-02 0. -1.
       -2    1    3    3    0  502 -0.16410736633E+03 -0.12066099224E+03  0.11447018627E+04  0.11626833865E+04  0.25500000920E-02 0.  1.
</event>
<event>
 5   0  0.4569211E-04  0.1512160E+04  0.7818609E-02  0.8876407E-01
       -2   -1    0    0    0  501  0.00000000000E+00  0.00000000000E+00  0.50156873621E+03  0.50156873622E+03  0.25500000920E-02 0. -1.
        2   -1    0    0  501    0  0.00000000000E+00  0.00000000000E+00 -0.11397382080E+04  0.11397382080E+04  0.25500000920E-02 0.  1.
    10030    2    1    2    0    0  0.00000000000E+00  0.00000000000E+00 -0.63816947183E+03  0.16413069443E+04  0.15121601140E+04 0.  0.
        5    1    3    3  502    0 -0.33069985506E+03 -0.66216886321E+03 -0.15161906147E+03  0.75553982512E+03  0.46999998093E+01 0. -1.
       -5    1    3    3    0  502  0.33069985506E+03  0.66216886321E+03 -0.48655041035E+03  0.88576711914E+03  0.46999998093E+01 0.  1.
</event>
<event>
 5   0  0.2542737E-04  0.1434296E+04  0.7818609E-02  0.8929361E-01
        1   -1    0    0  501    0  0.00000000000E+00  0.00000000000E+00  0.18272273490E+04  0.18272273490E+04  0.50400001928E-02 0. -1.
       -1   -1    0    0    0  501  0.00000000000E+00  0.00000000000E+00 -0.28146524145E+03  0.28146524150E+03  0.50400001928E-02 0.  1.
    10030    2    1    2    0    0  0.00000000000E+00  0.00000000000E+00  0.15457621076E+04  0.21086925905E+04  0.14342956279E+04 0.  0.
        1    1    3    3  502    0  0.50657533535E+03 -0.15114583072E+03  0.14853372815E+04  0.15766072664E+04  0.50400001928E-02 0. -1.
       -1    1    3    3    0  502 -0.50657533535E+03  0.15114583072E+03  0.60424826035E+02  0.53208532413E+03  0.50400001928E-02 0.  1.
</event>
<event>
 5   0  0.4948645E-04  0.1491457E+04  0.7818609E-02  0.8890154E-01
        2   -1    0    0  501    0  0.00000000000E+00  0.00000000000E+00  0.48441562901E+03  0.48441562901E+03  0.25500000920E-02 0.  1.
       -2   -1    0    0    0  501  0.00000000000E+00  0.00000000000E+00 -0.11480031028E+04  0.11480031028E+04  0.25500000920E-02 0. -1.
    10030    2    1    2    0    0  0.00000000000E+00  0.00000000000E+00 -0.66358747383E+03  0.16324187319E+04  0.14914565299E+04 0.  0.
        1    1    3    3  502    0  0.55343978115E+03 -0.14792664980E+03  0.19075204266E+03  0.60379154257E+03  0.50400001928E-02 0.  1.
       -1    1    3    3    0  502 -0.55343978115E+03  0.14792664980E+03 -0.85433951649E+03  0.10286271893E+04  0.50400001928E-02 0. -1.
</event>
<event>
 5   0  0.2542737E-04  0.1525306E+04  0.7818609E-02  0.8867797E-01
       -1   -1    0    0    0  501  0.00000000000E+00  0.00000000000E+00  0.52634048154E+03  0.52634048157E+03  0.50400001928E-02 0. -1.
        1   -1    0    0  501    0  0.00000000000E+00  0.00000000000E+00 -0.11050638315E+04  0.11050638315E+04  0.50400001928E-02 0.  1.
    10030    2    1    2    0    0  0.00000000000E+00  0.00000000000E+00 -0.57872334999E+03  0.16314043131E+04  0.15253063027E+04 0.  0.
        1    1    3    3  502    0  0.46922377186E+03  0.59386282486E+03 -0.38967135980E+03  0.85128595167E+03  0.50400001928E-02 0.  1.
       -1    1    3    3    0  502 -0.46922377186E+03 -0.59386282486E+03 -0.18905199019E+03  0.78011836144E+03  0.50400001928E-02 0. -1.
</event>
<event>
 5   0  0.4569211E-04  0.1495384E+04  0.7818609E-02  0.8887528E-01
       -2   -1    0    0    0  501  0.00000000000E+00  0.00000000000E+00  0.42728375937E+03  0.42728375938E+03  0.25500000920E-02 0. -1.
        2   -1    0    0  501    0  0.00000000000E+00  0.00000000000E+00 -0.13083660564E+04  0.13083660564E+04  0.25500000920E-02 0.  1.
    10030    2    1    2    0    0  0.00000000000E+00  0.00000000000E+00 -0.88108229706E+03  0.17356498158E+04  0.14953843215E+04 0.  0.
        5    1    3    3  502    0  0.72286750517E+03 -0.12428178026E+03 -0.27219142797E+03  0.78236414437E+03  0.46999998093E+01 0. -1.
       -5    1    3    3    0  502 -0.72286750517E+03  0.12428178026E+03 -0.60889086909E+03  0.95328567145E+03  0.46999998093E+01 0.  1.
</event>
<event>
 5   0  0.4785496E-04  0.1506583E+04  0.7818609E-02  0.8880087E-01
        2   -1    0    0  501    0  0.00000000000E+00  0.00000000000E+00  0.53870431544E+03  0.53870431545E+03  0.25500000920E-02 0.  1.
       -2   -1    0    0    0  501  0.00000000000E+00  0.00000000000E+00 -0.10533574695E+04  0.10533574695E+04  0.25500000920E-02 0. -1.
    10030    2    1    2    0    0  0.00000000000E+00  0.00000000000E+00 -0.51465315409E+03  0.15920617850E+04  0.15065831733E+04 0.  0.
        4    1    3    3  502    0 -0.47961997744E+03 -0.13687799721E+03 -0.85386891863E+03  0.98887039190E+03  0.12699999809E+01 0. -1.
       -4    1    3    3    0  502  0.47961997744E+03  0.13687799721E+03  0.33921576453E+03  0.60319139308E+03  0.12699999809E+01 0.  1.
</event>
<event>
 5   0  0.4569211E-04  0.1508303E+04  0.7818609E-02  0.8878950E-01
       -2   -1    0    0    0  501  0.00000000000E+00  0.00000000000E+00  0.67108643223E+03  0.67108643224E+03  0.25500000920E-02 0.  1.
        2   -1    0    0  501    0  0.00000000000E+00  0.00000000000E+00 -0.84749825270E+03  0.84749825270E+03  0.25500000920E-02 0. -1.
    10030    2    1    2    0    0  0.00000000000E+00  0.00000000000E+00 -0.17641182047E+03  0.15185846849E+04  0.15083031244E+04 0.  0.
        5    1    3    3  502    0  0.59519371457E+03 -0.31248300542E+03  0.25591527218E+03  0.71931627472E+03  0.46999998093E+01 0.  1.
       -5    1    3    3    0  502 -0.59519371457E+03  0.31248300542E+03 -0.43232709265E+03  0.79926841022E+03  0.46999998093E+01 0. -1.
</event>
<event>
 5   0  0.4569211E-04  0.1499489E+04  0.7818609E-02  0.8884793E-01
       -2   -1    0    0    0  501  0.00000000000E+00  0.00000000000E+00  0.71368506301E+03  0.71368506301E+03  0.25500000920E-02 0. -1.
        2   -1    0    0  501    0  0.00000000000E+00  0.00000000000E+00 -0.78762538665E+03  0.78762538666E+03  0.25500000920E-02 0.  1.
    10030    2    1    2    0    0  0.00000000000E+00  0.00000000000E+00 -0.73940323649E+02  0.15013104497E+04  0.14994885444E+04 0.  0.
        5    1    3    3  502    0  0.18519004219E+03  0.44326786244E+03 -0.61326715531E+03  0.77903815271E+03  0.46999998093E+01 0.  1.
       -5    1    3    3    0  502 -0.18519004219E+03 -0.44326786244E+03  0.53932683166E+03  0.72227229696E+03  0.46999998093E+01 0. -1.
</event>
<event>
 5   0  0.1792000E-04  0.1464418E+04  0.7818609E-02  0.8908465E-01
       -4   -1    0    0    0  501  0.00000000000E+00  0.00000000000E+00  0.56516899637E+03  0.56517042328E+03  0.12699999809E+01 0. -1.
        4   -1    0    0  501    0  0.00000000000E+00  0.00000000000E+00 -0.94861645835E+03  0.94861730849E+03  0.12699999809E+01 0.  1.
    10030    2    1    2    0    0  0.00000000000E+00  0.00000000000E+00 -0.38344746199E+03  0.15137877318E+04  0.14644184309E+04 0.  0.
        4    1    3    3  502    0  0.56984497160E+03  0.42493005846E+03 -0.37325694926E+03  0.80287683321E+03  0.12699999809E+01 0.  1.
       -4    1    3    3    0  502 -0.56984497160E+03 -0.42493005846E+03 -0.10190512725E+02  0.71091089856E+03  0.12699999809E+01 0. -1.
</event>
<event>
 5   0  0.4948645E-04  0.1502982E+04  0.7818609E-02  0.8882472E-01
       -2   -1    0    0    0  501  0.00000000000E+00  0.00000000000E+00  0.64056042128E+03  0.64056042129E+03  0.25500000920E-02 0.  1.
        2   -1    0    0  501    0  0.00000000000E+00  0.00000000000E+00 -0.88163221192E+03  0.88163221193E+03  0.25500000920E-02 0. -1.
    10030    2    1    2    0    0  0.00000000000E+00  0.00000000000E+00 -0.24107179064E+03  0.15221926332E+04  0.15029819707E+04 0.  0.
        1    1    3    3  502    0 -0.34718575705E+03  0.62807267038E+03 -0.34637820229E+03  0.79686328076E+03  0.50400001928E-02 0. -1.
       -1    1    3    3    0  502  0.34718575705E+03 -0.62807267038E+03  0.10530641164E+03  0.72532935246E+03  0.50400001928E-02 0.  1.
</event>
<event>
 5   0  0.2603873E-04  0.1519664E+04  0.7818609E-02  0.8871481E-01
        1   -1    0    0  501    0  0.00000000000E+00  0.00000000000E+00  0.55352847978E+03  0.55352847981E+03  0.50400001928E-02 0. -1.
       -1   -1    0    0    0  501  0.00000000000E+00  0.00000000000E+00 -0.10430263525E+04  0.10430263525E+04  0.50400001928E-02 0.  1.
    10030    2    1    2    0    0  0.00000000000E+00  0.00000000000E+00 -0.48949787274E+03  0.15965548323E+04  0.15196641620E+04 0.  0.
        2    1    3    3  502    0  0.42699519376E+03 -0.18309437734E+03 -0.87641591215E+03  0.99194420084E+03  0.25500000920E-02 0.  1.
       -2    1    3    3    0  502 -0.42699519376E+03  0.18309437734E+03  0.38691803940E+03  0.60461063151E+03  0.25500000920E-02 0. -1.
</event>
<event>
 5   0  0.4785496E-04  0.1503291E+04  0.7818609E-02  0.8882268E-01
        2   -1    0    0  501    0  0.00000000000E+00  0.00000000000E+00  0.55792023986E+03  0.55792023987E+03  0.25500000920E-02 0. -1.
       -2   -1    0    0    0  501  0.00000000000E+00  0.00000000000E+00 -0.10126369027E+04  0.10126369027E+04  0.25500000920E-02 0.  1.
    10030    2    1    2    0    0  0.00000000000E+00  0.00000000000E+00 -0.45471666283E+03  0.15705571426E+04  0.15032905556E+04 0.  0.
        4    1    3    3  502    0  0.91082548287E+02  0.29475276235E+03 -0.94344312062E+03  0.99260352421E+03  0.12699999809E+01 0.  1.
       -4    1    3    3    0  502 -0.91082548287E+02 -0.29475276235E+03  0.48872645779E+03  0.57795361835E+03  0.12699999809E+01 0. -1.
</event>
<event>
 5   0  0.2605471E-04  0.1487897E+04  0.7818609E-02  0.8892541E-01
        1   -1    0    0  501    0  0.00000000000E+00  0.00000000000E+00  0.97849921466E+03  0.97849921467E+03  0.50400001928E-02 0.  1.
       -1   -1    0    0    0  501  0.00000000000E+00  0.00000000000E+00 -0.56562070777E+03  0.56562070780E+03  0.50400001928E-02 0. -1.
    10030    2    1    2    0    0  0.00000000000E+00  0.00000000000E+00  0.41287850688E+03  0.15441199225E+04  0.14878970641E+04 0.  0.
        3    1    3    3  502    0  0.23792474581E+03  0.68007819808E+03  0.14112781353E+02  0.72063424910E+03  0.10100000352E+00 0. -1.
       -3    1    3    3    0  502 -0.23792474581E+03 -0.68007819808E+03  0.39876572553E+03  0.82348567336E+03  0.10100000352E+00 0.  1.
</event>
<event>
 5   0  0.4768387E-04  0.1502664E+04  0.7818609E-02  0.8882683E-01
       -2   -1    0    0    0  501  0.00000000000E+00  0.00000000000E+00  0.38092014377E+03  0.38092014378E+03  0.25500000920E-02 0. -1.
        2   -1    0    0  501    0  0.00000000000E+00  0.00000000000E+00 -0.14819373210E+04  0.14819373210E+04  0.25500000920E-02 0.  1.
    10030    2    1    2    0    0  0.00000000000E+00  0.00000000000E+00 -0.11010171772E+04  0.18628574647E+04  0.15026640042E+04 0.  0.
        3    1    3    3  502    0  0.44261720142E+02 -0.17060208537E+03 -0.14559466349E+04  0.14665758710E+04  0.10100000352E+00 0.  1.
       -3    1    3    3    0  502 -0.44261720142E+02  0.17060208537E+03  0.35492945772E+03  0.39628159377E+03  0.10100000352E+00 0. -1.
</event>
<event>
 5   0  0.2544374E-04  0.1492190E+04  0.7818609E-02  0.8889663E-01
       -1   -1    0    0    0  501  0.00000000000E+00  0.00000000000E+00  0.75369186516E+03  0.75369186518E+03  0.50400001928E-02 0. -1.
        1   -1    0    0  501    0  0.00000000000E+00  0.00000000000E+00 -0.73857424333E+03  0.73857424335E+03  0.50400001928E-02 0.  1.
    10030    2    1    2    0    0  0.00000000000E+00  0.00000000000E+00  0.15117621830E+02  0.14922661085E+04  0.14921895309E+04 0.  0.
        4    1    3    3  502    0  0.28639109355E+03  0.66053338663E+03  0.20335336446E+03  0.74811657986E+03  0.12699999809E+01 0. -1.
       -4    1    3    3    0  502 -0.28639109355E+03 -0.66053338663E+03 -0.18823574263E+03  0.74414952867E+03  0.12699999809E+01 0.  1.
</event>
<event>
 5   0  0.4948645E-04  0.1500886E+04  0.7818609E-02  0.8883864E-01
       -2   -1    0    0    0  501  0.00000000000E+00  0.00000000000E+00  0.58824167160E+03  0.58824167161E+03  0.25500000920E-02 0.  1.
        2   -1    0    0  501    0  0.00000000000E+00  0.00000000000E+00 -0.95737013850E+03  0.95737013850E+03  0.25500000920E-02 0. -1.
    10030    2    1    2    0    0  0.00000000000E+00  0.00000000000E+00 -0.36912846689E+03  0.15456118101E+04  0.15008864189E+04 0.  0.
        1    1    3    3  502    0  0.22001120080E+03 -0.50380811289E+03 -0.71060671915E+03  0.89843722787E+03  0.50400001928E-02 0. -1.
       -1    1    3    3    0  502 -0.22001120080E+03  0.50380811289E+03  0.34147825226E+03  0.64717458223E+03  0.50400001928E-02 0.  1.
</event>
<event>
 5   0  0.2565416E-04  0.1499918E+04  0.7818609E-02  0.8884507E-01
       -1   -1    0    0    0  501  0.00000000000E+00  0.00000000000E+00  0.12139445782E+04  0.12139445782E+04  0.50400001928E-02 0. -1.
        1   -1    0    0  501    0  0.00000000000E+00  0.00000000000E+00 -0.46331486798E+03  0.46331486801E+03  0.50400001928E-02 0.  1.
    10030    2    1    2    0    0  0.00000000000E+00  0.00000000000E+00  0.75062971022E+03  0.16772594462E+04  0.14999180938E+04 0.  0.
        5    1    3    3  502    0  0.31776182838E+03  0.53167020294E+03  0.84811855884E+03  0.10502251969E+04  0.46999998093E+01 0. -1.
       -5    1    3    3    0  502 -0.31776182838E+03 -0.53167020294E+03 -0.97488848620E+02  0.62703424937E+03  0.46999998093E+01 0.  1.
</event>
<event>
 5   0  0.2544374E-04  0.1497340E+04  0.7818609E-02  0.8886224E-01
        1   -1    0    0  501    0  0.00000000000E+00  0.00000000000E+00  0.77793665711E+03  0.77793665713E+03  0.50400001928E-02 0.  1.
       -1   -1    0    0    0  501  0.00000000000E+00  0.00000000000E+00 -0.72050433386E+03  0.72050433388E+03  0.50400001928E-02 0. -1.
    10030    2    1    2    0    0  0.00000000000E+00  0.00000000000E+00  0.57432323251E+02  0.14984409910E+04  0.14973399520E+04 0.  0.
        4    1    3    3  502    0 -0.36608370414E+03 -0.36440580436E+02  0.68123851474E+03  0.77423040576E+03  0.12699999809E+01 0.  1.
       -4    1    3    3    0  502  0.36608370414E+03  0.36440580436E+02 -0.62380619149E+03  0.72421058524E+03  0.12699999809E+01 0. -1.
</event>
<event>
 5   0  0.4768387E-04  0.1497571E+04  0.7818609E-02  0.8886070E-01
        2   -1    0    0  501    0  0.00000000000E+00  0.00000000000E+00  0.11309254610E+04  0.11309254610E+04  0.25500000920E-02 0. -1.
       -2   -1    0    0    0  501  0.00000000000E+00  0.00000000000E+00 -0.49577050189E+03  0.49577050189E+03  0.25500000920E-02 0.  1.
    10030    2    1    2    0    0  0.00000000000E+00  0.00000000000E+00  0.63515495911E+03  0.16266959629E+04  0.14975706773E+04 0.  0.
        3    1    3    3  502    0  0.32930051853E+03  0.38869995666E+03  0.91366859288E+03  0.10460959782E+04  0.10100000352E+00 0. -1.
       -3    1    3    3    0  502 -0.32930051853E+03 -0.38869995666E+03 -0.27851363377E+03  0.58059998468E+03  0.10100000352E+00 0.  1.
</event>
<event>
 5   0  0.2565416E-04  0.1533164E+04  0.7818609E-02  0.8862694E-01
       -1   -1    0    0    0  501  0.00000000000E+00  0.00000000000E+00  0.57797979810E+03  0.57797979812E+03  0.50400001928E-02 0. -1.
        1   -1    0    0  501    0  0.00000000000E+00  0.00000000000E+00 -0.10167279715E+04  0.10167279715E+04  0.50400001928E-02 0.  1.
    10030    2    1    2    0    0  0.00000000000E+00  0.00000000000E+00 -0.43874817335E+03  0.15947077696E+04  0.15331643456E+04 0.  0.
        5    1    3    3  502    0  0.39688355497E+03  0.32345739783E+03  0.37403995333E+03  0.63408928481E+03  0.46999998093E+01 0. -1.
       -5    1    3    3    0  502 -0.39688355497E+03 -0.32345739783E+03 -0.81278812669E+03  0.96061848478E+03  0.46999998093E+01 0.  1.
</event>
<event>
 5   0  0.2605471E-04  0.1521716E+04  0.7818609E-02  0.8870139E-01
       -1   -1    0    0    0  501  0.00000000000E+00  0.00000000000E+00  0.65854179361E+03  0.65854179363E+03  0.50400001928E-02 0.  1.
        1   -1    0    0  501    0  0.00000000000E+00  0.00000000000E+00 -0.87907037201E+03  0.87907037202E+03  0.50400001928E-02 0. -1.
    10030    2    1    2    0    0  0.00000000000E+00  0.00000000000E+00 -0.22052857839E+03  0.15376121657E+04  0.15217155838E+04 0.  0.
        3    1    3    3  502    0  0.10721201151E+03 -0.74057087053E+03  0.28887581955E+02  0.74884853761E+03  0.10100000352E+00 0. -1.
       -3    1    3    3    0  502 -0.10721201151E+03  0.74057087053E+03 -0.24941616035E+03  0.78876362805E+03  0.10100000352E+00 0.  1.
</event>
<event>
 5   0  0.2603873E-04  0.1502043E+04  0.7818609E-02  0.8883096E-01
        1   -1    0    0  501    0  0.00000000000E+00  0.00000000000E+00  0.10833757800E+04  0.10833757800E+04  0.50400001928E-02 0.  1.
       -1   -1    0    0    0  501  0.00000000000E+00  0.00000000000E+00 -0.52062554313E+03  0.52062554315E+03  0.50400001928E-02 0. -1.
    10030    2    1    2    0    0  0.00000000000E+00  0.00000000000E+00  0.56275023689E+03  0.16040013232E+04  0.15020427476E+04 0.  0.
        2    1    3    3  502    0 -0.22589794117E+03 -0.19337560351E+03 -0.45508207285E+03  0.54362091285E+03  0.25500000920E-02 0. -1.
       -2    1    3    3    0  502  0.22589794117E+03  0.19337560351E+03  0.10178323097E+04  0.10603804103E+04  0.25500000920E-02 0.  1.
</event>
<event>
 5   0  0.4726600E-04  0.1520523E+04  0.7818609E-02  0.8870919E-01
        2   -1    0    0  501    0  0.00000000000E+00  0.00000000000E+00  0.12979975716E+04  0.12979975716E+04  0.25500000920E-02 0.  1.
       -2   -1    0    0    0  501  0.00000000000E+00  0.00000000000E+00 -0.44529942933E+03  0.44529942934E+03  0.25500000920E-02 0. -1.
    10030    2    1    2    0    0  0.00000000000E+00  0.00000000000E+00  0.85269814230E+03  0.17432970010E+04  0.15205230389E+04 0.  0.
        2    1    3    3  502    0 -0.11604522328E+03 -0.34214007571E+03  0.11932882921E+04  0.12467811650E+04  0.25500000920E-02 0.  1.
       -2    1    3    3    0  502  0.11604522328E+03  0.34214007571E+03 -0.34059014980E+03  0.49651583600E+03  0.25500000920E-02 0. -1.
</event>
<event>
 5   0  0.2603873E-04  0.1497595E+04  0.7818609E-02  0.8886054E-01
        1   -1    0    0  501    0  0.00000000000E+00  0.00000000000E+00  0.15151543461E+04  0.15151543461E+04  0.50400001928E-02 0.  1.
       -1   -1    0    0    0  501  0.00000000000E+00  0.00000000000E+00 -0.37006000097E+03  0.37006000100E+03  0.50400001928E-02 0. -1.
    10030    2    1    2    0    0  0.00000000000E+00  0.00000000000E+00  0.11450943451E+04  0.18852143471E+04  0.14975954311E+04 0.  0.
        2    1    3    3  502    0 -0.74642749838E+03  0.39266790817E+02  0.51622075803E+03  0.90839405669E+03  0.25500000920E-02 0.  1.
       -2    1    3    3    0  502  0.74642749838E+03 -0.39266790817E+02  0.62887358707E+03  0.97682029039E+03  0.25500000920E-02 0. -1.
</event>
<event>
 5   0  0.2603873E-04  0.1515441E+04  0.7818609E-02  0.8874249E-01
        1   -1    0    0  501    0  0.00000000000E+00  0.00000000000E+00  0.81821926117E+03  0.81821926118E+03  0.50400001928E-02 0. -1.
       -1   -1    0    0    0  501  0.00000000000E+00  0.00000000000E+00 -0.70169497579E+03  0.70169497581E+03  0.50400001928E-02 0.  1.
    10030    2    1    2    0    0  0.00000000000E+00  0.00000000000E+00  0.11652428538E+03  0.15199142370E+04  0.15154409849E+04 0.  0.
        2    1    3    3  502    0  0.70709059701E+03 -0.19555144818E+03 -0.13183059615E+03  0.74538365112E+03  0.25500000920E-02 0.  1.
       -2    1    3    3    0  502 -0.70709059701E+03  0.19555144818E+03  0.24835488153E+03  0.77453058587E+03  0.25500000920E-02 0. -1.
</event>
<event>
 5   0  0.2605471E-04  0.1511326E+04  0.7818609E-02  0.8876956E-01
       -1   -1    0    0    0  501  0.00000000000E+00  0.00000000000E+00  0.13380204304E+04  0.13380204304E+04  0.50400001928E-02 0.  1.
        1   -1    0    0  501    0  0.00000000000E+00  0.00000000000E+00 -0.42676964476E+03  0.42676964479E+03  0.50400001928E-02 0. -1.
    10030    2    1    2    0    0  0.00000000000E+00  0.00000000000E+00  0.91125078566E+03  0.17647900752E+04  0.15113259130E+04 0.  0.
        3    1    3    3  502    0  0.25609928291E+03 -0.68789540235E+03  0.24595866395E+03  0.77413345222E+03  0.10100000352E+00 0. -1.
       -3    1    3    3    0  502 -0.25609928291E+03  0.68789540235E+03  0.66529212171E+03  0.99065662300E+03  0.10100000352E+00 0.  1.
</event>
<event>
 5   0  0.4948645E-04  0.1491769E+04  0.7818609E-02  0.8889945E-01
        2   -1    0    0  501    0  0.00000000000E+00  0.00000000000E+00  0.12581472782E+04  0.12581472782E+04  0.25500000920E-02 0.  1.
       -2   -1    0    0    0  501  0.00000000000E+00  0.00000000000E+00 -0.44219309998E+03  0.44219309999E+03  0.25500000920E-02 0. -1.
    10030    2    1    2    0    0  0.00000000000E+00  0.00000000000E+00  0.81595417817E+03  0.17003403781E+04  0.14917694797E+04 0.  0.
        1    1    3    3  502    0  0.16370525053E+03  0.42910586055E+03 -0.26191270608E+03  0.52870550805E+03  0.50400001928E-02 0. -1.
       -1    1    3    3    0  502 -0.16370525053E+03 -0.42910586055E+03  0.10778668843E+04  0.11716348701E+04  0.50400001928E-02 0.  1.
</event>
<event>
 5   0  0.4785496E-04  0.1524348E+04  0.7818609E-02  0.8868421E-01
        2   -1    0    0  501    0  0.00000000000E+00  0.00000000000E+00  0.61832911357E+03  0.61832911357E+03  0.25500000920E-02 0. -1.
       -2   -1    0    0    0  501  0.00000000000E+00  0.00000000000E+00 -0.93948243076E+03  0.93948243076E+03  0.25500000920E-02 0.  1.
    10030    2    1    2    0    0  0.00000000000E+00  0.00000000000E+00 -0.32115331719E+03  0.15578115443E+04  0.15243481737E+04 0.  0.
        4    1    3    3  502    0 -0.49911746472E+03 -0.32095496012E+03  0.32823020911E+03  0.67813495197E+03  0.12699999809E+01 0. -1.
       -4    1    3    3    0  502  0.49911746472E+03  0.32095496012E+03 -0.64938352630E+03  0.87967659236E+03  0.12699999809E+01 0.  1.
</event>
<event>
 5   0  0.2542737E-04  0.1495920E+04  0.7818609E-02  0.8887170E-01
       -1   -1    0    0    0  501  0.00000000000E+00  0.00000000000E+00  0.89281483188E+03  0.89281483189E+03  0.50400001928E-02 0. -1.
        1   -1    0    0  501    0  0.00000000000E+00  0.00000000000E+00 -0.62660743805E+03  0.62660743807E+03  0.50400001928E-02 0.  1.
    10030    2    1    2    0    0  0.00000000000E+00  0.00000000000E+00  0.26620739382E+03  0.15194222700E+04  0.14959203381E+04 0.  0.
        1    1    3    3  502    0 -0.13779017190E+03  0.63661744365E+03 -0.24033613686E+03  0.69428334255E+03  0.50400001928E-02 0.  1.
       -1    1    3    3    0  502  0.13779017190E+03 -0.63661744365E+03  0.50654353068E+03  0.82513892742E+03  0.50400001928E-02 0. -1.
</event>
<event>
 5   0  0.4948645E-04  0.1512306E+04  0.7818609E-02  0.8876311E-01
       -2   -1    0    0    0  501  0.00000000000E+00  0.00000000000E+00  0.29906541343E+03  0.29906541344E+03  0.25500000920E-02 0. -1.
        2   -1    0    0  501    0  0.00000000000E+00  0.00000000000E+00 -0.19118472364E+04  0.19118472364E+04  0.25500000920E-02 0.  1.
    10030    2    1    2    0    0  0.00000000000E+00  0.00000000000E+00 -0.16127818230E+04  0.22109126499E+04  0.15123060328E+04 0.  0.
        1    1    3    3  502    0  0.22360736611E+03 -0.36031955781E+03 -0.17216414692E+04  0.17730989218E+04  0.50400001928E-02 0.  1.
       -1    1    3    3    0  502 -0.22360736611E+03  0.36031955781E+03  0.10885964619E+03  0.43781372810E+03  0.50400001928E-02 0. -1.
</event>
<event>
 5   0  0.4785496E-04  0.1481502E+04  0.7818609E-02  0.8896848E-01
       -2   -1    0    0    0  501  0.00000000000E+00  0.00000000000E+00  0.35609843930E+03  0.35609843931E+03  0.25500000920E-02 0.  1.
        2   -1    0    0  501    0  0.00000000000E+00  0.00000000000E+00 -0.15409005438E+04  0.15409005438E+04  0.25500000920E-02 0. -1.
    10030    2    1    2    0    0  0.00000000000E+00  0.00000000000E+00 -0.11848021045E+04  0.18969989831E+04  0.14815023170E+04 0.  0.
        4    1    3    3  502    0  0.39918639817E+03  0.26111392639E+03  0.13326913668E+03  0.49527016742E+03  0.12699999809E+01 0.  1.
       -4    1    3    3    0  502 -0.39918639817E+03 -0.26111392639E+03 -0.13180712412E+04  0.14017288157E+04  0.12699999809E+01 0. -1.
</event>
<event>
 5   0  0.4569211E-04  0.1495171E+04  0.7818609E-02  0.8887671E-01
        2   -1    0    0  501    0  0.00000000000E+00  0.00000000000E+00  0.12917910299E+04  0.12917910299E+04  0.25500000920E-02 0. -1.
       -2   -1    0    0    0  501  0.00000000000E+00  0.00000000000E+00 -0.43264257047E+03  0.43264257048E+03  0.25500000920E-02 0.  1.
    10030    2    1    2    0    0  0.00000000000E+00  0.00000000000E+00  0.85914845939E+03  0.17244336003E+04  0.14951706146E+04 0.  0.
        5    1    3    3  502    0 -0.60160766982E+03 -0.16756771635E+03  0.90349692649E+03  0.10983348825E+04  0.46999998093E+01 0. -1.
       -5    1    3    3    0  502  0.60160766982E+03  0.16756771635E+03 -0.44348467108E+02  0.62609871784E+03  0.46999998093E+01 0.  1.
</event>
<event>
 5   0  0.4948645E-04  0.1498263E+04  0.7818609E-02  0.8885609E-01
        2   -1    0    0  501    0  0.00000000000E+00  0.00000000000E+00  0.86686376709E+03  0.86686376710E+03  0.25500000920E-02 0. -1.
       -2   -1    0    0    0  501  0.00000000000E+00  0.00000000000E+00 -0.64738930987E+03  0.64738930988E+03  0.25500000920E-02 0.  1.
    10030    2    1    2    0    0  0.00000000000E+00  0.00000000000E+00  0.21947445722E+03  0.15142530770E+04  0.14982634427E+04 0.  0.
        1    1    3    3  502    0 -0.26949788688E+03 -0.44881771675E+03 -0.43182827197E+03  0.67863252973E+03  0.50400001928E-02 0.  1.
       -1    1    3    3    0  502  0.26949788688E+03  0.44881771675E+03  0.65130272920E+03  0.83562054725E+03  0.50400001928E-02 0. -1.
</event>
<event>
 5   0  0.4569211E-04  0.1488520E+04  0.7818609E-02  0.8892123E-01
        2   -1    0    0  501    0  0.00000000000E+00  0.00000000000E+00  0.43639340775E+03  0.43639340776E+03  0.25500000920E-02 0. -1.
       -2   -1    0    0    0  501  0.00000000000E+00  0.00000000000E+00 -0.12693195346E+04  0.12693195346E+04  0.25500000920E-02 0.  1.
    10030    2    1    2    0    0  0.00000000000E+00  0.00000000000E+00 -0.83292612689E+03  0.17057129424E+04  0.14885196368E+04 0.  0.
        5    1    3    3  502    0  0.48962075917E+02  0.98734741582E+02 -0.12599002438E+04  0.12647199486E+04  0.46999998093E+01 0.  1.
       -5    1    3    3    0  502 -0.48962075917E+02 -0.98734741582E+02  0.42697411691E+03  0.44099299380E+03  0.46999998093E+01 0. -1.
</event>
<event>
 5   0  0.4948645E-04  0.1502240E+04  0.7818609E-02  0.8882964E-01
        2   -1    0    0  501    0  0.00000000000E+00  0.00000000000E+00  0.12942847702E+04  0.12942847702E+04  0.25500000920E-02 0. -1.
       -2   -1    0    0    0  501  0.00000000000E+00  0.00000000000E+00 -0.43590218334E+03  0.43590218335E+03  0.25500000920E-02 0.  1.
    10030    2    1    2    0    0  0.00000000000E+00  0.00000000000E+00  0.85838258691E+03  0.17301869536E+04  0.15022404032E+04 0.  0.
        1    1    3    3  502    0  0.41561326759E+03 -0.11549769875E+03  0.11373999196E+04  0.12164508554E+04  0.50400001928E-02 0. -1.
       -1    1    3    3    0  502 -0.41561326759E+03  0.11549769875E+03 -0.27901733266E+03  0.51373609817E+03  0.50400001928E-02 0.  1.
</event>
<event>
 5   0  0.2544374E-04  0.1533558E+04  0.7818609E-02  0.8862439E-01
       -1   -1    0    0    0  501  0.00000000000E+00  0.00000000000E+00  0.39042407221E+03  0.39042407224E+03  0.50400001928E-02 0.  1.
        1   -1    0    0  501    0  0.00000000000E+00  0.00000000000E+00 -0.15059264056E+04  0.15059264057E+04  0.50400001928E-02 0. -1.
    10030    2    1    2    0    0  0.00000000000E+00  0.00000000000E+00 -0.11155023334E+04  0.18963504779E+04  0.15335578499E+04 0.  0.
        4    1    3    3  502    0 -0.75154409909E+03  0.10149154429E+03 -0.41768962122E+03  0.86578594296E+03  0.12699999809E+01 0. -1.
       -4    1    3    3    0  502  0.75154409909E+03 -0.10149154429E+03 -0.69781271221E+03  0.10305645349E+04  0.12699999809E+01 0.  1.
</event>
<event>
 5   0  0.2605471E-04  0.1499982E+04  0.7818609E-02  0.8884465E-01
       -1   -1    0    0    0  501  0.00000000000E+00  0.00000000000E+00  0.87737440149E+03  0.87737440150E+03  0.50400001928E-02 0.  1.
        1   -1    0    0  501    0  0.00000000000E+00  0.00000000000E+00 -0.64110208993E+03  0.64110208995E+03  0.50400001928E-02 0. -1.
    10030    2    1    2    0    0  0.00000000000E+00  0.00000000000E+00  0.23627231156E+03  0.15184764914E+04  0.14999820832E+04 0.  0.
        3    1    3    3  502    0  0.24330950382E+03 -0.70449867206E+03  0.33628394217E+02  0.74608898442E+03  0.10100000352E+00 0. -1.
       -3    1    3    3    0  502 -0.24330950382E+03  0.70449867206E+03  0.20264391734E+03  0.77238750703E+03  0.10100000352E+00 0.  1.
</event>
<event>
 5   0  0.4948645E-04  0.1468874E+04  0.7818609E-02  0.8905420E-01
       -2   -1    0    0    0  501  0.00000000000E+00  0.00000000000E+00  0.49533551060E+03  0.49533551060E+03  0.25500000920E-02 0. -1.
        2   -1    0    0  501    0  0.00000000000E+00  0.00000000000E+00 -0.10889537274E+04  0.10889537274E+04  0.25500000920E-02 0.  1.
    10030    2    1    2    0    0  0.00000000000E+00  0.00000000000E+00 -0.59361821682E+03  0.15842892380E+04  0.14688736509E+04 0.  0.
        1    1    3    3  502    0 -0.11089529482E+03  0.26671746826E+03 -0.10251154764E+04  0.10650341376E+04  0.50400001928E-02 0.  1.
       -1    1    3    3    0  502  0.11089529482E+03 -0.26671746826E+03  0.43149725957E+03  0.51925510043E+03  0.50400001928E-02 0. -1.
</event>
<event>
 5   0  0.2603873E-04  0.1479383E+04  0.7818609E-02  0.8898280E-01
       -1   -1    0    0    0  501  0.00000000000E+00  0.00000000000E+00  0.72303289221E+03  0.72303289223E+03  0.50400001928E-02 0. -1.
        1   -1    0    0  501    0  0.00000000000E+00  0.00000000000E+00 -0.75673366831E+03  0.75673366832E+03  0.50400001928E-02 0.  1.
    10030    2    1    2    0    0  0.00000000000E+00  0.00000000000E+00 -0.33700776095E+02  0.14797665606E+04  0.14793827535E+04 0.  0.
        2    1    3    3  502    0  0.30469834767E+03 -0.26970764379E+03  0.60101532886E+03  0.72581176742E+03  0.25500000920E-02 0. -1.
       -2    1    3    3    0  502 -0.30469834767E+03  0.26970764379E+03 -0.63471610496E+03  0.75395479313E+03  0.25500000920E-02 0.  1.
</event>
<event>
 5   0  0.4726600E-04  0.1503486E+04  0.7818609E-02  0.8882138E-01
        2   -1    0    0  501    0  0.00000000000E+00  0.00000000000E+00  0.98775493603E+03  0.98775493604E+03  0.25500000920E-02 0. -1.
       -2   -1    0    0    0  501  0.00000000000E+00  0.00000000000E+00 -0.57212359989E+03  0.57212359989E+03  0.25500000920E-02 0.  1.
    10030    2    1    2    0    0  0.00000000000E+00  0.00000000000E+00  0.41563133615E+03  0.15598785359E+04  0.15034864945E+04 0.  0.
        2    1    3    3  502    0  0.60514583205E+03  0.29079437420E+02 -0.25392858468E+03  0.65690700852E+03  0.25500000920E-02 0.  1.
       -2    1    3    3    0  502 -0.60514583205E+03 -0.29079437420E+02  0.66955992083E+03  0.90297152741E+03  0.25500000920E-02 0. -1.
</event>
<event>
 5   0  0.2544374E-04  0.1483981E+04  0.7818609E-02  0.8895176E-01
       -1   -1    0    0    0  501  0.00000000000E+00  0.00000000000E+00  0.70407028647E+03  0.70407028649E+03  0.50400001928E-02 0. -1.
        1   -1    0    0  501    0  0.00000000000E+00  0.00000000000E+00 -0.78195346724E+03  0.78195346726E+03  0.50400001928E-02 0.  1.
    10030    2    1    2    0    0  0.00000000000E+00  0.00000000000E+00 -0.77883180773E+02  0.14860237537E+04  0.14839814038E+04 0.  0.
        4    1    3    3  502    0  0.70382946519E+03 -0.22068534408E+03  0.41609477579E+02  0.73879015877E+03  0.12699999809E+01 0.  1.
       -4    1    3    3    0  502 -0.70382946519E+03  0.22068534408E+03 -0.11949265835E+03  0.74723359498E+03  0.12699999809E+01 0. -1.
</event>
<event>
 5   0  0.4569211E-04  0.1452303E+04  0.7818609E-02  0.8916805E-01
       -2   -1    0    0    0  501  0.00000000000E+00  0.00000000000E+00  0.56025755045E+03  0.56025755046E+03  0.25500000920E-02 0. -1.
        2   -1    0    0  501    0  0.00000000000E+00  0.00000000000E+00 -0.94116724292E+03  0.94116724292E+03  0.25500000920E-02 0.  1.
    10030    2    1    2    0    0  0.00000000000E+00  0.00000000000E+00 -0.38090969246E+03  0.15014247934E+04  0.14523030732E+04 0.  0.
        5    1    3    3  502    0  0.28095843987E+03 -0.53633803833E+03  0.22394950112E+03  0.64557850440E+03  0.46999998093E+01 0. -1.
       -5    1    3    3    0  502 -0.28095843987E+03  0.53633803833E+03 -0.60485919359E+03  0.85584628898E+03  0.46999998093E+01 0.  1.
</event>
<event>
 5   0  0.2544374E-04  0.1492407E+04  0.7818609E-02  0.8889518E-01
       -1   -1    0    0    0  501  0.00000000000E+00  0.00000000000E+00  0.48474223742E+03  0.48474223744E+03  0.50400001928E-02 0.  1.
        1   -1    0    0  501    0  0.00000000000E+00  0.00000000000E+00 -0.11486924036E+04  0.11486924036E+04  0.50400001928E-02 0. -1.
    10030    2    1    2    0    0  0.00000000000E+00  0.00000000000E+00 -0.66395016619E+03  0.16334346411E+04  0.14924070837E+04 0.  0.
        4    1    3    3  502    0 -0.60558331768E+03 -0.32111585523E+03 -0.65475247230E+03  0.94791822433E+03  0.12699999809E+01 0.  1.
       -4    1    3    3    0  502  0.60558331768E+03  0.32111585523E+03 -0.91976938857E+01  0.68551641673E+03  0.12699999809E+01 0. -1.
</event>
<event>
 5   0  0.4948645E-04  0.1502345E+04  0.7818609E-02  0.8882895E-01
       -2   -1    0    0    0  501  0.00000000000E+00  0.00000000000E+00  0.15640438206E+04  0.15640438206E+04  0.25500000920E-02 0. -1.
        2   -1    0    0  501    0  0.00000000000E+00  0.00000000000E+00 -0.36076987986E+03  0.36076987987E+03  0.25500000920E-02 0.  1.
    10030    2    1    2    0    0  0.00000000000E+00  0.00000000000E+00  0.12032739408E+04  0.19248137005E+04  0.15023447025E+04 0.  0.
        1    1    3    3  502    0  0.31499123979E+03 -0.40055715665E+03 -0.10546175995E+03  0.52037265466E+03  0.50400001928E-02 0.  1.
       -1    1    3    3    0  502 -0.31499123979E+03  0.40055715665E+03  0.13087357007E+04  0.14044410458E+04  0.50400001928E-02 0. -1.
</event>
<event>
 5   0  0.2603873E-04  0.1508233E+04  0.7818609E-02  0.8878997E-01
        1   -1    0    0  501    0  0.00000000000E+00  0.00000000000E+00  0.77633989590E+03  0.77633989591E+03  0.50400001928E-02 0. -1.
       -1   -1    0    0    0  501  0.00000000000E+00  0.00000000000E+00 -0.73252884886E+03  0.73252884888E+03  0.50400001928E-02 0.  1.
    10030    2    1    2    0    0  0.00000000000E+00  0.00000000000E+00  0.43811047037E+02  0.15088687448E+04  0.15082325687E+04 0.  0.
        2    1    3    3  502    0 -0.71054791387E+03 -0.18643821867E+03 -0.14861819366E+03  0.74948309839E+03  0.25500000920E-02 0. -1.
       -2    1    3    3    0  502  0.71054791387E+03  0.18643821867E+03  0.19242924069E+03  0.75938564640E+03  0.25500000920E-02 0.  1.
</event>
<event>
 5   0  0.2603873E-04  0.1492818E+04  0.7818609E-02  0.8889243E-01
       -1   -1    0    0    0  501  0.00000000000E+00  0.00000000000E+00  0.69191484427E+03  0.69191484428E+03  0.50400001928E-02 0. -1.
        1   -1    0    0  501    0  0.00000000000E+00  0.00000000000E+00 -0.80519550917E+03  0.80519550919E+03  0.50400001928E-02 0.  1.
    10030    2    1    2    0    0  0.00000000000E+00  0.00000000000E+00 -0.11328066490E+03  0.14971103535E+04  0.14928184422E+04 0.  0.
        2    1    3    3  502    0 -0.24779586882E+03 -0.52642805809E+03  0.41224791818E+03  0.71307618036E+03  0.25500000920E-02 0. -1.
       -2    1    3    3    0  502  0.24779586882E+03  0.52642805809E+03 -0.52552858309E+03  0.78403417311E+03  0.25500000920E-02 0.  1.
</event>
<event>
 5   0  0.2605471E-04  0.1499114E+04  0.7818609E-02  0.8885042E-01
       -1   -1    0    0    0  501  0.00000000000E+00  0.00000000000E+00  0.50308090485E+03  0.50308090488E+03  0.50400001928E-02 0.  1.
        1   -1    0    0  501    0  0.00000000000E+00  0.00000000000E+00 -0.11167896897E+04  0.11167896897E+04  0.50400001928E-02 0. -1.
    10030    2    1    2    0    0  0.00000000000E+00  0.00000000000E+00 -0.61370878486E+03  0.16198705946E+04  0.14991138284E+04 0.  0.
        3    1    3    3  502    0  0.50725071965E+03 -0.48450075759E+03 -0.59231507219E+03  0.91808574308E+03  0.10100000352E+00 0.  1.
       -3    1    3    3    0  502 -0.50725071965E+03  0.48450075759E+03 -0.21393712664E+02  0.70178485153E+03  0.10100000352E+00 0. -1.
</event>
<event>
 5   0  0.2565416E-04  0.1502117E+04  0.7818609E-02  0.8883047E-01
        1   -1    0    0  501    0  0.00000000000E+00  0.00000000000E+00  0.65838027001E+03  0.65838027003E+03  0.50400001928E-02 0.  1.
       -1   -1    0    0    0  501  0.00000000000E+00  0.00000000000E+00 -0.85678228665E+03  0.85678228666E+03  0.50400001928E-02 0. -1.
    10030    2    1    2    0    0  0.00000000000E+00  0.00000000000E+00 -0.19840201664E+03  0.15151625567E+04  0.15021165777E+04 0.  0.
        5    1    3    3  502    0 -0.35828592150E+02  0.70920235526E+03 -0.34589575297E+03  0.78988456793E+03  0.46999998093E+01 0. -1.
       -5    1    3    3    0  502  0.35828592150E+02 -0.70920235526E+03  0.14749373634E+03  0.72527798876E+03  0.46999998093E+01 0.  1.
</event>
<event>
 5   0  0.2544374E-04  0.1518124E+04  0.7818609E-02  0.8872489E-01
       -1   -1    0    0    0  501  0.00000000000E+00  0.00000000000E+00  0.39189385270E+03  0.39189385273E+03  0.50400001928E-02 0.  1.
        1   -1    0    0  501    0  0.00000000000E+00  0.00000000000E+00 -0.14702323417E+04  0.14702323417E+04  0.50400001928E-02 0. -1.
    10030    2    1    2    0    0  0.00000000000E+00  0.00000000000E+00 -0.10783384890E+04  0.18621261944E+04  0.15181238642E+04 0.  0.
        4    1    3    3  502    0 -0.41325967335E+03  0.47241560243E+03 -0.15578462139E+02  0.62785695856E+03  0.12699999809E+01 0.  1.
       -4    1    3    3    0  502  0.41325967335E+03 -0.47241560243E+03 -0.10627600268E+04  0.12342692358E+04  0.12699999809E+01 0. -1.
</event>
<event>
 5   0  0.4785496E-04  0.1509559E+04  0.7818609E-02  0.8878121E-01
       -2   -1    0    0    0  501  0.00000000000E+00  0.00000000000E+00  0.48678205954E+03  0.48678205954E+03  0.25500000920E-02 0.  1.
        2   -1    0    0  501    0  0.00000000000E+00  0.00000000000E+00 -0.11703226664E+04  0.11703226664E+04  0.25500000920E-02 0. -1.
    10030    2    1    2    0    0  0.00000000000E+00  0.00000000000E+00 -0.68354060684E+03  0.16571047259E+04  0.15095589791E+04 0.  0.
        4    1    3    3  502    0  0.60267314927E+03  0.32606905116E+03 -0.68917455896E+03  0.97185345428E+03  0.12699999809E+01 0. -1.
       -4    1    3    3    0  502 -0.60267314927E+03 -0.32606905116E+03  0.56339521210E+01  0.68525127164E+03  0.12699999809E+01 0.  1.
</event>
<event>
 5   0  0.4948645E-04  0.1505011E+04  0.7818609E-02  0.8881128E-01
       -2   -1    0    0    0  501  0.00000000000E+00  0.00000000000E+00  0.18550693608E+04  0.18550693608E+04  0.25500000920E-02 0.  1.
        2   -1    0    0  501    0  0.00000000000E+00  0.00000000000E+00 -0.30525241964E+03  0.30525241965E+03  0.25500000920E-02 0. -1.
    10030    2    1    2    0    0  0.00000000000E+00  0.00000000000E+00  0.15498169411E+04  0.21603217804E+04  0.15050108451E+04 0.  0.
        1    1    3    3  502    0 -0.11866492805E+03  0.38651487097E+03 -0.13609027192E+03  0.42660950853E+03  0.50400001928E-02 0. -1.
       -1    1    3    3    0  502  0.11866492805E+03 -0.38651487097E+03  0.16859072130E+04  0.17337122719E+04  0.50400001928E-02 0.  1.
</event>
<event>
 5   0  0.4569211E-04  0.1505464E+04  0.7818609E-02  0.8880827E-01
        2   -1    0    0  501    0  0.00000000000E+00  0.00000000000E+00  0.73182003858E+03  0.73182003858E+03  0.25500000920E-02 0.  1.
       -2   -1    0    0    0  501  0.00000000000E+00  0.00000000000E+00 -0.77424194157E+03  0.77424194158E+03  0.25500000920E-02 0. -1.
    10030    2    1    2    0    0  0.00000000000E+00  0.00000000000E+00 -0.42421902992E+02  0.15060619802E+04  0.15054644035E+04 0.  0.
        5    1    3    3  502    0  0.73127230084E+03 -0.30246685807E+02  0.15467020412E+03  0.74807686905E+03  0.46999998093E+01 0. -1.
       -5    1    3    3    0  502 -0.73127230084E+03  0.30246685807E+02 -0.19709210712E+03  0.75798511111E+03  0.46999998093E+01 0.  1.
</event>
<event>
 5   0  0.4726600E-04  0.1506257E+04  0.7818609E-02  0.8880303E-01
        2   -1    0    0  501    0  0.00000000000E+00  0.00000000000E+00  0.97150184166E+03  0.97150184166E+03  0.25500000920E-02 0.  1.
       -2   -1    0    0    0  501  0.00000000000E+00  0.00000000000E+00 -0.58384118638E+03  0.58384118639E+03  0.25500000920E-02 0. -1.
    10030    2    1    2    0    0  0.00000000000E+00  0.00000000000E+00  0.38766065528E+03  0.15553430280E+04  0.15062573323E+04 0.  0.
        2    1    3    3  502    0 -0.61535590258E+02 -0.59069619179E+02 -0.57883725911E+03  0.58508838761E+03  0.25500000920E-02 0. -1.
       -2    1    3    3    0  502  0.61535590258E+02  0.59069619179E+02  0.96649791439E+03  0.97025464044E+03  0.25500000920E-02 0.  1.
</event>
<event>
 5   0  0.2603873E-04  0.1558469E+04  0.7818609E-02  0.8846476E-01
        1   -1    0    0  501    0  0.00000000000E+00  0.00000000000E+00  0.40965647992E+03  0.40965647995E+03  0.50400001928E-02 0. -1.
       -1   -1    0    0    0  501  0.00000000000E+00  0.00000000000E+00 -0.14822338338E+04  0.14822338338E+04  0.50400001928E-02 0.  1.
    10030    2    1    2    0    0  0.00000000000E+00  0.00000000000E+00 -0.10725773539E+04  0.18918903138E+04  0.15584693707E+04 0.  0.
        2    1    3    3  502    0  0.19978014237E+03 -0.67081636931E+03 -0.12052488328E+03  0.71023443602E+03  0.25500000920E-02 0.  1.
       -2    1    3    3    0  502 -0.19978014237E+03  0.67081636931E+03 -0.95205247064E+03  0.11816558778E+04  0.25500000920E-02 0. -1.
</event>
<event>
 5   0  0.2542737E-04  0.1493482E+04  0.7818609E-02  0.8888799E-01
        1   -1    0    0  501    0  0.00000000000E+00  0.00000000000E+00  0.61679263728E+03  0.61679263730E+03  0.50400001928E-02 0.  1.
       -1   -1    0    0    0  501  0.00000000000E+00  0.00000000000E+00 -0.90406731533E+03  0.90406731534E+03  0.50400001928E-02 0. -1.
    10030    2    1    2    0    0  0.00000000000E+00  0.00000000000E+00 -0.28727467804E+03  0.15208599526E+04  0.14934819232E+04 0.  0.
        1    1    3    3  502    0 -0.24932566254E+03  0.29177126791E+03 -0.79594877423E+03  0.88364484381E+03  0.50400001928E-02 0. -1.
       -1    1    3    3    0  502  0.24932566254E+03 -0.29177126791E+03  0.50867409618E+03  0.63721510884E+03  0.50400001928E-02 0.  1.
</event>
<event>
 5   0  0.4569211E-04  0.1497587E+04  0.7818609E-02  0.8886059E-01
        2   -1    0    0  501    0  0.00000000000E+00  0.00000000000E+00  0.18408123566E+04  0.18408123566E+04  0.25500000920E-02 0.  1.
       -2   -1    0    0    0  501  0.00000000000E+00  0.00000000000E+00 -0.30458929815E+03  0.30458929816E+03  0.25500000920E-02 0. -1.
    10030    2    1    2    0    0  0.00000000000E+00  0.00000000000E+00  0.15362230584E+04  0.21454016547E+04  0.14975870509E+04 0.  0.
        5    1    3    3  502    0 -0.17762593529E+03 -0.72731943969E+03  0.75208761543E+03  0.10612268426E+04  0.46999998093E+01 0. -1.
       -5    1    3    3    0  502  0.17762593529E+03  0.72731943969E+03  0.78413544301E+03  0.10841748121E+04  0.46999998093E+01 0.  1.
</event>
<event>
 5   0  0.4948645E-04  0.1504526E+04  0.7818609E-02  0.8881448E-01
       -2   -1    0    0    0  501  0.00000000000E+00  0.00000000000E+00  0.63603187967E+03  0.63603187967E+03  0.25500000920E-02 0.  1.
        2   -1    0    0  501    0  0.00000000000E+00  0.00000000000E+00 -0.88973516136E+03  0.88973516136E+03  0.25500000920E-02 0. -1.
    10030    2    1    2    0    0  0.00000000000E+00  0.00000000000E+00 -0.25370328170E+03  0.15257670410E+04  0.15045264067E+04 0.  0.
        1    1    3    3  502    0 -0.28565736691E+03  0.26436595711E+03  0.52598385030E+03  0.65433057498E+03  0.50400001928E-02 0.  1.
       -1    1    3    3    0  502  0.28565736691E+03 -0.26436595711E+03 -0.77968713200E+03  0.87143646606E+03  0.50400001928E-02 0. -1.
</event>
<event>
 5   0  0.2565416E-04  0.1494310E+04  0.7818609E-02  0.8888246E-01
       -1   -1    0    0    0  501  0.00000000000E+00  0.00000000000E+00  0.21558354754E+04  0.21558354754E+04  0.50400001928E-02 0. -1.
        1   -1    0    0  501    0  0.00000000000E+00  0.00000000000E+00 -0.25894392107E+03  0.25894392112E+03  0.50400001928E-02 0.  1.
    10030    2    1    2    0    0  0.00000000000E+00  0.00000000000E+00  0.18968915543E+04  0.24147793965E+04  0.14943098624E+04 0.  0.
        5    1    3    3  502    0  0.20737908117E+03 -0.57509709485E+03  0.16425206510E+04  0.17526091780E+04  0.46999998093E+01 0. -1.
       -5    1    3    3    0  502 -0.20737908117E+03  0.57509709485E+03  0.25437090329E+03  0.66217021849E+03  0.46999998093E+01 0.  1.
</event>
<event>
 5   0  0.2605471E-04  0.1497887E+04  0.7818609E-02  0.8885859E-01
       -1   -1    0    0    0  501  0.00000000000E+00  0.00000000000E+00  0.63233627703E+03  0.63233627705E+03  0.50400001928E-02 0. -1.
        1   -1    0    0  501    0  0.00000000000E+00  0.00000000000E+00 -0.88705422155E+03  0.88705422157E+03  0.50400001928E-02 0.  1.
    10030    2    1    2    0    0  0.00000000000E+00  0.00000000000E+00 -0.25471794452E+03  0.15193904986E+04  0.14978872641E+04 0.  0.
        3    1    3    3  502    0 -0.26565855780E+03 -0.27991056229E+03 -0.77843957187E+03  0.86884553833E+03  0.10100000352E+00 0.  1.
       -3    1    3    3    0  502  0.26565855780E+03  0.27991056229E+03  0.52372162735E+03  0.65054496030E+03  0.10100000352E+00 0. -1.
</event>
<event>
 5   0  0.4569211E-04  0.1429366E+04  0.7818609E-02  0.8932832E-01
       -2   -1    0    0    0  501  0.00000000000E+00  0.00000000000E+00  0.87259799976E+03  0.87259799976E+03  0.25500000920E-02 0. -1.
        2   -1    0    0  501    0  0.00000000000E+00  0.00000000000E+00 -0.58534634682E+03  0.58534634683E+03  0.25500000920E-02 0.  1.
    10030    2    1    2    0    0  0.00000000000E+00  0.00000000000E+00  0.28725165294E+03  0.14579443466E+04  0.14293663651E+04 0.  0.
        5    1    3    3  502    0  0.10174025396E+03 -0.58153977521E+03 -0.26718009777E+03  0.64803308872E+03  0.46999998093E+01 0.  1.
       -5    1    3    3    0  502 -0.10174025396E+03  0.58153977521E+03  0.55443175071E+03  0.80991125787E+03  0.46999998093E+01 0. -1.
</event>
<event>
 5   0  0.2605471E-04  0.1492064E+04  0.7818609E-02  0.8889748E-01
       -1   -1    0    0    0  501  0.00000000000E+00  0.00000000000E+00  0.53158702642E+03  0.53158702644E+03  0.50400001928E-02 0.  1.
        1   -1    0    0  501    0  0.00000000000E+00  0.00000000000E+00 -0.10469850263E+04  0.10469850263E+04  0.50400001928E-02 0. -1.
    10030    2    1    2    0    0  0.00000000000E+00  0.00000000000E+00 -0.51539799984E+03  0.15785720527E+04  0.14920638818E+04 0.  0.
        3    1    3    3  502    0 -0.39300887516E+03 -0.17838598285E+03  0.38609319008E+03  0.57909023170E+03  0.10100000352E+00 0.  1.
       -3    1    3    3    0  502  0.39300887516E+03  0.17838598285E+03 -0.90149118992E+03  0.99948182101E+03  0.10100000352E+00 0. -1.
</event>
<event>
 5   0  0.4569211E-04  0.1497342E+04  0.7818609E-02  0.8886223E-01
       -2   -1    0    0    0  501  0.00000000000E+00  0.00000000000E+00  0.77385603351E+03  0.77385603351E+03  0.25500000920E-02 0.  1.
        2   -1    0    0  501    0  0.00000000000E+00  0.00000000000E+00 -0.72430520668E+03  0.72430520668E+03  0.25500000920E-02 0. -1.
    10030    2    1    2    0    0  0.00000000000E+00  0.00000000000E+00  0.49550826831E+02  0.14981612402E+04  0.14973415833E+04 0.  0.
        5    1    3    3  502    0  0.19483094403E+03  0.68049629023E+03  0.26873580545E+03  0.75714947064E+03  0.46999998093E+01 0.  1.
       -5    1    3    3    0  502 -0.19483094403E+03 -0.68049629023E+03 -0.21918497862E+03  0.74101176955E+03  0.46999998093E+01 0. -1.
</event>
<event>
 5   0  0.2603873E-04  0.1541262E+04  0.7818609E-02  0.8857468E-01
       -1   -1    0    0    0  501  0.00000000000E+00  0.00000000000E+00  0.12651679275E+04  0.12651679275E+04  0.50400001928E-02 0.  1.
        1   -1    0    0  501    0  0.00000000000E+00  0.00000000000E+00 -0.46940187942E+03  0.46940187945E+03  0.50400001928E-02 0. -1.
    10030    2    1    2    0    0  0.00000000000E+00  0.00000000000E+00  0.79576604810E+03  0.17345698070E+04  0.15412620841E+04 0.  0.
        2    1    3    3  502    0 -0.45132164236E+03  0.41085049946E+03 -0.13164295298E+03  0.62435504710E+03  0.25500000920E-02 0. -1.
       -2    1    3    3    0  502  0.45132164236E+03 -0.41085049946E+03  0.92740900108E+03  0.11102147599E+04  0.25500000920E-02 0.  1.
</event>
<event>
 5   0  0.4948645E-04  0.1503005E+04  0.7818609E-02  0.8882457E-01
       -2   -1    0    0    0  501  0.00000000000E+00  0.00000000000E+00  0.22580383469E+03  0.22580383471E+03  0.25500000920E-02 0. -1.
        2   -1    0    0  501    0  0.00000000000E+00  0.00000000000E+00 -0.25010907140E+04  0.25010907140E+04  0.25500000920E-02 0.  1.
    10030    2    1    2    0    0  0.00000000000E+00  0.00000000000E+00 -0.22752868793E+04  0.27268945487E+04  0.15030048226E+04 0.  0.
        1    1    3    3  502    0 -0.46902199374E+03 -0.54427487950E+03 -0.73792532971E+03  0.10299274573E+04  0.50400001928E-02 0. -1.
       -1    1    3    3    0  502  0.46902199374E+03  0.54427487950E+03 -0.15373615496E+04  0.16969670914E+04  0.50400001928E-02 0.  1.
</event>
<event>
 5   0  0.2603873E-04  0.1487574E+04  0.7818609E-02  0.8892759E-01
       -1   -1    0    0    0  501  0.00000000000E+00  0.00000000000E+00  0.52645303909E+03  0.52645303912E+03  0.50400001928E-02 0.  1.
        1   -1    0    0  501    0  0.00000000000E+00  0.00000000000E+00 -0.10508416245E+04  0.10508416245E+04  0.50400001928E-02 0. -1.
    10030    2    1    2    0    0  0.00000000000E+00  0.00000000000E+00 -0.52438858544E+03  0.15772946637E+04  0.14875735503E+04 0.  0.
        2    1    3    3  502    0 -0.33563790076E+03 -0.67938556789E+02  0.43789411425E+03  0.55589540673E+03  0.25500000920E-02 0.  1.
       -2    1    3    3    0  502  0.33563790076E+03  0.67938556789E+02 -0.96228269969E+03  0.10213992569E+04  0.25500000920E-02 0. -1.
</event>
<event>
 5   0  0.4785496E-04  0.1498232E+04  0.7818609E-02  0.8885630E-01
        2   -1    0    0  501    0  0.00000000000E+00  0.00000000000E+00  0.68566479451E+03  0.68566479451E+03  0.25500000920E-02 0.  1.
       -2   -1    0    0    0  501  0.00000000000E+00  0.00000000000E+00 -0.81843871430E+03  0.81843871431E+03  0.25500000920E-02 0. -1.
    10030    2    1    2    0    0  0.00000000000E+00  0.00000000000E+00 -0.13277391979E+03  0.15041035088E+04  0.14982317750E+04 0.  0.
        4    1    3    3  502    0 -0.58917915154E+03  0.42808653314E+03  0.10975106265E+03  0.73650326620E+03  0.12699999809E+01 0.  1.
       -4    1    3    3    0  502  0.58917915154E+03 -0.42808653314E+03 -0.24252498245E+03  0.76760024262E+03  0.12699999809E+01 0. -1.
</event>
<event>
 5   0  0.2544374E-04  0.1491161E+04  0.7818609E-02  0.8890352E-01
       -1   -1    0    0    0  501  0.00000000000E+00  0.00000000000E+00  0.37901641922E+03  0.37901641925E+03  0.50400001928E-02 0. -1.
        1   -1    0    0  501    0  0.00000000000E+00  0.00000000000E+00 -0.14666663673E+04  0.14666663674E+04  0.50400001928E-02 0.  1.
    10030    2    1    2    0    0  0.00000000000E+00  0.00000000000E+00 -0.10876499481E+04  0.18456827866E+04  0.14911614732E+04 0.  0.
        4    1    3    3  502    0  0.58767069644E+03 -0.55580285765E+02  0.19918835938E+02  0.59063050086E+03  0.12699999809E+01 0.  1.
       -4    1    3    3    0  502 -0.58767069644E+03  0.55580285765E+02 -0.11075687841E+04  0.12550522857E+04  0.12699999809E+01 0. -1.
</event>
<event>
 5   0  0.1792000E-04  0.1498799E+04  0.7818609E-02  0.8885252E-01
       -4   -1    0    0    0  501  0.00000000000E+00  0.00000000000E+00  0.50872183262E+03  0.50872341786E+03  0.12699999809E+01 0. -1.
        4   -1    0    0  501    0  0.00000000000E+00  0.00000000000E+00 -0.11039394324E+04  0.11039401629E+04  0.12699999809E+01 0.  1.
    10030    2    1    2    0    0  0.00000000000E+00  0.00000000000E+00 -0.59521759978E+03  0.16126635808E+04  0.14987994641E+04 0.  0.
        4    1    3    3  502    0 -0.40924338495E+03  0.37770243414E+03  0.24194393776E+03  0.60718840470E+03  0.12699999809E+01 0. -1.
       -4    1    3    3    0  502  0.40924338495E+03 -0.37770243414E+03 -0.83716153754E+03  0.10054751761E+04  0.12699999809E+01 0.  1.
</event>
<event>
 5   0  0.2605471E-04  0.1514623E+04  0.7818609E-02  0.8874787E-01
       -1   -1    0    0    0  501  0.00000000000E+00  0.00000000000E+00  0.82856609989E+03  0.82856609990E+03  0.50400001928E-02 0. -1.
        1   -1    0    0  501    0  0.00000000000E+00  0.00000000000E+00 -0.69218465090E+03  0.69218465092E+03  0.50400001928E-02 0.  1.
    10030    2    1    2    0    0  0.00000000000E+00  0.00000000000E+00  0.13638144899E+03  0.15207507508E+04  0.15146230378E+04 0.  0.
        3    1    3    3  502    0  0.32925671101E+03  0.34523725580E+03  0.65872153501E+03  0.81333438106E+03  0.10100000352E+00 0. -1.
       -3    1    3    3    0  502 -0.32925671101E+03 -0.34523725580E+03 -0.52234008602E+03  0.70741636976E+03  0.10100000352E+00 0.  1.
</event>
<event>
 5   0  0.2603873E-04  0.1498848E+04  0.7818609E-02  0.8885219E-01
        1   -1    0    0  501    0  0.00000000000E+00  0.00000000000E+00  0.87788232002E+03  0.87788232004E+03  0.50400001928E-02 0. -1.
       -1   -1    0    0    0  501  0.00000000000E+00  0.00000000000E+00 -0.63976256932E+03  0.63976256934E+03  0.50400001928E-02 0.  1.
    10030    2    1    2    0    0  0.00000000000E+00  0.00000000000E+00  0.23811975070E+03  0.15176448894E+04  0.14988478891E+04 0.  0.
        2    1    3    3  502    0 -0.58802225007E+03  0.46269142324E+03  0.76307991316E+02  0.75211463838E+03  0.25500000920E-02 0.  1.
       -2    1    3    3    0  502  0.58802225007E+03 -0.46269142324E+03  0.16181175938E+03  0.76553025100E+03  0.25500000920E-02 0. -1.
</event>
<event>
 5   0  0.2605471E-04  0.1498631E+04  0.7818609E-02  0.8885364E-01
        1   -1    0    0  501    0  0.00000000000E+00  0.00000000000E+00  0.11509875333E+04  0.11509875333E+04  0.50400001928E-02 0.  1.
       -1   -1    0    0    0  501  0.00000000000E+00  0.00000000000E+00 -0.48781924313E+03  0.48781924315E+03  0.50400001928E-02 0. -1.
    10030    2    1    2    0    0  0.00000000000E+00  0.00000000000E+00  0.66316829020E+03  0.16388067765E+04  0.14986311986E+04 0.  0.
        3    1    3    3  502    0 -0.14276056786E+03  0.32281548244E+03  0.10543802009E+04  0.11118938950E+04  0.10100000352E+00 0.  1.
       -3    1    3    3    0  502  0.14276056786E+03 -0.32281548244E+03 -0.39121191070E+03  0.52691288152E+03  0.10100000352E+00 0. -1.
</event>
<event>
 5   0  0.2565416E-04  0.1498141E+04  0.7818609E-02  0.8885690E-01
       -1   -1    0    0    0  501  0.00000000000E+00  0.00000000000E+00  0.66710226828E+03  0.66710226830E+03  0.50400001928E-02 0. -1.
        1   -1    0    0  501    0  0.00000000000E+00  0.00000000000E+00 -0.84111050481E+03  0.84111050482E+03  0.50400001928E-02 0.  1.
    10030    2    1    2    0    0  0.00000000000E+00  0.00000000000E+00 -0.17400823653E+03  0.15082127731E+04  0.14981411491E+04 0.  0.
        5    1    3    3  502    0 -0.50174337446E+03  0.55411680421E+03 -0.38799134712E+02  0.74854479450E+03  0.46999998093E+01 0. -1.
       -5    1    3    3    0  502  0.50174337446E+03 -0.55411680421E+03 -0.13520910182E+03  0.75966797862E+03  0.46999998093E+01 0.  1.
</event>
<event>
 5   0  0.2565416E-04  0.1499978E+04  0.7818609E-02  0.8884468E-01
        1   -1    0    0  501    0  0.00000000000E+00  0.00000000000E+00  0.74491141212E+03  0.74491141214E+03  0.50400001928E-02 0. -1.
       -1   -1    0    0    0  501  0.00000000000E+00  0.00000000000E+00 -0.75510121985E+03  0.75510121987E+03  0.50400001928E-02 0.  1.
    10030    2    1    2    0    0  0.00000000000E+00  0.00000000000E+00 -0.10189807725E+02  0.15000126320E+04  0.14999780212E+04 0.  0.
        5    1    3    3  502    0  0.37076369048E+03  0.18628105661E+03  0.61965551950E+03  0.74576229395E+03  0.46999998093E+01 0. -1.
       -5    1    3    3    0  502 -0.37076369048E+03 -0.18628105661E+03 -0.62984532722E+03  0.75425033806E+03  0.46999998093E+01 0.  1.
</event>
<event>
 5   0  0.2565416E-04  0.1508926E+04  0.7818609E-02  0.8878539E-01
        1   -1    0    0  501    0  0.00000000000E+00  0.00000000000E+00  0.13823671776E+04  0.13823671776E+04  0.50400001928E-02 0. -1.
       -1   -1    0    0    0  501  0.00000000000E+00  0.00000000000E+00 -0.41176794647E+03  0.41176794650E+03  0.50400001928E-02 0.  1.
    10030    2    1    2    0    0  0.00000000000E+00  0.00000000000E+00  0.97059923111E+03  0.17941351241E+04  0.15089261003E+04 0.  0.
        5    1    3    3  502    0 -0.38171911084E+03 -0.64208697836E+03  0.61117373608E+03  0.96516350585E+03  0.46999998093E+01 0.  1.
       -5    1    3    3    0  502  0.38171911084E+03  0.64208697836E+03  0.35942549503E+03  0.82897161823E+03  0.46999998093E+01 0. -1.
</event>
<event>
 5   0  0.4785496E-04  0.1493095E+04  0.7818609E-02  0.8889058E-01
        2   -1    0    0  501    0  0.00000000000E+00  0.00000000000E+00  0.13084235058E+04  0.13084235058E+04  0.25500000920E-02 0.  1.
       -2   -1    0    0    0  501  0.00000000000E+00  0.00000000000E+00 -0.42595761994E+03  0.42595761995E+03  0.25500000920E-02 0. -1.
    10030    2    1    2    0    0  0.00000000000E+00  0.00000000000E+00  0.88246588590E+03  0.17343811258E+04  0.14930947223E+04 0.  0.
        4    1    3    3  502    0  0.90724082018E+02  0.37245200972E+03  0.11853654333E+04  0.12458106526E+04  0.12699999809E+01 0.  1.
       -4    1    3    3    0  502 -0.90724082018E+02 -0.37245200972E+03 -0.30289954742E+03  0.48857047325E+03  0.12699999809E+01 0. -1.
</event>
<event>
 5   0  0.2544374E-04  0.1509359E+04  0.7818609E-02  0.8878253E-01
       -1   -1    0    0    0  501  0.00000000000E+00  0.00000000000E+00  0.75178519087E+03  0.75178519089E+03  0.50400001928E-02 0. -1.
        1   -1    0    0  501    0  0.00000000000E+00  0.00000000000E+00 -0.75758510701E+03  0.75758510703E+03  0.50400001928E-02 0.  1.
    10030    2    1    2    0    0  0.00000000000E+00  0.00000000000E+00 -0.57999161435E+01  0.15093702979E+04  0.15093591545E+04 0.  0.
        4    1    3    3  502    0  0.12715672924E+03 -0.36005903493E+03 -0.65384893125E+03  0.75718648972E+03  0.12699999809E+01 0.  1.
       -4    1    3    3    0  502 -0.12715672924E+03  0.36005903493E+03  0.64804901510E+03  0.75218380819E+03  0.12699999809E+01 0. -1.
</event>
<event>
 5   0  0.4768387E-04  0.1403012E+04  0.7818609E-02  0.8951641E-01
        2   -1    0    0  501    0  0.00000000000E+00  0.00000000000E+00  0.81589578855E+03  0.81589578856E+03  0.25500000920E-02 0.  1.
       -2   -1    0    0    0  501  0.00000000000E+00  0.00000000000E+00 -0.60315378439E+03  0.60315378439E+03  0.25500000920E-02 0. -1.
    10030    2    1    2    0    0  0.00000000000E+00  0.00000000000E+00  0.21274200417E+03  0.14190495730E+04  0.14030119494E+04 0.  0.
        3    1    3    3  502    0 -0.26612977761E+03 -0.50312739092E+03 -0.30837533302E+03  0.64734657351E+03  0.10100000352E+00 0. -1.
       -3    1    3    3    0  502  0.26612977761E+03  0.50312739092E+03  0.52111733719E+03  0.77170299944E+03  0.10100000352E+00 0.  1.
</event>
<event>
 5   0  0.4948645E-04  0.1496717E+04  0.7818609E-02  0.8886639E-01
       -2   -1    0    0    0  501  0.00000000000E+00  0.00000000000E+00  0.68009446817E+03  0.68009446818E+03  0.25500000920E-02 0. -1.
        2   -1    0    0  501    0  0.00000000000E+00  0.00000000000E+00 -0.82347398599E+03  0.82347398599E+03  0.25500000920E-02 0.  1.
    10030    2    1    2    0    0  0.00000000000E+00  0.00000000000E+00 -0.14337951782E+03  0.15035684542E+04  0.14967165431E+04 0.  0.
        1    1    3    3  502    0 -0.34545913261E+03  0.72811859359E+02  0.59117682312E+03  0.68857360927E+03  0.50400001928E-02 0. -1.
       -1    1    3    3    0  502  0.34545913261E+03 -0.72811859359E+02 -0.73455634094E+03  0.81499484490E+03  0.50400001928E-02 0.  1.
</event>
<event>
 5   0  0.2544374E-04  0.1516243E+04  0.7818609E-02  0.8873723E-01
        1   -1    0    0  501    0  0.00000000000E+00  0.00000000000E+00  0.51137794570E+03  0.51137794572E+03  0.50400001928E-02 0. -1.
       -1   -1    0    0    0  501  0.00000000000E+00  0.00000000000E+00 -0.11239200155E+04  0.11239200155E+04  0.50400001928E-02 0.  1.
    10030    2    1    2    0    0  0.00000000000E+00  0.00000000000E+00 -0.61254206983E+03  0.16352979613E+04  0.15162426042E+04 0.  0.
        4    1    3    3  502    0  0.32064469448E+03 -0.34879513011E+03 -0.94458289675E+03  0.10567447774E+04  0.12699999809E+01 0.  1.
       -4    1    3    3    0  502 -0.32064469448E+03  0.34879513011E+03  0.33204082692E+03  0.57855318383E+03  0.12699999809E+01 0. -1.
</event>
<event>
 5   0  0.4948645E-04  0.1484062E+04  0.7818609E-02  0.8895121E-01
        2   -1    0    0  501    0  0.00000000000E+00  0.00000000000E+00  0.51396764838E+03  0.51396764838E+03  0.25500000920E-02 0.  1.
       -2   -1    0    0    0  501  0.00000000000E+00  0.00000000000E+00 -0.10712926761E+04  0.10712926761E+04  0.25500000920E-02 0. -1.
    10030    2    1    2    0    0  0.00000000000E+00  0.00000000000E+00 -0.55732502771E+03  0.15852603245E+04  0.14840616934E+04 0.  0.
        1    1    3    3  502    0 -0.27061050562E+02 -0.93537820291E+02  0.50711337731E+03  0.51637738308E+03  0.50400001928E-02 0.  1.
       -1    1    3    3    0  502  0.27061050562E+02  0.93537820291E+02 -0.10644384050E+04  0.10688829414E+04  0.50400001928E-02 0. -1.
</event>
<event>
 5   0  0.4768387E-04  0.1429572E+04  0.7818609E-02  0.8932687E-01
       -2   -1    0    0    0  501  0.00000000000E+00  0.00000000000E+00  0.60082782360E+03  0.60082782360E+03  0.25500000920E-02 0. -1.
        2   -1    0    0  501    0  0.00000000000E+00  0.00000000000E+00 -0.85035842815E+03  0.85035842815E+03  0.25500000920E-02 0.  1.
    10030    2    1    2    0    0  0.00000000000E+00  0.00000000000E+00 -0.24953060455E+03  0.14511862518E+04  0.14295719690E+04 0.  0.
        3    1    3    3  502    0  0.45592613494E+03 -0.52480324653E+03 -0.29350705192E+03  0.75460816840E+03  0.10100000352E+00 0.  1.
       -3    1    3    3    0  502 -0.45592613494E+03  0.52480324653E+03  0.43976447367E+02  0.69657808336E+03  0.10100000352E+00 0. -1.
</event>
<event>
 5   0  0.2603873E-04  0.1496992E+04  0.7818609E-02  0.8886455E-01
       -1   -1    0    0    0  501  0.00000000000E+00  0.00000000000E+00  0.76019628873E+03  0.76019628875E+03  0.50400001928E-02 0.  1.
        1   -1    0    0  501    0  0.00000000000E+00  0.00000000000E+00 -0.73697605225E+03  0.73697605227E+03  0.50400001928E-02 0. -1.
    10030    2    1    2    0    0  0.00000000000E+00  0.00000000000E+00  0.23220236484E+02  0.14971723410E+04  0.14969922643E+04 0.  0.
        2    1    3    3  502    0 -0.10713494282E+03 -0.60490316395E+03  0.43928373474E+03  0.75521912935E+03  0.25500000920E-02 0.  1.
       -2    1    3    3    0  502  0.10713494282E+03  0.60490316395E+03 -0.41606349825E+03  0.74195321167E+03  0.25500000920E-02 0. -1.
</event>
<event>
 5   0  0.4768387E-04  0.1518346E+04  0.7818609E-02  0.8872344E-01
       -2   -1    0    0    0  501  0.00000000000E+00  0.00000000000E+00  0.79146364342E+03  0.79146364342E+03  0.25500000920E-02 0.  1.
        2   -1    0    0  501    0  0.00000000000E+00  0.00000000000E+00 -0.72819973302E+03  0.72819973303E+03  0.25500000920E-02 0. -1.
    10030    2    1    2    0    0  0.00000000000E+00  0.00000000000E+00  0.63263910392E+02  0.15196633764E+04  0.15183459604E+04 0.  0.
        3    1    3    3  502    0 -0.48157029238E+02  0.69910123807E+03 -0.26065218688E+03  0.74766383707E+03  0.10100000352E+00 0. -1.
       -3    1    3    3    0  502  0.48157029238E+02 -0.69910123807E+03  0.32391609727E+03  0.77199953938E+03  0.10100000352E+00 0.  1.
</event>
<event>
 5   0  0.2544374E-04  0.1542800E+04  0.7818609E-02  0.8856480E-01
       -1   -1    0    0    0  501  0.00000000000E+00  0.00000000000E+00  0.37789079898E+03  0.37789079902E+03  0.50400001928E-02 0.  1.
        1   -1    0    0  501    0  0.00000000000E+00  0.00000000000E+00 -0.15746828075E+04  0.15746828075E+04  0.50400001928E-02 0. -1.
    10030    2    1    2    0    0  0.00000000000E+00  0.00000000000E+00 -0.11967920085E+04  0.19525736066E+04  0.15428002389E+04 0.  0.
        4    1    3    3  502    0 -0.21192594957E+03 -0.12826062365E+03 -0.15229739410E+04  0.15429888637E+04  0.12699999809E+01 0. -1.
       -4    1    3    3    0  502  0.21192594957E+03  0.12826062365E+03  0.32618193241E+03  0.40958474289E+03  0.12699999809E+01 0.  1.
</event>
<event>
 5   0  0.1792000E-04  0.1502600E+04  0.7818609E-02  0.8882726E-01
       -4   -1    0    0    0  501  0.00000000000E+00  0.00000000000E+00  0.80000265718E+03  0.80000366523E+03  0.12699999809E+01 0. -1.
        4   -1    0    0  501    0  0.00000000000E+00  0.00000000000E+00 -0.70556052015E+03  0.70556166314E+03  0.12699999809E+01 0.  1.
    10030    2    1    2    0    0  0.00000000000E+00  0.00000000000E+00  0.94442137022E+02  0.15055653284E+04  0.15026002931E+04 0.  0.
        5    1    3    3  502    0 -0.31779306302E+03 -0.27988606054E+03 -0.57456868593E+03  0.71377860898E+03  0.46999998093E+01 0.  1.
       -5    1    3    3    0  502  0.31779306302E+03  0.27988606054E+03  0.66901082295E+03  0.79178671940E+03  0.46999998093E+01 0. -1.
</event>
<event>
 5   0  0.2544374E-04  0.1470641E+04  0.7818609E-02  0.8904214E-01
        1   -1    0    0  501    0  0.00000000000E+00  0.00000000000E+00  0.23906316214E+04  0.23906316214E+04  0.50400001928E-02 0. -1.
       -1   -1    0    0    0  501  0.00000000000E+00  0.00000000000E+00 -0.22617308672E+03  0.22617308677E+03  0.50400001928E-02 0.  1.
    10030    2    1    2    0    0  0.00000000000E+00  0.00000000000E+00  0.21644585347E+04  0.26168047082E+04  0.14706414017E+04 0.  0.
        4    1    3    3  502    0  0.18800005491E+03 -0.70272690827E+03  0.89119999905E+03  0.11503947929E+04  0.12699999809E+01 0. -1.
       -4    1    3    3    0  502 -0.18800005491E+03  0.70272690827E+03  0.12732585356E+04  0.14664099153E+04  0.12699999809E+01 0.  1.
</event>
<event>
 5   0  0.4948645E-04  0.1497344E+04  0.7818609E-02  0.8886221E-01
       -2   -1    0    0    0  501  0.00000000000E+00  0.00000000000E+00  0.72246542026E+03  0.72246542026E+03  0.25500000920E-02 0. -1.
        2   -1    0    0  501    0  0.00000000000E+00  0.00000000000E+00 -0.77582962081E+03  0.77582962082E+03  0.25500000920E-02 0.  1.
    10030    2    1    2    0    0  0.00000000000E+00  0.00000000000E+00 -0.53364200552E+02  0.14982950411E+04  0.14973444134E+04 0.  0.
        1    1    3    3  502    0 -0.52391456843E+03 -0.47200859951E+03  0.22493624914E+03  0.74018572617E+03  0.50400001928E-02 0. -1.
       -1    1    3    3    0  502  0.52391456843E+03  0.47200859951E+03 -0.27830044969E+03  0.75810931491E+03  0.50400001928E-02 0.  1.
</event>
<event>
 5   0  0.2542737E-04  0.1494801E+04  0.7818609E-02  0.8887917E-01
        1   -1    0    0  501    0  0.00000000000E+00  0.00000000000E+00  0.81452377846E+03  0.81452377847E+03  0.50400001928E-02 0. -1.
       -1   -1    0    0    0  501  0.00000000000E+00  0.00000000000E+00 -0.68580883025E+03  0.68580883027E+03  0.50400001928E-02 0.  1.
    10030    2    1    2    0    0  0.00000000000E+00  0.00000000000E+00  0.12871494821E+03  0.15003326087E+04  0.14948011236E+04 0.  0.
        1    1    3    3  502    0  0.18818360841E+02  0.51770171604E+03  0.60508884993E+03  0.79655615861E+03  0.50400001928E-02 0. -1.
       -1    1    3    3    0  502 -0.18818360841E+02 -0.51770171604E+03 -0.47637390172E+03  0.70377645013E+03  0.50400001928E-02 0.  1.
</event>
<event>
 5   0  0.2603873E-04  0.1498591E+04  0.7818609E-02  0.8885390E-01
        1   -1    0    0  501    0  0.00000000000E+00  0.00000000000E+00  0.29745763788E+03  0.29745763792E+03  0.50400001928E-02 0.  1.
       -1   -1    0    0    0  501  0.00000000000E+00  0.00000000000E+00 -0.18874752846E+04  0.18874752847E+04  0.50400001928E-02 0. -1.
    10030    2    1    2    0    0  0.00000000000E+00  0.00000000000E+00 -0.15900176468E+04  0.21849329226E+04  0.14985912582E+04 0.  0.
        2    1    3    3  502    0  0.26175245412E+03 -0.15376276928E+03 -0.17937983786E+04  0.18193048012E+04  0.25500000920E-02 0. -1.
       -2    1    3    3    0  502 -0.26175245412E+03  0.15376276928E+03  0.20378073187E+03  0.36562812137E+03  0.25500000920E-02 0.  1.
</event>
<event>
 5   0  0.4726600E-04  0.1494133E+04  0.7818609E-02  0.8888364E-01
        2   -1    0    0  501    0  0.00000000000E+00  0.00000000000E+00  0.13260463264E+04  0.13260463264E+04  0.25500000920E-02 0.  1.
       -2   -1    0    0    0  501  0.00000000000E+00  0.00000000000E+00 -0.42088168062E+03  0.42088168063E+03  0.25500000920E-02 0. -1.
    10030    2    1    2    0    0  0.00000000000E+00  0.00000000000E+00  0.90516464578E+03  0.17469280070E+04  0.14941333360E+04 0.  0.
        2    1    3    3  502    0  0.17004025166E+03  0.70470844430E+03  0.66362358510E+03  0.98281429648E+03  0.25500000920E-02 0.  1.
       -2    1    3    3    0  502 -0.17004025166E+03 -0.70470844430E+03  0.24154106067E+03  0.76411371055E+03  0.25500000920E-02 0. -1.
</event>
<event>
 5   0  0.4726600E-04  0.1497209E+04  0.7818609E-02  0.8886311E-01
       -2   -1    0    0    0  501  0.00000000000E+00  0.00000000000E+00  0.52590890745E+03  0.52590890746E+03  0.25500000920E-02 0. -1.
        2   -1    0    0  501    0  0.00000000000E+00  0.00000000000E+00 -0.10656003802E+04  0.10656003802E+04  0.25500000920E-02 0.  1.
    10030    2    1    2    0    0  0.00000000000E+00  0.00000000000E+00 -0.53969147278E+03  0.15915092877E+04  0.14972090459E+04 0.  0.
        2    1    3    3  502    0  0.23077300271E+03  0.64393712328E+03 -0.59313539517E+03  0.90538433525E+03  0.25500000920E-02 0.  1.
       -2    1    3    3    0  502 -0.23077300271E+03 -0.64393712328E+03  0.53443922391E+02  0.68612495244E+03  0.25500000920E-02 0. -1.
</event>
<event>
 5   0  0.4569211E-04  0.1501834E+04  0.7818609E-02  0.8883234E-01
        2   -1    0    0  501    0  0.00000000000E+00  0.00000000000E+00  0.13896945085E+04  0.13896945085E+04  0.25500000920E-02 0. -1.
       -2   -1    0    0    0  501  0.00000000000E+00  0.00000000000E+00 -0.40575556632E+03  0.40575556633E+03  0.25500000920E-02 0.  1.
    10030    2    1    2    0    0  0.00000000000E+00  0.00000000000E+00  0.98393894219E+03  0.17954500748E+04  0.15018339220E+04 0.  0.
        5    1    3    3  502    0 -0.70400904574E+02 -0.60187710269E+03  0.10221080489E+04  0.11882505155E+04  0.46999998093E+01 0. -1.
       -5    1    3    3    0  502  0.70400904574E+02  0.60187710269E+03 -0.38169106685E+02  0.60719955930E+03  0.46999998093E+01 0.  1.
</event>
<event>
 5   0  0.4948645E-04  0.1481945E+04  0.7818609E-02  0.8896549E-01
        2   -1    0    0  501    0  0.00000000000E+00  0.00000000000E+00  0.52441762306E+03  0.52441762307E+03  0.25500000920E-02 0.  1.
       -2   -1    0    0    0  501  0.00000000000E+00  0.00000000000E+00 -0.10469527750E+04  0.10469527750E+04  0.25500000920E-02 0. -1.
    10030    2    1    2    0    0  0.00000000000E+00  0.00000000000E+00 -0.52253515193E+03  0.15713703981E+04  0.14819453239E+04 0.  0.
        1    1    3    3  502    0 -0.22973407543E+03  0.76662454451E+02  0.48126454415E+03  0.53876751834E+03  0.50400001928E-02 0.  1.
       -1    1    3    3    0  502  0.22973407543E+03 -0.76662454451E+02 -0.10037996961E+04  0.10326028797E+04  0.50400001928E-02 0. -1.
</event>
<event>
 5   0  0.2605471E-04  0.1497672E+04  0.7818609E-02  0.8886003E-01
        1   -1    0    0  501    0  0.00000000000E+00  0.00000000000E+00  0.70679076288E+03  0.70679076289E+03  0.50400001928E-02 0.  1.
       -1   -1    0    0    0  501  0.00000000000E+00  0.00000000000E+00 -0.79338228250E+03  0.79338228252E+03  0.50400001928E-02 0. -1.
    10030    2    1    2    0    0  0.00000000000E+00  0.00000000000E+00 -0.86591519624E+02  0.15001730454E+04  0.14976718849E+04 0.  0.
        3    1    3    3  502    0 -0.41088822282E+03 -0.14820039762E+03  0.56596567867E+03  0.71491933051E+03  0.10100000352E+00 0.  1.
       -3    1    3    3    0  502  0.41088822282E+03  0.14820039762E+03 -0.65255719830E+03  0.78525371489E+03  0.10100000352E+00 0. -1.
</event>
<event>
 5   0  0.4785496E-04  0.1498353E+04  0.7818609E-02  0.8885549E-01
        2   -1    0    0  501    0  0.00000000000E+00  0.00000000000E+00  0.10018441109E+04  0.10018441109E+04  0.25500000920E-02 0. -1.
       -2   -1    0    0    0  501  0.00000000000E+00  0.00000000000E+00 -0.56023241525E+03  0.56023241526E+03  0.25500000920E-02 0.  1.
    10030    2    1    2    0    0  0.00000000000E+00  0.00000000000E+00  0.44161169566E+03  0.15620765262E+04  0.14983531573E+04 0.  0.
        4    1    3    3  502    0 -0.66855123668E+03  0.16450529504E+03 -0.87121950368E+02  0.69398457857E+03  0.12699999809E+01 0.  1.
       -4    1    3    3    0  502  0.66855123668E+03 -0.16450529504E+03  0.52873364603E+03  0.86809194761E+03  0.12699999809E+01 0. -1.
</event>
<event>
 5   0  0.4569211E-04  0.1498563E+04  0.7818609E-02  0.8885409E-01
        2   -1    0    0  501    0  0.00000000000E+00  0.00000000000E+00  0.84008105546E+03  0.84008105546E+03  0.25500000920E-02 0. -1.
       -2   -1    0    0    0  501  0.00000000000E+00  0.00000000000E+00 -0.66829608813E+03  0.66829608814E+03  0.25500000920E-02 0.  1.
    10030    2    1    2    0    0  0.00000000000E+00  0.00000000000E+00  0.17178496732E+03  0.15083771436E+04  0.14985631559E+04 0.  0.
        5    1    3    3  502    0 -0.59405286561E+02  0.58900513104E+03 -0.37640258808E+03  0.70153904437E+03  0.46999998093E+01 0.  1.
       -5    1    3    3    0  502  0.59405286561E+02 -0.58900513104E+03  0.54818755541E+03  0.80683809923E+03  0.46999998093E+01 0. -1.
</event>
<event>
 5   0  0.4768387E-04  0.1610582E+04  0.7818609E-02  0.8814073E-01
        2   -1    0    0  501    0  0.00000000000E+00  0.00000000000E+00  0.82481408547E+03  0.82481408547E+03  0.25500000920E-02 0.  1.
       -2   -1    0    0    0  501  0.00000000000E+00  0.00000000000E+00 -0.78623007266E+03  0.78623007266E+03  0.25500000920E-02 0. -1.
    10030    2    1    2    0    0  0.00000000000E+00  0.00000000000E+00  0.38584012812E+02  0.16110441581E+04  0.16105820542E+04 0.  0.
        3    1    3    3  502    0  0.45123757259E+03 -0.34330485765E+03  0.59131275631E+03  0.81922180035E+03  0.10100000352E+00 0. -1.
       -3    1    3    3    0  502 -0.45123757259E+03  0.34330485765E+03 -0.55272874350E+03  0.79182235778E+03  0.10100000352E+00 0.  1.
</event>
<event>
 5   0  0.2542737E-04  0.1482003E+04  0.7818609E-02  0.8896510E-01
       -1   -1    0    0    0  501  0.00000000000E+00  0.00000000000E+00  0.41183161649E+03  0.41183161652E+03  0.50400001928E-02 0.  1.
        1   -1    0    0  501    0  0.00000000000E+00  0.00000000000E+00 -0.13332716000E+04  0.13332716001E+04  0.50400001928E-02 0. -1.
    10030    2    1    2    0    0  0.00000000000E+00  0.00000000000E+00 -0.92143998355E+03  0.17451032166E+04  0.14820032366E+04 0.  0.
        1    1    3    3  502    0  0.31859374228E+03  0.62660252361E+03 -0.18468852475E+03  0.72680296257E+03  0.50400001928E-02 0. -1.
       -1    1    3    3    0  502 -0.31859374228E+03 -0.62660252361E+03 -0.73675145881E+03  0.10183002540E+04  0.50400001928E-02 0.  1.
</event>
<event>
 5   0  0.1792000E-04  0.1494685E+04  0.7818609E-02  0.8887995E-01
        4   -1    0    0  501    0  0.00000000000E+00  0.00000000000E+00  0.14322592386E+04  0.14322598017E+04  0.12699999809E+01 0.  1.
       -4   -1    0    0    0  501  0.00000000000E+00  0.00000000000E+00 -0.38995603114E+03  0.38995809919E+03  0.12699999809E+01 0. -1.
    10030    2    1    2    0    0  0.00000000000E+00  0.00000000000E+00  0.10423032074E+04  0.18222179008E+04  0.14946846162E+04 0.  0.
        1    1    3    3  502    0  0.39025247727E+03 -0.36442980951E+03  0.11586241273E+04  0.12757413337E+04  0.50400001928E-02 0.  1.
       -1    1    3    3    0  502 -0.39025247727E+03  0.36442980951E+03 -0.11632091983E+03  0.54647656719E+03  0.50400001928E-02 0. -1.
</event>
<event>
 5   0  0.2603873E-04  0.1548843E+04  0.7818609E-02  0.8852607E-01
       -1   -1    0    0    0  501  0.00000000000E+00  0.00000000000E+00  0.86636754829E+03  0.86636754830E+03  0.50400001928E-02 0.  1.
        1   -1    0    0  501    0  0.00000000000E+00  0.00000000000E+00 -0.69223393243E+03  0.69223393245E+03  0.50400001928E-02 0. -1.
    10030    2    1    2    0    0  0.00000000000E+00  0.00000000000E+00  0.17413361585E+03  0.15586014808E+04  0.15488434587E+04 0.  0.
        2    1    3    3  502    0 -0.32658731289E+03 -0.49394828509E+03 -0.41516151511E+03  0.72318964658E+03  0.25500000920E-02 0. -1.
       -2    1    3    3    0  502  0.32658731289E+03  0.49394828509E+03  0.58929513097E+03  0.83541183417E+03  0.25500000920E-02 0.  1.
</event>
<event>
 5   0  0.4726600E-04  0.1498178E+04  0.7818609E-02  0.8885665E-01
        2   -1    0    0  501    0  0.00000000000E+00  0.00000000000E+00  0.86447372129E+03  0.86447372130E+03  0.25500000920E-02 0. -1.
       -2   -1    0    0    0  501  0.00000000000E+00  0.00000000000E+00 -0.64910547281E+03  0.64910547281E+03  0.25500000920E-02 0.  1.
    10030    2    1    2    0    0  0.00000000000E+00  0.00000000000E+00  0.21536824849E+03  0.15135791941E+04  0.14981783920E+04 0.  0.
        2    1    3    3  502    0 -0.62488167169E+03 -0.15831224391E+03  0.49317533699E+03  0.81164141295E+03  0.25500000920E-02 0. -1.
       -2    1    3    3    0  502  0.62488167169E+03  0.15831224391E+03 -0.27780708851E+03  0.70193778116E+03  0.25500000920E-02 0.  1.
</event>
<event>
 5   0  0.4785496E-04  0.1497715E+04  0.7818609E-02  0.8885974E-01
       -2   -1    0    0    0  501  0.00000000000E+00  0.00000000000E+00  0.58051741646E+03  0.58051741646E+03  0.25500000920E-02 0. -1.
        2   -1    0    0  501    0  0.00000000000E+00  0.00000000000E+00 -0.96601314590E+03  0.96601314590E+03  0.25500000920E-02 0.  1.
    10030    2    1    2    0    0  0.00000000000E+00  0.00000000000E+00 -0.38549572944E+03  0.15465305624E+04  0.14977148670E+04 0.  0.
        4    1    3    3  502    0  0.48250052057E+03 -0.70829927804E+02 -0.77956828950E+03  0.91953899423E+03  0.12699999809E+01 0.  1.
       -4    1    3    3    0  502 -0.48250052057E+03  0.70829927804E+02  0.39407256006E+03  0.62699156813E+03  0.12699999809E+01 0. -1.
</event>
<event>
 5   0  0.4569211E-04  0.1465849E+04  0.7818609E-02  0.8907486E-01
        2   -1    0    0  501    0  0.00000000000E+00  0.00000000000E+00  0.14050123766E+04  0.14050123766E+04  0.25500000920E-02 0.  1.
       -2   -1    0    0    0  501  0.00000000000E+00  0.00000000000E+00 -0.38232986595E+03  0.38232986596E+03  0.25500000920E-02 0. -1.
    10030    2    1    2    0    0  0.00000000000E+00  0.00000000000E+00  0.10226825106E+04  0.17873422425E+04  0.14658488239E+04 0.  0.
        5    1    3    3  502    0 -0.40113104280E+03 -0.11506931200E+03 -0.22330329137E+03  0.47332178272E+03  0.46999998093E+01 0. -1.
       -5    1    3    3    0  502  0.40113104280E+03  0.11506931200E+03  0.12459858020E+04  0.13140204598E+04  0.46999998093E+01 0.  1.
</event>
<event>
 5   0  0.2544374E-04  0.1526590E+04  0.7818609E-02  0.8866961E-01
        1   -1    0    0  501    0  0.00000000000E+00  0.00000000000E+00  0.17048710121E+04  0.17048710121E+04  0.50400001928E-02 0. -1.
       -1   -1    0    0    0  501  0.00000000000E+00  0.00000000000E+00 -0.34173796383E+03  0.34173796386E+03  0.50400001928E-02 0.  1.
    10030    2    1    2    0    0  0.00000000000E+00  0.00000000000E+00  0.13631330483E+04  0.20466089759E+04  0.15265898576E+04 0.  0.
        4    1    3    3  502    0 -0.54018961157E+02 -0.48007181467E+03 -0.11069508115E+03  0.49562284986E+03  0.12699999809E+01 0.  1.
       -4    1    3    3    0  502  0.54018961157E+02  0.48007181467E+03  0.14738281294E+04  0.15509861261E+04  0.12699999809E+01 0. -1.
</event>
<event>
 5   0  0.2544374E-04  0.1497100E+04  0.7818609E-02  0.8886384E-01
        1   -1    0    0  501    0  0.00000000000E+00  0.00000000000E+00  0.67138025977E+03  0.67138025979E+03  0.50400001928E-02 0.  1.
       -1   -1    0    0    0  501  0.00000000000E+00  0.00000000000E+00 -0.83458962660E+03  0.83458962662E+03  0.50400001928E-02 0. -1.
    10030    2    1    2    0    0  0.00000000000E+00  0.00000000000E+00 -0.16320936683E+03  0.15059698864E+04  0.14970998635E+04 0.  0.
        4    1    3    3  502    0 -0.51643947983E+03 -0.21087475757E+03  0.42049942289E+03  0.69856945056E+03  0.12699999809E+01 0.  1.
       -4    1    3    3    0  502  0.51643947983E+03  0.21087475757E+03 -0.58370878972E+03  0.80740043585E+03  0.12699999809E+01 0. -1.
</event>
<event>
 5   0  0.4726600E-04  0.1502830E+04  0.7818609E-02  0.8882573E-01
       -2   -1    0    0    0  501  0.00000000000E+00  0.00000000000E+00  0.25523356861E+03  0.25523356863E+03  0.25500000920E-02 0. -1.
        2   -1    0    0  501    0  0.00000000000E+00  0.00000000000E+00 -0.22121881351E+04  0.22121881351E+04  0.25500000920E-02 0.  1.
    10030    2    1    2    0    0  0.00000000000E+00  0.00000000000E+00 -0.19569545665E+04  0.24674217037E+04  0.15028302262E+04 0.  0.
        2    1    3    3  502    0  0.29435495274E+03  0.96226602140E+01  0.15652353790E+03  0.33352219074E+03  0.25500000920E-02 0. -1.
       -2    1    3    3    0  502 -0.29435495274E+03 -0.96226602140E+01 -0.21134781044E+04  0.21338995130E+04  0.25500000920E-02 0.  1.
</event>
<event>
 5   0  0.4948645E-04  0.1497432E+04  0.7818609E-02  0.8886162E-01
       -2   -1    0    0    0  501  0.00000000000E+00  0.00000000000E+00  0.68006957870E+03  0.68006957871E+03  0.25500000920E-02 0.  1.
        2   -1    0    0  501    0  0.00000000000E+00  0.00000000000E+00 -0.82429204498E+03  0.82429204498E+03  0.25500000920E-02 0. -1.
    10030    2    1    2    0    0  0.00000000000E+00  0.00000000000E+00 -0.14422246627E+03  0.15043616237E+04  0.14974323941E+04 0.  0.
        1    1    3    3  502    0  0.18148957897E+03  0.24409341893E+03  0.61520068447E+03  0.68628853016E+03  0.50400001928E-02 0.  1.
       -1    1    3    3    0  502 -0.18148957897E+03 -0.24409341893E+03 -0.75942315074E+03  0.81807309352E+03  0.50400001928E-02 0. -1.
</event>
<event>
 5   0  0.4948645E-04  0.1496146E+04  0.7818609E-02  0.8887020E-01
        2   -1    0    0  501    0  0.00000000000E+00  0.00000000000E+00  0.16314544665E+04  0.16314544665E+04  0.25500000920E-02 0.  1.
       -2   -1    0    0    0  501  0.00000000000E+00  0.00000000000E+00 -0.34301507865E+03  0.34301507866E+03  0.25500000920E-02 0. -1.
    10030    2    1    2    0    0  0.00000000000E+00  0.00000000000E+00  0.12884393878E+04  0.19744695452E+04  0.14961463594E+04 0.  0.
        1    1    3    3  502    0  0.70487630215E+03 -0.24197166030E+03  0.72987441119E+03  0.10431287274E+04  0.50400001928E-02 0.  1.
       -1    1    3    3    0  502 -0.70487630215E+03  0.24197166030E+03  0.55856497666E+03  0.93134081779E+03  0.50400001928E-02 0. -1.
</event>
<event>
 5   0  0.2603873E-04  0.1491063E+04  0.7818609E-02  0.8890418E-01
        1   -1    0    0  501    0  0.00000000000E+00  0.00000000000E+00  0.89477197296E+03  0.89477197298E+03  0.50400001928E-02 0.  1.
       -1   -1    0    0    0  501  0.00000000000E+00  0.00000000000E+00 -0.62118317142E+03  0.62118317144E+03  0.50400001928E-02 0. -1.
    10030    2    1    2    0    0  0.00000000000E+00  0.00000000000E+00  0.27358880154E+03  0.15159551444E+04  0.14910630998E+04 0.  0.
        2    1    3    3  502    0  0.52732681898E+03  0.23433790638E+03  0.61672300586E+03  0.84459167315E+03  0.25500000920E-02 0.  1.
       -2    1    3    3    0  502 -0.52732681898E+03 -0.23433790638E+03 -0.34313420432E+03  0.67136347128E+03  0.25500000920E-02 0. -1.
</event>
<event>
 5   0  0.4569211E-04  0.1502218E+04  0.7818609E-02  0.8882979E-01
       -2   -1    0    0    0  501  0.00000000000E+00  0.00000000000E+00  0.11938510205E+04  0.11938510205E+04  0.25500000920E-02 0. -1.
        2   -1    0    0  501    0  0.00000000000E+00  0.00000000000E+00 -0.47255887826E+03  0.47255887826E+03  0.25500000920E-02 0.  1.
    10030    2    1    2    0    0  0.00000000000E+00  0.00000000000E+00  0.72129214222E+03  0.16664098987E+04  0.15022182252E+04 0.  0.
        5    1    3    3  502    0  0.83999603885E+02 -0.72610835404E+03  0.16897936326E+03  0.75024355410E+03  0.46999998093E+01 0.  1.
       -5    1    3    3    0  502 -0.83999603885E+02  0.72610835404E+03  0.55231277895E+03  0.91616634464E+03  0.46999998093E+01 0. -1.
</event>
<event>
 5   0  0.2544374E-04  0.1495535E+04  0.7818609E-02  0.8887428E-01
       -1   -1    0    0    0  501  0.00000000000E+00  0.00000000000E+00  0.13273438697E+04  0.13273438697E+04  0.50400001928E-02 0. -1.
        1   -1    0    0  501    0  0.00000000000E+00  0.00000000000E+00 -0.42125933047E+03  0.42125933050E+03  0.50400001928E-02 0.  1.
    10030    2    1    2    0    0  0.00000000000E+00  0.00000000000E+00  0.90608453927E+03  0.17486032002E+04  0.14955346735E+04 0.  0.
        4    1    3    3  502    0  0.50782490677E+03 -0.33960339783E+03  0.95721412159E+03  0.11355514481E+04  0.12699999809E+01 0. -1.
       -4    1    3    3    0  502 -0.50782490677E+03  0.33960339783E+03 -0.51129582323E+02  0.61305175217E+03  0.12699999809E+01 0.  1.
</event>
<event>
 5   0  0.2542737E-04  0.1493564E+04  0.7818609E-02  0.8888744E-01
       -1   -1    0    0    0  501  0.00000000000E+00  0.00000000000E+00  0.60130081158E+03  0.60130081160E+03  0.50400001928E-02 0.  1.
        1   -1    0    0  501    0  0.00000000000E+00  0.00000000000E+00 -0.92746113609E+03  0.92746113610E+03  0.50400001928E-02 0. -1.
    10030    2    1    2    0    0  0.00000000000E+00  0.00000000000E+00 -0.32616032451E+03  0.15287619477E+04  0.14935637032E+04 0.  0.
        1    1    3    3  502    0 -0.62513217996E+03 -0.39550139032E+03 -0.26782229828E+03  0.78672763752E+03  0.50400001928E-02 0. -1.
       -1    1    3    3    0  502  0.62513217996E+03  0.39550139032E+03 -0.58338026225E+02  0.74203431018E+03  0.50400001928E-02 0.  1.
</event>
<event>
 5   0  0.2542737E-04  0.1488482E+04  0.7818609E-02  0.8892149E-01
       -1   -1    0    0    0  501  0.00000000000E+00  0.00000000000E+00  0.38637677569E+03  0.38637677572E+03  0.50400001928E-02 0.  1.
        1   -1    0    0  501    0  0.00000000000E+00  0.00000000000E+00 -0.14335606570E+04  0.14335606570E+04  0.50400001928E-02 0. -1.
    10030    2    1    2    0    0  0.00000000000E+00  0.00000000000E+00 -0.10471838813E+04  0.18199374327E+04  0.14884818365E+04 0.  0.
        1    1    3    3  502    0 -0.45643205368E+02  0.17033046186E+03 -0.14076488023E+04  0.14186510914E+04  0.50400001928E-02 0. -1.
       -1    1    3    3    0  502  0.45643205368E+02 -0.17033046186E+03  0.36046492101E+03  0.40128634133E+03  0.50400001928E-02 0.  1.
</event>
<event>
 5   0  0.2603873E-04  0.1514507E+04  0.7818609E-02  0.8874863E-01
       -1   -1    0    0    0  501  0.00000000000E+00  0.00000000000E+00  0.29263477126E+03  0.29263477131E+03  0.50400001928E-02 0. -1.
        1   -1    0    0  501    0  0.00000000000E+00  0.00000000000E+00 -0.19595512000E+04  0.19595512000E+04  0.50400001928E-02 0.  1.
    10030    2    1    2    0    0  0.00000000000E+00  0.00000000000E+00 -0.16669164288E+04  0.22521859713E+04  0.15145069392E+04 0.  0.
        2    1    3    3  502    0 -0.57760495645E+03 -0.25106726937E+03 -0.14586855356E+04  0.15888441557E+04  0.25500000920E-02 0.  1.
       -2    1    3    3    0  502  0.57760495645E+03  0.25106726937E+03 -0.20823089319E+03  0.66334181562E+03  0.25500000920E-02 0. -1.
</event>
<event>
 5   0  0.2542737E-04  0.1497751E+04  0.7818609E-02  0.8885950E-01
        1   -1    0    0  501    0  0.00000000000E+00  0.00000000000E+00  0.10738606222E+04  0.10738606222E+04  0.50400001928E-02 0.  1.
       -1   -1    0    0    0  501  0.00000000000E+00  0.00000000000E+00 -0.52224138164E+03  0.52224138166E+03  0.50400001928E-02 0. -1.
    10030    2    1    2    0    0  0.00000000000E+00  0.00000000000E+00  0.55161924057E+03  0.15961020039E+04  0.14977509206E+04 0.  0.
        1    1    3    3  502    0  0.57218018155E+03 -0.39977475057E+03 -0.13307004317E+02  0.69813113936E+03  0.50400001928E-02 0. -1.
       -1    1    3    3    0  502 -0.57218018155E+03  0.39977475057E+03  0.56492624489E+03  0.89797086453E+03  0.50400001928E-02 0.  1.
</event>
<event>
 5   0  0.4768387E-04  0.1514564E+04  0.7818609E-02  0.8874826E-01
       -2   -1    0    0    0  501  0.00000000000E+00  0.00000000000E+00  0.36846934427E+03  0.36846934428E+03  0.25500000920E-02 0. -1.
        2   -1    0    0  501    0  0.00000000000E+00  0.00000000000E+00 -0.15563733053E+04  0.15563733053E+04  0.25500000920E-02 0.  1.
    10030    2    1    2    0    0  0.00000000000E+00  0.00000000000E+00 -0.11879039610E+04  0.19248426496E+04  0.15145637672E+04 0.  0.
        3    1    3    3  502    0 -0.41216129451E+03  0.62474945886E+03 -0.44745742068E+03  0.87201317224E+03  0.10100000352E+00 0. -1.
       -3    1    3    3    0  502  0.41216129451E+03 -0.62474945886E+03 -0.74044654037E+03  0.10528294773E+04  0.10100000352E+00 0.  1.
</event>
<event>
 5   0  0.2605471E-04  0.1483899E+04  0.7818609E-02  0.8895231E-01
       -1   -1    0    0    0  501  0.00000000000E+00  0.00000000000E+00  0.28165456324E+03  0.28165456329E+03  0.50400001928E-02 0.  1.
        1   -1    0    0  501    0  0.00000000000E+00  0.00000000000E+00 -0.19544817359E+04  0.19544817359E+04  0.50400001928E-02 0. -1.
    10030    2    1    2    0    0  0.00000000000E+00  0.00000000000E+00 -0.16728271726E+04  0.22361362992E+04  0.14838985137E+04 0.  0.
        3    1    3    3  502    0  0.36383952230E+03 -0.64659097170E+03 -0.82821403178E+03  0.11119341596E+04  0.10100000352E+00 0.  1.
       -3    1    3    3    0  502 -0.36383952230E+03  0.64659097170E+03 -0.84461314084E+03  0.11242021395E+04  0.10100000352E+00 0. -1.
</event>
<event>
 5   0  0.4785496E-04  0.1508009E+04  0.7818609E-02  0.8879145E-01
        2   -1    0    0  501    0  0.00000000000E+00  0.00000000000E+00  0.98630954917E+03  0.98630954917E+03  0.25500000920E-02 0.  1.
       -2   -1    0    0    0  501  0.00000000000E+00  0.00000000000E+00 -0.57641399703E+03  0.57641399704E+03  0.25500000920E-02 0. -1.
    10030    2    1    2    0    0  0.00000000000E+00  0.00000000000E+00  0.40989555214E+03  0.15627235462E+04  0.15080087925E+04 0.  0.
        4    1    3    3  502    0 -0.74593288694E+03  0.10813060794E+03  0.22600540090E+03  0.78688509601E+03  0.12699999809E+01 0. -1.
       -4    1    3    3    0  502  0.74593288694E+03 -0.10813060794E+03  0.18389015124E+03  0.77583845020E+03  0.12699999809E+01 0.  1.
</event>
<event>
 5   0  0.4768387E-04  0.1517733E+04  0.7818609E-02  0.8872745E-01
        2   -1    0    0  501    0  0.00000000000E+00  0.00000000000E+00  0.71024573799E+03  0.71024573800E+03  0.25500000920E-02 0.  1.
       -2   -1    0    0    0  501  0.00000000000E+00  0.00000000000E+00 -0.81081589626E+03  0.81081589626E+03  0.25500000920E-02 0. -1.
    10030    2    1    2    0    0  0.00000000000E+00  0.00000000000E+00 -0.10057015827E+03  0.15210616343E+04  0.15177332238E+04 0.  0.
        3    1    3    3  502    0 -0.40388625169E+03 -0.60280016667E+03 -0.27300289780E+03  0.77525656247E+03  0.10100000352E+00 0. -1.
       -3    1    3    3    0  502  0.40388625169E+03  0.60280016667E+03  0.17243273953E+03  0.74580507179E+03  0.10100000352E+00 0.  1.
</event>
<event>
 5   0  0.4726600E-04  0.1498159E+04  0.7818609E-02  0.8885678E-01
        2   -1    0    0  501    0  0.00000000000E+00  0.00000000000E+00  0.90485312414E+03  0.90485312415E+03  0.25500000920E-02 0.  1.
       -2   -1    0    0    0  501  0.00000000000E+00  0.00000000000E+00 -0.62012272517E+03  0.62012272517E+03  0.25500000920E-02 0. -1.
    10030    2    1    2    0    0  0.00000000000E+00  0.00000000000E+00  0.28473039898E+03  0.15249758493E+04  0.14981588504E+04 0.  0.
        2    1    3    3  502    0 -0.34539088033E+03  0.17005515162E+02  0.81874110819E+03  0.88877502778E+03  0.25500000920E-02 0.  1.
       -2    1    3    3    0  502  0.34539088033E+03 -0.17005515162E+02 -0.53401070921E+03  0.63620082154E+03  0.25500000920E-02 0. -1.
</event>
<event>
 5   0  0.2565416E-04  0.1486773E+04  0.7818609E-02  0.8893296E-01
        1   -1    0    0  501    0  0.00000000000E+00  0.00000000000E+00  0.56058113428E+03  0.56058113430E+03  0.50400001928E-02 0.  1.
       -1   -1    0    0    0  501  0.00000000000E+00  0.00000000000E+00 -0.98580505815E+03  0.98580505816E+03  0.50400001928E-02 0. -1.
    10030    2    1    2    0    0  0.00000000000E+00  0.00000000000E+00 -0.42522392387E+03  0.15463861925E+04  0.14867733085E+04 0.  0.
        5    1    3    3  502    0  0.35262180825E+03 -0.33460929321E+03  0.37233990600E+03  0.61234354275E+03  0.46999998093E+01 0.  1.
       -5    1    3    3    0  502 -0.35262180825E+03  0.33460929321E+03 -0.79756382988E+03  0.93404264971E+03  0.46999998093E+01 0. -1.
</event>
<event>
 5   0  0.2542737E-04  0.1499248E+04  0.7818609E-02  0.8884953E-01
       -1   -1    0    0    0  501  0.00000000000E+00  0.00000000000E+00  0.68075582185E+03  0.68075582187E+03  0.50400001928E-02 0.  1.
        1   -1    0    0  501    0  0.00000000000E+00  0.00000000000E+00 -0.82545970132E+03  0.82545970133E+03  0.50400001928E-02 0. -1.
    10030    2    1    2    0    0  0.00000000000E+00  0.00000000000E+00 -0.14470387947E+03  0.15062155232E+04  0.14992484749E+04 0.  0.
        1    1    3    3  502    0 -0.35223577973E+03  0.46902020944E+03 -0.54130422953E+03  0.79816055423E+03  0.50400001928E-02 0. -1.
       -1    1    3    3    0  502  0.35223577973E+03 -0.46902020944E+03  0.39660035007E+03  0.70805496897E+03  0.50400001928E-02 0.  1.
</event>
<event>
 5   0  0.4785496E-04  0.1507159E+04  0.7818609E-02  0.8879706E-01
       -2   -1    0    0    0  501  0.00000000000E+00  0.00000000000E+00  0.34076714517E+03  0.34076714518E+03  0.25500000920E-02 0.  1.
        2   -1    0    0  501    0  0.00000000000E+00  0.00000000000E+00 -0.16664802320E+04  0.16664802320E+04  0.25500000920E-02 0. -1.
    10030    2    1    2    0    0  0.00000000000E+00  0.00000000000E+00 -0.13257130868E+04  0.20072473772E+04  0.15071585333E+04 0.  0.
        4    1    3    3  502    0  0.15952954543E+03 -0.72703978634E+03 -0.81955547513E+03  0.11071175712E+04  0.12699999809E+01 0.  1.
       -4    1    3    3    0  502 -0.15952954543E+03  0.72703978634E+03 -0.50615761167E+03  0.90012980594E+03  0.12699999809E+01 0. -1.
</event>
<event>
 5   0  0.4785496E-04  0.1505523E+04  0.7818609E-02  0.8880789E-01
       -2   -1    0    0    0  501  0.00000000000E+00  0.00000000000E+00  0.33979615841E+03  0.33979615842E+03  0.25500000920E-02 0. -1.
        2   -1    0    0  501    0  0.00000000000E+00  0.00000000000E+00 -0.16676164097E+04  0.16676164097E+04  0.25500000920E-02 0.  1.
    10030    2    1    2    0    0  0.00000000000E+00  0.00000000000E+00 -0.13278202513E+04  0.20074125681E+04  0.15055226996E+04 0.  0.
        4    1    3    3  502    0 -0.62017756475E+03 -0.31495727115E+01 -0.95048829050E+02  0.62742810299E+03  0.12699999809E+01 0. -1.
       -4    1    3    3    0  502  0.62017756475E+03  0.31495727115E+01 -0.12327714222E+04  0.13799844651E+04  0.12699999809E+01 0.  1.
</event>
<event>
 5   0  0.4569211E-04  0.1516363E+04  0.7818609E-02  0.8873644E-01
        2   -1    0    0  501    0  0.00000000000E+00  0.00000000000E+00  0.10967009203E+04  0.10967009203E+04  0.25500000920E-02 0.  1.
       -2   -1    0    0    0  501  0.00000000000E+00  0.00000000000E+00 -0.52415339863E+03  0.52415339863E+03  0.25500000920E-02 0. -1.
    10030    2    1    2    0    0  0.00000000000E+00  0.00000000000E+00  0.57254752167E+03  0.16208543189E+04  0.15163634322E+04 0.  0.
        5    1    3    3  502    0  0.25827426046E+03 -0.61080393513E+03 -0.10651262908E+03  0.67168003613E+03  0.46999998093E+01 0.  1.
       -5    1    3    3    0  502 -0.25827426046E+03  0.61080393513E+03  0.67906015075E+03  0.94917428280E+03  0.46999998093E+01 0. -1.
</event>
<event>
 5   0  0.4768387E-04  0.1503266E+04  0.7818609E-02  0.8882284E-01
       -2   -1    0    0    0  501  0.00000000000E+00  0.00000000000E+00  0.19390307064E+03  0.19390307065E+03  0.25500000920E-02 0.  1.
        2   -1    0    0  501    0  0.00000000000E+00  0.00000000000E+00 -0.29135813960E+04  0.29135813960E+04  0.25500000920E-02 0. -1.
    10030    2    1    2    0    0  0.00000000000E+00  0.00000000000E+00 -0.27196783254E+04  0.31074844667E+04  0.15032662828E+04 0.  0.
        3    1    3    3  502    0  0.47563883344E+03  0.38039224185E+03 -0.44930063400E+03  0.75683659230E+03  0.10100000352E+00 0.  1.
       -3    1    3    3    0  502 -0.47563883344E+03 -0.38039224185E+03 -0.22703776914E+04  0.23506478744E+04  0.10100000352E+00 0. -1.
</event>
<event>
 5   0  0.4785496E-04  0.1488075E+04  0.7818609E-02  0.8892422E-01
       -2   -1    0    0    0  501  0.00000000000E+00  0.00000000000E+00  0.41577200940E+03  0.41577200940E+03  0.25500000920E-02 0.  1.
        2   -1    0    0  501    0  0.00000000000E+00  0.00000000000E+00 -0.13314799436E+04  0.13314799436E+04  0.25500000920E-02 0. -1.
    10030    2    1    2    0    0  0.00000000000E+00  0.00000000000E+00 -0.91570793418E+03  0.17472519530E+04  0.14880753901E+04 0.  0.
        4    1    3    3  502    0  0.49946033786E+03 -0.54045960238E+03 -0.58665590329E+03  0.94112909458E+03  0.12699999809E+01 0. -1.
       -4    1    3    3    0  502 -0.49946033786E+03  0.54045960238E+03 -0.32905203089E+03  0.80612285840E+03  0.12699999809E+01 0.  1.
</event>
<event>
 5   0  0.2565416E-04  0.1500741E+04  0.7818609E-02  0.8883960E-01
        1   -1    0    0  501    0  0.00000000000E+00  0.00000000000E+00  0.87298387726E+03  0.87298387728E+03  0.50400001928E-02 0.  1.
       -1   -1    0    0    0  501  0.00000000000E+00  0.00000000000E+00 -0.64497886217E+03  0.64497886219E+03  0.50400001928E-02 0. -1.
    10030    2    1    2    0    0  0.00000000000E+00  0.00000000000E+00  0.22800501509E+03  0.15179627395E+04  0.15007413473E+04 0.  0.
        5    1    3    3  502    0  0.67749712266E+02 -0.41650556491E+03 -0.51357460765E+03  0.66471638819E+03  0.46999998093E+01 0. -1.
       -5    1    3    3    0  502 -0.67749712266E+02  0.41650556491E+03  0.74157962274E+03  0.85324635128E+03  0.46999998093E+01 0.  1.
</event>
<event>
 5   0  0.2603873E-04  0.1513763E+04  0.7818609E-02  0.8875352E-01
       -1   -1    0    0    0  501  0.00000000000E+00  0.00000000000E+00  0.93288173583E+03  0.93288173584E+03  0.50400001928E-02 0.  1.
        1   -1    0    0  501    0  0.00000000000E+00  0.00000000000E+00 -0.61408624329E+03  0.61408624331E+03  0.50400001928E-02 0. -1.
    10030    2    1    2    0    0  0.00000000000E+00  0.00000000000E+00  0.31879549253E+03  0.15469679792E+04  0.15137633112E+04 0.  0.
        2    1    3    3  502    0 -0.74007249550E+03  0.13393183206E+03  0.72534420057E+02  0.75558340131E+03  0.25500000920E-02 0. -1.
       -2    1    3    3    0  502  0.74007249550E+03 -0.13393183206E+03  0.24626107248E+03  0.79138457785E+03  0.25500000920E-02 0.  1.
</event>
<event>
 5   0  0.4785496E-04  0.1498973E+04  0.7818609E-02  0.8885136E-01
        2   -1    0    0  501    0  0.00000000000E+00  0.00000000000E+00  0.12756517604E+04  0.12756517604E+04  0.25500000920E-02 0.  1.
       -2   -1    0    0    0  501  0.00000000000E+00  0.00000000000E+00 -0.44034727511E+03  0.44034727511E+03  0.25500000920E-02 0. -1.
    10030    2    1    2    0    0  0.00000000000E+00  0.00000000000E+00  0.83530448529E+03  0.17159990355E+04  0.14989726838E+04 0.  0.
        4    1    3    3  502    0 -0.65377612096E+02 -0.74447357154E+03  0.48254271073E+03  0.88958653961E+03  0.12699999809E+01 0.  1.
       -4    1    3    3    0  502  0.65377612096E+02  0.74447357154E+03  0.35276177456E+03  0.82641249589E+03  0.12699999809E+01 0. -1.
</event>
<event>
 5   0  0.4768387E-04  0.1497340E+04  0.7818609E-02  0.8886224E-01
       -2   -1    0    0    0  501  0.00000000000E+00  0.00000000000E+00  0.35057477796E+03  0.35057477797E+03  0.25500000920E-02 0. -1.
        2   -1    0    0  501    0  0.00000000000E+00  0.00000000000E+00 -0.15988219886E+04  0.15988219886E+04  0.25500000920E-02 0.  1.
    10030    2    1    2    0    0  0.00000000000E+00  0.00000000000E+00 -0.12482472106E+04  0.19493967665E+04  0.14973398594E+04 0.  0.
        3    1    3    3  502    0  0.37966177994E+03 -0.86045799592E+02  0.20844516406E+03  0.44158390301E+03  0.10100000352E+00 0. -1.
       -3    1    3    3    0  502 -0.37966177994E+03  0.86045799592E+02 -0.14566923747E+04  0.15078128635E+04  0.10100000352E+00 0.  1.
</event>
<event>
 5   0  0.1792000E-04  0.1497757E+04  0.7818609E-02  0.8885946E-01
        3   -1    0    0  501    0  0.00000000000E+00  0.00000000000E+00  0.10426129825E+04  0.10426129874E+04  0.10100000352E+00 0. -1.
       -3   -1    0    0    0  501  0.00000000000E+00  0.00000000000E+00 -0.53789739158E+03  0.53789740106E+03  0.10100000352E+00 0.  1.
    10030    2    1    2    0    0  0.00000000000E+00  0.00000000000E+00  0.50471559090E+03  0.15805103884E+04  0.14977567427E+04 0.  0.
        2    1    3    3  502    0  0.74147104960E+03 -0.93564489651E+02  0.20191296663E+03  0.77414628929E+03  0.25500000920E-02 0. -1.
       -2    1    3    3    0  502 -0.74147104960E+03  0.93564489651E+02  0.30280262427E+03  0.80636409915E+03  0.25500000920E-02 0.  1.
</event>
<event>
 5   0  0.4726600E-04  0.1462481E+04  0.7818609E-02  0.8909793E-01
       -2   -1    0    0    0  501  0.00000000000E+00  0.00000000000E+00  0.59552225190E+03  0.59552225191E+03  0.25500000920E-02 0. -1.
        2   -1    0    0  501    0  0.00000000000E+00  0.00000000000E+00 -0.89788900593E+03  0.89788900594E+03  0.25500000920E-02 0.  1.
    10030    2    1    2    0    0  0.00000000000E+00  0.00000000000E+00 -0.30236675403E+03  0.14934112578E+04  0.14624812926E+04 0.  0.
        2    1    3    3  502    0 -0.67032805210E+02 -0.58759894409E+03 -0.59033319574E+03  0.83561905081E+03  0.25500000920E-02 0.  1.
       -2    1    3    3    0  502  0.67032805210E+02  0.58759894409E+03  0.28796644171E+03  0.65779220703E+03  0.25500000920E-02 0. -1.
</event>
<event>
 5   0  0.4785496E-04  0.1475977E+04  0.7818609E-02  0.8900587E-01
        2   -1    0    0  501    0  0.00000000000E+00  0.00000000000E+00  0.24764915249E+04  0.24764915249E+04  0.25500000920E-02 0. -1.
       -2   -1    0    0    0  501  0.00000000000E+00  0.00000000000E+00 -0.21991886698E+03  0.21991886700E+03  0.25500000920E-02 0.  1.
    10030    2    1    2    0    0  0.00000000000E+00  0.00000000000E+00  0.22565726579E+04  0.26964103919E+04  0.14759772495E+04 0.  0.
        4    1    3    3  502    0 -0.51762338046E+03  0.25527238980E+03  0.19685002855E+04  0.20513636791E+04  0.12699999809E+01 0.  1.
       -4    1    3    3    0  502  0.51762338046E+03 -0.25527238980E+03  0.28807237234E+03  0.64504671273E+03  0.12699999809E+01 0. -1.
</event>
<event>
 5   0  0.2542737E-04  0.1498000E+04  0.7818609E-02  0.8885784E-01
       -1   -1    0    0    0  501  0.00000000000E+00  0.00000000000E+00  0.54009995844E+03  0.54009995846E+03  0.50400001928E-02 0.  1.
        1   -1    0    0  501    0  0.00000000000E+00  0.00000000000E+00 -0.10386982048E+04  0.10386982048E+04  0.50400001928E-02 0. -1.
    10030    2    1    2    0    0  0.00000000000E+00  0.00000000000E+00 -0.49859824634E+03  0.15787981633E+04  0.14979998094E+04 0.  0.
        1    1    3    3  502    0 -0.39270960496E+03 -0.18399932056E+03 -0.89291267579E+03  0.99265786171E+03  0.50400001928E-02 0. -1.
       -1    1    3    3    0  502  0.39270960496E+03  0.18399932056E+03  0.39431442945E+03  0.58614030155E+03  0.50400001928E-02 0.  1.
</event>
<event>
 5   0  0.4726600E-04  0.1504400E+04  0.7818609E-02  0.8881532E-01
        2   -1    0    0  501    0  0.00000000000E+00  0.00000000000E+00  0.74498182068E+03  0.74498182069E+03  0.25500000920E-02 0.  1.
       -2   -1    0    0    0  501  0.00000000000E+00  0.00000000000E+00 -0.75948825676E+03  0.75948825677E+03  0.25500000920E-02 0. -1.
    10030    2    1    2    0    0  0.00000000000E+00  0.00000000000E+00 -0.14506436080E+02  0.15044700775E+04  0.15044001387E+04 0.  0.
        2    1    3    3  502    0  0.37264047650E+03  0.42508490634E+03  0.48900250060E+03  0.74745003039E+03  0.25500000920E-02 0.  1.
       -2    1    3    3    0  502 -0.37264047650E+03 -0.42508490634E+03 -0.50350893668E+03  0.75702004706E+03  0.25500000920E-02 0. -1.
</event>
<event>
 5   0  0.2565416E-04  0.1478788E+04  0.7818609E-02  0.8898682E-01
       -1   -1    0    0    0  501  0.00000000000E+00  0.00000000000E+00  0.31256712409E+03  0.31256712413E+03  0.50400001928E-02 0. -1.
        1   -1    0    0  501    0  0.00000000000E+00  0.00000000000E+00 -0.17490762359E+04  0.17490762359E+04  0.50400001928E-02 0.  1.
    10030    2    1    2    0    0  0.00000000000E+00  0.00000000000E+00 -0.14365091118E+04  0.20616433600E+04  0.14787883269E+04 0.  0.
        5    1    3    3  502    0 -0.17710202213E+03  0.45299064116E+03  0.58116984345E+02  0.48986255326E+03  0.46999998093E+01 0. -1.
       -5    1    3    3    0  502  0.17710202213E+03 -0.45299064116E+03 -0.14946260962E+04  0.15717808068E+04  0.46999998093E+01 0.  1.
</event>
<event>
 5   0  0.1792000E-04  0.1497752E+04  0.7818609E-02  0.8885949E-01
       -3   -1    0    0    0  501  0.00000000000E+00  0.00000000000E+00  0.53095741726E+03  0.53095742687E+03  0.10100000352E+00 0. -1.
        3   -1    0    0  501    0  0.00000000000E+00  0.00000000000E+00 -0.10562334107E+04  0.10562334155E+04  0.10100000352E+00 0.  1.
    10030    2    1    2    0    0  0.00000000000E+00  0.00000000000E+00 -0.52527599345E+03  0.15871908424E+04  0.14977516152E+04 0.  0.
        3    1    3    3  502    0 -0.64861012679E+03  0.36346160815E+03 -0.16776220427E+03  0.76219656556E+03  0.10100000352E+00 0. -1.
       -3    1    3    3    0  502  0.64861012679E+03 -0.36346160815E+03 -0.35751378917E+03  0.82499427684E+03  0.10100000352E+00 0.  1.
</event>
<event>
 5   0  0.2542737E-04  0.1498759E+04  0.7818609E-02  0.8885279E-01
       -1   -1    0    0    0  501  0.00000000000E+00  0.00000000000E+00  0.41262115996E+03  0.41262115999E+03  0.50400001928E-02 0.  1.
        1   -1    0    0  501    0  0.00000000000E+00  0.00000000000E+00 -0.13609804926E+04  0.13609804926E+04  0.50400001928E-02 0. -1.
    10030    2    1    2    0    0  0.00000000000E+00  0.00000000000E+00 -0.94835933263E+03  0.17736016526E+04  0.14987586191E+04 0.  0.
        1    1    3    3  502    0  0.72301142129E+03  0.18330924668E+03 -0.38866821225E+03  0.84107715132E+03  0.50400001928E-02 0.  1.
       -1    1    3    3    0  502 -0.72301142129E+03 -0.18330924668E+03 -0.55969112038E+03  0.93252450128E+03  0.50400001928E-02 0. -1.
</event>
<event>
 5   0  0.4569211E-04  0.1492793E+04  0.7818609E-02  0.8889259E-01
       -2   -1    0    0    0  501  0.00000000000E+00  0.00000000000E+00  0.86033579309E+03  0.86033579309E+03  0.25500000920E-02 0.  1.
        2   -1    0    0  501    0  0.00000000000E+00  0.00000000000E+00 -0.64754719979E+03  0.64754719980E+03  0.25500000920E-02 0. -1.
    10030    2    1    2    0    0  0.00000000000E+00  0.00000000000E+00  0.21278859330E+03  0.15078829929E+04  0.14927933999E+04 0.  0.
        5    1    3    3  502    0  0.43388972865E+03 -0.53525152034E+03 -0.18344070892E+03  0.71304072137E+03  0.46999998093E+01 0. -1.
       -5    1    3    3    0  502 -0.43388972865E+03  0.53525152034E+03  0.39622930221E+03  0.79484227151E+03  0.46999998093E+01 0.  1.
</event>
<event>
 5   0  0.2565416E-04  0.1485089E+04  0.7818609E-02  0.8894430E-01
       -1   -1    0    0    0  501  0.00000000000E+00  0.00000000000E+00  0.38791117979E+03  0.38791117982E+03  0.50400001928E-02 0.  1.
        1   -1    0    0  501    0  0.00000000000E+00  0.00000000000E+00 -0.14213874339E+04  0.14213874339E+04  0.50400001928E-02 0. -1.
    10030    2    1    2    0    0  0.00000000000E+00  0.00000000000E+00 -0.10334762541E+04  0.18092986137E+04  0.14850886525E+04 0.  0.
        5    1    3    3  502    0 -0.45800329679E+03  0.42629388843E+03 -0.10038435936E+04  0.11828852647E+04  0.46999998093E+01 0. -1.
       -5    1    3    3    0  502  0.45800329679E+03 -0.42629388843E+03 -0.29632660507E+02  0.62641334896E+03  0.46999998093E+01 0.  1.
</event>
<event>
 5   0  0.4768387E-04  0.1495283E+04  0.7818609E-02  0.8887596E-01
        2   -1    0    0  501    0  0.00000000000E+00  0.00000000000E+00  0.13739064079E+04  0.13739064079E+04  0.25500000920E-02 0. -1.
       -2   -1    0    0    0  501  0.00000000000E+00  0.00000000000E+00 -0.40684577654E+03  0.40684577655E+03  0.25500000920E-02 0.  1.
    10030    2    1    2    0    0  0.00000000000E+00  0.00000000000E+00  0.96706063141E+03  0.17807521845E+04  0.14952832768E+04 0.  0.
        3    1    3    3  502    0  0.54697802110E+03 -0.32181011004E+03  0.12823872955E+02  0.63475283726E+03  0.10100000352E+00 0.  1.
       -3    1    3    3    0  502 -0.54697802110E+03  0.32181011004E+03  0.95423675845E+03  0.11459993472E+04  0.10100000352E+00 0. -1.
</event>
<event>
 5   0  0.2542737E-04  0.1483362E+04  0.7818609E-02  0.8895593E-01
        1   -1    0    0  501    0  0.00000000000E+00  0.00000000000E+00  0.14338716439E+04  0.14338716439E+04  0.50400001928E-02 0.  1.
       -1   -1    0    0    0  501  0.00000000000E+00  0.00000000000E+00 -0.38364023342E+03  0.38364023346E+03  0.50400001928E-02 0. -1.
    10030    2    1    2    0    0  0.00000000000E+00  0.00000000000E+00  0.10502314104E+04  0.18175118773E+04  0.14833621974E+04 0.  0.
        1    1    3    3  502    0 -0.13919899342E+03 -0.72799912337E+03  0.49197078455E+03  0.88960347137E+03  0.50400001928E-02 0. -1.
       -1    1    3    3    0  502  0.13919899342E+03  0.72799912337E+03  0.55826062588E+03  0.92790840595E+03  0.50400001928E-02 0.  1.
</event>
<event>
 5   0  0.2605471E-04  0.1497874E+04  0.7818609E-02  0.8885868E-01
        1   -1    0    0  501    0  0.00000000000E+00  0.00000000000E+00  0.27405435292E+03  0.27405435297E+03  0.50400001928E-02 0. -1.
       -1   -1    0    0    0  501  0.00000000000E+00  0.00000000000E+00 -0.20466994182E+04  0.20466994182E+04  0.50400001928E-02 0.  1.
    10030    2    1    2    0    0  0.00000000000E+00  0.00000000000E+00 -0.17726450653E+04  0.23207537712E+04  0.14978743402E+04 0.  0.
        3    1    3    3  502    0 -0.47397377850E+03 -0.53697288015E+03 -0.54717136421E+03  0.90132542887E+03  0.10100000352E+00 0. -1.
       -3    1    3    3    0  502  0.47397377850E+03  0.53697288015E+03 -0.12254737011E+04  0.14194283423E+04  0.10100000352E+00 0.  1.
</event>
<event>
 5   0  0.4768387E-04  0.1490793E+04  0.7818609E-02  0.8890599E-01
       -2   -1    0    0    0  501  0.00000000000E+00  0.00000000000E+00  0.23213215572E+03  0.23213215574E+03  0.25500000920E-02 0.  1.
        2   -1    0    0  501    0  0.00000000000E+00  0.00000000000E+00 -0.23935312898E+04  0.23935312898E+04  0.25500000920E-02 0. -1.
    10030    2    1    2    0    0  0.00000000000E+00  0.00000000000E+00 -0.21613991341E+04  0.26256634456E+04  0.14907925115E+04 0.  0.
        3    1    3    3  502    0  0.37177317171E+03 -0.29625214627E+02  0.55988112947E+02  0.37713077777E+03  0.10100000352E+00 0.  1.
       -3    1    3    3    0  502 -0.37177317171E+03  0.29625214627E+02 -0.22173872471E+04  0.22485326678E+04  0.10100000352E+00 0. -1.
</event>
<event>
 5   0  0.4569211E-04  0.1493643E+04  0.7818609E-02  0.8888691E-01
       -2   -1    0    0    0  501  0.00000000000E+00  0.00000000000E+00  0.44625664805E+03  0.44625664806E+03  0.25500000920E-02 0. -1.
        2   -1    0    0  501    0  0.00000000000E+00  0.00000000000E+00 -0.12498238109E+04  0.12498238109E+04  0.25500000920E-02 0.  1.
    10030    2    1    2    0    0  0.00000000000E+00  0.00000000000E+00 -0.80356716289E+03  0.16960804590E+04  0.14936427746E+04 0.  0.
        5    1    3    3  502    0 -0.11900264129E+03 -0.24897160137E+02 -0.12384937876E+04  0.12444558847E+04  0.46999998093E+01 0.  1.
       -5    1    3    3    0  502  0.11900264129E+03  0.24897160137E+02  0.43492662468E+03  0.45162457426E+03  0.46999998093E+01 0. -1.
</event>
<event>
 5   0  0.4569211E-04  0.1508385E+04  0.7818609E-02  0.8878896E-01
       -2   -1    0    0    0  501  0.00000000000E+00  0.00000000000E+00  0.43672093735E+03  0.43672093735E+03  0.25500000920E-02 0. -1.
        2   -1    0    0  501    0  0.00000000000E+00  0.00000000000E+00 -0.13024473709E+04  0.13024473709E+04  0.25500000920E-02 0.  1.
    10030    2    1    2    0    0  0.00000000000E+00  0.00000000000E+00 -0.86572643356E+03  0.17391683083E+04  0.15083846150E+04 0.  0.
        5    1    3    3  502    0 -0.41470299947E+02 -0.44509811002E+03 -0.11332119625E+04  0.12182050547E+04  0.46999998093E+01 0.  1.
       -5    1    3    3    0  502  0.41470299947E+02  0.44509811002E+03  0.26748552898E+03  0.52096325354E+03  0.46999998093E+01 0. -1.
</event>
<event>
 5   0  0.2544374E-04  0.1502808E+04  0.7818609E-02  0.8882588E-01
       -1   -1    0    0    0  501  0.00000000000E+00  0.00000000000E+00  0.16231446495E+04  0.16231446495E+04  0.50400001928E-02 0. -1.
        1   -1    0    0  501    0  0.00000000000E+00  0.00000000000E+00 -0.34784837369E+03  0.34784837372E+03  0.50400001928E-02 0.  1.
    10030    2    1    2    0    0  0.00000000000E+00  0.00000000000E+00  0.12752962758E+04  0.19709930233E+04  0.15028083399E+04 0.  0.
        4    1    3    3  502    0  0.14636372994E+03  0.37973840571E+03 -0.19078735012E+03  0.44947193914E+03  0.12699999809E+01 0.  1.
       -4    1    3    3    0  502 -0.14636372994E+03 -0.37973840571E+03  0.14660836259E+04  0.15215210841E+04  0.12699999809E+01 0. -1.
</event>
<event>
 5   0  0.2565416E-04  0.1497641E+04  0.7818609E-02  0.8886023E-01
        1   -1    0    0  501    0  0.00000000000E+00  0.00000000000E+00  0.15528758114E+04  0.15528758114E+04  0.50400001928E-02 0. -1.
       -1   -1    0    0    0  501  0.00000000000E+00  0.00000000000E+00 -0.36109259568E+03  0.36109259571E+03  0.50400001928E-02 0.  1.
    10030    2    1    2    0    0  0.00000000000E+00  0.00000000000E+00  0.11917832157E+04  0.19139684071E+04  0.14976407547E+04 0.  0.
        5    1    3    3  502    0  0.43479992616E+03  0.38371779369E+03  0.12013125718E+04  0.13339656316E+04  0.46999998093E+01 0. -1.
       -5    1    3    3    0  502 -0.43479992616E+03 -0.38371779369E+03 -0.95293561425E+01  0.58000277552E+03  0.46999998093E+01 0.  1.
</event>
<event>
 5   0  0.2544374E-04  0.1491076E+04  0.7818609E-02  0.8890409E-01
       -1   -1    0    0    0  501  0.00000000000E+00  0.00000000000E+00  0.34855337747E+03  0.34855337751E+03  0.50400001928E-02 0.  1.
        1   -1    0    0  501    0  0.00000000000E+00  0.00000000000E+00 -0.15946680134E+04  0.15946680134E+04  0.50400001928E-02 0. -1.
    10030    2    1    2    0    0  0.00000000000E+00  0.00000000000E+00 -0.12461146359E+04  0.19432213909E+04  0.14910760169E+04 0.  0.
        4    1    3    3  502    0  0.33262815793E+03 -0.23870870874E+03  0.18893396165E+03  0.45091129265E+03  0.12699999809E+01 0.  1.
       -4    1    3    3    0  502 -0.33262815793E+03  0.23870870874E+03 -0.14350485976E+04  0.14923100983E+04  0.12699999809E+01 0. -1.
</event>
<event>
 5   0  0.2542737E-04  0.1495579E+04  0.7818609E-02  0.8887398E-01
       -1   -1    0    0    0  501  0.00000000000E+00  0.00000000000E+00  0.27529054559E+03  0.27529054563E+03  0.50400001928E-02 0. -1.
        1   -1    0    0  501    0  0.00000000000E+00  0.00000000000E+00 -0.20312690635E+04  0.20312690635E+04  0.50400001928E-02 0.  1.
    10030    2    1    2    0    0  0.00000000000E+00  0.00000000000E+00 -0.17559785179E+04  0.23065596091E+04  0.14955790434E+04 0.  0.
        1    1    3    3  502    0  0.34306017548E+03  0.27275212834E+03  0.56448882315E+02  0.44189419984E+03  0.50400001928E-02 0. -1.
       -1    1    3    3    0  502 -0.34306017548E+03 -0.27275212834E+03 -0.18124274002E+04  0.18646654093E+04  0.50400001928E-02 0.  1.
</event>
<event>
 5   0  0.2544374E-04  0.1682713E+04  0.7818609E-02  0.8771285E-01
       -1   -1    0    0    0  501  0.00000000000E+00  0.00000000000E+00  0.78151325137E+03  0.78151325139E+03  0.50400001928E-02 0.  1.
        1   -1    0    0  501    0  0.00000000000E+00  0.00000000000E+00 -0.90578243949E+03  0.90578243950E+03  0.50400001928E-02 0. -1.
    10030    2    1    2    0    0  0.00000000000E+00  0.00000000000E+00 -0.12426918812E+03  0.16872956909E+04  0.16827132606E+04 0.  0.
        4    1    3    3  502    0  0.62827489000E+03  0.19008874914E+03  0.46562208660E+03  0.80477860955E+03  0.12699999809E+01 0.  1.
       -4    1    3    3    0  502 -0.62827489000E+03 -0.19008874914E+03 -0.58989127472E+03  0.88251708134E+03  0.12699999809E+01 0. -1.
</event>
<event>
 5   0  0.4768387E-04  0.1499302E+04  0.7818609E-02  0.8884918E-01
        2   -1    0    0  501    0  0.00000000000E+00  0.00000000000E+00  0.60531429216E+03  0.60531429217E+03  0.25500000920E-02 0.  1.
       -2   -1    0    0    0  501  0.00000000000E+00  0.00000000000E+00 -0.92840409262E+03  0.92840409262E+03  0.25500000920E-02 0. -1.
    10030    2    1    2    0    0  0.00000000000E+00  0.00000000000E+00 -0.32308980045E+03  0.15337183848E+04  0.14993015256E+04 0.  0.
        3    1    3    3  502    0 -0.65278358409E+03 -0.29816473808E+03 -0.38319274405E+03  0.81355104818E+03  0.10100000352E+00 0. -1.
       -3    1    3    3    0  502  0.65278358409E+03  0.29816473808E+03  0.60102943595E+02  0.72016733661E+03  0.10100000352E+00 0.  1.
</event>
<event>
 5   0  0.4569211E-04  0.1514986E+04  0.7818609E-02  0.8874548E-01
       -2   -1    0    0    0  501  0.00000000000E+00  0.00000000000E+00  0.78111822290E+03  0.78111822291E+03  0.25500000920E-02 0. -1.
        2   -1    0    0  501    0  0.00000000000E+00  0.00000000000E+00 -0.73458190612E+03  0.73458190612E+03  0.25500000920E-02 0.  1.
    10030    2    1    2    0    0  0.00000000000E+00  0.00000000000E+00  0.46536316784E+02  0.15157001290E+04  0.15149855618E+04 0.  0.
        5    1    3    3  502    0 -0.43040690507E+03  0.49547073799E+03  0.40164208103E+03  0.76946722308E+03  0.46999998093E+01 0. -1.
       -5    1    3    3    0  502  0.43040690507E+03 -0.49547073799E+03 -0.35510576425E+03  0.74623290596E+03  0.46999998093E+01 0.  1.
</event>
<event>
 5   0  0.4569211E-04  0.1503402E+04  0.7818609E-02  0.8882194E-01
       -2   -1    0    0    0  501  0.00000000000E+00  0.00000000000E+00  0.79464187123E+03  0.79464187123E+03  0.25500000920E-02 0. -1.
        2   -1    0    0  501    0  0.00000000000E+00  0.00000000000E+00 -0.71108063005E+03  0.71108063006E+03  0.25500000920E-02 0.  1.
    10030    2    1    2    0    0  0.00000000000E+00  0.00000000000E+00  0.83561241173E+02  0.15057225013E+04  0.15034020653E+04 0.  0.
        5    1    3    3  502    0 -0.52136876138E+03  0.45141492007E+03  0.34129325391E+03  0.76948293716E+03  0.46999998093E+01 0.  1.
       -5    1    3    3    0  502  0.52136876138E+03 -0.45141492007E+03 -0.25773201274E+03  0.73623956414E+03  0.46999998093E+01 0. -1.
</event>
<event>
 5   0  0.2542737E-04  0.1497543E+04  0.7818609E-02  0.8886088E-01
       -1   -1    0    0    0  501  0.00000000000E+00  0.00000000000E+00  0.51739070254E+03  0.51739070256E+03  0.50400001928E-02 0.  1.
        1   -1    0    0  501    0  0.00000000000E+00  0.00000000000E+00 -0.10836277983E+04  0.10836277983E+04  0.50400001928E-02 0. -1.
    10030    2    1    2    0    0  0.00000000000E+00  0.00000000000E+00 -0.56623709572E+03  0.16010185008E+04  0.14975432519E+04 0.  0.
        1    1    3    3  502    0  0.28873794201E+02  0.27788128480E+03  0.45958225596E+03  0.53783599216E+03  0.50400001928E-02 0.  1.
       -1    1    3    3    0  502 -0.28873794201E+02 -0.27788128480E+03 -0.10258193517E+04  0.10631825087E+04  0.50400001928E-02 0. -1.
</event>
<event>
 5   0  0.4948645E-04  0.1500701E+04  0.7818609E-02  0.8883987E-01
        2   -1    0    0  501    0  0.00000000000E+00  0.00000000000E+00  0.12277161854E+04  0.12277161854E+04  0.25500000920E-02 0. -1.
       -2   -1    0    0    0  501  0.00000000000E+00  0.00000000000E+00 -0.45859592775E+03  0.45859592776E+03  0.25500000920E-02 0.  1.
    10030    2    1    2    0    0  0.00000000000E+00  0.00000000000E+00  0.76912025764E+03  0.16863121132E+04  0.15007006938E+04 0.  0.
        1    1    3    3  502    0 -0.56520354837E+03 -0.21997674039E+03 -0.11187493851E+03  0.61673399395E+03  0.50400001928E-02 0.  1.
       -1    1    3    3    0  502  0.56520354837E+03  0.21997674039E+03  0.88099519615E+03  0.10695781192E+04  0.50400001928E-02 0. -1.
</event>
<event>
 5   0  0.4948645E-04  0.1491027E+04  0.7818609E-02  0.8890442E-01
       -2   -1    0    0    0  501  0.00000000000E+00  0.00000000000E+00  0.24692170924E+03  0.24692170925E+03  0.25500000920E-02 0. -1.
        2   -1    0    0  501    0  0.00000000000E+00  0.00000000000E+00 -0.22508760884E+04  0.22508760884E+04  0.25500000920E-02 0.  1.
    10030    2    1    2    0    0  0.00000000000E+00  0.00000000000E+00 -0.20039543792E+04  0.24977977976E+04  0.14910267215E+04 0.  0.
        1    1    3    3  502    0 -0.35699825318E+03 -0.39739696321E+03 -0.18731207037E+04  0.19478072979E+04  0.50400001928E-02 0.  1.
       -1    1    3    3    0  502  0.35699825318E+03  0.39739696321E+03 -0.13083367545E+03  0.54999049973E+03  0.50400001928E-02 0. -1.
</event>
<event>
 5   0  0.2605471E-04  0.1514477E+04  0.7818609E-02  0.8874883E-01
        1   -1    0    0  501    0  0.00000000000E+00  0.00000000000E+00  0.60566502132E+03  0.60566502134E+03  0.50400001928E-02 0. -1.
       -1   -1    0    0    0  501  0.00000000000E+00  0.00000000000E+00 -0.94674446226E+03  0.94674446227E+03  0.50400001928E-02 0.  1.
    10030    2    1    2    0    0  0.00000000000E+00  0.00000000000E+00 -0.34107944094E+03  0.15524094836E+04  0.15144768139E+04 0.  0.
        3    1    3    3  502    0  0.38227193995E+03 -0.24589659020E+03  0.45028075619E+03  0.63980445352E+03  0.10100000352E+00 0. -1.
       -3    1    3    3    0  502 -0.38227193995E+03  0.24589659020E+03 -0.79136019713E+03  0.91260503009E+03  0.10100000352E+00 0.  1.
</event>
<event>
 5   0  0.4785496E-04  0.1493583E+04  0.7818609E-02  0.8888731E-01
        2   -1    0    0  501    0  0.00000000000E+00  0.00000000000E+00  0.12587424884E+04  0.12587424884E+04  0.25500000920E-02 0.  1.
       -2   -1    0    0    0  501  0.00000000000E+00  0.00000000000E+00 -0.44305928639E+03  0.44305928639E+03  0.25500000920E-02 0. -1.
    10030    2    1    2    0    0  0.00000000000E+00  0.00000000000E+00  0.81568320205E+03  0.17018017748E+04  0.14935830056E+04 0.  0.
        4    1    3    3  502    0 -0.42250419207E+03 -0.14473578440E+03 -0.27412836769E+03  0.52402882981E+03  0.12699999809E+01 0. -1.
       -4    1    3    3    0  502  0.42250419207E+03  0.14473578440E+03  0.10898115697E+04  0.11777729450E+04  0.12699999809E+01 0.  1.
</event>
<event>
 5   0  0.2603873E-04  0.1498733E+04  0.7818609E-02  0.8885296E-01
        1   -1    0    0  501    0  0.00000000000E+00  0.00000000000E+00  0.95067920097E+03  0.95067920098E+03  0.50400001928E-02 0. -1.
       -1   -1    0    0    0  501  0.00000000000E+00  0.00000000000E+00 -0.59068335381E+03  0.59068335384E+03  0.50400001928E-02 0.  1.
    10030    2    1    2    0    0  0.00000000000E+00  0.00000000000E+00  0.35999584715E+03  0.15413625548E+04  0.14987333036E+04 0.  0.
        2    1    3    3  502    0  0.29140275838E+03 -0.44055899978E+03  0.72666434531E+03  0.89835898762E+03  0.25500000920E-02 0. -1.
       -2    1    3    3    0  502 -0.29140275838E+03  0.44055899978E+03 -0.36666849816E+03  0.64300356720E+03  0.25500000920E-02 0.  1.
</event>
<event>
 5   0  0.4726600E-04  0.1510235E+04  0.7818609E-02  0.8877675E-01
        2   -1    0    0  501    0  0.00000000000E+00  0.00000000000E+00  0.15108001572E+04  0.15108001572E+04  0.25500000920E-02 0.  1.
       -2   -1    0    0    0  501  0.00000000000E+00  0.00000000000E+00 -0.37741742414E+03  0.37741742415E+03  0.25500000920E-02 0. -1.
    10030    2    1    2    0    0  0.00000000000E+00  0.00000000000E+00  0.11333827330E+04  0.18882175813E+04  0.15102348211E+04 0.  0.
        2    1    3    3  502    0  0.67694884485E+02  0.30315215008E+02  0.15062344901E+04  0.15080596636E+04  0.25500000920E-02 0.  1.
       -2    1    3    3    0  502 -0.67694884485E+02 -0.30315215008E+02 -0.37285175710E+03  0.38015791774E+03  0.25500000920E-02 0. -1.
</event>
<event>
 5   0  0.2542737E-04  0.1500186E+04  0.7818609E-02  0.8884329E-01
       -1   -1    0    0    0  501  0.00000000000E+00  0.00000000000E+00  0.91483332520E+03  0.91483332522E+03  0.50400001928E-02 0.  1.
        1   -1    0    0  501    0  0.00000000000E+00  0.00000000000E+00 -0.61501853452E+03  0.61501853454E+03  0.50400001928E-02 0. -1.
    10030    2    1    2    0    0  0.00000000000E+00  0.00000000000E+00  0.29981479069E+03  0.15298518598E+04  0.15001859232E+04 0.  0.
        1    1    3    3  502    0 -0.67022262632E+03  0.27124786135E+03 -0.53704843987E+02  0.72502274545E+03  0.50400001928E-02 0.  1.
       -1    1    3    3    0  502  0.67022262632E+03 -0.27124786135E+03  0.35351963467E+03  0.80482911431E+03  0.50400001928E-02 0. -1.
</event>
<event>
 5   0  0.4726600E-04  0.1485952E+04  0.7818609E-02  0.8893849E-01
        2   -1    0    0  501    0  0.00000000000E+00  0.00000000000E+00  0.46116542243E+03  0.46116542243E+03  0.25500000920E-02 0.  1.
       -2   -1    0    0    0  501  0.00000000000E+00  0.00000000000E+00 -0.11969961323E+04  0.11969961323E+04  0.25500000920E-02 0. -1.
    10030    2    1    2    0    0  0.00000000000E+00  0.00000000000E+00 -0.73583070992E+03  0.16581615548E+04  0.14859518525E+04 0.  0.
        2    1    3    3  502    0 -0.13831519695E+03  0.14861758326E+03  0.42961165478E+03  0.47516781634E+03  0.25500000920E-02 0.  1.
       -2    1    3    3    0  502  0.13831519695E+03 -0.14861758326E+03 -0.11654423647E+04  0.11829937384E+04  0.25500000920E-02 0. -1.
</event>
<event>
 5   0  0.4569211E-04  0.1496427E+04  0.7818609E-02  0.8886832E-01
        2   -1    0    0  501    0  0.00000000000E+00  0.00000000000E+00  0.13150458973E+04  0.13150458973E+04  0.25500000920E-02 0.  1.
       -2   -1    0    0    0  501  0.00000000000E+00  0.00000000000E+00 -0.42570634658E+03  0.42570634658E+03  0.25500000920E-02 0. -1.
    10030    2    1    2    0    0  0.00000000000E+00  0.00000000000E+00  0.88933955077E+03  0.17407522439E+04  0.14964269238E+04 0.  0.
        5    1    3    3  502    0 -0.74603054870E+03 -0.43490362084E+02  0.40195528207E+03  0.84855355162E+03  0.46999998093E+01 0. -1.
       -5    1    3    3    0  502  0.74603054870E+03  0.43490362084E+02  0.48738426870E+03  0.89219869231E+03  0.46999998093E+01 0.  1.
</event>
<event>
 5   0  0.4569211E-04  0.1498918E+04  0.7818609E-02  0.8885173E-01
        2   -1    0    0  501    0  0.00000000000E+00  0.00000000000E+00  0.16089102292E+04  0.16089102292E+04  0.25500000920E-02 0. -1.
       -2   -1    0    0    0  501  0.00000000000E+00  0.00000000000E+00 -0.34911143792E+03  0.34911143793E+03  0.25500000920E-02 0.  1.
    10030    2    1    2    0    0  0.00000000000E+00  0.00000000000E+00  0.12597987913E+04  0.19580216672E+04  0.14989182281E+04 0.  0.
        5    1    3    3  502    0  0.55348588740E+03 -0.40268590780E+03  0.23118278555E+03  0.72247500872E+03  0.46999998093E+01 0.  1.
       -5    1    3    3    0  502 -0.55348588740E+03  0.40268590780E+03  0.10286160058E+04  0.12355466584E+04  0.46999998093E+01 0. -1.
</event>
<event>
 5   0  0.4569211E-04  0.1509554E+04  0.7818609E-02  0.8878125E-01
       -2   -1    0    0    0  501  0.00000000000E+00  0.00000000000E+00  0.44242185225E+03  0.44242185226E+03  0.25500000920E-02 0.  1.
        2   -1    0    0  501    0  0.00000000000E+00  0.00000000000E+00 -0.12876580192E+04  0.12876580192E+04  0.25500000920E-02 0. -1.
    10030    2    1    2    0    0  0.00000000000E+00  0.00000000000E+00 -0.84523616698E+03  0.17300798715E+04  0.15095536373E+04 0.  0.
        5    1    3    3  502    0 -0.31635839098E+03  0.61555176555E+03 -0.77496754886E+02  0.69642978442E+03  0.46999998093E+01 0.  1.
       -5    1    3    3    0  502  0.31635839098E+03 -0.61555176555E+03 -0.76773941209E+03  0.10336500871E+04  0.46999998093E+01 0. -1.
</event>
<event>
 5   0  0.2542737E-04  0.1497076E+04  0.7818609E-02  0.8886400E-01
        1   -1    0    0  501    0  0.00000000000E+00  0.00000000000E+00  0.15271977759E+04  0.15271977759E+04  0.50400001928E-02 0.  1.
       -1   -1    0    0    0  501  0.00000000000E+00  0.00000000000E+00 -0.36688705313E+03  0.36688705317E+03  0.50400001928E-02 0. -1.
    10030    2    1    2    0    0  0.00000000000E+00  0.00000000000E+00  0.11603107228E+04  0.18940848291E+04  0.14970759388E+04 0.  0.
        1    1    3    3  502    0  0.20834427640E+02  0.25701755696E+03 -0.30892007325E+03  0.40239745233E+03  0.50400001928E-02 0. -1.
       -1    1    3    3    0  502 -0.20834427640E+02 -0.25701755696E+03  0.14692307960E+04  0.14916873768E+04  0.50400001928E-02 0.  1.
</event>
<event>
 5   0  0.2542737E-04  0.1502656E+04  0.7818609E-02  0.8882689E-01
        1   -1    0    0  501    0  0.00000000000E+00  0.00000000000E+00  0.98182162692E+03  0.98182162693E+03  0.50400001928E-02 0.  1.
       -1   -1    0    0    0  501  0.00000000000E+00  0.00000000000E+00 -0.57494540730E+03  0.57494540732E+03  0.50400001928E-02 0. -1.
    10030    2    1    2    0    0  0.00000000000E+00  0.00000000000E+00  0.40687621962E+03  0.15567670343E+04  0.15026560953E+04 0.  0.
        1    1    3    3  502    0  0.70643285405E+02 -0.17793357672E+03 -0.54925235423E+03  0.58166053687E+03  0.50400001928E-02 0. -1.
       -1    1    3    3    0  502 -0.70643285405E+02  0.17793357672E+03  0.95612857385E+03  0.97510649739E+03  0.50400001928E-02 0.  1.
</event>
<event>
 5   0  0.2605471E-04  0.1493341E+04  0.7818609E-02  0.8888893E-01
        1   -1    0    0  501    0  0.00000000000E+00  0.00000000000E+00  0.72424836447E+03  0.72424836449E+03  0.50400001928E-02 0.  1.
       -1   -1    0    0    0  501  0.00000000000E+00  0.00000000000E+00 -0.76978711061E+03  0.76978711062E+03  0.50400001928E-02 0. -1.
    10030    2    1    2    0    0  0.00000000000E+00  0.00000000000E+00 -0.45538746134E+02  0.14940354751E+04  0.14933412950E+04 0.  0.
        3    1    3    3  502    0  0.26353315237E+03  0.50064428215E+03 -0.51025620290E+03  0.76187651391E+03  0.10100000352E+00 0. -1.
       -3    1    3    3    0  502 -0.26353315237E+03 -0.50064428215E+03  0.46471745676E+03  0.73215896120E+03  0.10100000352E+00 0.  1.
</event>
<event>
 5   0  0.4948645E-04  0.1489330E+04  0.7818609E-02  0.8891579E-01
       -2   -1    0    0    0  501  0.00000000000E+00  0.00000000000E+00  0.41495603573E+03  0.41495603574E+03  0.25500000920E-02 0. -1.
        2   -1    0    0  501    0  0.00000000000E+00  0.00000000000E+00 -0.13363487133E+04  0.13363487133E+04  0.25500000920E-02 0.  1.
    10030    2    1    2    0    0  0.00000000000E+00  0.00000000000E+00 -0.92139267761E+03  0.17513047491E+04  0.14893300030E+04 0.  0.
        1    1    3    3  502    0 -0.83009559151E+02  0.78931487199E+02 -0.13259271915E+04  0.13308657648E+04  0.50400001928E-02 0.  1.
       -1    1    3    3    0  502  0.83009559151E+02 -0.78931487199E+02  0.40453451390E+03  0.42043898433E+03  0.50400001928E-02 0. -1.
</event>
<event>
 5   0  0.2565416E-04  0.1487329E+04  0.7818609E-02  0.8892923E-01
        1   -1    0    0  501    0  0.00000000000E+00  0.00000000000E+00  0.17051327026E+04  0.17051327026E+04  0.50400001928E-02 0. -1.
       -1   -1    0    0    0  501  0.00000000000E+00  0.00000000000E+00 -0.32433663017E+03  0.32433663021E+03  0.50400001928E-02 0.  1.
    10030    2    1    2    0    0  0.00000000000E+00  0.00000000000E+00  0.13807960724E+04  0.20294693328E+04  0.14873291429E+04 0.  0.
        5    1    3    3  502    0 -0.26475034455E+03  0.54947938183E+03  0.12709059932E+04  0.14096965878E+04  0.46999998093E+01 0. -1.
       -5    1    3    3    0  502  0.26475034455E+03 -0.54947938183E+03  0.10989007923E+03  0.61977274505E+03  0.46999998093E+01 0.  1.
</event>
<event>
 5   0  0.4948645E-04  0.1492267E+04  0.7818609E-02  0.8889612E-01
        2   -1    0    0  501    0  0.00000000000E+00  0.00000000000E+00  0.63647584499E+03  0.63647584499E+03  0.25500000920E-02 0. -1.
       -2   -1    0    0    0  501  0.00000000000E+00  0.00000000000E+00 -0.87468411619E+03  0.87468411619E+03  0.25500000920E-02 0.  1.
    10030    2    1    2    0    0  0.00000000000E+00  0.00000000000E+00 -0.23820827120E+03  0.15111599612E+04  0.14922671503E+04 0.  0.
        1    1    3    3  502    0 -0.72215250607E+03 -0.14261198375E+03  0.43943327679E+01  0.73611257979E+03  0.50400001928E-02 0.  1.
       -1    1    3    3    0  502  0.72215250607E+03  0.14261198375E+03 -0.24260260397E+03  0.77504738140E+03  0.50400001928E-02 0. -1.
</event>
<event>
 5   0  0.4768387E-04  0.1525595E+04  0.7818609E-02  0.8867609E-01
       -2   -1    0    0    0  501  0.00000000000E+00  0.00000000000E+00  0.48866555684E+03  0.48866555684E+03  0.25500000920E-02 0.  1.
        2   -1    0    0  501    0  0.00000000000E+00  0.00000000000E+00 -0.11907117606E+04  0.11907117606E+04  0.25500000920E-02 0. -1.
    10030    2    1    2    0    0  0.00000000000E+00  0.00000000000E+00 -0.70204620380E+03  0.16793773175E+04  0.15255947372E+04 0.  0.
        3    1    3    3  502    0  0.33546108234E+02 -0.51482801915E+03  0.26747328158E+03  0.58113268471E+03  0.10100000352E+00 0.  1.
       -3    1    3    3    0  502 -0.33546108234E+02  0.51482801915E+03 -0.96951948538E+03  0.10982446328E+04  0.10100000352E+00 0. -1.
</event>
<event>
 5   0  0.4726600E-04  0.1475952E+04  0.7818609E-02  0.8900604E-01
        2   -1    0    0  501    0  0.00000000000E+00  0.00000000000E+00  0.60797386924E+03  0.60797386925E+03  0.25500000920E-02 0.  1.
       -2   -1    0    0    0  501  0.00000000000E+00  0.00000000000E+00 -0.89577574910E+03  0.89577574910E+03  0.25500000920E-02 0. -1.
    10030    2    1    2    0    0  0.00000000000E+00  0.00000000000E+00 -0.28780187985E+03  0.15037496183E+04  0.14759515550E+04 0.  0.
        2    1    3    3  502    0 -0.46772744172E+03 -0.57061823364E+03 -0.15949009366E+03  0.75485840943E+03  0.25500000920E-02 0.  1.
       -2    1    3    3    0  502  0.46772744172E+03  0.57061823364E+03 -0.12831178619E+03  0.74889120891E+03  0.25500000920E-02 0. -1.
</event>
<event>
 5   0  0.2603873E-04  0.1508433E+04  0.7818609E-02  0.8878864E-01
        1   -1    0    0  501    0  0.00000000000E+00  0.00000000000E+00  0.81954855949E+03  0.81954855950E+03  0.50400001928E-02 0.  1.
       -1   -1    0    0    0  501  0.00000000000E+00  0.00000000000E+00 -0.69409277895E+03  0.69409277897E+03  0.50400001928E-02 0. -1.
    10030    2    1    2    0    0  0.00000000000E+00  0.00000000000E+00  0.12545578053E+03  0.15136413385E+04  0.15084332762E+04 0.  0.
        2    1    3    3  502    0  0.43166909817E+03  0.75065325527E+02 -0.55328883018E+03  0.70576309270E+03  0.25500000920E-02 0. -1.
       -2    1    3    3    0  502 -0.43166909817E+03 -0.75065325527E+02  0.67874461072E+03  0.80787824577E+03  0.25500000920E-02 0.  1.
</event>
<event>
 5   0  0.4569211E-04  0.1506433E+04  0.7818609E-02  0.8880187E-01
       -2   -1    0    0    0  501  0.00000000000E+00  0.00000000000E+00  0.21790668314E+03  0.21790668316E+03  0.25500000920E-02 0.  1.
        2   -1    0    0  501    0  0.00000000000E+00  0.00000000000E+00 -0.26035674032E+04  0.26035674032E+04  0.25500000920E-02 0. -1.
    10030    2    1    2    0    0  0.00000000000E+00  0.00000000000E+00 -0.23856607201E+04  0.28214740864E+04  0.15064325238E+04 0.  0.
        5    1    3    3  502    0  0.37850070062E+02 -0.66295664869E+03 -0.52702727998E+03  0.84777590771E+03  0.46999998093E+01 0.  1.
       -5    1    3    3    0  502 -0.37850070062E+02  0.66295664869E+03 -0.18586334401E+04  0.19736981787E+04  0.46999998093E+01 0. -1.
</event>
<event>
 5   0  0.1792000E-04  0.1470030E+04  0.7818609E-02  0.8904631E-01
       -3   -1    0    0    0  501  0.00000000000E+00  0.00000000000E+00  0.60608343185E+03  0.60608344027E+03  0.10100000352E+00 0. -1.
        3   -1    0    0  501    0  0.00000000000E+00  0.00000000000E+00 -0.89137393066E+03  0.89137393638E+03  0.10100000352E+00 0.  1.
    10030    2    1    2    0    0  0.00000000000E+00  0.00000000000E+00 -0.28529049881E+03  0.14974573766E+04  0.14700299066E+04 0.  0.
        4    1    3    3  502    0 -0.65838978443E+03  0.13069052963E+03 -0.44771283465E+03  0.80684912963E+03  0.12699999809E+01 0.  1.
       -4    1    3    3    0  502  0.65838978443E+03 -0.13069052963E+03  0.16242233585E+03  0.69060824702E+03  0.12699999809E+01 0. -1.
</event>
<event>
 5   0  0.4569211E-04  0.1502171E+04  0.7818609E-02  0.8883011E-01
       -2   -1    0    0    0  501  0.00000000000E+00  0.00000000000E+00  0.65949910381E+03  0.65949910381E+03  0.25500000920E-02 0.  1.
        2   -1    0    0  501    0  0.00000000000E+00  0.00000000000E+00 -0.85539022900E+03  0.85539022901E+03  0.25500000920E-02 0. -1.
    10030    2    1    2    0    0  0.00000000000E+00  0.00000000000E+00 -0.19589112520E+03  0.15148893328E+04  0.15021705488E+04 0.  0.
        5    1    3    3  502    0 -0.43303644371E+03  0.58624448397E+03 -0.28087558002E+03  0.78109944182E+03  0.46999998093E+01 0.  1.
       -5    1    3    3    0  502  0.43303644371E+03 -0.58624448397E+03  0.84984454822E+02  0.73378989099E+03  0.46999998093E+01 0. -1.
</event>
<event>
 5   0  0.4948645E-04  0.1429225E+04  0.7818609E-02  0.8932931E-01
       -2   -1    0    0    0  501  0.00000000000E+00  0.00000000000E+00  0.40909533881E+03  0.40909533881E+03  0.25500000920E-02 0.  1.
        2   -1    0    0  501    0  0.00000000000E+00  0.00000000000E+00 -0.12482940805E+04  0.12482940805E+04  0.25500000920E-02 0. -1.
    10030    2    1    2    0    0  0.00000000000E+00  0.00000000000E+00 -0.83919874170E+03  0.16573894193E+04  0.14292253703E+04 0.  0.
        1    1    3    3  502    0  0.12515438355E+03  0.40558260426E+02  0.39493047113E+03  0.41626754529E+03  0.50400001928E-02 0.  1.
       -1    1    3    3    0  502 -0.12515438355E+03 -0.40558260426E+02 -0.12341292128E+04  0.12411218740E+04  0.50400001928E-02 0. -1.
</event>
<event>
 5   0  0.4785496E-04  0.1479120E+04  0.7818609E-02  0.8898458E-01
        2   -1    0    0  501    0  0.00000000000E+00  0.00000000000E+00  0.57203384106E+03  0.57203384107E+03  0.25500000920E-02 0. -1.
       -2   -1    0    0    0  501  0.00000000000E+00  0.00000000000E+00 -0.95614799232E+03  0.95614799233E+03  0.25500000920E-02 0.  1.
    10030    2    1    2    0    0  0.00000000000E+00  0.00000000000E+00 -0.38411415126E+03  0.15281818334E+04  0.14791200204E+04 0.  0.
        4    1    3    3  502    0 -0.24263882271E+03 -0.14770111051E+03 -0.89753730750E+03  0.94141598010E+03  0.12699999809E+01 0.  1.
       -4    1    3    3    0  502  0.24263882271E+03  0.14770111051E+03  0.51342315623E+03  0.58676585329E+03  0.12699999809E+01 0. -1.
</event>
<event>
 5   0  0.2603873E-04  0.1501235E+04  0.7818609E-02  0.8883632E-01
       -1   -1    0    0    0  501  0.00000000000E+00  0.00000000000E+00  0.54134348739E+03  0.54134348741E+03  0.50400001928E-02 0. -1.
        1   -1    0    0  501    0  0.00000000000E+00  0.00000000000E+00 -0.10407931407E+04  0.10407931407E+04  0.50400001928E-02 0.  1.
    10030    2    1    2    0    0  0.00000000000E+00  0.00000000000E+00 -0.49944965331E+03  0.15821366281E+04  0.15012349429E+04 0.  0.
        2    1    3    3  502    0 -0.75201706163E+01  0.13272544301E+03 -0.10282878633E+04  0.10368454687E+04  0.25500000920E-02 0.  1.
       -2    1    3    3    0  502  0.75201706163E+01 -0.13272544301E+03  0.52883820998E+03  0.54529115941E+03  0.25500000920E-02 0. -1.
</event>
<event>
 5   0  0.2603873E-04  0.1498799E+04  0.7818609E-02  0.8885252E-01
        1   -1    0    0  501    0  0.00000000000E+00  0.00000000000E+00  0.65023066425E+03  0.65023066427E+03  0.50400001928E-02 0. -1.
       -1   -1    0    0    0  501  0.00000000000E+00  0.00000000000E+00 -0.86369265370E+03  0.86369265371E+03  0.50400001928E-02 0.  1.
    10030    2    1    2    0    0  0.00000000000E+00  0.00000000000E+00 -0.21346198945E+03  0.15139233180E+04  0.14987987830E+04 0.  0.
        2    1    3    3  502    0 -0.31188714597E+03  0.51421063662E+03  0.34489753190E+03  0.69328239424E+03  0.25500000920E-02 0. -1.
       -2    1    3    3    0  502  0.31188714597E+03 -0.51421063662E+03 -0.55835952135E+03  0.82064092375E+03  0.25500000920E-02 0.  1.
</event>
<event>
 5   0  0.4569211E-04  0.1501835E+04  0.7818609E-02  0.8883233E-01
        2   -1    0    0  501    0  0.00000000000E+00  0.00000000000E+00  0.91914196239E+03  0.91914196240E+03  0.25500000920E-02 0.  1.
       -2   -1    0    0    0  501  0.00000000000E+00  0.00000000000E+00 -0.61348220740E+03  0.61348220740E+03  0.25500000920E-02 0. -1.
    10030    2    1    2    0    0  0.00000000000E+00  0.00000000000E+00  0.30565975499E+03  0.15326241698E+04  0.15018351974E+04 0.  0.
        5    1    3    3  502    0 -0.61463368641E+03  0.68508206859E+02 -0.28179713916E+03  0.67963200374E+03  0.46999998093E+01 0.  1.
       -5    1    3    3    0  502  0.61463368641E+03 -0.68508206859E+02  0.58745689415E+03  0.85299216606E+03  0.46999998093E+01 0. -1.
</event>
<event>
 5   0  0.4768387E-04  0.1494933E+04  0.7818609E-02  0.8887830E-01
        2   -1    0    0  501    0  0.00000000000E+00  0.00000000000E+00  0.12680371553E+04  0.12680371553E+04  0.25500000920E-02 0.  1.
       -2   -1    0    0    0  501  0.00000000000E+00  0.00000000000E+00 -0.44060685149E+03  0.44060685150E+03  0.25500000920E-02 0. -1.
    10030    2    1    2    0    0  0.00000000000E+00  0.00000000000E+00  0.82743030384E+03  0.17086440068E+04  0.14949325852E+04 0.  0.
        3    1    3    3  502    0 -0.55126319260E+03 -0.40183987538E+03  0.76290580528E+03  0.10234215509E+04  0.10100000352E+00 0.  1.
       -3    1    3    3    0  502  0.55126319260E+03  0.40183987538E+03  0.64524498553E+02  0.68522245591E+03  0.10100000352E+00 0. -1.
</event>
<event>
 5   0  0.2603873E-04  0.1506821E+04  0.7818609E-02  0.8879930E-01
        1   -1    0    0  501    0  0.00000000000E+00  0.00000000000E+00  0.17614780828E+04  0.17614780828E+04  0.50400001928E-02 0. -1.
       -1   -1    0    0    0  501  0.00000000000E+00  0.00000000000E+00 -0.32224503083E+03  0.32224503087E+03  0.50400001928E-02 0.  1.
    10030    2    1    2    0    0  0.00000000000E+00  0.00000000000E+00  0.14392330520E+04  0.20837231137E+04  0.15068212358E+04 0.  0.
        2    1    3    3  502    0  0.29275083757E+03 -0.60267032844E+03  0.24315549823E+03  0.71276866795E+03  0.25500000920E-02 0.  1.
       -2    1    3    3    0  502 -0.29275083757E+03  0.60267032844E+03  0.11960775538E+04  0.13709544457E+04  0.25500000920E-02 0. -1.
</event>
<event>
 5   0  0.4785496E-04  0.1498982E+04  0.7818609E-02  0.8885130E-01
        2   -1    0    0  501    0  0.00000000000E+00  0.00000000000E+00  0.12027227822E+04  0.12027227822E+04  0.25500000920E-02 0.  1.
       -2   -1    0    0    0  501  0.00000000000E+00  0.00000000000E+00 -0.46705402365E+03  0.46705402365E+03  0.25500000920E-02 0. -1.
    10030    2    1    2    0    0  0.00000000000E+00  0.00000000000E+00  0.73566875860E+03  0.16697768059E+04  0.14989816741E+04 0.  0.
        4    1    3    3  502    0 -0.56466790133E+03  0.25528319741E+03  0.83743084376E+03  0.10417827896E+04  0.12699999809E+01 0. -1.
       -4    1    3    3    0  502  0.56466790133E+03 -0.25528319741E+03 -0.10176208516E+03  0.62799401633E+03  0.12699999809E+01 0.  1.
</event>
<event>
 5   0  0.2603873E-04  0.1348993E+04  0.7818609E-02  0.8991591E-01
       -1   -1    0    0    0  501  0.00000000000E+00  0.00000000000E+00  0.25755332572E+03  0.25755332577E+03  0.50400001928E-02 0.  1.
        1   -1    0    0  501    0  0.00000000000E+00  0.00000000000E+00 -0.17664127087E+04  0.17664127087E+04  0.50400001928E-02 0. -1.
    10030    2    1    2    0    0  0.00000000000E+00  0.00000000000E+00 -0.15088593829E+04  0.20239660344E+04  0.13489929099E+04 0.  0.
        2    1    3    3  502    0  0.33056030165E+03 -0.44362441535E+03 -0.17553291227E+03  0.58041755505E+03  0.25500000920E-02 0.  1.
       -2    1    3    3    0  502 -0.33056030165E+03  0.44362441535E+03 -0.13333264707E+04  0.14435484794E+04  0.25500000920E-02 0. -1.
</event>
<event>
 5   0  0.2605471E-04  0.1505962E+04  0.7818609E-02  0.8880498E-01
        1   -1    0    0  501    0  0.00000000000E+00  0.00000000000E+00  0.56489607168E+03  0.56489607170E+03  0.50400001928E-02 0.  1.
       -1   -1    0    0    0  501  0.00000000000E+00  0.00000000000E+00 -0.10036891611E+04  0.10036891611E+04  0.50400001928E-02 0. -1.
    10030    2    1    2    0    0  0.00000000000E+00  0.00000000000E+00 -0.43879308942E+03  0.15685852328E+04  0.15059615723E+04 0.  0.
        3    1    3    3  502    0 -0.48928987182E+03 -0.31087014186E+03  0.28114407609E+03  0.64427232246E+03  0.10100000352E+00 0.  1.
       -3    1    3    3    0  502  0.48928987182E+03  0.31087014186E+03 -0.71993716552E+03  0.92431291036E+03  0.10100000352E+00 0. -1.
</event>
<event>
 5   0  0.4948645E-04  0.1502169E+04  0.7818609E-02  0.8883012E-01
       -2   -1    0    0    0  501  0.00000000000E+00  0.00000000000E+00  0.51014544914E+03  0.51014544915E+03  0.25500000920E-02 0. -1.
        2   -1    0    0  501    0  0.00000000000E+00  0.00000000000E+00 -0.11058175639E+04  0.11058175639E+04  0.25500000920E-02 0.  1.
    10030    2    1    2    0    0  0.00000000000E+00  0.00000000000E+00 -0.59567211475E+03  0.16159630130E+04  0.15021688291E+04 0.  0.
        1    1    3    3  502    0  0.14645976499E+03  0.23251469185E+03  0.45412566856E+03  0.53079531606E+03  0.50400001928E-02 0. -1.
       -1    1    3    3    0  502 -0.14645976499E+03 -0.23251469185E+03 -0.10497977833E+04  0.10851676970E+04  0.50400001928E-02 0.  1.
</event>
<event>
 5   0  0.2603873E-04  0.1437159E+04  0.7818609E-02  0.8927352E-01
        1   -1    0    0  501    0  0.00000000000E+00  0.00000000000E+00  0.19786460757E+04  0.19786460757E+04  0.50400001928E-02 0.  1.
       -1   -1    0    0    0  501  0.00000000000E+00  0.00000000000E+00 -0.26096461434E+03  0.26096461438E+03  0.50400001928E-02 0. -1.
    10030    2    1    2    0    0  0.00000000000E+00  0.00000000000E+00  0.17176814613E+04  0.22396106901E+04  0.14371591563E+04 0.  0.
        2    1    3    3  502    0 -0.23463871640E+03  0.62804187492E+03  0.12618045657E+04  0.14288606251E+04  0.25500000920E-02 0.  1.
       -2    1    3    3    0  502  0.23463871640E+03 -0.62804187492E+03  0.45587689565E+03  0.81075006499E+03  0.25500000920E-02 0. -1.
</event>
<event>
 5   0  0.4948645E-04  0.1499915E+04  0.7818609E-02  0.8884510E-01
        2   -1    0    0  501    0  0.00000000000E+00  0.00000000000E+00  0.86594501649E+03  0.86594501650E+03  0.25500000920E-02 0.  1.
       -2   -1    0    0    0  501  0.00000000000E+00  0.00000000000E+00 -0.64950532528E+03  0.64950532528E+03  0.25500000920E-02 0. -1.
    10030    2    1    2    0    0  0.00000000000E+00  0.00000000000E+00  0.21643969122E+03  0.15154503418E+04  0.14999145304E+04 0.  0.
        1    1    3    3  502    0 -0.19303360631E+03  0.66578188444E+03 -0.18094097072E+03  0.71642663667E+03  0.50400001928E-02 0. -1.
       -1    1    3    3    0  502  0.19303360631E+03 -0.66578188444E+03  0.39738066193E+03  0.79902370511E+03  0.50400001928E-02 0.  1.
</event>
<event>
 5   0  0.4768387E-04  0.1519390E+04  0.7818609E-02  0.8871660E-01
       -2   -1    0    0    0  501  0.00000000000E+00  0.00000000000E+00  0.30653550080E+03  0.30653550081E+03  0.25500000920E-02 0. -1.
        2   -1    0    0  501    0  0.00000000000E+00  0.00000000000E+00 -0.18827712814E+04  0.18827712814E+04  0.25500000920E-02 0.  1.
    10030    2    1    2    0    0  0.00000000000E+00  0.00000000000E+00 -0.15762357806E+04  0.21893067823E+04  0.15193896639E+04 0.  0.
        3    1    3    3  502    0  0.14131033501E+03  0.38377741135E+02  0.28600904627E+03  0.32131393768E+03  0.10100000352E+00 0. -1.
       -3    1    3    3    0  502 -0.14131033501E+03 -0.38377741135E+02 -0.18622448269E+04  0.18679928446E+04  0.10100000352E+00 0.  1.
</event>
<event>
 5   0  0.2542737E-04  0.1499324E+04  0.7818609E-02  0.8884902E-01
        1   -1    0    0  501    0  0.00000000000E+00  0.00000000000E+00  0.14198736358E+04  0.14198736358E+04  0.50400001928E-02 0.  1.
       -1   -1    0    0    0  501  0.00000000000E+00  0.00000000000E+00 -0.39580517810E+03  0.39580517813E+03  0.50400001928E-02 0. -1.
    10030    2    1    2    0    0  0.00000000000E+00  0.00000000000E+00  0.10240684577E+04  0.18156788139E+04  0.14993242976E+04 0.  0.
        1    1    3    3  502    0 -0.22291197836E+03  0.25511231194E+03 -0.29781595414E+03  0.45107248239E+03  0.50400001928E-02 0. -1.
       -1    1    3    3    0  502  0.22291197836E+03 -0.25511231194E+03  0.13218844118E+04  0.13646063315E+04  0.50400001928E-02 0.  1.
</event>
<event>
 5   0  0.2542737E-04  0.1360803E+04  0.7818609E-02  0.8982691E-01
        1   -1    0    0  501    0  0.00000000000E+00  0.00000000000E+00  0.61507880416E+03  0.61507880418E+03  0.50400001928E-02 0. -1.
       -1   -1    0    0    0  501  0.00000000000E+00  0.00000000000E+00 -0.75266127335E+03  0.75266127336E+03  0.50400001928E-02 0.  1.
    10030    2    1    2    0    0  0.00000000000E+00  0.00000000000E+00 -0.13758246919E+03  0.13677400775E+04  0.13608026984E+04 0.  0.
        1    1    3    3  502    0 -0.32322803035E+03  0.33401692210E+03 -0.56821707266E+03  0.73410782964E+03  0.50400001928E-02 0.  1.
       -1    1    3    3    0  502  0.32322803035E+03 -0.33401692210E+03  0.43063460347E+03  0.63363224790E+03  0.50400001928E-02 0. -1.
</event>
<event>
 5   0  0.4948645E-04  0.1467134E+04  0.7818609E-02  0.8906607E-01
        2   -1    0    0  501    0  0.00000000000E+00  0.00000000000E+00  0.15793230362E+04  0.15793230362E+04  0.25500000920E-02 0. -1.
       -2   -1    0    0    0  501  0.00000000000E+00  0.00000000000E+00 -0.34072861877E+03  0.34072861878E+03  0.25500000920E-02 0.  1.
    10030    2    1    2    0    0  0.00000000000E+00  0.00000000000E+00  0.12385944175E+04  0.19200516550E+04  0.14671340181E+04 0.  0.
        1    1    3    3  502    0  0.69638510072E+03 -0.20188590321E+03  0.47350425139E+03  0.86597713742E+03  0.50400001928E-02 0.  1.
       -1    1    3    3    0  502 -0.69638510072E+03  0.20188590321E+03  0.76509016607E+03  0.10540745176E+04  0.50400001928E-02 0. -1.
</event>
<event>
 5   0  0.2603873E-04  0.1427682E+04  0.7818609E-02  0.8934021E-01
       -1   -1    0    0    0  501  0.00000000000E+00  0.00000000000E+00  0.43044659685E+03  0.43044659688E+03  0.50400001928E-02 0. -1.
        1   -1    0    0  501    0  0.00000000000E+00  0.00000000000E+00 -0.11838146853E+04  0.11838146853E+04  0.50400001928E-02 0.  1.
    10030    2    1    2    0    0  0.00000000000E+00  0.00000000000E+00 -0.75336808848E+03  0.16142612822E+04  0.14276820411E+04 0.  0.
        2    1    3    3  502    0 -0.48956909450E+03  0.51881586988E+03 -0.34631931307E+03  0.79295956501E+03  0.25500000920E-02 0. -1.
       -2    1    3    3    0  502  0.48956909450E+03 -0.51881586988E+03 -0.40704877541E+03  0.82130171722E+03  0.25500000920E-02 0.  1.
</event>
<event>
 5   0  0.2542737E-04  0.1334020E+04  0.7818609E-02  0.9003014E-01
       -1   -1    0    0    0  501  0.00000000000E+00  0.00000000000E+00  0.15055975173E+04  0.15055975173E+04  0.50400001928E-02 0. -1.
        1   -1    0    0  501    0  0.00000000000E+00  0.00000000000E+00 -0.29549892444E+03  0.29549892448E+03  0.50400001928E-02 0.  1.
    10030    2    1    2    0    0  0.00000000000E+00  0.00000000000E+00  0.12100985929E+04  0.18010964418E+04  0.13340201604E+04 0.  0.
        1    1    3    3  502    0  0.43584723938E+03  0.27798980485E+03  0.35972350147E+02  0.51820378006E+03  0.50400001928E-02 0. -1.
       -1    1    3    3    0  502 -0.43584723938E+03 -0.27798980485E+03  0.11741262427E+04  0.12828926618E+04  0.50400001928E-02 0.  1.
</event>
<event>
 5   0  0.4768387E-04  0.1508296E+04  0.7818609E-02  0.8878955E-01
        2   -1    0    0  501    0  0.00000000000E+00  0.00000000000E+00  0.12390315432E+04  0.12390315432E+04  0.25500000920E-02 0.  1.
       -2   -1    0    0    0  501  0.00000000000E+00  0.00000000000E+00 -0.45901938969E+03  0.45901938970E+03  0.25500000920E-02 0. -1.
    10030    2    1    2    0    0  0.00000000000E+00  0.00000000000E+00  0.78001215350E+03  0.16980509329E+04  0.15082963936E+04 0.  0.
        3    1    3    3  502    0  0.64720266337E+03 -0.24851641998E+03  0.55833210119E+02  0.69552070855E+03  0.10100000352E+00 0. -1.
       -3    1    3    3    0  502 -0.64720266337E+03  0.24851641998E+03  0.72417894338E+03  0.10025302243E+04  0.10100000352E+00 0.  1.
</event>
<event>
 5   0  0.2544374E-04  0.1491022E+04  0.7818609E-02  0.8890445E-01
        1   -1    0    0  501    0  0.00000000000E+00  0.00000000000E+00  0.97984772037E+03  0.97984772038E+03  0.50400001928E-02 0. -1.
       -1   -1    0    0    0  501  0.00000000000E+00  0.00000000000E+00 -0.56721727028E+03  0.56721727031E+03  0.50400001928E-02 0.  1.
    10030    2    1    2    0    0  0.00000000000E+00  0.00000000000E+00  0.41263045008E+03  0.15470649907E+04  0.14910218634E+04 0.  0.
        4    1    3    3  502    0  0.46839887362E+03  0.41714453905E+03 -0.21179227711E+03  0.66201559862E+03  0.12699999809E+01 0.  1.
       -4    1    3    3    0  502 -0.46839887362E+03 -0.41714453905E+03  0.62442272719E+03  0.88504939207E+03  0.12699999809E+01 0. -1.
</event>
<event>
 5   0  0.2544374E-04  0.1507230E+04  0.7818609E-02  0.8879659E-01
        1   -1    0    0  501    0  0.00000000000E+00  0.00000000000E+00  0.47735881996E+03  0.47735881999E+03  0.50400001928E-02 0.  1.
       -1   -1    0    0    0  501  0.00000000000E+00  0.00000000000E+00 -0.11897453750E+04  0.11897453750E+04  0.50400001928E-02 0. -1.
    10030    2    1    2    0    0  0.00000000000E+00  0.00000000000E+00 -0.71238655505E+03  0.16671041950E+04  0.15072298409E+04 0.  0.
        4    1    3    3  502    0  0.64012473524E+03 -0.14787773704E+03  0.52164920357E+02  0.65905257271E+03  0.12699999809E+01 0.  1.
       -4    1    3    3    0  502 -0.64012473524E+03  0.14787773704E+03 -0.76455147541E+03  0.10080516223E+04  0.12699999809E+01 0. -1.
</event>
<event>
 5   0  0.2544374E-04  0.1496890E+04  0.7818609E-02  0.8886524E-01
        1   -1    0    0  501    0  0.00000000000E+00  0.00000000000E+00  0.47827157838E+03  0.47827157840E+03  0.50400001928E-02 0.  1.
       -1   -1    0    0    0  501  0.00000000000E+00  0.00000000000E+00 -0.11712383222E+04  0.11712383222E+04  0.50400001928E-02 0. -1.
    10030    2    1    2    0    0  0.00000000000E+00  0.00000000000E+00 -0.69296674379E+03  0.16495099006E+04  0.14968901109E+04 0.  0.
        4    1    3    3  502    0 -0.73384469207E+03 -0.83693511921E+02 -0.21317036321E+03  0.76874953832E+03  0.12699999809E+01 0.  1.
       -4    1    3    3    0  502  0.73384469207E+03  0.83693511921E+02 -0.47979638058E+03  0.88076036226E+03  0.12699999809E+01 0. -1.
</event>
<event>
 5   0  0.4726600E-04  0.1512817E+04  0.7818609E-02  0.8875974E-01
        2   -1    0    0  501    0  0.00000000000E+00  0.00000000000E+00  0.14953570202E+04  0.14953570202E+04  0.25500000920E-02 0. -1.
       -2   -1    0    0    0  501  0.00000000000E+00  0.00000000000E+00 -0.38262011098E+03  0.38262011099E+03  0.25500000920E-02 0.  1.
    10030    2    1    2    0    0  0.00000000000E+00  0.00000000000E+00  0.11127369093E+04  0.18779771312E+04  0.15128168019E+04 0.  0.
        2    1    3    3  502    0  0.92088227741E+02 -0.54159913258E+03 -0.89080902675E+02  0.55654763437E+03  0.25500000920E-02 0.  1.
       -2    1    3    3    0  502 -0.92088227741E+02  0.54159913258E+03  0.12018178119E+04  0.13214294969E+04  0.25500000920E-02 0. -1.
</event>
<event>
 5   0  0.4785496E-04  0.1512043E+04  0.7818609E-02  0.8876484E-01
       -2   -1    0    0    0  501  0.00000000000E+00  0.00000000000E+00  0.51271719457E+03  0.51271719458E+03  0.25500000920E-02 0. -1.
        2   -1    0    0  501    0  0.00000000000E+00  0.00000000000E+00 -0.11147824878E+04  0.11147824878E+04  0.25500000920E-02 0.  1.
    10030    2    1    2    0    0  0.00000000000E+00  0.00000000000E+00 -0.60206529325E+03  0.16274996824E+04  0.15120425255E+04 0.  0.
        4    1    3    3  502    0 -0.53750712865E+03 -0.32446855532E+03  0.15228267010E+03  0.64605369843E+03  0.12699999809E+01 0.  1.
       -4    1    3    3    0  502  0.53750712865E+03  0.32446855532E+03 -0.75434796335E+03  0.98144598397E+03  0.12699999809E+01 0. -1.
</event>
<event>
 5   0  0.4768387E-04  0.1498881E+04  0.7818609E-02  0.8885198E-01
        2   -1    0    0  501    0  0.00000000000E+00  0.00000000000E+00  0.93288558280E+03  0.93288558280E+03  0.25500000920E-02 0. -1.
       -2   -1    0    0    0  501  0.00000000000E+00  0.00000000000E+00 -0.60206827289E+03  0.60206827289E+03  0.25500000920E-02 0.  1.
    10030    2    1    2    0    0  0.00000000000E+00  0.00000000000E+00  0.33081730992E+03  0.15349538557E+04  0.14988806646E+04 0.  0.
        3    1    3    3  502    0  0.60794083369E+03 -0.24505238936E+03  0.53749604969E+03  0.84767018612E+03  0.10100000352E+00 0. -1.
       -3    1    3    3    0  502 -0.60794083369E+03  0.24505238936E+03 -0.20667873978E+03  0.68728366958E+03  0.10100000352E+00 0.  1.
</event>
<event>
 5   0  0.2605471E-04  0.1500146E+04  0.7818609E-02  0.8884356E-01
       -1   -1    0    0    0  501  0.00000000000E+00  0.00000000000E+00  0.59172858625E+03  0.59172858627E+03  0.50400001928E-02 0. -1.
        1   -1    0    0  501    0  0.00000000000E+00  0.00000000000E+00 -0.95078920243E+03  0.95078920245E+03  0.50400001928E-02 0.  1.
    10030    2    1    2    0    0  0.00000000000E+00  0.00000000000E+00 -0.35906061618E+03  0.15425177887E+04  0.15001455271E+04 0.  0.
        3    1    3    3  502    0  0.48371938167E+02  0.69112108180E+03 -0.47508773171E+03  0.84005747251E+03  0.10100000352E+00 0.  1.
       -3    1    3    3    0  502 -0.48371938167E+02 -0.69112108180E+03  0.11602711552E+03  0.70246031621E+03  0.10100000352E+00 0. -1.
</event>
<event>
 5   0  0.4569211E-04  0.1503567E+04  0.7818609E-02  0.8882084E-01
        2   -1    0    0  501    0  0.00000000000E+00  0.00000000000E+00  0.23994378919E+04  0.23994378919E+04  0.25500000920E-02 0. -1.
       -2   -1    0    0    0  501  0.00000000000E+00  0.00000000000E+00 -0.23554626031E+03  0.23554626032E+03  0.25500000920E-02 0.  1.
    10030    2    1    2    0    0  0.00000000000E+00  0.00000000000E+00  0.21638916316E+04  0.26349841522E+04  0.15035672546E+04 0.  0.
        5    1    3    3  502    0 -0.19553323712E+03  0.46209848798E+03  0.20630079623E+04  0.21231561888E+04  0.46999998093E+01 0. -1.
       -5    1    3    3    0  502  0.19553323712E+03 -0.46209848798E+03  0.10088366926E+03  0.51182796342E+03  0.46999998093E+01 0.  1.
</event>
<event>
 5   0  0.4726600E-04  0.1514143E+04  0.7818609E-02  0.8875102E-01
        2   -1    0    0  501    0  0.00000000000E+00  0.00000000000E+00  0.12926230621E+04  0.12926230621E+04  0.25500000920E-02 0.  1.
       -2   -1    0    0    0  501  0.00000000000E+00  0.00000000000E+00 -0.44340618111E+03  0.44340618112E+03  0.25500000920E-02 0. -1.
    10030    2    1    2    0    0  0.00000000000E+00  0.00000000000E+00  0.84921688099E+03  0.17360292432E+04  0.15141427351E+04 0.  0.
        2    1    3    3  502    0 -0.16989276014E+03  0.18409017804E+03  0.12437281703E+04  0.12687050506E+04  0.25500000920E-02 0.  1.
       -2    1    3    3    0  502  0.16989276014E+03 -0.18409017804E+03 -0.39451128936E+03  0.46732419265E+03  0.25500000920E-02 0. -1.
</event>
<event>
 5   0  0.2605471E-04  0.1501768E+04  0.7818609E-02  0.8883278E-01
        1   -1    0    0  501    0  0.00000000000E+00  0.00000000000E+00  0.15705767628E+04  0.15705767628E+04  0.50400001928E-02 0. -1.
       -1   -1    0    0    0  501  0.00000000000E+00  0.00000000000E+00 -0.35899368074E+03  0.35899368077E+03  0.50400001928E-02 0.  1.
    10030    2    1    2    0    0  0.00000000000E+00  0.00000000000E+00  0.12115830820E+04  0.19295704436E+04  0.15017684682E+04 0.  0.
        3    1    3    3  502    0  0.22754007135E+03 -0.20229418796E+03 -0.27612583283E+03  0.41102665158E+03  0.10100000352E+00 0.  1.
       -3    1    3    3    0  502 -0.22754007135E+03  0.20229418796E+03  0.14877089149E+04  0.15185437920E+04  0.10100000352E+00 0. -1.
</event>
<event>
 5   0  0.4569211E-04  0.1503108E+04  0.7818609E-02  0.8882389E-01
       -2   -1    0    0    0  501  0.00000000000E+00  0.00000000000E+00  0.25268139042E+03  0.25268139043E+03  0.25500000920E-02 0. -1.
        2   -1    0    0  501    0  0.00000000000E+00  0.00000000000E+00 -0.22353593080E+04  0.22353593080E+04  0.25500000920E-02 0.  1.
    10030    2    1    2    0    0  0.00000000000E+00  0.00000000000E+00 -0.19826779176E+04  0.24880406984E+04  0.15031083767E+04 0.  0.
        5    1    3    3  502    0  0.37768462521E+03 -0.64961272388E+03 -0.10128727174E+04  0.12611802404E+04  0.46999998093E+01 0. -1.
       -5    1    3    3    0  502 -0.37768462521E+03  0.64961272388E+03 -0.96980520015E+03  0.12268604580E+04  0.46999998093E+01 0.  1.
</event>
<event>
 5   0  0.2565416E-04  0.1502379E+04  0.7818609E-02  0.8882872E-01
       -1   -1    0    0    0  501  0.00000000000E+00  0.00000000000E+00  0.70247344937E+03  0.70247344939E+03  0.50400001928E-02 0. -1.
        1   -1    0    0  501    0  0.00000000000E+00  0.00000000000E+00 -0.80328423539E+03  0.80328423541E+03  0.50400001928E-02 0.  1.
    10030    2    1    2    0    0  0.00000000000E+00  0.00000000000E+00 -0.10081078602E+03  0.15057576848E+04  0.15023792433E+04 0.  0.
        5    1    3    3  502    0 -0.32361848747E+02 -0.33687064726E+03 -0.72253601344E+03  0.79787812538E+03  0.46999998093E+01 0.  1.
       -5    1    3    3    0  502  0.32361848747E+02  0.33687064726E+03  0.62172522742E+03  0.70787955942E+03  0.46999998093E+01 0. -1.
</event>
<event>
 5   0  0.4569211E-04  0.1503620E+04  0.7818609E-02  0.8882049E-01
       -2   -1    0    0    0  501  0.00000000000E+00  0.00000000000E+00  0.78793650747E+03  0.78793650747E+03  0.25500000920E-02 0. -1.
        2   -1    0    0  501    0  0.00000000000E+00  0.00000000000E+00 -0.71733974829E+03  0.71733974830E+03  0.25500000920E-02 0.  1.
    10030    2    1    2    0    0  0.00000000000E+00  0.00000000000E+00  0.70596759172E+02  0.15052762558E+04  0.15036198668E+04 0.  0.
        5    1    3    3  502    0 -0.55920698128E+03  0.45007420891E+01 -0.46771247069E+03  0.72904715199E+03  0.46999998093E+01 0.  1.
       -5    1    3    3    0  502  0.55920698128E+03 -0.45007420891E+01  0.53830922986E+03  0.77622910377E+03  0.46999998093E+01 0. -1.
</event>
<event>
 5   0  0.4948645E-04  0.1501122E+04  0.7818609E-02  0.8883707E-01
        2   -1    0    0  501    0  0.00000000000E+00  0.00000000000E+00  0.45359484093E+03  0.45359484094E+03  0.25500000920E-02 0. -1.
       -2   -1    0    0    0  501  0.00000000000E+00  0.00000000000E+00 -0.12419489154E+04  0.12419489154E+04  0.25500000920E-02 0.  1.
    10030    2    1    2    0    0  0.00000000000E+00  0.00000000000E+00 -0.78835407449E+03  0.16955437564E+04  0.15011217416E+04 0.  0.
        1    1    3    3  502    0  0.59084666220E+03  0.31867495511E+03 -0.15008629454E+02  0.67147506598E+03  0.50400001928E-02 0. -1.
       -1    1    3    3    0  502 -0.59084666220E+03 -0.31867495511E+03 -0.77334544504E+03  0.10240686904E+04  0.50400001928E-02 0.  1.
</event>
<event>
 5   0  0.4785496E-04  0.1501847E+04  0.7818609E-02  0.8883226E-01
       -2   -1    0    0    0  501  0.00000000000E+00  0.00000000000E+00  0.56165595292E+03  0.56165595293E+03  0.25500000920E-02 0. -1.
        2   -1    0    0  501    0  0.00000000000E+00  0.00000000000E+00 -0.10039700217E+04  0.10039700217E+04  0.25500000920E-02 0.  1.
    10030    2    1    2    0    0  0.00000000000E+00  0.00000000000E+00 -0.44231406875E+03  0.15656259746E+04  0.15018465158E+04 0.  0.
        4    1    3    3  502    0 -0.11251884248E+03  0.53855407067E+03  0.31160717759E+03  0.63229868178E+03  0.12699999809E+01 0. -1.
       -4    1    3    3    0  502  0.11251884248E+03 -0.53855407067E+03 -0.75392124634E+03  0.93332729282E+03  0.12699999809E+01 0.  1.
</event>
<event>
 5   0  0.2605471E-04  0.1510764E+04  0.7818609E-02  0.8877326E-01
        1   -1    0    0  501    0  0.00000000000E+00  0.00000000000E+00  0.14650569793E+04  0.14650569793E+04  0.50400001928E-02 0.  1.
       -1   -1    0    0    0  501  0.00000000000E+00  0.00000000000E+00 -0.38947443190E+03  0.38947443193E+03  0.50400001928E-02 0. -1.
    10030    2    1    2    0    0  0.00000000000E+00  0.00000000000E+00  0.10755825474E+04  0.18545314112E+04  0.15107643559E+04 0.  0.
        3    1    3    3  502    0 -0.12815931850E+03  0.14767918547E+03  0.14334520303E+04  0.14467268872E+04  0.10100000352E+00 0.  1.
       -3    1    3    3    0  502  0.12815931850E+03 -0.14767918547E+03 -0.35786948297E+03  0.40780452398E+03  0.10100000352E+00 0. -1.
</event>
<event>
 5   0  0.2544374E-04  0.1502297E+04  0.7818609E-02  0.8882927E-01
        1   -1    0    0  501    0  0.00000000000E+00  0.00000000000E+00  0.11734095277E+04  0.11734095278E+04  0.50400001928E-02 0. -1.
       -1   -1    0    0    0  501  0.00000000000E+00  0.00000000000E+00 -0.48084130553E+03  0.48084130555E+03  0.50400001928E-02 0.  1.
    10030    2    1    2    0    0  0.00000000000E+00  0.00000000000E+00  0.69256822221E+03  0.16542508333E+04  0.15022966009E+04 0.  0.
        4    1    3    3  502    0 -0.43562156633E+03  0.51939457775E+03  0.70256168541E+03  0.97628449294E+03  0.12699999809E+01 0. -1.
       -4    1    3    3    0  502  0.43562156633E+03 -0.51939457775E+03 -0.99934631974E+01  0.67796634036E+03  0.12699999809E+01 0.  1.
</event>
<event>
 5   0  0.4948645E-04  0.1513965E+04  0.7818609E-02  0.8875219E-01
        2   -1    0    0  501    0  0.00000000000E+00  0.00000000000E+00  0.18162104906E+04  0.18162104906E+04  0.25500000920E-02 0.  1.
       -2   -1    0    0    0  501  0.00000000000E+00  0.00000000000E+00 -0.31550453936E+03  0.31550453937E+03  0.25500000920E-02 0. -1.
    10030    2    1    2    0    0  0.00000000000E+00  0.00000000000E+00  0.15007059513E+04  0.21317150300E+04  0.15139651967E+04 0.  0.
        1    1    3    3  502    0  0.55504766700E+03 -0.48065056823E+03  0.49103076024E+03  0.88329728229E+03  0.50400001928E-02 0.  1.
       -1    1    3    3    0  502 -0.55504766700E+03  0.48065056823E+03  0.10096751910E+04  0.12484177477E+04  0.50400001928E-02 0. -1.
</event>
<event>
 5   0  0.2542737E-04  0.1498257E+04  0.7818609E-02  0.8885613E-01
       -1   -1    0    0    0  501  0.00000000000E+00  0.00000000000E+00  0.10556134795E+04  0.10556134795E+04  0.50400001928E-02 0.  1.
        1   -1    0    0  501    0  0.00000000000E+00  0.00000000000E+00 -0.53162801439E+03  0.53162801441E+03  0.50400001928E-02 0. -1.
    10030    2    1    2    0    0  0.00000000000E+00  0.00000000000E+00  0.52398546506E+03  0.15872414939E+04  0.14982572517E+04 0.  0.
        1    1    3    3  502    0 -0.25700410130E+03  0.34255344539E+03  0.91315232071E+03  0.10085837258E+04  0.50400001928E-02 0.  1.
       -1    1    3    3    0  502  0.25700410130E+03 -0.34255344539E+03 -0.38916685565E+03  0.57865776811E+03  0.50400001928E-02 0. -1.
</event>
<event>
 5   0  0.4785496E-04  0.1503959E+04  0.7818609E-02  0.8881824E-01
       -2   -1    0    0    0  501  0.00000000000E+00  0.00000000000E+00  0.82634096124E+03  0.82634096124E+03  0.25500000920E-02 0.  1.
        2   -1    0    0  501    0  0.00000000000E+00  0.00000000000E+00 -0.68431004243E+03  0.68431004244E+03  0.25500000920E-02 0. -1.
    10030    2    1    2    0    0  0.00000000000E+00  0.00000000000E+00  0.14203091881E+03  0.15106510037E+04  0.15039593322E+04 0.  0.
        4    1    3    3  502    0  0.34068615822E+03  0.63377413919E+03  0.29047118292E+03  0.77595865799E+03  0.12699999809E+01 0. -1.
       -4    1    3    3    0  502 -0.34068615822E+03 -0.63377413919E+03 -0.14844026412E+03  0.73469234569E+03  0.12699999809E+01 0.  1.
</event>
<event>
 5   0  0.4569211E-04  0.1532532E+04  0.7818609E-02  0.8863103E-01
        2   -1    0    0  501    0  0.00000000000E+00  0.00000000000E+00  0.17725916373E+04  0.17725916373E+04  0.25500000920E-02 0.  1.
       -2   -1    0    0    0  501  0.00000000000E+00  0.00000000000E+00 -0.33124588669E+03  0.33124588670E+03  0.25500000920E-02 0. -1.
    10030    2    1    2    0    0  0.00000000000E+00  0.00000000000E+00  0.14413457506E+04  0.21038375240E+04  0.15325321382E+04 0.  0.
        5    1    3    3  502    0 -0.31379566599E+03  0.26657041847E+03 -0.16646307313E+03  0.44413911414E+03  0.46999998093E+01 0. -1.
       -5    1    3    3    0  502  0.31379566599E+03 -0.26657041847E+03  0.16078088238E+04  0.16596984099E+04  0.46999998093E+01 0.  1.
</event>
<event>
 5   0  0.4569211E-04  0.1494455E+04  0.7818609E-02  0.8888149E-01
        2   -1    0    0  501    0  0.00000000000E+00  0.00000000000E+00  0.34829127956E+03  0.34829127957E+03  0.25500000920E-02 0. -1.
       -2   -1    0    0    0  501  0.00000000000E+00  0.00000000000E+00 -0.16031094350E+04  0.16031094350E+04  0.25500000920E-02 0.  1.
    10030    2    1    2    0    0  0.00000000000E+00  0.00000000000E+00 -0.12548181554E+04  0.19514007146E+04  0.14944551334E+04 0.  0.
        5    1    3    3  502    0  0.50007137575E+03 -0.34478565562E+03 -0.11956451762E+04  0.13410958230E+04  0.46999998093E+01 0.  1.
       -5    1    3    3    0  502 -0.50007137575E+03  0.34478565562E+03 -0.59172979227E+02  0.61030489154E+03  0.46999998093E+01 0. -1.
</event>
<event>
 5   0  0.2544374E-04  0.1484981E+04  0.7818609E-02  0.8894502E-01
       -1   -1    0    0    0  501  0.00000000000E+00  0.00000000000E+00  0.38680960962E+03  0.38680960965E+03  0.50400001928E-02 0.  1.
        1   -1    0    0  501    0  0.00000000000E+00  0.00000000000E+00 -0.14252292739E+04  0.14252292739E+04  0.50400001928E-02 0. -1.
    10030    2    1    2    0    0  0.00000000000E+00  0.00000000000E+00 -0.10384196643E+04  0.18120388835E+04  0.14849813185E+04 0.  0.
        4    1    3    3  502    0 -0.72114383494E+03  0.17625593925E+03 -0.53540644055E+03  0.91530118337E+03  0.12699999809E+01 0. -1.
       -4    1    3    3    0  502  0.72114383494E+03 -0.17625593925E+03 -0.50301322371E+03  0.89673770018E+03  0.12699999809E+01 0.  1.
</event>
<event>
 5   0  0.2544374E-04  0.1497094E+04  0.7818609E-02  0.8886388E-01
       -1   -1    0    0    0  501  0.00000000000E+00  0.00000000000E+00  0.56625448000E+03  0.56625448003E+03  0.50400001928E-02 0. -1.
        1   -1    0    0  501    0  0.00000000000E+00  0.00000000000E+00 -0.98952372618E+03  0.98952372619E+03  0.50400001928E-02 0.  1.
    10030    2    1    2    0    0  0.00000000000E+00  0.00000000000E+00 -0.42326924617E+03  0.15557782062E+04  0.14970935082E+04 0.  0.
        4    1    3    3  502    0  0.56936164160E+03 -0.47939370951E+03 -0.29431218497E+03  0.80038258525E+03  0.12699999809E+01 0. -1.
       -4    1    3    3    0  502 -0.56936164160E+03  0.47939370951E+03 -0.12895706120E+03  0.75539562097E+03  0.12699999809E+01 0.  1.
</event>
<event>
 5   0  0.2542737E-04  0.1508976E+04  0.7818609E-02  0.8878506E-01
        1   -1    0    0  501    0  0.00000000000E+00  0.00000000000E+00  0.17942844709E+04  0.17942844709E+04  0.50400001928E-02 0.  1.
       -1   -1    0    0    0  501  0.00000000000E+00  0.00000000000E+00 -0.31725849912E+03  0.31725849916E+03  0.50400001928E-02 0. -1.
    10030    2    1    2    0    0  0.00000000000E+00  0.00000000000E+00  0.14770259718E+04  0.21115429701E+04  0.15089758093E+04 0.  0.
        1    1    3    3  502    0  0.36155348100E+03 -0.44136496515E+03  0.14293417304E+04  0.15390067363E+04  0.50400001928E-02 0.  1.
       -1    1    3    3    0  502 -0.36155348100E+03  0.44136496515E+03  0.47684241383E+02  0.57253623378E+03  0.50400001928E-02 0. -1.
</event>
<event>
 5   0  0.4569211E-04  0.1499411E+04  0.7818609E-02  0.8884844E-01
        2   -1    0    0  501    0  0.00000000000E+00  0.00000000000E+00  0.36787896805E+03  0.36787896806E+03  0.25500000920E-02 0. -1.
       -2   -1    0    0    0  501  0.00000000000E+00  0.00000000000E+00 -0.15278355763E+04  0.15278355763E+04  0.25500000920E-02 0.  1.
    10030    2    1    2    0    0  0.00000000000E+00  0.00000000000E+00 -0.11599566083E+04  0.18957145444E+04  0.14994113180E+04 0.  0.
        5    1    3    3  502    0 -0.74739103306E+03 -0.23498564548E+02 -0.64795689734E+03  0.98945225738E+03  0.46999998093E+01 0.  1.
       -5    1    3    3    0  502  0.74739103306E+03  0.23498564548E+02 -0.51199971092E+03  0.90626228699E+03  0.46999998093E+01 0. -1.
</event>
<event>
 5   0  0.4785496E-04  0.1494720E+04  0.7818609E-02  0.8887971E-01
       -2   -1    0    0    0  501  0.00000000000E+00  0.00000000000E+00  0.68067467492E+03  0.68067467493E+03  0.25500000920E-02 0.  1.
        2   -1    0    0  501    0  0.00000000000E+00  0.00000000000E+00 -0.82057887540E+03  0.82057887541E+03  0.25500000920E-02 0. -1.
    10030    2    1    2    0    0  0.00000000000E+00  0.00000000000E+00 -0.13990420048E+03  0.15012535503E+04  0.14947203876E+04 0.  0.
        4    1    3    3  502    0 -0.71129895156E+03 -0.15509580949E+03 -0.23964243953E+03  0.76644048714E+03  0.12699999809E+01 0.  1.
       -4    1    3    3    0  502  0.71129895156E+03  0.15509580949E+03  0.99738239047E+02  0.73481306319E+03  0.12699999809E+01 0. -1.
</event>
<event>
 5   0  0.4948645E-04  0.1468748E+04  0.7818609E-02  0.8905505E-01
        2   -1    0    0  501    0  0.00000000000E+00  0.00000000000E+00  0.26011139679E+04  0.26011139679E+04  0.25500000920E-02 0.  1.
       -2   -1    0    0    0  501  0.00000000000E+00  0.00000000000E+00 -0.20733622713E+03  0.20733622715E+03  0.25500000920E-02 0. -1.
    10030    2    1    2    0    0  0.00000000000E+00  0.00000000000E+00  0.23937777408E+04  0.28084501950E+04  0.14687479790E+04 0.  0.
        1    1    3    3  502    0  0.31550703151E+03 -0.63319861921E+03  0.15736335151E+04  0.17253427538E+04  0.50400001928E-02 0.  1.
       -1    1    3    3    0  502 -0.31550703151E+03  0.63319861921E+03  0.82014422565E+03  0.10831074412E+04  0.50400001928E-02 0. -1.
</event>
<event>
 5   0  0.4948645E-04  0.1492246E+04  0.7818609E-02  0.8889625E-01
        2   -1    0    0  501    0  0.00000000000E+00  0.00000000000E+00  0.17620904378E+04  0.17620904378E+04  0.25500000920E-02 0. -1.
       -2   -1    0    0    0  501  0.00000000000E+00  0.00000000000E+00 -0.31593141621E+03  0.31593141622E+03  0.25500000920E-02 0.  1.
    10030    2    1    2    0    0  0.00000000000E+00  0.00000000000E+00  0.14461590216E+04  0.20780218540E+04  0.14922462632E+04 0.  0.
        1    1    3    3  502    0 -0.67396168563E+03 -0.26659925709E+03  0.96984014981E+03  0.12107392097E+04  0.50400001928E-02 0.  1.
       -1    1    3    3    0  502  0.67396168563E+03  0.26659925709E+03  0.47631887177E+03  0.86728264436E+03  0.50400001928E-02 0. -1.
</event>
<event>
 5   0  0.2603873E-04  0.1501257E+04  0.7818609E-02  0.8883618E-01
        1   -1    0    0  501    0  0.00000000000E+00  0.00000000000E+00  0.99539577417E+03  0.99539577419E+03  0.50400001928E-02 0.  1.
       -1   -1    0    0    0  501  0.00000000000E+00  0.00000000000E+00 -0.56604911728E+03  0.56604911731E+03  0.50400001928E-02 0. -1.
    10030    2    1    2    0    0  0.00000000000E+00  0.00000000000E+00  0.42934665689E+03  0.15614448915E+04  0.15012566727E+04 0.  0.
        2    1    3    3  502    0  0.63450487356E+03 -0.34558641411E+03  0.30037804096E+01  0.72252019134E+03  0.25500000920E-02 0. -1.
       -2    1    3    3    0  502 -0.63450487356E+03  0.34558641411E+03  0.42634287648E+03  0.83892470015E+03  0.25500000920E-02 0.  1.
</event>
<event>
 5   0  0.2565416E-04  0.1495324E+04  0.7818609E-02  0.8887569E-01
        1   -1    0    0  501    0  0.00000000000E+00  0.00000000000E+00  0.98021280599E+03  0.98021280600E+03  0.50400001928E-02 0. -1.
       -1   -1    0    0    0  501  0.00000000000E+00  0.00000000000E+00 -0.57028239538E+03  0.57028239540E+03  0.50400001928E-02 0.  1.
    10030    2    1    2    0    0  0.00000000000E+00  0.00000000000E+00  0.40993041061E+03  0.15504952014E+04  0.14953235195E+04 0.  0.
        5    1    3    3  502    0 -0.63759992510E+03  0.34506352683E+03  0.39438974351E+03  0.82532894159E+03  0.46999998093E+01 0.  1.
       -5    1    3    3    0  502  0.63759992510E+03 -0.34506352683E+03  0.15540667100E+02  0.72516625981E+03  0.46999998093E+01 0. -1.
</event>
<event>
 5   0  0.4569211E-04  0.1500497E+04  0.7818609E-02  0.8884122E-01
        2   -1    0    0  501    0  0.00000000000E+00  0.00000000000E+00  0.90151385751E+03  0.90151385752E+03  0.25500000920E-02 0. -1.
       -2   -1    0    0    0  501  0.00000000000E+00  0.00000000000E+00 -0.62436409317E+03  0.62436409317E+03  0.25500000920E-02 0.  1.
    10030    2    1    2    0    0  0.00000000000E+00  0.00000000000E+00  0.27714976435E+03  0.15258779507E+04  0.15004970938E+04 0.  0.
        5    1    3    3  502    0 -0.64412471926E+02  0.50136312455E+03  0.70233188768E+03  0.86533584211E+03  0.46999998093E+01 0. -1.
       -5    1    3    3    0  502  0.64412471926E+02 -0.50136312455E+03 -0.42518212333E+03  0.66054210857E+03  0.46999998093E+01 0.  1.
</event>
<event>
 5   0  0.2544374E-04  0.1493526E+04  0.7818609E-02  0.8888770E-01
       -1   -1    0    0    0  501  0.00000000000E+00  0.00000000000E+00  0.33570109915E+03  0.33570109919E+03  0.50400001928E-02 0.  1.
        1   -1    0    0  501    0  0.00000000000E+00  0.00000000000E+00 -0.16611651042E+04  0.16611651042E+04  0.50400001928E-02 0. -1.
    10030    2    1    2    0    0  0.00000000000E+00  0.00000000000E+00 -0.13254640050E+04  0.19968662034E+04  0.14935259641E+04 0.  0.
        4    1    3    3  502    0  0.55525673423E+03  0.38265342958E+03 -0.23380307076E+03  0.71372205855E+03  0.12699999809E+01 0. -1.
       -4    1    3    3    0  502 -0.55525673423E+03 -0.38265342958E+03 -0.10916609343E+04  0.12831441448E+04  0.12699999809E+01 0.  1.
</event>
<event>
 5   0  0.4726600E-04  0.1509651E+04  0.7818609E-02  0.8878060E-01
       -2   -1    0    0    0  501  0.00000000000E+00  0.00000000000E+00  0.27625028608E+04  0.27625028608E+04  0.25500000920E-02 0.  1.
        2   -1    0    0  501    0  0.00000000000E+00  0.00000000000E+00 -0.20624830359E+03  0.20624830361E+03  0.25500000920E-02 0. -1.
    10030    2    1    2    0    0  0.00000000000E+00  0.00000000000E+00  0.25562545572E+04  0.29687511644E+04  0.15096509911E+04 0.  0.
        2    1    3    3  502    0 -0.82000575626E+02  0.46176739230E+03  0.24412145471E+04  0.24858563281E+04  0.25500000920E-02 0.  1.
       -2    1    3    3    0  502  0.82000575626E+02 -0.46176739230E+03  0.11504001010E+03  0.48289483630E+03  0.25500000920E-02 0. -1.
</event>
<event>
 5   0  0.2542737E-04  0.1480751E+04  0.7818609E-02  0.8897355E-01
       -1   -1    0    0    0  501  0.00000000000E+00  0.00000000000E+00  0.13392916963E+04  0.13392916963E+04  0.50400001928E-02 0.  1.
        1   -1    0    0  501    0  0.00000000000E+00  0.00000000000E+00 -0.40928776752E+03  0.40928776756E+03  0.50400001928E-02 0. -1.
    10030    2    1    2    0    0  0.00000000000E+00  0.00000000000E+00  0.93000392881E+03  0.17485794639E+04  0.14807507670E+04 0.  0.
        1    1    3    3  502    0  0.48009015301E+03 -0.20628210893E+03 -0.15438491085E+03  0.54486105036E+03  0.50400001928E-02 0. -1.
       -1    1    3    3    0  502 -0.48009015301E+03  0.20628210893E+03  0.10843888397E+04  0.12037184135E+04  0.50400001928E-02 0.  1.
</event>
<event>
 5   0  0.4768387E-04  0.1596914E+04  0.7818609E-02  0.8822446E-01
       -2   -1    0    0    0  501  0.00000000000E+00  0.00000000000E+00  0.77971035743E+03  0.77971035743E+03  0.25500000920E-02 0.  1.
        2   -1    0    0  501    0  0.00000000000E+00  0.00000000000E+00 -0.81765405800E+03  0.81765405800E+03  0.25500000920E-02 0. -1.
    10030    2    1    2    0    0  0.00000000000E+00  0.00000000000E+00 -0.37943700573E+02  0.15973644154E+04  0.15969136956E+04 0.  0.
        3    1    3    3  502    0  0.63097202672E+03  0.42348200077E+03 -0.26413411922E+03  0.80450577787E+03  0.10100000352E+00 0. -1.
       -3    1    3    3    0  502 -0.63097202672E+03 -0.42348200077E+03  0.22619041865E+03  0.79285863757E+03  0.10100000352E+00 0.  1.
</event>
<event>
 5   0  0.4569211E-04  0.1500888E+04  0.7818609E-02  0.8883862E-01
       -2   -1    0    0    0  501  0.00000000000E+00  0.00000000000E+00  0.81093365880E+03  0.81093365881E+03  0.25500000920E-02 0. -1.
        2   -1    0    0  501    0  0.00000000000E+00  0.00000000000E+00 -0.69446665441E+03  0.69446665441E+03  0.25500000920E-02 0.  1.
    10030    2    1    2    0    0  0.00000000000E+00  0.00000000000E+00  0.11646700440E+03  0.15054003132E+04  0.15008882503E+04 0.  0.
        5    1    3    3  502    0  0.10353008865E+03 -0.73673214484E+03 -0.40304206139E+02  0.74507667493E+03  0.46999998093E+01 0.  1.
       -5    1    3    3    0  502 -0.10353008865E+03  0.73673214484E+03  0.15677121053E+03  0.76032363829E+03  0.46999998093E+01 0. -1.
</event>
<event>
 5   0  0.2542737E-04  0.1504273E+04  0.7818609E-02  0.8881616E-01
       -1   -1    0    0    0  501  0.00000000000E+00  0.00000000000E+00  0.47138875669E+03  0.47138875671E+03  0.50400001928E-02 0. -1.
        1   -1    0    0  501    0  0.00000000000E+00  0.00000000000E+00 -0.12000905769E+04  0.12000905769E+04  0.50400001928E-02 0.  1.
    10030    2    1    2    0    0  0.00000000000E+00  0.00000000000E+00 -0.72870182021E+03  0.16714793336E+04  0.15042728542E+04 0.  0.
        1    1    3    3  502    0  0.14915083341E+03 -0.46759154780E+03 -0.99763225569E+03  0.11118264003E+04  0.50400001928E-02 0.  1.
       -1    1    3    3    0  502 -0.14915083341E+03  0.46759154780E+03  0.26893043548E+03  0.55965293337E+03  0.50400001928E-02 0. -1.
</event>
<event>
 5   0  0.2544374E-04  0.1511151E+04  0.7818609E-02  0.8877071E-01
        1   -1    0    0  501    0  0.00000000000E+00  0.00000000000E+00  0.55760859717E+03  0.55760859719E+03  0.50400001928E-02 0.  1.
       -1   -1    0    0    0  501  0.00000000000E+00  0.00000000000E+00 -0.10238263073E+04  0.10238263073E+04  0.50400001928E-02 0. -1.
    10030    2    1    2    0    0  0.00000000000E+00  0.00000000000E+00 -0.46621771010E+03  0.15814349045E+04  0.15111510195E+04 0.  0.
        4    1    3    3  502    0  0.10190318338E+03 -0.73320067835E+03 -0.74655864521E+02  0.74400443851E+03  0.12699999809E+01 0. -1.
       -4    1    3    3    0  502 -0.10190318338E+03  0.73320067835E+03 -0.39156184557E+03  0.83743046596E+03  0.12699999809E+01 0.  1.
</event>
<event>
 5   0  0.2565416E-04  0.1490482E+04  0.7818609E-02  0.8890807E-01
        1   -1    0    0  501    0  0.00000000000E+00  0.00000000000E+00  0.18681481898E+04  0.18681481898E+04  0.50400001928E-02 0. -1.
       -1   -1    0    0    0  501  0.00000000000E+00  0.00000000000E+00 -0.29729118383E+03  0.29729118387E+03  0.50400001928E-02 0.  1.
    10030    2    1    2    0    0  0.00000000000E+00  0.00000000000E+00  0.15708570059E+04  0.21654393736E+04  0.14904817838E+04 0.  0.
        5    1    3    3  502    0 -0.65214244574E+03  0.27532332470E+03  0.11238796915E+04  0.13282395694E+04  0.46999998093E+01 0.  1.
       -5    1    3    3    0  502  0.65214244574E+03 -0.27532332470E+03  0.44697731444E+03  0.83719980428E+03  0.46999998093E+01 0. -1.
</event>
<event>
 5   0  0.2565416E-04  0.1491786E+04  0.7818609E-02  0.8889933E-01
       -1   -1    0    0    0  501  0.00000000000E+00  0.00000000000E+00  0.39316319110E+03  0.39316319113E+03  0.50400001928E-02 0.  1.
        1   -1    0    0  501    0  0.00000000000E+00  0.00000000000E+00 -0.14150780387E+04  0.14150780388E+04  0.50400001928E-02 0. -1.
    10030    2    1    2    0    0  0.00000000000E+00  0.00000000000E+00 -0.10219148476E+04  0.18082412299E+04  0.14917863083E+04 0.  0.
        5    1    3    3  502    0  0.61067463378E+03 -0.40106088869E+03 -0.69302411042E+03  0.10070143258E+04  0.46999998093E+01 0. -1.
       -5    1    3    3    0  502 -0.61067463378E+03  0.40106088869E+03 -0.32889073722E+03  0.80122690407E+03  0.46999998093E+01 0.  1.
</event>
<event>
 5   0  0.4569211E-04  0.1368714E+04  0.7818609E-02  0.8976782E-01
       -2   -1    0    0    0  501  0.00000000000E+00  0.00000000000E+00  0.31658232868E+03  0.31658232869E+03  0.25500000920E-02 0.  1.
        2   -1    0    0  501    0  0.00000000000E+00  0.00000000000E+00 -0.14793765405E+04  0.14793765405E+04  0.25500000920E-02 0. -1.
    10030    2    1    2    0    0  0.00000000000E+00  0.00000000000E+00 -0.11627942118E+04  0.17959588692E+04  0.13687139514E+04 0.  0.
        5    1    3    3  502    0 -0.53759880086E+03  0.41303762546E+03 -0.70385548822E+03  0.97726515799E+03  0.46999998093E+01 0.  1.
       -5    1    3    3    0  502  0.53759880086E+03 -0.41303762546E+03 -0.45893872357E+03  0.81869371118E+03  0.46999998093E+01 0. -1.
</event>
<event>
 5   0  0.4569211E-04  0.1488813E+04  0.7818609E-02  0.8891926E-01
        2   -1    0    0  501    0  0.00000000000E+00  0.00000000000E+00  0.15248834228E+04  0.15248834228E+04  0.25500000920E-02 0.  1.
       -2   -1    0    0    0  501  0.00000000000E+00  0.00000000000E+00 -0.36339919213E+03  0.36339919214E+03  0.25500000920E-02 0. -1.
    10030    2    1    2    0    0  0.00000000000E+00  0.00000000000E+00  0.11614842307E+04  0.18882826150E+04  0.14888134926E+04 0.  0.
        5    1    3    3  502    0 -0.51787076119E+03  0.21446979073E+03  0.12019982540E+04  0.13262764829E+04  0.46999998093E+01 0.  1.
       -5    1    3    3    0  502  0.51787076119E+03 -0.21446979073E+03 -0.40514023298E+02  0.56200613210E+03  0.46999998093E+01 0. -1.
</event>
<event>
 5   0  0.4768387E-04  0.1506956E+04  0.7818609E-02  0.8879841E-01
        2   -1    0    0  501    0  0.00000000000E+00  0.00000000000E+00  0.10312579053E+04  0.10312579053E+04  0.25500000920E-02 0.  1.
       -2   -1    0    0    0  501  0.00000000000E+00  0.00000000000E+00 -0.55052060140E+03  0.55052060140E+03  0.25500000920E-02 0. -1.
    10030    2    1    2    0    0  0.00000000000E+00  0.00000000000E+00  0.48073730391E+03  0.15817785067E+04  0.15069555033E+04 0.  0.
        3    1    3    3  502    0 -0.31029034644E+03  0.23978901963E+03 -0.43496610247E+03  0.58564015704E+03  0.10100000352E+00 0. -1.
       -3    1    3    3    0  502  0.31029034644E+03 -0.23978901963E+03  0.91570340638E+03  0.99613834968E+03  0.10100000352E+00 0.  1.
</event>
<event>
 5   0  0.4569211E-04  0.1473345E+04  0.7818609E-02  0.8902374E-01
       -2   -1    0    0    0  501  0.00000000000E+00  0.00000000000E+00  0.12130048107E+04  0.12130048107E+04  0.25500000920E-02 0. -1.
        2   -1    0    0  501    0  0.00000000000E+00  0.00000000000E+00 -0.44739021654E+03  0.44739021655E+03  0.25500000920E-02 0.  1.
    10030    2    1    2    0    0  0.00000000000E+00  0.00000000000E+00  0.76561459419E+03  0.16603950273E+04  0.14733451530E+04 0.  0.
        5    1    3    3  502    0 -0.62288890364E+03 -0.39232760009E+03  0.41372910403E+03  0.84445567888E+03  0.46999998093E+01 0.  1.
       -5    1    3    3    0  502  0.62288890364E+03  0.39232760009E+03  0.35188549016E+03  0.81593934840E+03  0.46999998093E+01 0. -1.
</event>
<event>
 5   0  0.2603873E-04  0.1493653E+04  0.7818609E-02  0.8888685E-01
       -1   -1    0    0    0  501  0.00000000000E+00  0.00000000000E+00  0.34234879325E+03  0.34234879329E+03  0.50400001928E-02 0.  1.
        1   -1    0    0  501    0  0.00000000000E+00  0.00000000000E+00 -0.16291853271E+04  0.16291853271E+04  0.50400001928E-02 0. -1.
    10030    2    1    2    0    0  0.00000000000E+00  0.00000000000E+00 -0.12868365339E+04  0.19715341204E+04  0.14936527451E+04 0.  0.
        2    1    3    3  502    0 -0.71064420468E+03 -0.98091128135E+02 -0.91748520080E+03  0.11646528018E+04  0.25500000920E-02 0.  1.
       -2    1    3    3    0  502  0.71064420468E+03  0.98091128135E+02 -0.36935133306E+03  0.80688131860E+03  0.25500000920E-02 0. -1.
</event>
<event>
 5   0  0.4768387E-04  0.1495807E+04  0.7818609E-02  0.8887246E-01
        2   -1    0    0  501    0  0.00000000000E+00  0.00000000000E+00  0.13588766541E+04  0.13588766541E+04  0.25500000920E-02 0.  1.
       -2   -1    0    0    0  501  0.00000000000E+00  0.00000000000E+00 -0.41163365740E+03  0.41163365741E+03  0.25500000920E-02 0. -1.
    10030    2    1    2    0    0  0.00000000000E+00  0.00000000000E+00  0.94724299670E+03  0.17705103115E+04  0.14958066280E+04 0.  0.
        3    1    3    3  502    0  0.28841048064E+03 -0.49911532083E+03 -0.90400257696E+02  0.58349715134E+03  0.10100000352E+00 0. -1.
       -3    1    3    3    0  502 -0.28841048064E+03  0.49911532083E+03  0.10376432544E+04  0.11870131602E+04  0.10100000352E+00 0.  1.
</event>
<event>
 5   0  0.4726600E-04  0.1503916E+04  0.7818609E-02  0.8881853E-01
        2   -1    0    0  501    0  0.00000000000E+00  0.00000000000E+00  0.20563227325E+04  0.20563227325E+04  0.25500000920E-02 0.  1.
       -2   -1    0    0    0  501  0.00000000000E+00  0.00000000000E+00 -0.27497664535E+03  0.27497664536E+03  0.25500000920E-02 0. -1.
    10030    2    1    2    0    0  0.00000000000E+00  0.00000000000E+00  0.17813460872E+04  0.23312993779E+04  0.15039158577E+04 0.  0.
        2    1    3    3  502    0 -0.67190350376E+03 -0.13726143171E+02  0.14136009591E+04  0.15652189613E+04  0.25500000920E-02 0.  1.
       -2    1    3    3    0  502  0.67190350376E+03  0.13726143171E+02  0.36774512808E+03  0.76608041654E+03  0.25500000920E-02 0. -1.
</event>
<event>
 5   0  0.4768387E-04  0.1464968E+04  0.7818609E-02  0.8908089E-01
        2   -1    0    0  501    0  0.00000000000E+00  0.00000000000E+00  0.11126444000E+04  0.11126444000E+04  0.25500000920E-02 0. -1.
       -2   -1    0    0    0  501  0.00000000000E+00  0.00000000000E+00 -0.48221396862E+03  0.48221396863E+03  0.25500000920E-02 0.  1.
    10030    2    1    2    0    0  0.00000000000E+00  0.00000000000E+00  0.63043043136E+03  0.15948583686E+04  0.14649678110E+04 0.  0.
        3    1    3    3  502    0  0.65644627922E+03 -0.31370074686E+03  0.40760932440E+03  0.83395158590E+03  0.10100000352E+00 0. -1.
       -3    1    3    3    0  502 -0.65644627922E+03  0.31370074686E+03  0.22282110696E+03  0.76090678272E+03  0.10100000352E+00 0.  1.
</event>
<event>
 5   0  0.2603873E-04  0.1500630E+04  0.7818609E-02  0.8884034E-01
        1   -1    0    0  501    0  0.00000000000E+00  0.00000000000E+00  0.10018714684E+04  0.10018714684E+04  0.50400001928E-02 0.  1.
       -1   -1    0    0    0  501  0.00000000000E+00  0.00000000000E+00 -0.56192116767E+03  0.56192116769E+03  0.50400001928E-02 0. -1.
    10030    2    1    2    0    0  0.00000000000E+00  0.00000000000E+00  0.43995030070E+03  0.15637926361E+04  0.15006302481E+04 0.  0.
        2    1    3    3  502    0  0.19536485126E+02 -0.40364399516E+03 -0.43882280382E+03  0.59655310094E+03  0.25500000920E-02 0. -1.
       -2    1    3    3    0  502 -0.19536485126E+02  0.40364399516E+03  0.87877310452E+03  0.96723953513E+03  0.25500000920E-02 0.  1.
</event>
<event>
 5   0  0.4726600E-04  0.1484487E+04  0.7818609E-02  0.8894835E-01
       -2   -1    0    0    0  501  0.00000000000E+00  0.00000000000E+00  0.22049312413E+03  0.22049312414E+03  0.25500000920E-02 0. -1.
        2   -1    0    0  501    0  0.00000000000E+00  0.00000000000E+00 -0.24986056416E+04  0.24986056416E+04  0.25500000920E-02 0.  1.
    10030    2    1    2    0    0  0.00000000000E+00  0.00000000000E+00 -0.22781125175E+04  0.27190987658E+04  0.14844869335E+04 0.  0.
        2    1    3    3  502    0 -0.44809327710E+02 -0.26109226663E+03 -0.24090672790E+04  0.24235887032E+04  0.25500000920E-02 0.  1.
       -2    1    3    3    0  502  0.44809327710E+02  0.26109226663E+03  0.13095476147E+03  0.29551006260E+03  0.25500000920E-02 0. -1.
</event>
<event>
 5   0  0.2544374E-04  0.1489113E+04  0.7818609E-02  0.8891725E-01
       -1   -1    0    0    0  501  0.00000000000E+00  0.00000000000E+00  0.72611147329E+03  0.72611147331E+03  0.50400001928E-02 0.  1.
        1   -1    0    0  501    0  0.00000000000E+00  0.00000000000E+00 -0.76346985652E+03  0.76346985654E+03  0.50400001928E-02 0. -1.
    10030    2    1    2    0    0  0.00000000000E+00  0.00000000000E+00 -0.37358383230E+02  0.14895813298E+04  0.14891127860E+04 0.  0.
        4    1    3    3  502    0 -0.10889881068E+03 -0.50494687868E+03  0.51770991960E+03  0.73133813999E+03  0.12699999809E+01 0.  1.
       -4    1    3    3    0  502  0.10889881068E+03  0.50494687868E+03 -0.55506830283E+03  0.75824318986E+03  0.12699999809E+01 0. -1.
</event>
<event>
 5   0  0.2544374E-04  0.1499295E+04  0.7818609E-02  0.8884922E-01
       -1   -1    0    0    0  501  0.00000000000E+00  0.00000000000E+00  0.88136975258E+03  0.88136975260E+03  0.50400001928E-02 0. -1.
        1   -1    0    0  501    0  0.00000000000E+00  0.00000000000E+00 -0.63761133920E+03  0.63761133922E+03  0.50400001928E-02 0.  1.
    10030    2    1    2    0    0  0.00000000000E+00  0.00000000000E+00  0.24375841338E+03  0.15189810918E+04  0.14992949654E+04 0.  0.
        4    1    3    3  502    0 -0.71785881115E+03 -0.15951982258E+03  0.26939976999E+03  0.78316390080E+03  0.12699999809E+01 0. -1.
       -4    1    3    3    0  502  0.71785881115E+03  0.15951982258E+03 -0.25641356607E+02  0.73581719102E+03  0.12699999809E+01 0.  1.
</event>
<event>
 5   0  0.4785496E-04  0.1495407E+04  0.7818609E-02  0.8887513E-01
        2   -1    0    0  501    0  0.00000000000E+00  0.00000000000E+00  0.11729473578E+04  0.11729473578E+04  0.25500000920E-02 0. -1.
       -2   -1    0    0    0  501  0.00000000000E+00  0.00000000000E+00 -0.47662860945E+03  0.47662860946E+03  0.25500000920E-02 0.  1.
    10030    2    1    2    0    0  0.00000000000E+00  0.00000000000E+00  0.69631874832E+03  0.16495759672E+04  0.14954066579E+04 0.  0.
        4    1    3    3  502    0  0.32871924150E+03  0.66337119571E+03  0.23277660235E+03  0.77608262610E+03  0.12699999809E+01 0.  1.
       -4    1    3    3    0  502 -0.32871924150E+03 -0.66337119571E+03  0.46354214597E+03  0.87349334114E+03  0.12699999809E+01 0. -1.
</event>
<event>
 5   0  0.2605471E-04  0.1562103E+04  0.7818609E-02  0.8844174E-01
       -1   -1    0    0    0  501  0.00000000000E+00  0.00000000000E+00  0.78476265160E+03  0.78476265162E+03  0.50400001928E-02 0.  1.
        1   -1    0    0  501    0  0.00000000000E+00  0.00000000000E+00 -0.77735747933E+03  0.77735747934E+03  0.50400001928E-02 0. -1.
    10030    2    1    2    0    0  0.00000000000E+00  0.00000000000E+00  0.74051722758E+01  0.15621201310E+04  0.15621025789E+04 0.  0.
        3    1    3    3  502    0 -0.34782363144E+02  0.64803759357E+03  0.43830909282E+03  0.78312030143E+03  0.10100000352E+00 0.  1.
       -3    1    3    3    0  502  0.34782363144E+02 -0.64803759357E+03 -0.43090392054E+03  0.77899982953E+03  0.10100000352E+00 0. -1.
</event>
<event>
 5   0  0.1792000E-04  0.1502935E+04  0.7818609E-02  0.8882504E-01
        4   -1    0    0  501    0  0.00000000000E+00  0.00000000000E+00  0.53280706841E+03  0.53280858199E+03  0.12699999809E+01 0. -1.
       -4   -1    0    0    0  501  0.00000000000E+00  0.00000000000E+00 -0.10598607518E+04  0.10598615127E+04  0.12699999809E+01 0.  1.
    10030    2    1    2    0    0  0.00000000000E+00  0.00000000000E+00 -0.52705368340E+03  0.15926700947E+04  0.15029346111E+04 0.  0.
        1    1    3    3  502    0  0.23996634659E+03 -0.68698765222E+03 -0.46225289952E+03  0.86209838472E+03  0.50400001928E-02 0.  1.
       -1    1    3    3    0  502 -0.23996634659E+03  0.68698765222E+03 -0.64800783882E+02  0.73057170998E+03  0.50400001928E-02 0. -1.
</event>
<event>
 5   0  0.4768387E-04  0.1499919E+04  0.7818609E-02  0.8884507E-01
        2   -1    0    0  501    0  0.00000000000E+00  0.00000000000E+00  0.11455757502E+04  0.11455757502E+04  0.25500000920E-02 0.  1.
       -2   -1    0    0    0  501  0.00000000000E+00  0.00000000000E+00 -0.49096657196E+03  0.49096657197E+03  0.25500000920E-02 0. -1.
    10030    2    1    2    0    0  0.00000000000E+00  0.00000000000E+00  0.65460917824E+03  0.16365423222E+04  0.14999191965E+04 0.  0.
        3    1    3    3  502    0 -0.43055876709E+03 -0.20061558163E+02  0.99692990360E+03  0.10861181155E+04  0.10100000352E+00 0.  1.
       -3    1    3    3    0  502  0.43055876709E+03  0.20061558163E+02 -0.34232072536E+03  0.55042420663E+03  0.10100000352E+00 0. -1.
</event>
<event>
 5   0  0.4768387E-04  0.1501519E+04  0.7818609E-02  0.8883444E-01
       -2   -1    0    0    0  501  0.00000000000E+00  0.00000000000E+00  0.55364834473E+03  0.55364834474E+03  0.25500000920E-02 0. -1.
        2   -1    0    0  501    0  0.00000000000E+00  0.00000000000E+00 -0.10180462876E+04  0.10180462876E+04  0.25500000920E-02 0.  1.
    10030    2    1    2    0    0  0.00000000000E+00  0.00000000000E+00 -0.46439794287E+03  0.15716946323E+04  0.15015187538E+04 0.  0.
        3    1    3    3  502    0 -0.23304677879E+03 -0.13214195090E+03  0.50191146849E+03  0.56893534668E+03  0.10100000352E+00 0. -1.
       -3    1    3    3    0  502  0.23304677879E+03  0.13214195090E+03 -0.96630941136E+03  0.10027592857E+04  0.10100000352E+00 0.  1.
</event>
<event>
 5   0  0.4726600E-04  0.1502163E+04  0.7818609E-02  0.8883016E-01
        2   -1    0    0  501    0  0.00000000000E+00  0.00000000000E+00  0.14585479423E+04  0.14585479423E+04  0.25500000920E-02 0. -1.
       -2   -1    0    0    0  501  0.00000000000E+00  0.00000000000E+00 -0.38677044647E+03  0.38677044648E+03  0.25500000920E-02 0.  1.
    10030    2    1    2    0    0  0.00000000000E+00  0.00000000000E+00  0.10717774958E+04  0.18453183888E+04  0.15021627593E+04 0.  0.
        2    1    3    3  502    0  0.20077376750E+03 -0.65987105547E+03  0.90109607512E+03  0.11347748905E+04  0.25500000920E-02 0. -1.
       -2    1    3    3    0  502 -0.20077376750E+03  0.65987105547E+03  0.17068142073E+03  0.71054349828E+03  0.25500000920E-02 0.  1.
</event>
<event>
 5   0  0.2542737E-04  0.1517867E+04  0.7818609E-02  0.8872658E-01
        1   -1    0    0  501    0  0.00000000000E+00  0.00000000000E+00  0.93046541344E+03  0.93046541346E+03  0.50400001928E-02 0.  1.
       -1   -1    0    0    0  501  0.00000000000E+00  0.00000000000E+00 -0.61902350717E+03  0.61902350719E+03  0.50400001928E-02 0. -1.
    10030    2    1    2    0    0  0.00000000000E+00  0.00000000000E+00  0.31144190628E+03  0.15494889206E+04  0.15178668763E+04 0.  0.
        1    1    3    3  502    0  0.38532575239E+03  0.23822304654E+03  0.77730176853E+03  0.89968005132E+03  0.50400001928E-02 0.  1.
       -1    1    3    3    0  502 -0.38532575239E+03 -0.23822304654E+03 -0.46585986225E+03  0.64980886932E+03  0.50400001928E-02 0. -1.
</event>
<event>
 5   0  0.4785496E-04  0.1506768E+04  0.7818609E-02  0.8879965E-01
       -2   -1    0    0    0  501  0.00000000000E+00  0.00000000000E+00  0.33500193392E+03  0.33500193393E+03  0.25500000920E-02 0. -1.
        2   -1    0    0  501    0  0.00000000000E+00  0.00000000000E+00 -0.16942809480E+04  0.16942809480E+04  0.25500000920E-02 0.  1.
    10030    2    1    2    0    0  0.00000000000E+00  0.00000000000E+00 -0.13592790140E+04  0.20292828819E+04  0.15067679240E+04 0.  0.
        4    1    3    3  502    0  0.39710135264E+03  0.59729359115E+03 -0.99009072207E+03  0.12225916608E+04  0.12699999809E+01 0. -1.
       -4    1    3    3    0  502 -0.39710135264E+03 -0.59729359115E+03 -0.36918829196E+03  0.80669122106E+03  0.12699999809E+01 0.  1.
</event>
<event>
 5   0  0.2605471E-04  0.1528190E+04  0.7818609E-02  0.8865920E-01
       -1   -1    0    0    0  501  0.00000000000E+00  0.00000000000E+00  0.75084392536E+03  0.75084392538E+03  0.50400001928E-02 0. -1.
        1   -1    0    0  501    0  0.00000000000E+00  0.00000000000E+00 -0.77757993953E+03  0.77757993955E+03  0.50400001928E-02 0.  1.
    10030    2    1    2    0    0  0.00000000000E+00  0.00000000000E+00 -0.26736014165E+02  0.15284238649E+04  0.15281900066E+04 0.  0.
        3    1    3    3  502    0 -0.55317342046E+03  0.44313546780E+03 -0.29884344372E+03  0.76920562269E+03  0.10100000352E+00 0.  1.
       -3    1    3    3    0  502  0.55317342046E+03 -0.44313546780E+03  0.27210742955E+03  0.75921824224E+03  0.10100000352E+00 0. -1.
</event>
<event>
 5   0  0.4768387E-04  0.1493662E+04  0.7818609E-02  0.8888678E-01
        2   -1    0    0  501    0  0.00000000000E+00  0.00000000000E+00  0.69867156368E+03  0.69867156369E+03  0.25500000920E-02 0.  1.
       -2   -1    0    0    0  501  0.00000000000E+00  0.00000000000E+00 -0.79831020504E+03  0.79831020504E+03  0.25500000920E-02 0. -1.
    10030    2    1    2    0    0  0.00000000000E+00  0.00000000000E+00 -0.99638641359E+02  0.14969817687E+04  0.14936621295E+04 0.  0.
        3    1    3    3  502    0 -0.56027343480E+03  0.17014335832E+03 -0.51442435363E+03  0.77941485099E+03  0.10100000352E+00 0. -1.
       -3    1    3    3    0  502  0.56027343480E+03 -0.17014335832E+03  0.41478571228E+03  0.71756691774E+03  0.10100000352E+00 0.  1.
</event>
<event>
 5   0  0.4768387E-04  0.1498821E+04  0.7818609E-02  0.8885237E-01
        2   -1    0    0  501    0  0.00000000000E+00  0.00000000000E+00  0.18966582970E+04  0.18966582970E+04  0.25500000920E-02 0.  1.
       -2   -1    0    0    0  501  0.00000000000E+00  0.00000000000E+00 -0.29610816584E+03  0.29610816585E+03  0.25500000920E-02 0. -1.
    10030    2    1    2    0    0  0.00000000000E+00  0.00000000000E+00  0.16005501311E+04  0.21927664628E+04  0.14988208826E+04 0.  0.
        3    1    3    3  502    0  0.29719810578E+03  0.17608807631E+03  0.17732292992E+04  0.18065646633E+04  0.10100000352E+00 0.  1.
       -3    1    3    3    0  502 -0.29719810578E+03 -0.17608807631E+03 -0.17267916809E+03  0.38620179957E+03  0.10100000352E+00 0. -1.
</event>
<event>
 5   0  0.2544374E-04  0.1515271E+04  0.7818609E-02  0.8874361E-01
        1   -1    0    0  501    0  0.00000000000E+00  0.00000000000E+00  0.16162803328E+04  0.16162803328E+04  0.50400001928E-02 0. -1.
       -1   -1    0    0    0  501  0.00000000000E+00  0.00000000000E+00 -0.35514359438E+03  0.35514359442E+03  0.50400001928E-02 0.  1.
    10030    2    1    2    0    0  0.00000000000E+00  0.00000000000E+00  0.12611367384E+04  0.19714239272E+04  0.15152710740E+04 0.  0.
        4    1    3    3  502    0  0.57818317404E+03  0.17359477680E+03  0.12261806441E+04  0.13667302273E+04  0.12699999809E+01 0. -1.
       -4    1    3    3    0  502 -0.57818317404E+03 -0.17359477680E+03  0.34956094268E+02  0.60469369990E+03  0.12699999809E+01 0.  1.
</event>
<event>
 5   0  0.2542737E-04  0.1500106E+04  0.7818609E-02  0.8884382E-01
        1   -1    0    0  501    0  0.00000000000E+00  0.00000000000E+00  0.54593858868E+03  0.54593858870E+03  0.50400001928E-02 0.  1.
       -1   -1    0    0    0  501  0.00000000000E+00  0.00000000000E+00 -0.10304815924E+04  0.10304815925E+04  0.50400001928E-02 0. -1.
    10030    2    1    2    0    0  0.00000000000E+00  0.00000000000E+00 -0.48454300377E+03  0.15764201812E+04  0.15001062179E+04 0.  0.
        1    1    3    3  502    0 -0.33590179348E+03  0.62322078703E+03 -0.50255182497E+03  0.86821224424E+03  0.50400001928E-02 0. -1.
       -1    1    3    3    0  502  0.33590179348E+03 -0.62322078703E+03  0.18008821196E+02  0.70820793692E+03  0.50400001928E-02 0.  1.
</event>
<event>
 5   0  0.4948645E-04  0.1500016E+04  0.7818609E-02  0.8884443E-01
        2   -1    0    0  501    0  0.00000000000E+00  0.00000000000E+00  0.12042001311E+04  0.12042001311E+04  0.25500000920E-02 0. -1.
       -2   -1    0    0    0  501  0.00000000000E+00  0.00000000000E+00 -0.46712470299E+03  0.46712470300E+03  0.25500000920E-02 0.  1.
    10030    2    1    2    0    0  0.00000000000E+00  0.00000000000E+00  0.73707542813E+03  0.16713248341E+04  0.15000155047E+04 0.  0.
        1    1    3    3  502    0 -0.75741891687E+02  0.59748538871E+03  0.86655870635E+03  0.10552959848E+04  0.50400001928E-02 0. -1.
       -1    1    3    3    0  502  0.75741891687E+02 -0.59748538871E+03 -0.12948327822E+03  0.61602884936E+03  0.50400001928E-02 0.  1.
</event>
<event>
 5   0  0.2544374E-04  0.1532422E+04  0.7818609E-02  0.8863175E-01
        1   -1    0    0  501    0  0.00000000000E+00  0.00000000000E+00  0.79672329351E+03  0.79672329353E+03  0.50400001928E-02 0. -1.
       -1   -1    0    0    0  501  0.00000000000E+00  0.00000000000E+00 -0.73686678087E+03  0.73686678089E+03  0.50400001928E-02 0.  1.
    10030    2    1    2    0    0  0.00000000000E+00  0.00000000000E+00  0.59856512641E+02  0.15335900744E+04  0.15324215198E+04 0.  0.
        4    1    3    3  502    0 -0.51502192868E+03  0.52728980394E+03  0.23936084497E+03  0.77496925834E+03  0.12699999809E+01 0. -1.
       -4    1    3    3    0  502  0.51502192868E+03 -0.52728980394E+03 -0.17950433233E+03  0.75862081608E+03  0.12699999809E+01 0.  1.
</event>
<event>
 5   0  0.4569211E-04  0.1514014E+04  0.7818609E-02  0.8875187E-01
        2   -1    0    0  501    0  0.00000000000E+00  0.00000000000E+00  0.36719946505E+03  0.36719946506E+03  0.25500000920E-02 0. -1.
       -2   -1    0    0    0  501  0.00000000000E+00  0.00000000000E+00 -0.15606211118E+04  0.15606211118E+04  0.25500000920E-02 0.  1.
    10030    2    1    2    0    0  0.00000000000E+00  0.00000000000E+00 -0.11934216468E+04  0.19278205769E+04  0.15140135236E+04 0.  0.
        5    1    3    3  502    0  0.62826481217E+02 -0.32890696060E+03  0.26774939619E+03  0.42876425298E+03  0.46999998093E+01 0. -1.
       -5    1    3    3    0  502 -0.62826481217E+02  0.32890696060E+03 -0.14611710430E+04  0.14990563239E+04  0.46999998093E+01 0.  1.
</event>
<event>
 5   0  0.2603873E-04  0.1495536E+04  0.7818609E-02  0.8887427E-01
       -1   -1    0    0    0  501  0.00000000000E+00  0.00000000000E+00  0.58309480279E+03  0.58309480281E+03  0.50400001928E-02 0.  1.
        1   -1    0    0  501    0  0.00000000000E+00  0.00000000000E+00 -0.95894669578E+03  0.95894669579E+03  0.50400001928E-02 0. -1.
    10030    2    1    2    0    0  0.00000000000E+00  0.00000000000E+00 -0.37585189298E+03  0.15420414986E+04  0.14955358030E+04 0.  0.
        2    1    3    3  502    0  0.57626706295E+03 -0.21241897045E+03  0.25189591630E+03  0.66382008067E+03  0.25500000920E-02 0.  1.
       -2    1    3    3    0  502 -0.57626706295E+03  0.21241897045E+03 -0.62774780929E+03  0.87822141793E+03  0.25500000920E-02 0. -1.
</event>
<event>
 5   0  0.2565416E-04  0.1505571E+04  0.7818609E-02  0.8880756E-01
        1   -1    0    0  501    0  0.00000000000E+00  0.00000000000E+00  0.71585793923E+03  0.71585793925E+03  0.50400001928E-02 0. -1.
       -1   -1    0    0    0  501  0.00000000000E+00  0.00000000000E+00 -0.79161839700E+03  0.79161839702E+03  0.50400001928E-02 0.  1.
    10030    2    1    2    0    0  0.00000000000E+00  0.00000000000E+00 -0.75760457773E+02  0.15074763363E+04  0.15055714056E+04 0.  0.
        5    1    3    3  502    0 -0.20885227365E+03 -0.43013739816E+03 -0.62001654593E+03  0.78299429163E+03  0.46999998093E+01 0.  1.
       -5    1    3    3    0  502  0.20885227365E+03  0.43013739816E+03  0.54425608816E+03  0.72448204464E+03  0.46999998093E+01 0. -1.
</event>
<event>
 5   0  0.2542737E-04  0.1501854E+04  0.7818609E-02  0.8883221E-01
       -1   -1    0    0    0  501  0.00000000000E+00  0.00000000000E+00  0.76058892978E+03  0.76058892979E+03  0.50400001928E-02 0.  1.
        1   -1    0    0  501    0  0.00000000000E+00  0.00000000000E+00 -0.74138733361E+03  0.74138733363E+03  0.50400001928E-02 0. -1.
    10030    2    1    2    0    0  0.00000000000E+00  0.00000000000E+00  0.19201596167E+02  0.15019762634E+04  0.15018535197E+04 0.  0.
        1    1    3    3  502    0  0.24580341329E+02  0.60703902624E+00  0.76018624521E+03  0.76058378178E+03  0.50400001928E-02 0.  1.
       -1    1    3    3    0  502 -0.24580341329E+02 -0.60703902624E+00 -0.74098464905E+03  0.74139248163E+03  0.50400001928E-02 0. -1.
</event>
<event>
 5   0  0.4569211E-04  0.1481256E+04  0.7818609E-02  0.8897014E-01
        2   -1    0    0  501    0  0.00000000000E+00  0.00000000000E+00  0.70984570317E+03  0.70984570318E+03  0.25500000920E-02 0.  1.
       -2   -1    0    0    0  501  0.00000000000E+00  0.00000000000E+00 -0.77274547345E+03  0.77274547345E+03  0.25500000920E-02 0. -1.
    10030    2    1    2    0    0  0.00000000000E+00  0.00000000000E+00 -0.62899770276E+02  0.14825911766E+04  0.14812562965E+04 0.  0.
        5    1    3    3  502    0  0.61517407106E+03 -0.34538890357E+03 -0.25698677422E+03  0.75086411856E+03  0.46999998093E+01 0. -1.
       -5    1    3    3    0  502 -0.61517407106E+03  0.34538890357E+03  0.19408700394E+03  0.73172705807E+03  0.46999998093E+01 0.  1.
</event>
<event>
 5   0  0.2603873E-04  0.1492597E+04  0.7818609E-02  0.8889391E-01
       -1   -1    0    0    0  501  0.00000000000E+00  0.00000000000E+00  0.10574532495E+04  0.10574532495E+04  0.50400001928E-02 0.  1.
        1   -1    0    0  501    0  0.00000000000E+00  0.00000000000E+00 -0.52670065769E+03  0.52670065772E+03  0.50400001928E-02 0. -1.
    10030    2    1    2    0    0  0.00000000000E+00  0.00000000000E+00  0.53075259182E+03  0.15841539072E+04  0.14925968270E+04 0.  0.
        2    1    3    3  502    0  0.48952853903E+03 -0.34900093346E+03 -0.20392537090E+03  0.63484281440E+03  0.25500000920E-02 0. -1.
       -2    1    3    3    0  502 -0.48952853903E+03  0.34900093346E+03  0.73467796271E+03  0.94931109284E+03  0.25500000920E-02 0.  1.
</event>
<event>
 5   0  0.2605471E-04  0.1501360E+04  0.7818609E-02  0.8883549E-01
        1   -1    0    0  501    0  0.00000000000E+00  0.00000000000E+00  0.16727633339E+04  0.16727633339E+04  0.50400001928E-02 0.  1.
       -1   -1    0    0    0  501  0.00000000000E+00  0.00000000000E+00 -0.33688019010E+03  0.33688019014E+03  0.50400001928E-02 0. -1.
    10030    2    1    2    0    0  0.00000000000E+00  0.00000000000E+00  0.13358831438E+04  0.20096435240E+04  0.15013604896E+04 0.  0.
        3    1    3    3  502    0 -0.60788925757E+03 -0.11574369354E+03  0.12367771442E+04  0.13829474562E+04  0.10100000352E+00 0.  1.
       -3    1    3    3    0  502  0.60788925757E+03  0.11574369354E+03  0.99105999605E+02  0.62669606782E+03  0.10100000352E+00 0. -1.
</event>
<event>
 5   0  0.4768387E-04  0.1510598E+04  0.7818609E-02  0.8877436E-01
        2   -1    0    0  501    0  0.00000000000E+00  0.00000000000E+00  0.10652092303E+04  0.10652092303E+04  0.25500000920E-02 0.  1.
       -2   -1    0    0    0  501  0.00000000000E+00  0.00000000000E+00 -0.53555371730E+03  0.53555371730E+03  0.25500000920E-02 0. -1.
    10030    2    1    2    0    0  0.00000000000E+00  0.00000000000E+00  0.52965551297E+03  0.16007629476E+04  0.15105982431E+04 0.  0.
        3    1    3    3  502    0 -0.57552592413E+03  0.47784634277E+03  0.15414468800E+03  0.76375900104E+03  0.10100000352E+00 0. -1.
       -3    1    3    3    0  502  0.57552592413E+03 -0.47784634277E+03  0.37551082497E+03  0.83700394653E+03  0.10100000352E+00 0.  1.
</event>
<event>
 5   0  0.4569211E-04  0.1504190E+04  0.7818609E-02  0.8881671E-01
        2   -1    0    0  501    0  0.00000000000E+00  0.00000000000E+00  0.18042705045E+04  0.18042705045E+04  0.25500000920E-02 0.  1.
       -2   -1    0    0    0  501  0.00000000000E+00  0.00000000000E+00 -0.31350451106E+03  0.31350451107E+03  0.25500000920E-02 0. -1.
    10030    2    1    2    0    0  0.00000000000E+00  0.00000000000E+00  0.14907659935E+04  0.21177750156E+04  0.15041900709E+04 0.  0.
        5    1    3    3  502    0 -0.45427119104E+03 -0.91589341600E+01  0.15891690845E+04  0.16528540982E+04  0.46999998093E+01 0.  1.
       -5    1    3    3    0  502  0.45427119104E+03  0.91589341600E+01 -0.98403090999E+02  0.46492091736E+03  0.46999998093E+01 0. -1.
</event>
<event>
 5   0  0.4948645E-04  0.1327258E+04  0.7818609E-02  0.9008224E-01
       -2   -1    0    0    0  501  0.00000000000E+00  0.00000000000E+00  0.25997585204E+03  0.25997585205E+03  0.25500000920E-02 0.  1.
        2   -1    0    0  501    0  0.00000000000E+00  0.00000000000E+00 -0.16940165816E+04  0.16940165816E+04  0.25500000920E-02 0. -1.
    10030    2    1    2    0    0  0.00000000000E+00  0.00000000000E+00 -0.14340407296E+04  0.19539924337E+04  0.13272579315E+04 0.  0.
        1    1    3    3  502    0  0.51285267515E+02 -0.42806633844E+03  0.25723571335E+02  0.43189428210E+03  0.50400001928E-02 0.  1.
       -1    1    3    3    0  502 -0.51285267515E+02  0.42806633844E+03 -0.14597643009E+04  0.15220981516E+04  0.50400001928E-02 0. -1.
</event>
<event>
 5   0  0.2544374E-04  0.1519239E+04  0.7818609E-02  0.8871759E-01
        1   -1    0    0  501    0  0.00000000000E+00  0.00000000000E+00  0.12192668947E+04  0.12192668948E+04  0.50400001928E-02 0.  1.
       -1   -1    0    0    0  501  0.00000000000E+00  0.00000000000E+00 -0.47325297718E+03  0.47325297721E+03  0.50400001928E-02 0. -1.
    10030    2    1    2    0    0  0.00000000000E+00  0.00000000000E+00  0.74601391756E+03  0.16925198720E+04  0.15192388725E+04 0.  0.
        4    1    3    3  502    0  0.54677870933E+03  0.93726745248E+02 -0.20508964713E+03  0.59145163455E+03  0.12699999809E+01 0. -1.
       -4    1    3    3    0  502 -0.54677870933E+03 -0.93726745248E+02  0.95110356469E+03  0.11010682374E+04  0.12699999809E+01 0.  1.
</event>
<event>
 5   0  0.2605471E-04  0.1523705E+04  0.7818609E-02  0.8868841E-01
        1   -1    0    0  501    0  0.00000000000E+00  0.00000000000E+00  0.11938456558E+04  0.11938456558E+04  0.50400001928E-02 0.  1.
       -1   -1    0    0    0  501  0.00000000000E+00  0.00000000000E+00 -0.48617615763E+03  0.48617615766E+03  0.50400001928E-02 0. -1.
    10030    2    1    2    0    0  0.00000000000E+00  0.00000000000E+00  0.70766949817E+03  0.16800218135E+04  0.15237050814E+04 0.  0.
        3    1    3    3  502    0 -0.66744821543E+03  0.31042986502E+03  0.57036235550E+03  0.93121804544E+03  0.10100000352E+00 0.  1.
       -3    1    3    3    0  502  0.66744821543E+03 -0.31042986502E+03  0.13730714267E+03  0.74880376802E+03  0.10100000352E+00 0. -1.
</event>
<event>
 5   0  0.2542737E-04  0.1497617E+04  0.7818609E-02  0.8886039E-01
       -1   -1    0    0    0  501  0.00000000000E+00  0.00000000000E+00  0.35679420101E+03  0.35679420104E+03  0.50400001928E-02 0.  1.
        1   -1    0    0  501    0  0.00000000000E+00  0.00000000000E+00 -0.15715345081E+04  0.15715345081E+04  0.50400001928E-02 0. -1.
    10030    2    1    2    0    0  0.00000000000E+00  0.00000000000E+00 -0.12147403071E+04  0.19283287091E+04  0.14976173065E+04 0.  0.
        1    1    3    3  502    0  0.23291607339E+02  0.74840318211E+03 -0.59702302498E+03  0.95764623653E+03  0.50400001928E-02 0.  1.
       -1    1    3    3    0  502 -0.23291607339E+02 -0.74840318211E+03 -0.61771728208E+03  0.97068247258E+03  0.50400001928E-02 0. -1.
</event>
<event>
 5   0  0.4726600E-04  0.1442513E+04  0.7818609E-02  0.8923607E-01
        2   -1    0    0  501    0  0.00000000000E+00  0.00000000000E+00  0.14281232884E+04  0.14281232884E+04  0.25500000920E-02 0.  1.
       -2   -1    0    0    0  501  0.00000000000E+00  0.00000000000E+00 -0.36426210483E+03  0.36426210483E+03  0.25500000920E-02 0. -1.
    10030    2    1    2    0    0  0.00000000000E+00  0.00000000000E+00  0.10638611836E+04  0.17923853932E+04  0.14425133552E+04 0.  0.
        2    1    3    3  502    0 -0.28725328670E+03  0.75634584234E+02  0.13485908846E+04  0.13809172369E+04  0.25500000920E-02 0.  1.
       -2    1    3    3    0  502  0.28725328670E+03 -0.75634584234E+02 -0.28472970102E+03  0.41146815637E+03  0.25500000920E-02 0. -1.
</event>
<event>
 5   0  0.2542737E-04  0.1506056E+04  0.7818609E-02  0.8880436E-01
        1   -1    0    0  501    0  0.00000000000E+00  0.00000000000E+00  0.14043639201E+04  0.14043639201E+04  0.50400001928E-02 0. -1.
       -1   -1    0    0    0  501  0.00000000000E+00  0.00000000000E+00 -0.40377780183E+03  0.40377780186E+03  0.50400001928E-02 0.  1.
    10030    2    1    2    0    0  0.00000000000E+00  0.00000000000E+00  0.10005861183E+04  0.18081417220E+04  0.15060557449E+04 0.  0.
        1    1    3    3  502    0 -0.53733816398E+03  0.37458500650E+03  0.94629672991E+03  0.11508795465E+04  0.50400001928E-02 0. -1.
       -1    1    3    3    0  502  0.53733816398E+03 -0.37458500650E+03  0.54289388390E+02  0.65726217546E+03  0.50400001928E-02 0.  1.
</event>
<event>
 5   0  0.1792000E-04  0.1499887E+04  0.7818609E-02  0.8884528E-01
       -4   -1    0    0    0  501  0.00000000000E+00  0.00000000000E+00  0.72259453702E+03  0.72259565307E+03  0.12699999809E+01 0.  1.
        4   -1    0    0  501    0  0.00000000000E+00  0.00000000000E+00 -0.77832493528E+03  0.77832597142E+03  0.12699999809E+01 0. -1.
    10030    2    1    2    0    0  0.00000000000E+00  0.00000000000E+00 -0.55730398264E+02  0.15009216245E+04  0.14998866109E+04 0.  0.
        4    1    3    3  502    0  0.32619551249E+03 -0.67437127804E+03 -0.63006599877E+02  0.75176564004E+03  0.12699999809E+01 0.  1.
       -4    1    3    3    0  502 -0.32619551249E+03  0.67437127804E+03  0.72762016133E+01  0.74915598444E+03  0.12699999809E+01 0. -1.
</event>
<event>
 5   0  0.2544374E-04  0.1500575E+04  0.7818609E-02  0.8884071E-01
        1   -1    0    0  501    0  0.00000000000E+00  0.00000000000E+00  0.19407569514E+04  0.19407569514E+04  0.50400001928E-02 0.  1.
       -1   -1    0    0    0  501  0.00000000000E+00  0.00000000000E+00 -0.29005765171E+03  0.29005765176E+03  0.50400001928E-02 0. -1.
    10030    2    1    2    0    0  0.00000000000E+00  0.00000000000E+00  0.16506992997E+04  0.22308146032E+04  0.15005750950E+04 0.  0.
        4    1    3    3  502    0 -0.37368528406E+03  0.29552605458E+03 -0.36328930981E+02  0.47780513244E+03  0.12699999809E+01 0. -1.
       -4    1    3    3    0  502  0.37368528406E+03 -0.29552605458E+03  0.16870282307E+04  0.17530094707E+04  0.12699999809E+01 0.  1.
</event>
<event>
 5   0  0.4948645E-04  0.1514047E+04  0.7818609E-02  0.8875165E-01
        2   -1    0    0  501    0  0.00000000000E+00  0.00000000000E+00  0.13056947525E+04  0.13056947525E+04  0.25500000920E-02 0. -1.
       -2   -1    0    0    0  501  0.00000000000E+00  0.00000000000E+00 -0.43891173562E+03  0.43891173563E+03  0.25500000920E-02 0.  1.
    10030    2    1    2    0    0  0.00000000000E+00  0.00000000000E+00  0.86678301690E+03  0.17446064881E+04  0.15140472252E+04 0.  0.
        1    1    3    3  502    0 -0.35196436397E+03  0.25244888517E+03 -0.28202077695E+03  0.51686078569E+03  0.50400001928E-02 0.  1.
       -1    1    3    3    0  502  0.35196436397E+03 -0.25244888517E+03  0.11488037938E+04  0.12277457025E+04  0.50400001928E-02 0. -1.
</event>
<event>
 5   0  0.4768387E-04  0.1502244E+04  0.7818609E-02  0.8882962E-01
       -2   -1    0    0    0  501  0.00000000000E+00  0.00000000000E+00  0.25529311346E+03  0.25529311347E+03  0.25500000920E-02 0.  1.
        2   -1    0    0  501    0  0.00000000000E+00  0.00000000000E+00 -0.22099467078E+04  0.22099467078E+04  0.25500000920E-02 0. -1.
    10030    2    1    2    0    0  0.00000000000E+00  0.00000000000E+00 -0.19546535943E+04  0.24652398213E+04  0.15022438892E+04 0.  0.
        3    1    3    3  502    0  0.43850934568E+03 -0.33033007565E+03 -0.13610333107E+03  0.56562578801E+03  0.10100000352E+00 0.  1.
       -3    1    3    3    0  502 -0.43850934568E+03  0.33033007565E+03 -0.18185502633E+04  0.18996140333E+04  0.10100000352E+00 0. -1.
</event>
<event>
 5   0  0.2603873E-04  0.1504011E+04  0.7818609E-02  0.8881790E-01
        1   -1    0    0  501    0  0.00000000000E+00  0.00000000000E+00  0.89182114943E+03  0.89182114945E+03  0.50400001928E-02 0. -1.
       -1   -1    0    0    0  501  0.00000000000E+00  0.00000000000E+00 -0.63410990324E+03  0.63410990326E+03  0.50400001928E-02 0.  1.
    10030    2    1    2    0    0  0.00000000000E+00  0.00000000000E+00  0.25771124619E+03  0.15259310527E+04  0.15040114665E+04 0.  0.
        2    1    3    3  502    0  0.25741823115E+03 -0.29194149823E+03  0.78167601257E+03  0.87321897183E+03  0.25500000920E-02 0. -1.
       -2    1    3    3    0  502 -0.25741823115E+03  0.29194149823E+03 -0.52396476638E+03  0.65271208089E+03  0.25500000920E-02 0.  1.
</event>
<event>
 5   0  0.1792000E-04  0.1505391E+04  0.7818609E-02  0.8880876E-01
        3   -1    0    0  501    0  0.00000000000E+00  0.00000000000E+00  0.23813983820E+04  0.23813983842E+04  0.10100000352E+00 0. -1.
       -3   -1    0    0    0  501  0.00000000000E+00  0.00000000000E+00 -0.23790659729E+03  0.23790661873E+03  0.10100000352E+00 0.  1.
    10030    2    1    2    0    0  0.00000000000E+00  0.00000000000E+00  0.21434917847E+04  0.26193050029E+04  0.15053908685E+04 0.  0.
        1    1    3    3  502    0  0.13547927616E+03  0.35626321876E+03  0.22010690863E+04  0.22338270385E+04  0.50400001928E-02 0. -1.
       -1    1    3    3    0  502 -0.13547927616E+03 -0.35626321876E+03 -0.57577301594E+02  0.38547796435E+03  0.50400001928E-02 0.  1.
</event>
<event>
 5   0  0.2565416E-04  0.1499624E+04  0.7818609E-02  0.8884703E-01
       -1   -1    0    0    0  501  0.00000000000E+00  0.00000000000E+00  0.27226338248E+03  0.27226338253E+03  0.50400001928E-02 0. -1.
        1   -1    0    0  501    0  0.00000000000E+00  0.00000000000E+00 -0.20649779006E+04  0.20649779006E+04  0.50400001928E-02 0.  1.
    10030    2    1    2    0    0  0.00000000000E+00  0.00000000000E+00 -0.17927145181E+04  0.23372412831E+04  0.14996237769E+04 0.  0.
        5    1    3    3  502    0 -0.53702492344E+03 -0.52188579287E+03 -0.83731243841E+03  0.11233319895E+04  0.46999998093E+01 0. -1.
       -5    1    3    3    0  502  0.53702492344E+03  0.52188579287E+03 -0.95540207971E+03  0.12139092936E+04  0.46999998093E+01 0.  1.
</event>
<event>
 5   0  0.4569211E-04  0.1496955E+04  0.7818609E-02  0.8886480E-01
        2   -1    0    0  501    0  0.00000000000E+00  0.00000000000E+00  0.74972851787E+03  0.74972851787E+03  0.25500000920E-02 0. -1.
       -2   -1    0    0    0  501  0.00000000000E+00  0.00000000000E+00 -0.74722841487E+03  0.74722841488E+03  0.25500000920E-02 0.  1.
    10030    2    1    2    0    0  0.00000000000E+00  0.00000000000E+00  0.25001029952E+01  0.14969569327E+04  0.14969548450E+04 0.  0.
        5    1    3    3  502    0  0.14032600138E+03  0.21616466112E+01 -0.73393823068E+03  0.74725061112E+03  0.46999998093E+01 0.  1.
       -5    1    3    3    0  502 -0.14032600138E+03 -0.21616466112E+01  0.73643833367E+03  0.74970632162E+03  0.46999998093E+01 0. -1.
</event>
<event>
 5   0  0.4948645E-04  0.1500256E+04  0.7818609E-02  0.8884283E-01
       -2   -1    0    0    0  501  0.00000000000E+00  0.00000000000E+00  0.40916847188E+03  0.40916847189E+03  0.25500000920E-02 0. -1.
        2   -1    0    0  501    0  0.00000000000E+00  0.00000000000E+00 -0.13752078912E+04  0.13752078912E+04  0.25500000920E-02 0.  1.
    10030    2    1    2    0    0  0.00000000000E+00  0.00000000000E+00 -0.96603941933E+03  0.17843763631E+04  0.15002555934E+04 0.  0.
        1    1    3    3  502    0 -0.36452395024E+03  0.55571290131E+03 -0.89674190230E+03  0.11161722888E+04  0.50400001928E-02 0.  1.
       -1    1    3    3    0  502  0.36452395024E+03 -0.55571290131E+03 -0.69297517027E+02  0.66820407427E+03  0.50400001928E-02 0. -1.
</event>
<event>
 5   0  0.2565416E-04  0.1408753E+04  0.7818609E-02  0.8947507E-01
       -1   -1    0    0    0  501  0.00000000000E+00  0.00000000000E+00  0.68768560250E+03  0.68768560252E+03  0.50400001928E-02 0.  1.
        1   -1    0    0  501    0  0.00000000000E+00  0.00000000000E+00 -0.72147247325E+03  0.72147247326E+03  0.50400001928E-02 0. -1.
    10030    2    1    2    0    0  0.00000000000E+00  0.00000000000E+00 -0.33786870749E+02  0.14091580758E+04  0.14087529698E+04 0.  0.
        5    1    3    3  502    0  0.46713592394E+03  0.61151257950E+02  0.50686834178E+03  0.69202099222E+03  0.46999998093E+01 0.  1.
       -5    1    3    3    0  502 -0.46713592394E+03 -0.61151257950E+02 -0.54065521253E+03  0.71713708356E+03  0.46999998093E+01 0. -1.
</event>
<event>
 5   0  0.2544374E-04  0.1361538E+04  0.7818609E-02  0.8982140E-01
        1   -1    0    0  501    0  0.00000000000E+00  0.00000000000E+00  0.32514612153E+03  0.32514612157E+03  0.50400001928E-02 0. -1.
       -1   -1    0    0    0  501  0.00000000000E+00  0.00000000000E+00 -0.14253486156E+04  0.14253486157E+04  0.50400001928E-02 0.  1.
    10030    2    1    2    0    0  0.00000000000E+00  0.00000000000E+00 -0.11002024941E+04  0.17504947372E+04  0.13615382099E+04 0.  0.
        4    1    3    3  502    0 -0.36536646721E+03  0.26336750131E+03  0.10620983310E+03  0.46274964900E+03  0.12699999809E+01 0. -1.
       -4    1    3    3    0  502  0.36536646721E+03 -0.26336750131E+03 -0.12064123272E+04  0.12877450882E+04  0.12699999809E+01 0.  1.
</event>
<event>
 5   0  0.4785496E-04  0.1498102E+04  0.7818609E-02  0.8885716E-01
        2   -1    0    0  501    0  0.00000000000E+00  0.00000000000E+00  0.51952536995E+03  0.51952536996E+03  0.25500000920E-02 0. -1.
       -2   -1    0    0    0  501  0.00000000000E+00  0.00000000000E+00 -0.10799804537E+04  0.10799804537E+04  0.25500000920E-02 0.  1.
    10030    2    1    2    0    0  0.00000000000E+00  0.00000000000E+00 -0.56045508378E+03  0.15995058237E+04  0.14981017920E+04 0.  0.
        4    1    3    3  502    0  0.57328250588E+03  0.39239272604E+03  0.18821936338E+02  0.69496817278E+03  0.12699999809E+01 0. -1.
       -4    1    3    3    0  502 -0.57328250588E+03 -0.39239272604E+03 -0.57927702012E+03  0.90453765092E+03  0.12699999809E+01 0.  1.
</event>
<event>
 5   0  0.4768387E-04  0.1437887E+04  0.7818609E-02  0.8926842E-01
       -2   -1    0    0    0  501  0.00000000000E+00  0.00000000000E+00  0.30090536086E+03  0.30090536087E+03  0.25500000920E-02 0.  1.
        2   -1    0    0  501    0  0.00000000000E+00  0.00000000000E+00 -0.17177476460E+04  0.17177476460E+04  0.25500000920E-02 0. -1.
    10030    2    1    2    0    0  0.00000000000E+00  0.00000000000E+00 -0.14168422851E+04  0.20186530068E+04  0.14378866093E+04 0.  0.
        3    1    3    3  502    0  0.34212150692E+03  0.42700626173E+03 -0.53687496102E+02  0.54978525853E+03  0.10100000352E+00 0.  1.
       -3    1    3    3    0  502 -0.34212150692E+03 -0.42700626173E+03 -0.13631547890E+04  0.14688677483E+04  0.10100000352E+00 0. -1.
</event>
<event>
 5   0  0.4569211E-04  0.1495182E+04  0.7818609E-02  0.8887663E-01
       -2   -1    0    0    0  501  0.00000000000E+00  0.00000000000E+00  0.49621786011E+03  0.49621786012E+03  0.25500000920E-02 0. -1.
        2   -1    0    0  501    0  0.00000000000E+00  0.00000000000E+00 -0.11263035554E+04  0.11263035554E+04  0.25500000920E-02 0.  1.
    10030    2    1    2    0    0  0.00000000000E+00  0.00000000000E+00 -0.63008569529E+03  0.16225214155E+04  0.14951815142E+04 0.  0.
        5    1    3    3  502    0 -0.13745204066E+03  0.47948203354E+03 -0.91931006120E+03  0.10459202468E+04  0.46999998093E+01 0.  1.
       -5    1    3    3    0  502  0.13745204066E+03 -0.47948203354E+03  0.28922436592E+03  0.57660116875E+03  0.46999998093E+01 0. -1.
</event>
<event>
 5   0  0.4569211E-04  0.1503212E+04  0.7818609E-02  0.8882320E-01
       -2   -1    0    0    0  501  0.00000000000E+00  0.00000000000E+00  0.20228027238E+04  0.20228027238E+04  0.25500000920E-02 0. -1.
        2   -1    0    0  501    0  0.00000000000E+00  0.00000000000E+00 -0.27927159518E+03  0.27927159519E+03  0.25500000920E-02 0.  1.
    10030    2    1    2    0    0  0.00000000000E+00  0.00000000000E+00  0.17435311286E+04  0.23020743190E+04  0.15032116862E+04 0.  0.
        5    1    3    3  502    0  0.21829740844E+03 -0.17140100499E+03  0.19414250623E+04  0.19611694026E+04  0.46999998093E+01 0. -1.
       -5    1    3    3    0  502 -0.21829740844E+03  0.17140100499E+03 -0.19789393369E+03  0.34090491641E+03  0.46999998093E+01 0.  1.
</event>
<event>
 5   0  0.4569211E-04  0.1497703E+04  0.7818609E-02  0.8885982E-01
       -2   -1    0    0    0  501  0.00000000000E+00  0.00000000000E+00  0.59246402590E+03  0.59246402590E+03  0.25500000920E-02 0. -1.
        2   -1    0    0  501    0  0.00000000000E+00  0.00000000000E+00 -0.94651866181E+03  0.94651866181E+03  0.25500000920E-02 0.  1.
    10030    2    1    2    0    0  0.00000000000E+00  0.00000000000E+00 -0.35405463591E+03  0.15389826877E+04  0.14977025833E+04 0.  0.
        5    1    3    3  502    0  0.70443098769E+03  0.78666472960E+02  0.71176808376E+02  0.71239010271E+03  0.46999998093E+01 0. -1.
       -5    1    3    3    0  502 -0.70443098769E+03 -0.78666472960E+02 -0.42523144429E+03  0.82659258501E+03  0.46999998093E+01 0.  1.
</event>
<event>
 5   0  0.2565416E-04  0.1499553E+04  0.7818609E-02  0.8884750E-01
       -1   -1    0    0    0  501  0.00000000000E+00  0.00000000000E+00  0.95887506202E+03  0.95887506204E+03  0.50400001928E-02 0.  1.
        1   -1    0    0  501    0  0.00000000000E+00  0.00000000000E+00 -0.58627560999E+03  0.58627561001E+03  0.50400001928E-02 0. -1.
    10030    2    1    2    0    0  0.00000000000E+00  0.00000000000E+00  0.37259945204E+03  0.15451506720E+04  0.14995533494E+04 0.  0.
        5    1    3    3  502    0 -0.65147021490E+03 -0.27531984795E+03 -0.70121656640E+02  0.71074158194E+03  0.46999998093E+01 0. -1.
       -5    1    3    3    0  502  0.65147021490E+03  0.27531984795E+03  0.44272110868E+03  0.83440909010E+03  0.46999998093E+01 0.  1.
</event>
<event>
 5   0  0.4948645E-04  0.1501787E+04  0.7818609E-02  0.8883265E-01
        2   -1    0    0  501    0  0.00000000000E+00  0.00000000000E+00  0.84595083094E+03  0.84595083094E+03  0.25500000920E-02 0. -1.
       -2   -1    0    0    0  501  0.00000000000E+00  0.00000000000E+00 -0.66651760695E+03  0.66651760695E+03  0.25500000920E-02 0.  1.
    10030    2    1    2    0    0  0.00000000000E+00  0.00000000000E+00  0.17943322399E+03  0.15124684379E+04  0.15017871000E+04 0.  0.
        1    1    3    3  502    0 -0.72221359794E+03  0.19074646213E+03  0.12592382644E+02  0.74708450794E+03  0.50400001928E-02 0.  1.
       -1    1    3    3    0  502  0.72221359794E+03 -0.19074646213E+03  0.16684084135E+03  0.76538392996E+03  0.50400001928E-02 0. -1.
</event>
<event>
 5   0  0.2603873E-04  0.1494387E+04  0.7818609E-02  0.8888194E-01
        1   -1    0    0  501    0  0.00000000000E+00  0.00000000000E+00  0.14487491201E+04  0.14487491201E+04  0.50400001928E-02 0. -1.
       -1   -1    0    0    0  501  0.00000000000E+00  0.00000000000E+00 -0.38536568250E+03  0.38536568254E+03  0.50400001928E-02 0.  1.
    10030    2    1    2    0    0  0.00000000000E+00  0.00000000000E+00  0.10633834376E+04  0.18341148027E+04  0.14943870897E+04 0.  0.
        2    1    3    3  502    0  0.65037954838E+02 -0.68153198500E+03  0.89903726879E+03  0.11300370759E+04  0.25500000920E-02 0. -1.
       -2    1    3    3    0  502 -0.65037954838E+02  0.68153198500E+03  0.16434616882E+03  0.70407772679E+03  0.25500000920E-02 0.  1.
</event>
<event>
 5   0  0.2603873E-04  0.1504087E+04  0.7818609E-02  0.8881740E-01
        1   -1    0    0  501    0  0.00000000000E+00  0.00000000000E+00  0.54728690368E+03  0.54728690370E+03  0.50400001928E-02 0.  1.
       -1   -1    0    0    0  501  0.00000000000E+00  0.00000000000E+00 -0.10334058429E+04  0.10334058429E+04  0.50400001928E-02 0. -1.
    10030    2    1    2    0    0  0.00000000000E+00  0.00000000000E+00 -0.48611893922E+03  0.15806927466E+04  0.15040870773E+04 0.  0.
        2    1    3    3  502    0  0.20934590890E+03  0.24339910975E+03 -0.95777077716E+03  0.10101453845E+04  0.25500000920E-02 0. -1.
       -2    1    3    3    0  502 -0.20934590890E+03 -0.24339910975E+03  0.47165183794E+03  0.57054736213E+03  0.25500000920E-02 0.  1.
</event>
<event>
 5   0  0.2605471E-04  0.1522120E+04  0.7818609E-02  0.8869875E-01
       -1   -1    0    0    0  501  0.00000000000E+00  0.00000000000E+00  0.23761122060E+04  0.23761122060E+04  0.50400001928E-02 0.  1.
        1   -1    0    0  501    0  0.00000000000E+00  0.00000000000E+00 -0.24376462791E+03  0.24376462796E+03  0.50400001928E-02 0. -1.
    10030    2    1    2    0    0  0.00000000000E+00  0.00000000000E+00  0.21323475780E+04  0.26198768339E+04  0.15221197165E+04 0.  0.
        3    1    3    3  502    0  0.23303476868E+03 -0.57742221344E+03  0.18193657203E+04  0.19229699036E+04  0.10100000352E+00 0.  1.
       -3    1    3    3    0  502 -0.23303476868E+03  0.57742221344E+03  0.31298185778E+03  0.69690693029E+03  0.10100000352E+00 0. -1.
</event>
<event>
 5   0  0.4948645E-04  0.1486435E+04  0.7818609E-02  0.8893524E-01
        2   -1    0    0  501    0  0.00000000000E+00  0.00000000000E+00  0.63552816310E+03  0.63552816310E+03  0.25500000920E-02 0.  1.
       -2   -1    0    0    0  501  0.00000000000E+00  0.00000000000E+00 -0.86915425478E+03  0.86915425478E+03  0.25500000920E-02 0. -1.
    10030    2    1    2    0    0  0.00000000000E+00  0.00000000000E+00 -0.23362609168E+03  0.15046824179E+04  0.14864346699E+04 0.  0.
        1    1    3    3  502    0 -0.40053248007E+03 -0.25853837055E+03 -0.69399127700E+03  0.84195739156E+03  0.50400001928E-02 0. -1.
       -1    1    3    3    0  502  0.40053248007E+03  0.25853837055E+03  0.46036518531E+03  0.66272502632E+03  0.50400001928E-02 0.  1.
</event>
<event>
 5   0  0.2544374E-04  0.1555821E+04  0.7818609E-02  0.8848158E-01
       -1   -1    0    0    0  501  0.00000000000E+00  0.00000000000E+00  0.99359208139E+03  0.99359208140E+03  0.50400001928E-02 0.  1.
        1   -1    0    0  501    0  0.00000000000E+00  0.00000000000E+00 -0.60904765235E+03  0.60904765237E+03  0.50400001928E-02 0. -1.
    10030    2    1    2    0    0  0.00000000000E+00  0.00000000000E+00  0.38454442903E+03  0.16026397338E+04  0.15558212296E+04 0.  0.
        4    1    3    3  502    0 -0.26691846596E+03 -0.15602851913E+03  0.92758288923E+03  0.97775354541E+03  0.12699999809E+01 0.  1.
       -4    1    3    3    0  502  0.26691846596E+03  0.15602851913E+03 -0.54303846020E+03  0.62488618837E+03  0.12699999809E+01 0. -1.
</event>
<event>
 5   0  0.2544374E-04  0.1501898E+04  0.7818609E-02  0.8883191E-01
       -1   -1    0    0    0  501  0.00000000000E+00  0.00000000000E+00  0.83385990890E+03  0.83385990892E+03  0.50400001928E-02 0. -1.
        1   -1    0    0  501    0  0.00000000000E+00  0.00000000000E+00 -0.67628231836E+03  0.67628231838E+03  0.50400001928E-02 0.  1.
    10030    2    1    2    0    0  0.00000000000E+00  0.00000000000E+00  0.15757759054E+03  0.15101422273E+04  0.15018984152E+04 0.  0.
        4    1    3    3  502    0 -0.56977377621E+03  0.32681173108E+03  0.44475780895E+03  0.79325858655E+03  0.12699999809E+01 0. -1.
       -4    1    3    3    0  502  0.56977377621E+03 -0.32681173108E+03 -0.28718021840E+03  0.71688364074E+03  0.12699999809E+01 0.  1.
</event>
<event>
 5   0  0.2565416E-04  0.1543899E+04  0.7818609E-02  0.8855774E-01
        1   -1    0    0  501    0  0.00000000000E+00  0.00000000000E+00  0.84194416651E+03  0.84194416653E+03  0.50400001928E-02 0. -1.
       -1   -1    0    0    0  501  0.00000000000E+00  0.00000000000E+00 -0.70777413814E+03  0.70777413815E+03  0.50400001928E-02 0.  1.
    10030    2    1    2    0    0  0.00000000000E+00  0.00000000000E+00  0.13417002838E+03  0.15497183047E+04  0.15438993579E+04 0.  0.
        5    1    3    3  502    0 -0.33961231257E+03  0.11868755586E+03 -0.61846860225E+03  0.71550594738E+03  0.46999998093E+01 0.  1.
       -5    1    3    3    0  502  0.33961231257E+03 -0.11868755586E+03  0.75263863063E+03  0.83421235730E+03  0.46999998093E+01 0. -1.
</event>
<event>
 5   0  0.4726600E-04  0.1500383E+04  0.7818609E-02  0.8884198E-01
        2   -1    0    0  501    0  0.00000000000E+00  0.00000000000E+00  0.19987589569E+04  0.19987589569E+04  0.25500000920E-02 0.  1.
       -2   -1    0    0    0  501  0.00000000000E+00  0.00000000000E+00 -0.28156854972E+03  0.28156854973E+03  0.25500000920E-02 0. -1.
    10030    2    1    2    0    0  0.00000000000E+00  0.00000000000E+00  0.17171904071E+04  0.22803275066E+04  0.15003834986E+04 0.  0.
        2    1    3    3  502    0  0.61949882693E+02  0.45873709410E+03 -0.38632476064E+02  0.46451047102E+03  0.25500000920E-02 0. -1.
       -2    1    3    3    0  502 -0.61949882693E+02 -0.45873709410E+03  0.17558228832E+04  0.18158170356E+04  0.25500000920E-02 0.  1.
</event>
<event>
 5   0  0.4785496E-04  0.1502255E+04  0.7818609E-02  0.8882954E-01
        2   -1    0    0  501    0  0.00000000000E+00  0.00000000000E+00  0.57977267011E+03  0.57977267011E+03  0.25500000920E-02 0.  1.
       -2   -1    0    0    0  501  0.00000000000E+00  0.00000000000E+00 -0.97312767736E+03  0.97312767737E+03  0.25500000920E-02 0. -1.
    10030    2    1    2    0    0  0.00000000000E+00  0.00000000000E+00 -0.39335500726E+03  0.15529003475E+04  0.15022554135E+04 0.  0.
        4    1    3    3  502    0  0.71262923073E+03  0.23380496695E+03 -0.15423185068E+03  0.76569854364E+03  0.12699999809E+01 0. -1.
       -4    1    3    3    0  502 -0.71262923073E+03 -0.23380496695E+03 -0.23912315657E+03  0.78720180384E+03  0.12699999809E+01 0.  1.
</event>
<event>
 5   0  0.4569211E-04  0.1506978E+04  0.7818609E-02  0.8879826E-01
       -2   -1    0    0    0  501  0.00000000000E+00  0.00000000000E+00  0.58098889967E+03  0.58098889968E+03  0.25500000920E-02 0.  1.
        2   -1    0    0  501    0  0.00000000000E+00  0.00000000000E+00 -0.97720583196E+03  0.97720583197E+03  0.25500000920E-02 0. -1.
    10030    2    1    2    0    0  0.00000000000E+00  0.00000000000E+00 -0.39621693229E+03  0.15581947316E+04  0.15069780902E+04 0.  0.
        5    1    3    3  502    0 -0.24966069639E+03 -0.24578279888E+03  0.49163404363E+03  0.60371000521E+03  0.46999998093E+01 0.  1.
       -5    1    3    3    0  502  0.24966069639E+03  0.24578279888E+03 -0.88785097592E+03  0.95448472643E+03  0.46999998093E+01 0. -1.
</event>
<event>
 5   0  0.4768387E-04  0.1462333E+04  0.7818609E-02  0.8909895E-01
        2   -1    0    0  501    0  0.00000000000E+00  0.00000000000E+00  0.69686658145E+03  0.69686658146E+03  0.25500000920E-02 0.  1.
       -2   -1    0    0    0  501  0.00000000000E+00  0.00000000000E+00 -0.76715487375E+03  0.76715487376E+03  0.25500000920E-02 0. -1.
    10030    2    1    2    0    0  0.00000000000E+00  0.00000000000E+00 -0.70288292300E+02  0.14640214552E+04  0.14623331964E+04 0.  0.
        3    1    3    3  502    0  0.46195330555E+03 -0.32028648885E+03 -0.50325244224E+03  0.75448480585E+03  0.10100000352E+00 0.  1.
       -3    1    3    3    0  502 -0.46195330555E+03  0.32028648885E+03  0.43296414994E+03  0.70953664936E+03  0.10100000352E+00 0. -1.
</event>
<event>
 5   0  0.4569211E-04  0.1550302E+04  0.7818609E-02  0.8851675E-01
       -2   -1    0    0    0  501  0.00000000000E+00  0.00000000000E+00  0.84144224047E+03  0.84144224047E+03  0.25500000920E-02 0. -1.
        2   -1    0    0  501    0  0.00000000000E+00  0.00000000000E+00 -0.71408207282E+03  0.71408207282E+03  0.25500000920E-02 0.  1.
    10030    2    1    2    0    0  0.00000000000E+00  0.00000000000E+00  0.12736016765E+03  0.15555243133E+04  0.15503016729E+04 0.  0.
        5    1    3    3  502    0 -0.23937600123E+03  0.71888895061E+03 -0.10037772744E+03  0.76432975307E+03  0.46999998093E+01 0.  1.
       -5    1    3    3    0  502  0.23937600123E+03 -0.71888895061E+03  0.22773789509E+03  0.79119456022E+03  0.46999998093E+01 0. -1.
</event>
<event>
 5   0  0.4726600E-04  0.1498621E+04  0.7818609E-02  0.8885370E-01
       -2   -1    0    0    0  501  0.00000000000E+00  0.00000000000E+00  0.52476373554E+03  0.52476373554E+03  0.25500000920E-02 0. -1.
        2   -1    0    0  501    0  0.00000000000E+00  0.00000000000E+00 -0.10699411455E+04  0.10699411455E+04  0.25500000920E-02 0.  1.
    10030    2    1    2    0    0  0.00000000000E+00  0.00000000000E+00 -0.54517740995E+03  0.15947048810E+04  0.14986211160E+04 0.  0.
        2    1    3    3  502    0  0.47573757328E+03 -0.85412394966E+02  0.33669929310E+03  0.58905681375E+03  0.25500000920E-02 0. -1.
       -2    1    3    3    0  502 -0.47573757328E+03  0.85412394966E+02 -0.88187670305E+03  0.10056480673E+04  0.25500000920E-02 0.  1.
</event>
<event>
 5   0  0.2542737E-04  0.1474793E+04  0.7818609E-02  0.8901391E-01
       -1   -1    0    0    0  501  0.00000000000E+00  0.00000000000E+00  0.10351718857E+04  0.10351718857E+04  0.50400001928E-02 0.  1.
        1   -1    0    0  501    0  0.00000000000E+00  0.00000000000E+00 -0.52527822952E+03  0.52527822955E+03  0.50400001928E-02 0. -1.
    10030    2    1    2    0    0  0.00000000000E+00  0.00000000000E+00  0.50989365619E+03  0.15604501153E+04  0.14747925351E+04 0.  0.
        1    1    3    3  502    0  0.69422778026E+03 -0.14442080469E+03  0.46904471114E+03  0.85018381588E+03  0.50400001928E-02 0.  1.
       -1    1    3    3    0  502 -0.69422778026E+03  0.14442080469E+03  0.40848945051E+02  0.71026629939E+03  0.50400001928E-02 0. -1.
</event>
<event>
 5   0  0.2544374E-04  0.1479284E+04  0.7818609E-02  0.8898347E-01
       -1   -1    0    0    0  501  0.00000000000E+00  0.00000000000E+00  0.17175168032E+03  0.17175168039E+03  0.50400001928E-02 0. -1.
        1   -1    0    0  501    0  0.00000000000E+00  0.00000000000E+00 -0.31852376839E+04  0.31852376839E+04  0.50400001928E-02 0.  1.
    10030    2    1    2    0    0  0.00000000000E+00  0.00000000000E+00 -0.30134860036E+04  0.33569893643E+04  0.14792835084E+04 0.  0.
        4    1    3    3  502    0 -0.33414199476E+03 -0.44087016316E+03 -0.26209168558E+04  0.26786608877E+04  0.12699999809E+01 0.  1.
       -4    1    3    3    0  502  0.33414199476E+03  0.44087016316E+03 -0.39256914774E+03  0.67832847654E+03  0.12699999809E+01 0. -1.
</event>
<event>
 5   0  0.4785496E-04  0.1506863E+04  0.7818609E-02  0.8879902E-01
       -2   -1    0    0    0  501  0.00000000000E+00  0.00000000000E+00  0.24644475474E+03  0.24644475475E+03  0.25500000920E-02 0. -1.
        2   -1    0    0  501    0  0.00000000000E+00  0.00000000000E+00 -0.23033925382E+04  0.23033925382E+04  0.25500000920E-02 0.  1.
    10030    2    1    2    0    0  0.00000000000E+00  0.00000000000E+00 -0.20569477835E+04  0.25498372930E+04  0.15068629787E+04 0.  0.
        4    1    3    3  502    0 -0.22131276427E+03 -0.51692232430E+03 -0.18770313405E+04  0.19594479568E+04  0.12699999809E+01 0.  1.
       -4    1    3    3    0  502  0.22131276427E+03  0.51692232430E+03 -0.17991644297E+03  0.59038933623E+03  0.12699999809E+01 0. -1.
</event>
<event>
 5   0  0.4785496E-04  0.1499842E+04  0.7818609E-02  0.8884558E-01
       -2   -1    0    0    0  501  0.00000000000E+00  0.00000000000E+00  0.65903163356E+03  0.65903163356E+03  0.25500000920E-02 0.  1.
        2   -1    0    0  501    0  0.00000000000E+00  0.00000000000E+00 -0.85334503363E+03  0.85334503363E+03  0.25500000920E-02 0. -1.
    10030    2    1    2    0    0  0.00000000000E+00  0.00000000000E+00 -0.19431340007E+03  0.15123766672E+04  0.14998418203E+04 0.  0.
        4    1    3    3  502    0 -0.42758124085E+03 -0.43272271806E+03  0.34503430061E+03  0.69937468480E+03  0.12699999809E+01 0.  1.
       -4    1    3    3    0  502  0.42758124085E+03  0.43272271806E+03 -0.53934770067E+03  0.81300198239E+03  0.12699999809E+01 0. -1.
</event>
<event>
 5   0  0.2603873E-04  0.1511310E+04  0.7818609E-02  0.8876966E-01
        1   -1    0    0  501    0  0.00000000000E+00  0.00000000000E+00  0.86927948596E+03  0.86927948598E+03  0.50400001928E-02 0.  1.
       -1   -1    0    0    0  501  0.00000000000E+00  0.00000000000E+00 -0.65688258118E+03  0.65688258120E+03  0.50400001928E-02 0. -1.
    10030    2    1    2    0    0  0.00000000000E+00  0.00000000000E+00  0.21239690478E+03  0.15261620672E+04  0.15113100973E+04 0.  0.
        2    1    3    3  502    0 -0.57840541170E+03 -0.32286857996E+03 -0.26099229236E+03  0.71197887391E+03  0.25500000920E-02 0. -1.
       -2    1    3    3    0  502  0.57840541170E+03  0.32286857996E+03  0.47338919714E+03  0.81418319326E+03  0.25500000920E-02 0.  1.
</event>
<event>
 5   0  0.2603873E-04  0.1505274E+04  0.7818609E-02  0.8880953E-01
       -1   -1    0    0    0  501  0.00000000000E+00  0.00000000000E+00  0.14734963495E+04  0.14734963495E+04  0.50400001928E-02 0.  1.
        1   -1    0    0  501    0  0.00000000000E+00  0.00000000000E+00 -0.38443442421E+03  0.38443442425E+03  0.50400001928E-02 0. -1.
    10030    2    1    2    0    0  0.00000000000E+00  0.00000000000E+00  0.10890619252E+04  0.18579307737E+04  0.15052743547E+04 0.  0.
        2    1    3    3  502    0  0.53032056181E+03 -0.49735704563E+03  0.78468906286E+03  0.10697386851E+04  0.25500000920E-02 0.  1.
       -2    1    3    3    0  502 -0.53032056181E+03  0.49735704563E+03  0.30437286239E+03  0.78819208857E+03  0.25500000920E-02 0. -1.
</event>
<event>
 5   0  0.4726600E-04  0.1497810E+04  0.7818609E-02  0.8885911E-01
        2   -1    0    0  501    0  0.00000000000E+00  0.00000000000E+00  0.90814109245E+03  0.90814109246E+03  0.25500000920E-02 0.  1.
       -2   -1    0    0    0  501  0.00000000000E+00  0.00000000000E+00 -0.61758944220E+03  0.61758944221E+03  0.25500000920E-02 0. -1.
    10030    2    1    2    0    0  0.00000000000E+00  0.00000000000E+00  0.29055165025E+03  0.15257305347E+04  0.14978095349E+04 0.  0.
        2    1    3    3  502    0 -0.69374707362E+03 -0.42411580740E+02  0.42935549716E+03  0.81696382251E+03  0.25500000920E-02 0.  1.
       -2    1    3    3    0  502  0.69374707362E+03  0.42411580740E+02 -0.13880384692E+03  0.70876671216E+03  0.25500000920E-02 0. -1.
</event>
<event>
 5   0  0.4768387E-04  0.1455896E+04  0.7818609E-02  0.8914323E-01
        2   -1    0    0  501    0  0.00000000000E+00  0.00000000000E+00  0.84232434764E+03  0.84232434764E+03  0.25500000920E-02 0.  1.
       -2   -1    0    0    0  501  0.00000000000E+00  0.00000000000E+00 -0.62910248339E+03  0.62910248340E+03  0.25500000920E-02 0. -1.
    10030    2    1    2    0    0  0.00000000000E+00  0.00000000000E+00  0.21322186424E+03  0.14714268310E+04  0.14558960662E+04 0.  0.
        3    1    3    3  502    0 -0.37120908926E+02 -0.19342757652E+03 -0.60166160351E+03  0.63307889286E+03  0.10100000352E+00 0. -1.
       -3    1    3    3    0  502  0.37120908926E+02  0.19342757652E+03  0.81488346775E+03  0.83834793819E+03  0.10100000352E+00 0.  1.
</event>
<event>
 5   0  0.4726600E-04  0.1501595E+04  0.7818609E-02  0.8883393E-01
       -2   -1    0    0    0  501  0.00000000000E+00  0.00000000000E+00  0.33754587252E+03  0.33754587253E+03  0.25500000920E-02 0.  1.
        2   -1    0    0  501    0  0.00000000000E+00  0.00000000000E+00 -0.16699850955E+04  0.16699850955E+04  0.25500000920E-02 0. -1.
    10030    2    1    2    0    0  0.00000000000E+00  0.00000000000E+00 -0.13324392229E+04  0.20075309680E+04  0.15015945873E+04 0.  0.
        2    1    3    3  502    0 -0.31501295999E+02 -0.29082717668E+03 -0.15906617626E+04  0.16173365826E+04  0.25500000920E-02 0. -1.
       -2    1    3    3    0  502  0.31501295999E+02  0.29082717668E+03  0.25822253971E+03  0.39019438536E+03  0.25500000920E-02 0.  1.
</event>
<event>
 5   0  0.4948645E-04  0.1487445E+04  0.7818609E-02  0.8892845E-01
        2   -1    0    0  501    0  0.00000000000E+00  0.00000000000E+00  0.11602281691E+04  0.11602281691E+04  0.25500000920E-02 0. -1.
       -2   -1    0    0    0  501  0.00000000000E+00  0.00000000000E+00 -0.47673638647E+03  0.47673638648E+03  0.25500000920E-02 0.  1.
    10030    2    1    2    0    0  0.00000000000E+00  0.00000000000E+00  0.68349178264E+03  0.16369645556E+04  0.14874447685E+04 0.  0.
        1    1    3    3  502    0  0.41458161621E+03  0.58039520589E+03  0.57360477855E+03  0.91529173138E+03  0.50400001928E-02 0. -1.
       -1    1    3    3    0  502 -0.41458161621E+03 -0.58039520589E+03  0.10988700409E+03  0.72167282422E+03  0.50400001928E-02 0.  1.
</event>
<event>
 5   0  0.2605471E-04  0.1505718E+04  0.7818609E-02  0.8880659E-01
       -1   -1    0    0    0  501  0.00000000000E+00  0.00000000000E+00  0.40703204160E+03  0.40703204163E+03  0.50400001928E-02 0. -1.
        1   -1    0    0  501    0  0.00000000000E+00  0.00000000000E+00 -0.13925112349E+04  0.13925112350E+04  0.50400001928E-02 0.  1.
    10030    2    1    2    0    0  0.00000000000E+00  0.00000000000E+00 -0.98547919335E+03  0.17995432766E+04  0.15057180227E+04 0.  0.
        3    1    3    3  502    0  0.58522937355E+03  0.40492261243E+03 -0.78631838841E+03  0.10605434267E+04  0.10100000352E+00 0. -1.
       -3    1    3    3    0  502 -0.58522937355E+03 -0.40492261243E+03 -0.19916080494E+03  0.73899984990E+03  0.10100000352E+00 0.  1.
</event>
<event>
 5   0  0.4569211E-04  0.1510523E+04  0.7818609E-02  0.8877485E-01
       -2   -1    0    0    0  501  0.00000000000E+00  0.00000000000E+00  0.46374571309E+03  0.46374571310E+03  0.25500000920E-02 0. -1.
        2   -1    0    0  501    0  0.00000000000E+00  0.00000000000E+00 -0.12300277672E+04  0.12300277672E+04  0.25500000920E-02 0.  1.
    10030    2    1    2    0    0  0.00000000000E+00  0.00000000000E+00 -0.76628205406E+03  0.16937734803E+04  0.15105232259E+04 0.  0.
        5    1    3    3  502    0  0.10599297445E+03 -0.52794805097E+03  0.21066353869E+03  0.57824291754E+03  0.46999998093E+01 0. -1.
       -5    1    3    3    0  502 -0.10599297445E+03  0.52794805097E+03 -0.97694559276E+03  0.11155305627E+04  0.46999998093E+01 0.  1.
</event>
<event>
 5   0  0.4785496E-04  0.1558464E+04  0.7818609E-02  0.8846480E-01
        2   -1    0    0  501    0  0.00000000000E+00  0.00000000000E+00  0.12239916790E+04  0.12239916790E+04  0.25500000920E-02 0.  1.
       -2   -1    0    0    0  501  0.00000000000E+00  0.00000000000E+00 -0.49608367343E+03  0.49608367343E+03  0.25500000920E-02 0. -1.
    10030    2    1    2    0    0  0.00000000000E+00  0.00000000000E+00  0.72790800554E+03  0.17200753524E+04  0.15584637158E+04 0.  0.
        4    1    3    3  502    0  0.41700601637E+03  0.65816992847E+03  0.37599409360E+03  0.86513284746E+03  0.12699999809E+01 0. -1.
       -4    1    3    3    0  502 -0.41700601637E+03 -0.65816992847E+03  0.35191391194E+03  0.85494250494E+03  0.12699999809E+01 0.  1.
</event>
<event>
 5   0  0.4726600E-04  0.1490136E+04  0.7818609E-02  0.8891039E-01
        2   -1    0    0  501    0  0.00000000000E+00  0.00000000000E+00  0.90653790510E+03  0.90653790510E+03  0.25500000920E-02 0.  1.
       -2   -1    0    0    0  501  0.00000000000E+00  0.00000000000E+00 -0.61235865536E+03  0.61235865536E+03  0.25500000920E-02 0. -1.
    10030    2    1    2    0    0  0.00000000000E+00  0.00000000000E+00  0.29417924974E+03  0.15188965605E+04  0.14901360107E+04 0.  0.
        2    1    3    3  502    0 -0.48127531026E+03  0.50069358435E+03 -0.12794469934E+03  0.70617974750E+03  0.25500000920E-02 0. -1.
       -2    1    3    3    0  502  0.48127531026E+03 -0.50069358435E+03  0.42212394908E+03  0.81271681296E+03  0.25500000920E-02 0.  1.
</event>
<event>
 5   0  0.2605471E-04  0.1504225E+04  0.7818609E-02  0.8881648E-01
       -1   -1    0    0    0  501  0.00000000000E+00  0.00000000000E+00  0.77685415459E+03  0.77685415461E+03  0.50400001928E-02 0. -1.
        1   -1    0    0  501    0  0.00000000000E+00  0.00000000000E+00 -0.72815912583E+03  0.72815912585E+03  0.50400001928E-02 0.  1.
    10030    2    1    2    0    0  0.00000000000E+00  0.00000000000E+00  0.48695028762E+02  0.15050132805E+04  0.15042253051E+04 0.  0.
        3    1    3    3  502    0  0.78825151133E+02  0.18875630581E+02  0.77247160485E+03  0.77671235627E+03  0.10100000352E+00 0. -1.
       -3    1    3    3    0  502 -0.78825151133E+02 -0.18875630581E+02 -0.72377657609E+03  0.72830092419E+03  0.10100000352E+00 0.  1.
</event>
<event>
 5   0  0.2565416E-04  0.1501235E+04  0.7818609E-02  0.8883632E-01
        1   -1    0    0  501    0  0.00000000000E+00  0.00000000000E+00  0.97191851133E+03  0.97191851135E+03  0.50400001928E-02 0. -1.
       -1   -1    0    0    0  501  0.00000000000E+00  0.00000000000E+00 -0.57970548720E+03  0.57970548722E+03  0.50400001928E-02 0.  1.
    10030    2    1    2    0    0  0.00000000000E+00  0.00000000000E+00  0.39221302413E+03  0.15516239986E+04  0.15012348173E+04 0.  0.
        5    1    3    3  502    0 -0.43765395150E+03  0.24469824571E+00 -0.43416772619E+03  0.61649391368E+03  0.46999998093E+01 0.  1.
       -5    1    3    3    0  502  0.43765395150E+03 -0.24469824571E+00  0.82638075033E+03  0.93513008488E+03  0.46999998093E+01 0. -1.
</event>
<event>
 5   0  0.4948645E-04  0.1488220E+04  0.7818609E-02  0.8892324E-01
        2   -1    0    0  501    0  0.00000000000E+00  0.00000000000E+00  0.82666493844E+03  0.82666493844E+03  0.25500000920E-02 0.  1.
       -2   -1    0    0    0  501  0.00000000000E+00  0.00000000000E+00 -0.66979974808E+03  0.66979974808E+03  0.25500000920E-02 0. -1.
    10030    2    1    2    0    0  0.00000000000E+00  0.00000000000E+00  0.15686519036E+03  0.14964646865E+04  0.14882203701E+04 0.  0.
        1    1    3    3  502    0  0.29969317603E+03 -0.59905331546E+03  0.40429432581E+03  0.78239042455E+03  0.50400001928E-02 0.  1.
       -1    1    3    3    0  502 -0.29969317603E+03  0.59905331546E+03 -0.24742913545E+03  0.71407426197E+03  0.50400001928E-02 0. -1.
</event>
<event>
 5   0  0.4569211E-04  0.1498529E+04  0.7818609E-02  0.8885432E-01
        2   -1    0    0  501    0  0.00000000000E+00  0.00000000000E+00  0.42925946001E+03  0.42925946002E+03  0.25500000920E-02 0.  1.
       -2   -1    0    0    0  501  0.00000000000E+00  0.00000000000E+00 -0.13078266267E+04  0.13078266267E+04  0.25500000920E-02 0. -1.
    10030    2    1    2    0    0  0.00000000000E+00  0.00000000000E+00 -0.87856716670E+03  0.17370860867E+04  0.14985285470E+04 0.  0.
        5    1    3    3  502    0  0.49760932048E+03 -0.17954264040E+03  0.17577182052E+03  0.55746606931E+03  0.46999998093E+01 0.  1.
       -5    1    3    3    0  502 -0.49760932048E+03  0.17954264040E+03 -0.10543389872E+04  0.11796200174E+04  0.46999998093E+01 0. -1.
</event>
<event>
 5   0  0.4569211E-04  0.1506517E+04  0.7818609E-02  0.8880131E-01
        2   -1    0    0  501    0  0.00000000000E+00  0.00000000000E+00  0.13281916000E+04  0.13281916000E+04  0.25500000920E-02 0. -1.
       -2   -1    0    0    0  501  0.00000000000E+00  0.00000000000E+00 -0.42719632214E+03  0.42719632215E+03  0.25500000920E-02 0.  1.
    10030    2    1    2    0    0  0.00000000000E+00  0.00000000000E+00  0.90099527782E+03  0.17553879221E+04  0.15065172639E+04 0.  0.
        5    1    3    3  502    0 -0.23580638420E+03  0.54430532820E+03 -0.90413833626E+02  0.60005807423E+03  0.46999998093E+01 0.  1.
       -5    1    3    3    0  502  0.23580638420E+03 -0.54430532820E+03  0.99140911144E+03  0.11553298479E+04  0.46999998093E+01 0. -1.
</event>
<event>
 5   0  0.2544374E-04  0.1497164E+04  0.7818609E-02  0.8886341E-01
       -1   -1    0    0    0  501  0.00000000000E+00  0.00000000000E+00  0.78486626129E+03  0.78486626130E+03  0.50400001928E-02 0. -1.
        1   -1    0    0  501    0  0.00000000000E+00  0.00000000000E+00 -0.71397494186E+03  0.71397494188E+03  0.50400001928E-02 0.  1.
    10030    2    1    2    0    0  0.00000000000E+00  0.00000000000E+00  0.70891319426E+02  0.14988412032E+04  0.14971637763E+04 0.  0.
        4    1    3    3  502    0 -0.15379564310E+03 -0.61372365392E+03  0.43597316085E+03  0.76836451837E+03  0.12699999809E+01 0. -1.
       -4    1    3    3    0  502  0.15379564310E+03  0.61372365392E+03 -0.36508184142E+03  0.73047668481E+03  0.12699999809E+01 0.  1.
</event>
<event>
 5   0  0.2544374E-04  0.1493302E+04  0.7818609E-02  0.8888920E-01
        1   -1    0    0  501    0  0.00000000000E+00  0.00000000000E+00  0.81386654478E+03  0.81386654479E+03  0.50400001928E-02 0. -1.
       -1   -1    0    0    0  501  0.00000000000E+00  0.00000000000E+00 -0.68498621626E+03  0.68498621627E+03  0.50400001928E-02 0.  1.
    10030    2    1    2    0    0  0.00000000000E+00  0.00000000000E+00  0.12888032852E+03  0.14988527611E+04  0.14933015303E+04 0.  0.
        4    1    3    3  502    0 -0.66709119180E+03 -0.24016966799E+03 -0.17051039169E+03  0.72922392595E+03  0.12699999809E+01 0.  1.
       -4    1    3    3    0  502  0.66709119180E+03  0.24016966799E+03  0.29939072021E+03  0.76962883512E+03  0.12699999809E+01 0. -1.
</event>
<event>
 5   0  0.2603873E-04  0.1502309E+04  0.7818609E-02  0.8882919E-01
        1   -1    0    0  501    0  0.00000000000E+00  0.00000000000E+00  0.16449123660E+04  0.16449123660E+04  0.50400001928E-02 0. -1.
       -1   -1    0    0    0  501  0.00000000000E+00  0.00000000000E+00 -0.34301698068E+03  0.34301698072E+03  0.50400001928E-02 0.  1.
    10030    2    1    2    0    0  0.00000000000E+00  0.00000000000E+00  0.13018953854E+04  0.19879293468E+04  0.15023087210E+04 0.  0.
        2    1    3    3  502    0 -0.13604948630E+03  0.71718195690E+03  0.88532896369E+03  0.11474610216E+04  0.25500000920E-02 0.  1.
       -2    1    3    3    0  502  0.13604948630E+03 -0.71718195690E+03  0.41656642166E+03  0.84046832522E+03  0.25500000920E-02 0. -1.
</event>
<event>
 5   0  0.4948645E-04  0.1505695E+04  0.7818609E-02  0.8880675E-01
        2   -1    0    0  501    0  0.00000000000E+00  0.00000000000E+00  0.18622396400E+04  0.18622396400E+04  0.25500000920E-02 0. -1.
       -2   -1    0    0    0  501  0.00000000000E+00  0.00000000000E+00 -0.30435356314E+03  0.30435356315E+03  0.25500000920E-02 0.  1.
    10030    2    1    2    0    0  0.00000000000E+00  0.00000000000E+00  0.15578860769E+04  0.21665932032E+04  0.15056948826E+04 0.  0.
        1    1    3    3  502    0  0.18533640971E+03  0.55861541245E+03  0.10344355797E+03  0.59757956249E+03  0.50400001928E-02 0.  1.
       -1    1    3    3    0  502 -0.18533640971E+03 -0.55861541245E+03  0.14544425189E+04  0.15690136407E+04  0.50400001928E-02 0. -1.
</event>
<event>
 5   0  0.4569211E-04  0.1500740E+04  0.7818609E-02  0.8883961E-01
        2   -1    0    0  501    0  0.00000000000E+00  0.00000000000E+00  0.16127222994E+04  0.16127222994E+04  0.25500000920E-02 0. -1.
       -2   -1    0    0    0  501  0.00000000000E+00  0.00000000000E+00 -0.34913315464E+03  0.34913315465E+03  0.25500000920E-02 0.  1.
    10030    2    1    2    0    0  0.00000000000E+00  0.00000000000E+00  0.12635891447E+04  0.19618554540E+04  0.15007395829E+04 0.  0.
        5    1    3    3  502    0 -0.32838689879E+03  0.22970450655E+03  0.14610860011E+04  0.15150566023E+04  0.46999998093E+01 0. -1.
       -5    1    3    3    0  502  0.32838689879E+03 -0.22970450655E+03 -0.19749685636E+03  0.44679885172E+03  0.46999998093E+01 0.  1.
</event>
<event>
 5   0  0.4768387E-04  0.1517858E+04  0.7818609E-02  0.8872664E-01
       -2   -1    0    0    0  501  0.00000000000E+00  0.00000000000E+00  0.55278458361E+03  0.55278458361E+03  0.25500000920E-02 0.  1.
        2   -1    0    0  501    0  0.00000000000E+00  0.00000000000E+00 -0.10419488767E+04  0.10419488767E+04  0.25500000920E-02 0. -1.
    10030    2    1    2    0    0  0.00000000000E+00  0.00000000000E+00 -0.48916429313E+03  0.15947334604E+04  0.15178580645E+04 0.  0.
        3    1    3    3  502    0  0.56817833843E+03  0.38919214095E+03 -0.57959882189E+03  0.90012885265E+03  0.10100000352E+00 0. -1.
       -3    1    3    3    0  502 -0.56817833843E+03 -0.38919214095E+03  0.90434528763E+02  0.69460460770E+03  0.10100000352E+00 0.  1.
</event>
<event>
 5   0  0.2544374E-04  0.1516670E+04  0.7818609E-02  0.8873443E-01
        1   -1    0    0  501    0  0.00000000000E+00  0.00000000000E+00  0.72135160557E+03  0.72135160558E+03  0.50400001928E-02 0. -1.
       -1   -1    0    0    0  501  0.00000000000E+00  0.00000000000E+00 -0.79721407971E+03  0.79721407973E+03  0.50400001928E-02 0.  1.
    10030    2    1    2    0    0  0.00000000000E+00  0.00000000000E+00 -0.75862474143E+02  0.15185656853E+04  0.15166695835E+04 0.  0.
        4    1    3    3  502    0  0.12309318762E+03  0.19962134775E+03 -0.75999120424E+03  0.79535454908E+03  0.12699999809E+01 0.  1.
       -4    1    3    3    0  502 -0.12309318762E+03 -0.19962134775E+03  0.68412873010E+03  0.72321113623E+03  0.12699999809E+01 0. -1.
</event>
<event>
 5   0  0.4948645E-04  0.1509276E+04  0.7818609E-02  0.8878308E-01
       -2   -1    0    0    0  501  0.00000000000E+00  0.00000000000E+00  0.17789147935E+03  0.17789147937E+03  0.25500000920E-02 0.  1.
        2   -1    0    0  501    0  0.00000000000E+00  0.00000000000E+00 -0.32012671278E+04  0.32012671278E+04  0.25500000920E-02 0. -1.
    10030    2    1    2    0    0  0.00000000000E+00  0.00000000000E+00 -0.30233756484E+04  0.33791586072E+04  0.15092755152E+04 0.  0.
        1    1    3    3  502    0  0.55659369007E+02 -0.47110939299E+03 -0.19769076262E+03  0.51392962862E+03  0.50400001928E-02 0.  1.
       -1    1    3    3    0  502 -0.55659369007E+02  0.47110939299E+03 -0.28256848858E+04  0.28652289785E+04  0.50400001928E-02 0. -1.
</event>
<event>
 5   0  0.2544374E-04  0.1511752E+04  0.7818609E-02  0.8876675E-01
       -1   -1    0    0    0  501  0.00000000000E+00  0.00000000000E+00  0.38496459751E+03  0.38496459754E+03  0.50400001928E-02 0. -1.
        1   -1    0    0  501    0  0.00000000000E+00  0.00000000000E+00 -0.14841595439E+04  0.14841595439E+04  0.50400001928E-02 0.  1.
    10030    2    1    2    0    0  0.00000000000E+00  0.00000000000E+00 -0.10991949464E+04  0.18691241415E+04  0.15117524685E+04 0.  0.
        4    1    3    3  502    0  0.16349263441E+03 -0.63337871963E+03 -0.10178778482E+04  0.12099484992E+04  0.12699999809E+01 0.  1.
       -4    1    3    3    0  502 -0.16349263441E+03  0.63337871963E+03 -0.81317098196E+02  0.65917564225E+03  0.12699999809E+01 0. -1.
</event>
<event>
 5   0  0.4768387E-04  0.1487546E+04  0.7818609E-02  0.8892777E-01
       -2   -1    0    0    0  501  0.00000000000E+00  0.00000000000E+00  0.32128866867E+03  0.32128866868E+03  0.25500000920E-02 0.  1.
        2   -1    0    0  501    0  0.00000000000E+00  0.00000000000E+00 -0.17218118484E+04  0.17218118484E+04  0.25500000920E-02 0. -1.
    10030    2    1    2    0    0  0.00000000000E+00  0.00000000000E+00 -0.14005231797E+04  0.20431005171E+04  0.14875464853E+04 0.  0.
        3    1    3    3  502    0 -0.13092121227E+03  0.62782599221E+03 -0.18289384950E+03  0.66690030042E+03  0.10100000352E+00 0.  1.
       -3    1    3    3    0  502  0.13092121227E+03 -0.62782599221E+03 -0.12176293302E+04  0.13762002167E+04  0.10100000352E+00 0. -1.
</event>
<event>
 5   0  0.4785496E-04  0.1490676E+04  0.7818609E-02  0.8890677E-01
        2   -1    0    0  501    0  0.00000000000E+00  0.00000000000E+00  0.16764997073E+04  0.16764997073E+04  0.25500000920E-02 0. -1.
       -2   -1    0    0    0  501  0.00000000000E+00  0.00000000000E+00 -0.33136212612E+03  0.33136212613E+03  0.25500000920E-02 0.  1.
    10030    2    1    2    0    0  0.00000000000E+00  0.00000000000E+00  0.13451375811E+04  0.20078618334E+04  0.14906756957E+04 0.  0.
        4    1    3    3  502    0 -0.64015239691E+03  0.31136805417E+03  0.97006352892E+03  0.12032331526E+04  0.12699999809E+01 0. -1.
       -4    1    3    3    0  502  0.64015239691E+03 -0.31136805417E+03  0.37507405222E+03  0.80462868081E+03  0.12699999809E+01 0.  1.
</event>
<event>
 5   0  0.2542737E-04  0.1474324E+04  0.7818609E-02  0.8901709E-01
       -1   -1    0    0    0  501  0.00000000000E+00  0.00000000000E+00  0.14789841489E+04  0.14789841489E+04  0.50400001928E-02 0. -1.
        1   -1    0    0  501    0  0.00000000000E+00  0.00000000000E+00 -0.36741985175E+03  0.36741985179E+03  0.50400001928E-02 0.  1.
    10030    2    1    2    0    0  0.00000000000E+00  0.00000000000E+00  0.11115642971E+04  0.18464040007E+04  0.14743244375E+04 0.  0.
        1    1    3    3  502    0  0.38331566512E+03  0.61050783087E+03  0.74881594914E+03  0.10394113894E+04  0.50400001928E-02 0. -1.
       -1    1    3    3    0  502 -0.38331566512E+03 -0.61050783087E+03  0.36274834799E+03  0.80699261129E+03  0.50400001928E-02 0.  1.
</event>
<event>
 5   0  0.4948645E-04  0.1492662E+04  0.7818609E-02  0.8889347E-01
        2   -1    0    0  501    0  0.00000000000E+00  0.00000000000E+00  0.59871562870E+03  0.59871562871E+03  0.25500000920E-02 0.  1.
       -2   -1    0    0    0  501  0.00000000000E+00  0.00000000000E+00 -0.93034147890E+03  0.93034147891E+03  0.25500000920E-02 0. -1.
    10030    2    1    2    0    0  0.00000000000E+00  0.00000000000E+00 -0.33162585020E+03  0.15290571076E+04  0.14926620293E+04 0.  0.
        1    1    3    3  502    0  0.17232138663E+03  0.54551484034E+03 -0.65679995547E+03  0.87101508762E+03  0.50400001928E-02 0. -1.
       -1    1    3    3    0  502 -0.17232138663E+03 -0.54551484034E+03  0.32517410527E+03  0.65804202000E+03  0.50400001928E-02 0.  1.
</event>
<event>
 5   0  0.2565416E-04  0.1489015E+04  0.7818609E-02  0.8891791E-01
        1   -1    0    0  501    0  0.00000000000E+00  0.00000000000E+00  0.98302499990E+03  0.98302499991E+03  0.50400001928E-02 0.  1.
       -1   -1    0    0    0  501  0.00000000000E+00  0.00000000000E+00 -0.56386303205E+03  0.56386303207E+03  0.50400001928E-02 0. -1.
    10030    2    1    2    0    0  0.00000000000E+00  0.00000000000E+00  0.41916196785E+03  0.15468880320E+04  0.14890150531E+04 0.  0.
        5    1    3    3  502    0 -0.56859899505E+03  0.47928682152E+03  0.24629125232E+03  0.78339143819E+03  0.46999998093E+01 0. -1.
       -5    1    3    3    0  502  0.56859899505E+03 -0.47928682152E+03  0.17287071553E+03  0.76349659380E+03  0.46999998093E+01 0.  1.
</event>
<event>
 5   0  0.2565416E-04  0.1528229E+04  0.7818609E-02  0.8865895E-01
       -1   -1    0    0    0  501  0.00000000000E+00  0.00000000000E+00  0.31702301371E+03  0.31702301375E+03  0.50400001928E-02 0. -1.
        1   -1    0    0  501    0  0.00000000000E+00  0.00000000000E+00 -0.18417315693E+04  0.18417315693E+04  0.50400001928E-02 0.  1.
    10030    2    1    2    0    0  0.00000000000E+00  0.00000000000E+00 -0.15247085556E+04  0.21587545830E+04  0.15282294233E+04 0.  0.
        5    1    3    3  502    0 -0.69856687440E+03  0.80172036969E+02 -0.33993226350E+03  0.78102449852E+03  0.46999998093E+01 0. -1.
       -5    1    3    3    0  502  0.69856687440E+03 -0.80172036969E+02 -0.11847762921E+04  0.13777300845E+04  0.46999998093E+01 0.  1.
</event>
<event>
 5   0  0.2544374E-04  0.1500243E+04  0.7818609E-02  0.8884291E-01
        1   -1    0    0  501    0  0.00000000000E+00  0.00000000000E+00  0.16881093308E+04  0.16881093308E+04  0.50400001928E-02 0.  1.
       -1   -1    0    0    0  501  0.00000000000E+00  0.00000000000E+00 -0.33332106053E+03  0.33332106057E+03  0.50400001928E-02 0. -1.
    10030    2    1    2    0    0  0.00000000000E+00  0.00000000000E+00  0.13547882703E+04  0.20214303914E+04  0.15002431703E+04 0.  0.
        4    1    3    3  502    0  0.44035754433E+03  0.47248139556E+03  0.16338666172E+03  0.66622087188E+03  0.12699999809E+01 0. -1.
       -4    1    3    3    0  502 -0.44035754433E+03 -0.47248139556E+03  0.11914016085E+04  0.13552095195E+04  0.12699999809E+01 0.  1.
</event>
<event>
 5   0  0.2605471E-04  0.1507892E+04  0.7818609E-02  0.8879222E-01
       -1   -1    0    0    0  501  0.00000000000E+00  0.00000000000E+00  0.57036727165E+03  0.57036727167E+03  0.50400001928E-02 0. -1.
        1   -1    0    0  501    0  0.00000000000E+00  0.00000000000E+00 -0.99661166921E+03  0.99661166922E+03  0.50400001928E-02 0.  1.
    10030    2    1    2    0    0  0.00000000000E+00  0.00000000000E+00 -0.42624439756E+03  0.15669789409E+04  0.15078921429E+04 0.  0.
        3    1    3    3  502    0  0.25269344664E+03  0.65296222755E+03  0.77517288546E+02  0.70443068417E+03  0.10100000352E+00 0. -1.
       -3    1    3    3    0  502 -0.25269344664E+03 -0.65296222755E+03 -0.50376168611E+03  0.86254825672E+03  0.10100000352E+00 0.  1.
</event>
<event>
 5   0  0.2605471E-04  0.1507528E+04  0.7818609E-02  0.8879462E-01
       -1   -1    0    0    0  501  0.00000000000E+00  0.00000000000E+00  0.77142888791E+03  0.77142888792E+03  0.50400001928E-02 0. -1.
        1   -1    0    0  501    0  0.00000000000E+00  0.00000000000E+00 -0.73650378673E+03  0.73650378675E+03  0.50400001928E-02 0.  1.
    10030    2    1    2    0    0  0.00000000000E+00  0.00000000000E+00  0.34925101178E+02  0.15079326747E+04  0.15075281718E+04 0.  0.
        3    1    3    3  502    0 -0.64236685833E+03  0.19886928047E+03 -0.32318148912E+03  0.74607670953E+03  0.10100000352E+00 0.  1.
       -3    1    3    3    0  502  0.64236685833E+03 -0.19886928047E+03  0.35810659030E+03  0.76185596514E+03  0.10100000352E+00 0. -1.
</event>
<event>
 5   0  0.2544374E-04  0.1500138E+04  0.7818609E-02  0.8884361E-01
        1   -1    0    0  501    0  0.00000000000E+00  0.00000000000E+00  0.22305711976E+04  0.22305711976E+04  0.50400001928E-02 0.  1.
       -1   -1    0    0    0  501  0.00000000000E+00  0.00000000000E+00 -0.25222385623E+03  0.25222385628E+03  0.50400001928E-02 0. -1.
    10030    2    1    2    0    0  0.00000000000E+00  0.00000000000E+00  0.19783473413E+04  0.24827950539E+04  0.15001376858E+04 0.  0.
        4    1    3    3  502    0  0.11017463288E+03  0.15591163400E+03  0.21896856712E+04  0.21979926840E+04  0.12699999809E+01 0.  1.
       -4    1    3    3    0  502 -0.11017463288E+03 -0.15591163400E+03 -0.21133832982E+03  0.28480236990E+03  0.12699999809E+01 0. -1.
</event>
<event>
 5   0  0.2605471E-04  0.1498478E+04  0.7818609E-02  0.8885466E-01
        1   -1    0    0  501    0  0.00000000000E+00  0.00000000000E+00  0.78500587822E+03  0.78500587824E+03  0.50400001928E-02 0.  1.
       -1   -1    0    0    0  501  0.00000000000E+00  0.00000000000E+00 -0.71510159574E+03  0.71510159576E+03  0.50400001928E-02 0. -1.
    10030    2    1    2    0    0  0.00000000000E+00  0.00000000000E+00  0.69904282480E+02  0.15001074740E+04  0.14984778359E+04 0.  0.
        3    1    3    3  502    0 -0.37326085395E+03 -0.64074008900E+03  0.14224808081E+03  0.75505367587E+03  0.10100000352E+00 0.  1.
       -3    1    3    3    0  502  0.37326085395E+03  0.64074008900E+03 -0.72343798326E+02  0.74505379813E+03  0.10100000352E+00 0. -1.
</event>
<event>
 5   0  0.2542737E-04  0.1495157E+04  0.7818609E-02  0.8887680E-01
        1   -1    0    0  501    0  0.00000000000E+00  0.00000000000E+00  0.12737536680E+04  0.12737536680E+04  0.50400001928E-02 0. -1.
       -1   -1    0    0    0  501  0.00000000000E+00  0.00000000000E+00 -0.43876129304E+03  0.43876129307E+03  0.50400001928E-02 0.  1.
    10030    2    1    2    0    0  0.00000000000E+00  0.00000000000E+00  0.83499237497E+03  0.17125149611E+04  0.14951572578E+04 0.  0.
        1    1    3    3  502    0  0.21792174059E+02 -0.21171716232E+03 -0.40332646443E+03  0.45603869640E+03  0.50400001928E-02 0.  1.
       -1    1    3    3    0  502 -0.21792174059E+02  0.21171716232E+03  0.12383188394E+04  0.12564762647E+04  0.50400001928E-02 0. -1.
</event>
<event>
 5   0  0.2565416E-04  0.1531592E+04  0.7818609E-02  0.8863712E-01
       -1   -1    0    0    0  501  0.00000000000E+00  0.00000000000E+00  0.10928991772E+04  0.10928991773E+04  0.50400001928E-02 0.  1.
        1   -1    0    0  501    0  0.00000000000E+00  0.00000000000E+00 -0.53659429638E+03  0.53659429641E+03  0.50400001928E-02 0. -1.
    10030    2    1    2    0    0  0.00000000000E+00  0.00000000000E+00  0.55630488086E+03  0.16294934737E+04  0.15315919366E+04 0.  0.
        5    1    3    3  502    0  0.75895762216E+03 -0.10231265587E+02  0.17017608288E+03  0.77788388608E+03  0.46999998093E+01 0. -1.
       -5    1    3    3    0  502 -0.75895762216E+03  0.10231265587E+02  0.38612879798E+03  0.85160958758E+03  0.46999998093E+01 0.  1.
</event>
<event>
 5   0  0.4768387E-04  0.1422896E+04  0.7818609E-02  0.8937410E-01
       -2   -1    0    0    0  501  0.00000000000E+00  0.00000000000E+00  0.33509418432E+03  0.33509418433E+03  0.25500000920E-02 0.  1.
        2   -1    0    0  501    0  0.00000000000E+00  0.00000000000E+00 -0.15104956220E+04  0.15104956220E+04  0.25500000920E-02 0. -1.
    10030    2    1    2    0    0  0.00000000000E+00  0.00000000000E+00 -0.11754014377E+04  0.18455898063E+04  0.14228960586E+04 0.  0.
        3    1    3    3  502    0  0.34288313679E+03 -0.31925576556E+03 -0.12821643276E+04  0.13650781892E+04  0.10100000352E+00 0. -1.
       -3    1    3    3    0  502 -0.34288313679E+03  0.31925576556E+03  0.10676288996E+03  0.48051161715E+03  0.10100000352E+00 0.  1.
</event>
<event>
 5   0  0.4726600E-04  0.1537650E+04  0.7818609E-02  0.8859795E-01
        2   -1    0    0  501    0  0.00000000000E+00  0.00000000000E+00  0.17298093851E+04  0.17298093851E+04  0.25500000920E-02 0.  1.
       -2   -1    0    0    0  501  0.00000000000E+00  0.00000000000E+00 -0.34170906680E+03  0.34170906681E+03  0.25500000920E-02 0. -1.
    10030    2    1    2    0    0  0.00000000000E+00  0.00000000000E+00  0.13881003183E+04  0.20715184519E+04  0.15376495709E+04 0.  0.
        2    1    3    3  502    0  0.21430619777E+03  0.69699704464E+03  0.36582139323E+03  0.81581696378E+03  0.25500000920E-02 0. -1.
       -2    1    3    3    0  502 -0.21430619777E+03 -0.69699704464E+03  0.10222789251E+04  0.12557014881E+04  0.25500000920E-02 0.  1.
</event>
<event>
 5   0  0.2565416E-04  0.1533006E+04  0.7818609E-02  0.8862796E-01
       -1   -1    0    0    0  501  0.00000000000E+00  0.00000000000E+00  0.64095118035E+03  0.64095118037E+03  0.50400001928E-02 0.  1.
        1   -1    0    0  501    0  0.00000000000E+00  0.00000000000E+00 -0.91664794268E+03  0.91664794270E+03  0.50400001928E-02 0. -1.
    10030    2    1    2    0    0  0.00000000000E+00  0.00000000000E+00 -0.27569676234E+03  0.15575991231E+04  0.15330056502E+04 0.  0.
        5    1    3    3  502    0 -0.70016976288E+03 -0.44221288654E+02 -0.45152638850E+03  0.83432091472E+03  0.46999998093E+01 0. -1.
       -5    1    3    3    0  502  0.70016976288E+03  0.44221288654E+02  0.17582962617E+03  0.72327820834E+03  0.46999998093E+01 0.  1.
</event>
<event>
 5   0  0.4768387E-04  0.1646534E+04  0.7818609E-02  0.8792460E-01
       -2   -1    0    0    0  501  0.00000000000E+00  0.00000000000E+00  0.74240975026E+03  0.74240975026E+03  0.25500000920E-02 0.  1.
        2   -1    0    0  501    0  0.00000000000E+00  0.00000000000E+00 -0.91293036554E+03  0.91293036554E+03  0.25500000920E-02 0. -1.
    10030    2    1    2    0    0  0.00000000000E+00  0.00000000000E+00 -0.17052061528E+03  0.16553401158E+04  0.16465338195E+04 0.  0.
        3    1    3    3  502    0  0.14020401909E+03 -0.48624547608E+03 -0.73809964747E+03  0.89492062764E+03  0.10100000352E+00 0. -1.
       -3    1    3    3    0  502 -0.14020401909E+03  0.48624547608E+03  0.56757903220E+03  0.76041948816E+03  0.10100000352E+00 0.  1.
</event>
<event>
 5   0  0.4948645E-04  0.1510253E+04  0.7818609E-02  0.8877664E-01
       -2   -1    0    0    0  501  0.00000000000E+00  0.00000000000E+00  0.37900358166E+03  0.37900358167E+03  0.25500000920E-02 0. -1.
        2   -1    0    0  501    0  0.00000000000E+00  0.00000000000E+00 -0.15045128030E+04  0.15045128030E+04  0.25500000920E-02 0.  1.
    10030    2    1    2    0    0  0.00000000000E+00  0.00000000000E+00 -0.11255092214E+04  0.18835163847E+04  0.15102526160E+04 0.  0.
        1    1    3    3  502    0  0.49018202004E+01 -0.52051741901E+03 -0.12449979454E+04  0.13494377701E+04  0.50400001928E-02 0.  1.
       -1    1    3    3    0  502 -0.49018202004E+01  0.52051741901E+03  0.11948872405E+03  0.53407861456E+03  0.50400001928E-02 0. -1.
</event>
<event>
 5   0  0.4785496E-04  0.1511708E+04  0.7818609E-02  0.8876704E-01
       -2   -1    0    0    0  501  0.00000000000E+00  0.00000000000E+00  0.60126442747E+03  0.60126442747E+03  0.25500000920E-02 0.  1.
        2   -1    0    0  501    0  0.00000000000E+00  0.00000000000E+00 -0.95018990970E+03  0.95018990971E+03  0.25500000920E-02 0. -1.
    10030    2    1    2    0    0  0.00000000000E+00  0.00000000000E+00 -0.34892548224E+03  0.15514543372E+04  0.15117081624E+04 0.  0.
        4    1    3    3  502    0 -0.17506290764E+03  0.31115151790E+03 -0.85820099899E+03  0.92950140199E+03  0.12699999809E+01 0. -1.
       -4    1    3    3    0  502  0.17506290764E+03 -0.31115151790E+03  0.50927551676E+03  0.62195293519E+03  0.12699999809E+01 0.  1.
</event>
<event>
 5   0  0.4726600E-04  0.1496098E+04  0.7818609E-02  0.8887052E-01
       -2   -1    0    0    0  501  0.00000000000E+00  0.00000000000E+00  0.70343068545E+03  0.70343068545E+03  0.25500000920E-02 0.  1.
        2   -1    0    0  501    0  0.00000000000E+00  0.00000000000E+00 -0.79549761690E+03  0.79549761690E+03  0.25500000920E-02 0. -1.
    10030    2    1    2    0    0  0.00000000000E+00  0.00000000000E+00 -0.92066931451E+02  0.14989283024E+04  0.14960981705E+04 0.  0.
        2    1    3    3  502    0  0.17663194625E+03 -0.32532693047E+03  0.60522770343E+03  0.70946249311E+03  0.25500000920E-02 0.  1.
       -2    1    3    3    0  502 -0.17663194625E+03  0.32532693047E+03 -0.69729463488E+03  0.78946580925E+03  0.25500000920E-02 0. -1.
</event>
<event>
 5   0  0.2565416E-04  0.1502565E+04  0.7818609E-02  0.8882749E-01
       -1   -1    0    0    0  501  0.00000000000E+00  0.00000000000E+00  0.65705018873E+03  0.65705018875E+03  0.50400001928E-02 0.  1.
        1   -1    0    0  501    0  0.00000000000E+00  0.00000000000E+00 -0.85902887992E+03  0.85902887993E+03  0.50400001928E-02 0. -1.
    10030    2    1    2    0    0  0.00000000000E+00  0.00000000000E+00 -0.20197869118E+03  0.15160790687E+04  0.15025645912E+04 0.  0.
        5    1    3    3  502    0  0.45322016999E+03 -0.45490137471E+03  0.29246565828E+03  0.70562173611E+03  0.46999998093E+01 0.  1.
       -5    1    3    3    0  502 -0.45322016999E+03  0.45490137471E+03 -0.49444434946E+03  0.81045733257E+03  0.46999998093E+01 0. -1.
</event>
<event>
 5   0  0.4726600E-04  0.1495659E+04  0.7818609E-02  0.8887345E-01
        2   -1    0    0  501    0  0.00000000000E+00  0.00000000000E+00  0.20380867204E+04  0.20380867204E+04  0.25500000920E-02 0. -1.
       -2   -1    0    0    0  501  0.00000000000E+00  0.00000000000E+00 -0.27439900025E+03  0.27439900027E+03  0.25500000920E-02 0.  1.
    10030    2    1    2    0    0  0.00000000000E+00  0.00000000000E+00  0.17636877202E+04  0.23124857207E+04  0.14956589966E+04 0.  0.
        2    1    3    3  502    0 -0.39243080678E+03  0.16658498764E+03 -0.68110882003E+02  0.43173092138E+03  0.25500000920E-02 0.  1.
       -2    1    3    3    0  502  0.39243080678E+03 -0.16658498764E+03  0.18317986022E+04  0.18807547993E+04  0.25500000920E-02 0. -1.
</event>
<event>
 5   0  0.2565416E-04  0.1494502E+04  0.7818609E-02  0.8888117E-01
        1   -1    0    0  501    0  0.00000000000E+00  0.00000000000E+00  0.13098686581E+04  0.13098686581E+04  0.50400001928E-02 0. -1.
       -1   -1    0    0    0  501  0.00000000000E+00  0.00000000000E+00 -0.42629018368E+03  0.42629018371E+03  0.50400001928E-02 0.  1.
    10030    2    1    2    0    0  0.00000000000E+00  0.00000000000E+00  0.88357847446E+03  0.17361588419E+04  0.14945021257E+04 0.  0.
        5    1    3    3  502    0  0.24280346556E+03 -0.65203871168E+03  0.75834703167E+03  0.10291842959E+04  0.46999998093E+01 0. -1.
       -5    1    3    3    0  502 -0.24280346556E+03  0.65203871168E+03  0.12523144279E+03  0.70697454599E+03  0.46999998093E+01 0.  1.
</event>
<event>
 5   0  0.2603873E-04  0.1493287E+04  0.7818609E-02  0.8888929E-01
        1   -1    0    0  501    0  0.00000000000E+00  0.00000000000E+00  0.17772204104E+04  0.17772204104E+04  0.50400001928E-02 0.  1.
       -1   -1    0    0    0  501  0.00000000000E+00  0.00000000000E+00 -0.31367880870E+03  0.31367880874E+03  0.50400001928E-02 0. -1.
    10030    2    1    2    0    0  0.00000000000E+00  0.00000000000E+00  0.14635416017E+04  0.20908992191E+04  0.14932868193E+04 0.  0.
        2    1    3    3  502    0  0.62643419064E+03 -0.34453964385E+03  0.10332172313E+04  0.12564494452E+04  0.25500000920E-02 0.  1.
       -2    1    3    3    0  502 -0.62643419064E+03  0.34453964385E+03  0.43032437040E+03  0.83444977389E+03  0.25500000920E-02 0. -1.
</event>
<event>
 5   0  0.2603873E-04  0.1497350E+04  0.7818609E-02  0.8886217E-01
       -1   -1    0    0    0  501  0.00000000000E+00  0.00000000000E+00  0.67784308762E+03  0.67784308764E+03  0.50400001928E-02 0.  1.
        1   -1    0    0  501    0  0.00000000000E+00  0.00000000000E+00 -0.82690838247E+03  0.82690838249E+03  0.50400001928E-02 0. -1.
    10030    2    1    2    0    0  0.00000000000E+00  0.00000000000E+00 -0.14906529485E+03  0.15047514701E+04  0.14973498338E+04 0.  0.
        2    1    3    3  502    0  0.55318468233E+03 -0.50093515404E+03 -0.13453381233E+03  0.75831963445E+03  0.25500000920E-02 0. -1.
       -2    1    3    3    0  502 -0.55318468233E+03  0.50093515404E+03 -0.14531482525E+02  0.74643183568E+03  0.25500000920E-02 0.  1.
</event>
<event>
 5   0  0.2544374E-04  0.1495924E+04  0.7818609E-02  0.8887168E-01
       -1   -1    0    0    0  501  0.00000000000E+00  0.00000000000E+00  0.35100823953E+03  0.35100823956E+03  0.50400001928E-02 0. -1.
        1   -1    0    0  501    0  0.00000000000E+00  0.00000000000E+00 -0.15938285277E+04  0.15938285277E+04  0.50400001928E-02 0.  1.
    10030    2    1    2    0    0  0.00000000000E+00  0.00000000000E+00 -0.12428202882E+04  0.19448367673E+04  0.14959237222E+04 0.  0.
        4    1    3    3  502    0 -0.24317728559E+03 -0.46820283285E+03  0.67878670932E+02  0.53193816538E+03  0.12699999809E+01 0. -1.
       -4    1    3    3    0  502  0.24317728559E+03  0.46820283285E+03 -0.13106989591E+04  0.14128986019E+04  0.12699999809E+01 0.  1.
</event>
<event>
 5   0  0.4948645E-04  0.1517781E+04  0.7818609E-02  0.8872714E-01
        2   -1    0    0  501    0  0.00000000000E+00  0.00000000000E+00  0.58637731500E+03  0.58637731501E+03  0.25500000920E-02 0.  1.
       -2   -1    0    0    0  501  0.00000000000E+00  0.00000000000E+00 -0.98215773642E+03  0.98215773642E+03  0.25500000920E-02 0. -1.
    10030    2    1    2    0    0  0.00000000000E+00  0.00000000000E+00 -0.39578042142E+03  0.15685350514E+04  0.15177812970E+04 0.  0.
        1    1    3    3  502    0 -0.59542341417E+01 -0.15993864461E+03 -0.96451784387E+03  0.97770675262E+03  0.50400001928E-02 0. -1.
       -1    1    3    3    0  502  0.59542341417E+01  0.15993864461E+03  0.56873742245E+03  0.59082829881E+03  0.50400001928E-02 0.  1.
</event>
<event>
 5   0  0.4785496E-04  0.1674074E+04  0.7818609E-02  0.8776291E-01
       -2   -1    0    0    0  501  0.00000000000E+00  0.00000000000E+00  0.51441620724E+03  0.51441620724E+03  0.25500000920E-02 0. -1.
        2   -1    0    0  501    0  0.00000000000E+00  0.00000000000E+00 -0.13619919221E+04  0.13619919221E+04  0.25500000920E-02 0.  1.
    10030    2    1    2    0    0  0.00000000000E+00  0.00000000000E+00 -0.84757571483E+03  0.18764081293E+04  0.16740737365E+04 0.  0.
        4    1    3    3  502    0 -0.10758489099E+03 -0.81277296031E+03 -0.61286099066E+03  0.10236086169E+04  0.12699999809E+01 0. -1.
       -4    1    3    3    0  502  0.10758489099E+03  0.81277296031E+03 -0.23471472418E+03  0.85279951244E+03  0.12699999809E+01 0.  1.
</event>
<event>
 5   0  0.2605471E-04  0.1496401E+04  0.7818609E-02  0.8886850E-01
        1   -1    0    0  501    0  0.00000000000E+00  0.00000000000E+00  0.84304859046E+03  0.84304859047E+03  0.50400001928E-02 0. -1.
       -1   -1    0    0    0  501  0.00000000000E+00  0.00000000000E+00 -0.66402313236E+03  0.66402313237E+03  0.50400001928E-02 0.  1.
    10030    2    1    2    0    0  0.00000000000E+00  0.00000000000E+00  0.17902545810E+03  0.15070717228E+04  0.14964007027E+04 0.  0.
        3    1    3    3  502    0  0.74340840657E+01  0.67826757181E+03  0.40752000901E+03  0.79131203233E+03  0.10100000352E+00 0. -1.
       -3    1    3    3    0  502 -0.74340840657E+01 -0.67826757181E+03 -0.22849455090E+03  0.71575969052E+03  0.10100000352E+00 0.  1.
</event>
<event>
 5   0  0.4768387E-04  0.1504607E+04  0.7818609E-02  0.8881395E-01
        2   -1    0    0  501    0  0.00000000000E+00  0.00000000000E+00  0.99901674099E+03  0.99901674100E+03  0.25500000920E-02 0.  1.
       -2   -1    0    0    0  501  0.00000000000E+00  0.00000000000E+00 -0.56651726974E+03  0.56651726975E+03  0.25500000920E-02 0. -1.
    10030    2    1    2    0    0  0.00000000000E+00  0.00000000000E+00  0.43249947125E+03  0.15655340107E+04  0.15046065752E+04 0.  0.
        3    1    3    3  502    0  0.67046096756E+03 -0.31000905640E+03  0.36463125603E+03  0.82375936240E+03  0.10100000352E+00 0.  1.
       -3    1    3    3    0  502 -0.67046096756E+03  0.31000905640E+03  0.67868215226E+02  0.74177464834E+03  0.10100000352E+00 0. -1.
</event>
<event>
 5   0  0.2605471E-04  0.1492138E+04  0.7818609E-02  0.8889698E-01
       -1   -1    0    0    0  501  0.00000000000E+00  0.00000000000E+00  0.56659646608E+03  0.56659646610E+03  0.50400001928E-02 0. -1.
        1   -1    0    0  501    0  0.00000000000E+00  0.00000000000E+00 -0.98238994768E+03  0.98238994770E+03  0.50400001928E-02 0.  1.
    10030    2    1    2    0    0  0.00000000000E+00  0.00000000000E+00 -0.41579348161E+03  0.15489864138E+04  0.14921376246E+04 0.  0.
        3    1    3    3  502    0  0.12304249591E+03 -0.58003473315E+03  0.26216713244E+03  0.64831424710E+03  0.10100000352E+00 0. -1.
       -3    1    3    3    0  502 -0.12304249591E+03  0.58003473315E+03 -0.67796061405E+03  0.90067216670E+03  0.10100000352E+00 0.  1.
</event>
<event>
 5   0  0.2603873E-04  0.1470219E+04  0.7818609E-02  0.8904502E-01
       -1   -1    0    0    0  501  0.00000000000E+00  0.00000000000E+00  0.20500277278E+03  0.20500277284E+03  0.50400001928E-02 0. -1.
        1   -1    0    0  501    0  0.00000000000E+00  0.00000000000E+00 -0.26359923481E+04  0.26359923481E+04  0.50400001928E-02 0.  1.
    10030    2    1    2    0    0  0.00000000000E+00  0.00000000000E+00 -0.24309895753E+04  0.28409951209E+04  0.14702186783E+04 0.  0.
        2    1    3    3  502    0 -0.29773328624E+01  0.72229924107E+03 -0.95152616187E+03  0.11946242484E+04  0.25500000920E-02 0.  1.
       -2    1    3    3    0  502  0.29773328624E+01 -0.72229924107E+03 -0.14794634135E+04  0.16463708725E+04  0.25500000920E-02 0. -1.
</event>
<event>
 5   0  0.4726600E-04  0.1514009E+04  0.7818609E-02  0.8875190E-01
       -2   -1    0    0    0  501  0.00000000000E+00  0.00000000000E+00  0.39404363644E+03  0.39404363644E+03  0.25500000920E-02 0.  1.
        2   -1    0    0  501    0  0.00000000000E+00  0.00000000000E+00 -0.14542960719E+04  0.14542960719E+04  0.25500000920E-02 0. -1.
    10030    2    1    2    0    0  0.00000000000E+00  0.00000000000E+00 -0.10602524355E+04  0.18483397084E+04  0.15140093958E+04 0.  0.
        2    1    3    3  502    0 -0.10046207922E+03 -0.50184237078E+03  0.15082436482E+03  0.53356010299E+03  0.25500000920E-02 0.  1.
       -2    1    3    3    0  502  0.10046207922E+03  0.50184237078E+03 -0.12110768003E+04  0.13147796054E+04  0.25500000920E-02 0. -1.
</event>
<event>
 5   0  0.2565416E-04  0.1514957E+04  0.7818609E-02  0.8874567E-01
        1   -1    0    0  501    0  0.00000000000E+00  0.00000000000E+00  0.13554961618E+04  0.13554961618E+04  0.50400001928E-02 0.  1.
       -1   -1    0    0    0  501  0.00000000000E+00  0.00000000000E+00 -0.42329424290E+03  0.42329424293E+03  0.50400001928E-02 0. -1.
    10030    2    1    2    0    0  0.00000000000E+00  0.00000000000E+00  0.93220191888E+03  0.17787904047E+04  0.15149570576E+04 0.  0.
        5    1    3    3  502    0  0.69688059155E+03  0.19221784170E+03  0.73168107487E+03  0.10285764643E+04  0.46999998093E+01 0.  1.
       -5    1    3    3    0  502 -0.69688059155E+03 -0.19221784170E+03  0.20052084401E+03  0.75021394044E+03  0.46999998093E+01 0. -1.
</event>
<event>
 5   0  0.2542737E-04  0.1513345E+04  0.7818609E-02  0.8875627E-01
        1   -1    0    0  501    0  0.00000000000E+00  0.00000000000E+00  0.18773877135E+04  0.18773877135E+04  0.50400001928E-02 0.  1.
       -1   -1    0    0    0  501  0.00000000000E+00  0.00000000000E+00 -0.30497348976E+03  0.30497348981E+03  0.50400001928E-02 0. -1.
    10030    2    1    2    0    0  0.00000000000E+00  0.00000000000E+00  0.15724142237E+04  0.21823612033E+04  0.15133452781E+04 0.  0.
        1    1    3    3  502    0  0.46950472739E+03  0.36506889283E+03  0.14608212358E+04  0.15772471805E+04  0.50400001928E-02 0.  1.
       -1    1    3    3    0  502 -0.46950472739E+03 -0.36506889283E+03  0.11159298792E+03  0.60511402275E+03  0.50400001928E-02 0. -1.
</event>
<event>
 5   0  0.4785496E-04  0.1494990E+04  0.7818609E-02  0.8887791E-01
        2   -1    0    0  501    0  0.00000000000E+00  0.00000000000E+00  0.53318789556E+03  0.53318789556E+03  0.25500000920E-02 0. -1.
       -2   -1    0    0    0  501  0.00000000000E+00  0.00000000000E+00 -0.10479401976E+04  0.10479401976E+04  0.25500000920E-02 0.  1.
    10030    2    1    2    0    0  0.00000000000E+00  0.00000000000E+00 -0.51475230205E+03  0.15811280932E+04  0.14949903393E+04 0.  0.
        4    1    3    3  502    0 -0.97370146086E+02 -0.13454088995E+03  0.51342700434E+03  0.53962125431E+03  0.12699999809E+01 0. -1.
       -4    1    3    3    0  502  0.97370146086E+02  0.13454088995E+03 -0.10281793064E+04  0.10415068389E+04  0.12699999809E+01 0.  1.
</event>
<event>
 5   0  0.2542737E-04  0.1518425E+04  0.7818609E-02  0.8872292E-01
       -1   -1    0    0    0  501  0.00000000000E+00  0.00000000000E+00  0.62539910512E+03  0.62539910514E+03  0.50400001928E-02 0.  1.
        1   -1    0    0  501    0  0.00000000000E+00  0.00000000000E+00 -0.92165730581E+03  0.92165730583E+03  0.50400001928E-02 0. -1.
    10030    2    1    2    0    0  0.00000000000E+00  0.00000000000E+00 -0.29625820069E+03  0.15470564110E+04  0.15184250450E+04 0.  0.
        1    1    3    3  502    0 -0.84900333871E+02 -0.68978763766E+03 -0.45948688587E+03  0.83315259711E+03  0.50400001928E-02 0. -1.
       -1    1    3    3    0  502  0.84900333871E+02  0.68978763766E+03  0.16322868517E+03  0.71390381386E+03  0.50400001928E-02 0.  1.
</event>
<event>
 5   0  0.4785496E-04  0.1489401E+04  0.7818609E-02  0.8891532E-01
        2   -1    0    0  501    0  0.00000000000E+00  0.00000000000E+00  0.11777415958E+04  0.11777415958E+04  0.25500000920E-02 0.  1.
       -2   -1    0    0    0  501  0.00000000000E+00  0.00000000000E+00 -0.47088303410E+03  0.47088303410E+03  0.25500000920E-02 0. -1.
    10030    2    1    2    0    0  0.00000000000E+00  0.00000000000E+00  0.70685856169E+03  0.16486246299E+04  0.14894005989E+04 0.  0.
        4    1    3    3  502    0  0.27895076270E+03  0.11184001375E+03 -0.40077440596E+03  0.50094256563E+03  0.12699999809E+01 0. -1.
       -4    1    3    3    0  502 -0.27895076270E+03 -0.11184001375E+03  0.11076329677E+04  0.11476820643E+04  0.12699999809E+01 0.  1.
</event>
<event>
 5   0  0.4569211E-04  0.1497006E+04  0.7818609E-02  0.8886446E-01
        2   -1    0    0  501    0  0.00000000000E+00  0.00000000000E+00  0.77860283963E+03  0.77860283963E+03  0.25500000920E-02 0.  1.
       -2   -1    0    0    0  501  0.00000000000E+00  0.00000000000E+00 -0.71956665186E+03  0.71956665187E+03  0.25500000920E-02 0. -1.
    10030    2    1    2    0    0  0.00000000000E+00  0.00000000000E+00  0.59036187765E+02  0.14981694915E+04  0.14970058630E+04 0.  0.
        5    1    3    3  502    0  0.14423197416E+02 -0.29400680185E+03 -0.65919305584E+03  0.72194570642E+03  0.46999998093E+01 0. -1.
       -5    1    3    3    0  502 -0.14423197416E+02  0.29400680185E+03  0.71822924360E+03  0.77622378508E+03  0.46999998093E+01 0.  1.
</event>
<event>
 5   0  0.2544374E-04  0.1508221E+04  0.7818609E-02  0.8879005E-01
        1   -1    0    0  501    0  0.00000000000E+00  0.00000000000E+00  0.98826566593E+03  0.98826566594E+03  0.50400001928E-02 0.  1.
       -1   -1    0    0    0  501  0.00000000000E+00  0.00000000000E+00 -0.57543479119E+03  0.57543479121E+03  0.50400001928E-02 0. -1.
    10030    2    1    2    0    0  0.00000000000E+00  0.00000000000E+00  0.41283087474E+03  0.15637004572E+04  0.15082207360E+04 0.  0.
        4    1    3    3  502    0  0.73238248520E+03 -0.14946026912E+02  0.39209358279E+03  0.83087091591E+03  0.12699999809E+01 0. -1.
       -4    1    3    3    0  502 -0.73238248520E+03  0.14946026912E+02  0.20737291954E+02  0.73282954125E+03  0.12699999809E+01 0.  1.
</event>
<event>
 5   0  0.4569211E-04  0.1503955E+04  0.7818609E-02  0.8881827E-01
       -2   -1    0    0    0  501  0.00000000000E+00  0.00000000000E+00  0.10416033139E+04  0.10416033139E+04  0.25500000920E-02 0. -1.
        2   -1    0    0  501    0  0.00000000000E+00  0.00000000000E+00 -0.54288419723E+03  0.54288419724E+03  0.25500000920E-02 0.  1.
    10030    2    1    2    0    0  0.00000000000E+00  0.00000000000E+00  0.49871911669E+03  0.15844875112E+04  0.15039547585E+04 0.  0.
        5    1    3    3  502    0 -0.73828665098E+03  0.14238519155E+03  0.26026604456E+03  0.79567658363E+03  0.46999998093E+01 0.  1.
       -5    1    3    3    0  502  0.73828665098E+03 -0.14238519155E+03  0.23845307213E+03  0.78881092753E+03  0.46999998093E+01 0. -1.
</event>
<event>
 5   0  0.1792000E-04  0.1501713E+04  0.7818609E-02  0.8883314E-01
       -4   -1    0    0    0  501  0.00000000000E+00  0.00000000000E+00  0.99519888734E+03  0.99519969768E+03  0.12699999809E+01 0.  1.
        4   -1    0    0  501    0  0.00000000000E+00  0.00000000000E+00 -0.56650379372E+03  0.56650521727E+03  0.12699999809E+01 0. -1.
    10030    2    1    2    0    0  0.00000000000E+00  0.00000000000E+00  0.42869509362E+03  0.15617049150E+04  0.15017132743E+04 0.  0.
        3    1    3    3  502    0 -0.24054580171E+03 -0.70525812861E+03  0.31041972918E+03  0.80722470797E+03  0.10100000352E+00 0.  1.
       -3    1    3    3    0  502  0.24054580171E+03  0.70525812861E+03  0.11827536443E+03  0.75448020698E+03  0.10100000352E+00 0. -1.
</event>
<event>
 5   0  0.4726600E-04  0.1498422E+04  0.7818609E-02  0.8885503E-01
        2   -1    0    0  501    0  0.00000000000E+00  0.00000000000E+00  0.66120606461E+03  0.66120606462E+03  0.25500000920E-02 0. -1.
       -2   -1    0    0    0  501  0.00000000000E+00  0.00000000000E+00 -0.84892887709E+03  0.84892887709E+03  0.25500000920E-02 0.  1.
    10030    2    1    2    0    0  0.00000000000E+00  0.00000000000E+00 -0.18772281247E+03  0.15101349417E+04  0.14984217323E+04 0.  0.
        2    1    3    3  502    0  0.58023519433E+03 -0.19897773009E+03 -0.52740070657E+03  0.80896014927E+03  0.25500000920E-02 0.  1.
       -2    1    3    3    0  502 -0.58023519433E+03  0.19897773009E+03  0.33967789410E+03  0.70117479244E+03  0.25500000920E-02 0. -1.
</event>
<event>
 5   0  0.2565416E-04  0.1499090E+04  0.7818609E-02  0.8885058E-01
        1   -1    0    0  501    0  0.00000000000E+00  0.00000000000E+00  0.90657284637E+03  0.90657284638E+03  0.50400001928E-02 0. -1.
       -1   -1    0    0    0  501  0.00000000000E+00  0.00000000000E+00 -0.61971577517E+03  0.61971577520E+03  0.50400001928E-02 0.  1.
    10030    2    1    2    0    0  0.00000000000E+00  0.00000000000E+00  0.28685707119E+03  0.15262886216E+04  0.14990897161E+04 0.  0.
        5    1    3    3  502    0  0.26978286354E+03  0.11893106009E+03  0.84503809936E+03  0.89500774850E+03  0.46999998093E+01 0. -1.
       -5    1    3    3    0  502 -0.26978286354E+03 -0.11893106009E+03 -0.55818102816E+03  0.63128087308E+03  0.46999998093E+01 0.  1.
</event>
</LesHouchesEvents>
