<LesHouchesEvents version="3.0">
<header>
<!--
#*********************************************************************
#                                                                    *
#                        MadGraph5_aMC@NLO                           *
#                                                                    *
#                           Going Beyond                             *
#                                                                    *
#                   http://madgraph.hep.uiuc.edu                     *
#                   http://madgraph.phys.ucl.ac.be                   *
#                   http://amcatnlo.cern.ch                          *
#                                                                    *
#                     The MadGraph5_aMC@NLO team                     *
#                                                                    *
#....................................................................*
#                                                                    *
# This file contains all the information necessary to reproduce      *
# the events generated:                                              *
#                                                                    *
# 1. software version                                                *
# 2. proc_card          : code generation info including model       *
# 3. param_card         : model primary parameters in the LH format  *
# 4. run_card           : running parameters (collider and cuts)     *
# 5. pythia_card        : present only if pythia has been run        *
# 6. pgs_card           : present only if pgs has been run           *
# 7. delphes_cards      : present only if delphes has been run       *
#                                                                    *
#                                                                    *
#*********************************************************************
-->
<MGVersion>
#5.2.2.3
</MGVersion>
<MG5ProcCard>
#************************************************************
#*                     MadGraph5_aMC@NLO                    *
#*                                                          *
#*                *                       *                 *
#*                  *        * *        *                   *
#*                    * * * * 5 * * * *                     *
#*                  *        * *        *                   *
#*                *                       *                 *
#*                                                          *
#*                                                          *
#*         VERSION 2.2.3                 2015-02-10         *
#*                                                          *
#*    The MadGraph5_aMC@NLO Development Team - Find us at   *
#*    https://server06.fynu.ucl.ac.be/projects/madgraph     *
#*                                                          *
#************************************************************
#*                                                          *
#*               Command File for MadGraph5_aMC@NLO         *
#*                                                          *
#*     run as ./bin/mg5_aMC  filename                       *
#*                                                          *
#************************************************************
set group_subprocesses Auto
set ignore_six_quark_processes False
set loop_optimized_output True
set gauge unitary
set complex_mass_scheme False
import model sm
define p = g u c d s u~ c~ d~ s~
define j = g u c d s u~ c~ d~ s~
define l+ = e+ mu+
define l- = e- mu-
define vl = ve vm vt
define vl~ = ve~ vm~ vt~
import model Zprime_UFO
generate p p > zph, zph > j j
add process p p > zph, zph > b b~
output Dijet_signal
</MG5ProcCard>
<MGProcCard>
#*********************************************************************
#                        MadGraph/MadEvent                           *
#                   http://madgraph.hep.uiuc.edu                     *
#                                                                    *
#                          proc_card.dat                             *
#*********************************************************************
#                                                                    *
#            This Files is generated by MADGRAPH 5                   *
#                                                                    *
# WARNING: This Files is generated for MADEVENT (compatibility issue)*
#          This files is NOT a valid MG4 proc_card.dat               *
#          Running this in MG4 will NEVER reproduce the result of MG5*
#                                                                    *
#*********************************************************************
#*********************************************************************
# Process(es) requested : mg2 input                                  *
#*********************************************************************
# Begin PROCESS # This is TAG. Do not modify this line
p p > zph , zph > j j           #Process
# Be carefull the coupling are here in MG5 convention
          
end_coup           # End the couplings input

done               # this tells MG there are no more procs
# End PROCESS  # This is TAG. Do not modify this line
#*********************************************************************
# Model information                                                  *
#*********************************************************************
# Begin MODEL  # This is TAG. Do not modify this line
Zprime_UFO
# End   MODEL  # This is TAG. Do not modify this line
#*********************************************************************
# Start multiparticle definitions                                    *
#*********************************************************************
# Begin MULTIPARTICLES # This is TAG. Do not modify this line

# End  MULTIPARTICLES # This is TAG. Do not modify this line
</MGProcCard>
<MGRunCard>
#*********************************************************************
#                       MadGraph5_aMC@NLO                            *
#                                                                    *
#                     run_card.dat MadEvent                          *
#                                                                    *
#  This file is used to set the parameters of the run.               *
#                                                                    *
#  Some notation/conventions:                                        *
#                                                                    *
#   Lines starting with a '# ' are info or comments                  *
#                                                                    *
#   mind the format:   value    = variable     ! comment             *
#*********************************************************************
#
#*******************                                                 
# Running parameters
#*******************                                                 
#                                                                    
#*********************************************************************
# Tag name for the run (one word)                                    *
#*********************************************************************
  tag_1     = run_tag ! name of the run 
#*********************************************************************
# Run to generate the grid pack                                      *
#*********************************************************************
  .false.     = gridpack  !True = setting up the grid pack
#*********************************************************************
# Number of events and rnd seed                                      *
# Warning: Do not generate more than 1M events in a single run       *
# If you want to run Pythia, avoid more than 50k events in a run.    *
#*********************************************************************
  2000 = nevents ! Number of unweighted events requested 
 1686 = iseed   ! rnd seed (0=assigned automatically=default))
#*********************************************************************
# Collider type and energy                                           *
# lpp: 0=No PDF, 1=proton, -1=antiproton, 2=photon from proton,      *
#                                         3=photon from electron     *
#*********************************************************************
        1     = lpp1    ! beam 1 type 
        1     = lpp2    ! beam 2 type
     4000     = ebeam1  ! beam 1 total energy in GeV
     4000     = ebeam2  ! beam 2 total energy in GeV
#*********************************************************************
# Beam polarization from -100 (left-handed) to 100 (right-handed)    *
#*********************************************************************
        0     = polbeam1 ! beam polarization for beam 1
        0     = polbeam2 ! beam polarization for beam 2
#*********************************************************************
# PDF CHOICE: this automatically fixes also alpha_s and its evol.    *
#*********************************************************************
 'nn23lo1'    = pdlabel     ! PDF set                                     
 230000    = lhaid     ! if pdlabel=lhapdf, this is the lhapdf number
#*********************************************************************
# Renormalization and factorization scales                           *
#*********************************************************************
 F        = fixed_ren_scale  ! if .true. use fixed ren scale
 F        = fixed_fac_scale  ! if .true. use fixed fac scale
 91.1880  = scale            ! fixed ren scale
 91.1880  = dsqrt_q2fact1    ! fixed fact scale for pdf1
 91.1880  = dsqrt_q2fact2    ! fixed fact scale for pdf2
 1        = scalefact        ! scale factor for event-by-event scales
#*********************************************************************
# Matching - Warning! ickkw > 1 is still beta
#*********************************************************************
 0        = ickkw            ! 0 no matching, 1 MLM, 2 CKKW matching
 1        = highestmult      ! for ickkw=2, highest mult group
 1        = ktscheme         ! for ickkw=1, 1 Durham kT, 2 Pythia pTE
 1        = alpsfact         ! scale factor for QCD emission vx
 F        = chcluster        ! cluster only according to channel diag
 T        = pdfwgt           ! for ickkw=1, perform pdf reweighting
 5        = asrwgtflavor     ! highest quark flavor for a_s reweight
 T        = clusinfo         ! include clustering tag in output
 3.0      = lhe_version       ! Change the way clustering information pass to shower.        
#*********************************************************************
#**********************************************************
#
#**********************************************************
# Automatic ptj and mjj cuts if xqcut > 0
# (turn off for VBF and single top processes)
#**********************************************************
   T  = auto_ptj_mjj  ! Automatic setting of ptj and mjj
#**********************************************************
#                                                                    
#**********************************
# BW cutoff (M+/-bwcutoff*Gamma)
#**********************************
  15  = bwcutoff      ! (M+/-bwcutoff*Gamma)
#**********************************************************
# Apply pt/E/eta/dr/mij cuts on decay products or not
# (note that etmiss/ptll/ptheavy/ht/sorted cuts always apply)
#**********************************************************
   T  = cut_decays    ! Cut decay products 
#*************************************************************
# Number of helicities to sum per event (0 = all helicities)
# 0 gives more stable result, but longer run time (needed for
# long decay chains e.g.).
# Use >=2 if most helicities contribute, e.g. pure QCD.
#*************************************************************
   0  = nhel          ! Number of helicities used per event
#*******************                                                 
# Standard Cuts
#*******************                                                 
#                                                                    
#*********************************************************************
# Minimum and maximum pt's (for max, -1 means no cut)                *
#*********************************************************************
 20  = ptj       ! minimum pt for the jets 
  0  = ptb       ! minimum pt for the b 
 10  = pta       ! minimum pt for the photons 
 10  = ptl       ! minimum pt for the charged leptons 
  0  = misset    ! minimum missing Et (sum of neutrino's momenta)
  0  = ptheavy   ! minimum pt for one heavy final state
 1.0 = ptonium   ! minimum pt for the quarkonium states
 -1  = ptjmax    ! maximum pt for the jets
 -1  = ptbmax    ! maximum pt for the b
 -1  = ptamax    ! maximum pt for the photons
 -1  = ptlmax    ! maximum pt for the charged leptons
 -1  = missetmax ! maximum missing Et (sum of neutrino's momenta)
#*********************************************************************
# Minimum and maximum E's (in the center of mass frame)              *
#*********************************************************************
  0  = ej     ! minimum E for the jets 
  0  = eb     ! minimum E for the b 
  0  = ea     ! minimum E for the photons 
  0  = el     ! minimum E for the charged leptons 
 -1   = ejmax ! maximum E for the jets
 -1   = ebmax ! maximum E for the b
 -1   = eamax ! maximum E for the photons
 -1   = elmax ! maximum E for the charged leptons
#*********************************************************************
# Maximum and minimum absolute rapidity (for max, -1 means no cut)   *
#*********************************************************************
   5  = etaj    ! max rap for the jets 
  -1  = etab    ! max rap for the b
 2.5  = etaa    ! max rap for the photons 
 2.5  = etal    ! max rap for the charged leptons 
 0.6  = etaonium ! max rap for the quarkonium states
   0  = etajmin ! min rap for the jets
   0  = etabmin ! min rap for the b
   0  = etaamin ! min rap for the photons
   0  = etalmin ! main rap for the charged leptons
#*********************************************************************
# Minimum and maximum DeltaR distance                                *
#*********************************************************************
 0.4 = drjj    ! min distance between jets 
 0   = drbb    ! min distance between b's 
 0.4 = drll    ! min distance between leptons 
 0.4 = draa    ! min distance between gammas 
 0   = drbj    ! min distance between b and jet 
 0.4 = draj    ! min distance between gamma and jet 
 0.4 = drjl    ! min distance between jet and lepton 
 0   = drab    ! min distance between gamma and b 
 0   = drbl    ! min distance between b and lepton 
 0.4 = dral    ! min distance between gamma and lepton 
 -1  = drjjmax ! max distance between jets
 -1  = drbbmax ! max distance between b's
 -1  = drllmax ! max distance between leptons
 -1  = draamax ! max distance between gammas
 -1  = drbjmax ! max distance between b and jet
 -1  = drajmax ! max distance between gamma and jet
 -1  = drjlmax ! max distance between jet and lepton
 -1  = drabmax ! max distance between gamma and b
 -1  = drblmax ! max distance between b and lepton
 -1  = dralmax ! maxdistance between gamma and lepton
#*********************************************************************
# Minimum and maximum invariant mass for pairs                       *
# WARNING: for four lepton final state mmll cut require to have      *
#          different lepton masses for each flavor!                  *           
#*********************************************************************
 0   = mmjj    ! min invariant mass of a jet pair 
 0   = mmbb    ! min invariant mass of a b pair 
 0   = mmaa    ! min invariant mass of gamma gamma pair
 0   = mmll    ! min invariant mass of l+l- (same flavour) lepton pair
 -1  = mmjjmax ! max invariant mass of a jet pair
 -1  = mmbbmax ! max invariant mass of a b pair
 -1  = mmaamax ! max invariant mass of gamma gamma pair
 -1  = mmllmax ! max invariant mass of l+l- (same flavour) lepton pair
#*********************************************************************
# Minimum and maximum invariant mass for all letpons                 *
#*********************************************************************
 0   = mmnl    ! min invariant mass for all letpons (l+- and vl) 
 -1  = mmnlmax ! max invariant mass for all letpons (l+- and vl) 
#*********************************************************************
# Minimum and maximum pt for 4-momenta sum of leptons                *
#*********************************************************************
 0   = ptllmin  ! Minimum pt for 4-momenta sum of leptons(l and vl)
 -1  = ptllmax  ! Maximum pt for 4-momenta sum of leptons(l and vl)
#*********************************************************************
# Inclusive cuts                                                     *
#*********************************************************************
 0  = xptj ! minimum pt for at least one jet  
 0  = xptb ! minimum pt for at least one b 
 0  = xpta ! minimum pt for at least one photon 
 0  = xptl ! minimum pt for at least one charged lepton 
#*********************************************************************
# Control the pt's of the jets sorted by pt                          *
#*********************************************************************
 0   = ptj1min ! minimum pt for the leading jet in pt
 0   = ptj2min ! minimum pt for the second jet in pt
 0   = ptj3min ! minimum pt for the third jet in pt
 0   = ptj4min ! minimum pt for the fourth jet in pt
 -1  = ptj1max ! maximum pt for the leading jet in pt 
 -1  = ptj2max ! maximum pt for the second jet in pt
 -1  = ptj3max ! maximum pt for the third jet in pt
 -1  = ptj4max ! maximum pt for the fourth jet in pt
 0   = cutuse  ! reject event if fails any (0) / all (1) jet pt cuts
#*********************************************************************
# Control the pt's of leptons sorted by pt                           *
#*********************************************************************
 0   = ptl1min ! minimum pt for the leading lepton in pt
 0   = ptl2min ! minimum pt for the second lepton in pt
 0   = ptl3min ! minimum pt for the third lepton in pt
 0   = ptl4min ! minimum pt for the fourth lepton in pt
 -1  = ptl1max ! maximum pt for the leading lepton in pt 
 -1  = ptl2max ! maximum pt for the second lepton in pt
 -1  = ptl3max ! maximum pt for the third lepton in pt
 -1  = ptl4max ! maximum pt for the fourth lepton in pt
#*********************************************************************
# Control the Ht(k)=Sum of k leading jets                            *
#*********************************************************************
 0   = htjmin ! minimum jet HT=Sum(jet pt)
 -1  = htjmax ! maximum jet HT=Sum(jet pt)
 0   = ihtmin  !inclusive Ht for all partons (including b)
 -1  = ihtmax  !inclusive Ht for all partons (including b)
 0   = ht2min ! minimum Ht for the two leading jets
 0   = ht3min ! minimum Ht for the three leading jets
 0   = ht4min ! minimum Ht for the four leading jets
 -1  = ht2max ! maximum Ht for the two leading jets
 -1  = ht3max ! maximum Ht for the three leading jets
 -1  = ht4max ! maximum Ht for the four leading jets
#***********************************************************************
# Photon-isolation cuts, according to hep-ph/9801442                   *
# When ptgmin=0, all the other parameters are ignored                  *
# When ptgmin>0, pta and draj are not going to be used                 *
#***********************************************************************
   0 = ptgmin ! Min photon transverse momentum
 0.4 = R0gamma ! Radius of isolation code
 1.0 = xn ! n parameter of eq.(3.4) in hep-ph/9801442
 1.0 = epsgamma ! epsilon_gamma parameter of eq.(3.4) in hep-ph/9801442
 .true. = isoEM ! isolate photons from EM energy (photons and leptons)
#*********************************************************************
# WBF cuts                                                           *
#*********************************************************************
 0   = xetamin ! minimum rapidity for two jets in the WBF case  
 0   = deltaeta ! minimum rapidity for two jets in the WBF case 
#*********************************************************************
# KT DURHAM CUT                                                      *
#*********************************************************************
 -1    =  ktdurham        
 0.4  =  dparameter 
#*********************************************************************
# maximal pdg code for quark to be considered as a light jet         *
# (otherwise b cuts are applied)                                     *
#*********************************************************************
 4 = maxjetflavor    ! Maximum jet pdg code
#*********************************************************************
# Jet measure cuts                                                   *
#*********************************************************************
 0   = xqcut   ! minimum kt jet measure between partons
#*********************************************************************
#
#*********************************************************************
# Store info for systematics studies                                 *
# WARNING: If use_syst is T, matched Pythia output is                *
#          meaningful ONLY if plotted taking matchscale              *
#          reweighting into account!                                 *
#*********************************************************************
   F  = use_syst      ! Enable systematics studies
#
#**************************************
# Parameter of the systematics study
#  will be used by SysCalc (if installed)
#**************************************                                  
#
0.5 1 2 = sys_scalefact  # factorization/renormalization scale factor
0.5 1 2 = sys_alpsfact  # \alpha_s emission scale factors
30 50 = sys_matchscale # variation of merging scale
# PDF sets and number of members (0 or none for all members).
CT10nlo.LHgrid = sys_pdf # matching scales
# MSTW2008nlo68cl.LHgrid 1  = sys_pdf
</MGRunCard>
<slha>
######################################################################
## PARAM_CARD AUTOMATICALY GENERATED BY MG5 FOLLOWING UFO MODEL   ####
######################################################################
##                                                                  ##
##  Width set on Auto will be computed following the information    ##
##        present in the decay.py files of the model.               ##
##        See  arXiv:1402.1178 for more details.                    ##
##                                                                  ##
######################################################################

###################################
## INFORMATION FOR CKMBLOCK
###################################
Block ckmblock 
    1 2.277360e-01 # cabi 

###################################
## INFORMATION FOR FRBLOCK
###################################
Block frblock 
    1 8.000000e-01 # gz 

###################################
## INFORMATION FOR MASS
###################################
Block mass 
    1 5.040000e-03 # MD 
    2 2.550000e-03 # MU 
    3 1.010000e-01 # MS 
    4 1.270000e+00 # MC 
    5 4.700000e+00 # MB 
    6 1.720000e+02 # MT 
   11 5.110000e-04 # Me 
   13 1.056600e-01 # MM 
   15 1.777000e+00 # MTA 
   23 9.118760e+01 # MZ 
   25 1.200000e+02 # MH 
  10030 2.900000e+03 # MZph 
  10031 3.000000e+02 # MZpl 
## Dependent parameters, given by model restrictions.
## Those values should be edited following the 
## analytical expression. MG5 ignores those values 
## but they are important for interfacing the output of MG5
## to external program such as Pythia.
  12 0.000000 # ve : 0.0 
  14 0.000000 # vm : 0.0 
  16 0.000000 # vt : 0.0 
  21 0.000000 # g : 0.0 
  22 0.000000 # a : 0.0 
  24 79.824360 # w+ : cmath.sqrt(MZ__exp__2/2. + cmath.sqrt(MZ__exp__4/4. - (aEW*cmath.pi*MZ__exp__2)/(Gf*sqrt__2))) 

###################################
## INFORMATION FOR SMINPUTS
###################################
Block sminputs 
    1 1.279000e+02 # aEWM1 
    2 1.166370e-05 # Gf 
    3 1.184000e-01 # aS 

###################################
## INFORMATION FOR YUKAWA
###################################
Block yukawa 
    1 5.040000e-03 # ymdo 
    2 2.550000e-03 # ymup 
    3 1.010000e-01 # yms 
    4 1.270000e+00 # ymc 
    5 4.700000e+00 # ymb 
    6 1.720000e+02 # ymt 
   11 5.110000e-04 # yme 
   13 1.056600e-01 # ymm 
   15 1.777000e+00 # ymtau 

###################################
## INFORMATION FOR DECAY
###################################
DECAY   6 1.508336e+00 # WT 
DECAY  23 2.495200e+00 # WZ 
DECAY  24 2.085000e+00 # WW 
DECAY  25 5.753088e-03 # WH 
## Dependent parameters, given by model restrictions.
## Those values should be edited following the 
## analytical expression. MG5 ignores those values 
## but they are important for interfacing the output of MG5
## to external program such as Pythia.
DECAY  1 0.000000 # d : 0.0 
DECAY  2 0.000000 # u : 0.0 
DECAY  3 0.000000 # s : 0.0 
DECAY  4 0.000000 # c : 0.0 
DECAY  5 0.000000 # b : 0.0 
DECAY  11 0.000000 # e- : 0.0 
DECAY  12 0.000000 # ve : 0.0 
DECAY  13 0.000000 # mu- : 0.0 
DECAY  14 0.000000 # vm : 0.0 
DECAY  15 0.000000 # ta- : 0.0 
DECAY  16 0.000000 # vt : 0.0 
DECAY  21 0.000000 # g : 0.0 
DECAY  22 0.000000 # a : 0.0 
DECAY  10030 0.308725 # zph : (gz__exp__2*MZph*(5 + cmath.sqrt(1 - (4*MT__exp__2)/MZph__exp__2)))/(144.*cmath.pi) 
DECAY  10031 0.132629 # zpl : (5*gz__exp__2*MZpl)/(144.*cmath.pi) 
#===========================================================
# QUANTUM NUMBERS OF NEW STATE(S) (NON SM PDG CODE)
#===========================================================

Block QNUMBERS 10030  # zph 
        1 0  # 3 times electric charge
        2 3  # number of spin states (2S+1)
        3 1  # colour rep (1: singlet, 3: triplet, 8: octet)
        4 0  # Particle/Antiparticle distinction (0=own anti)
Block QNUMBERS 10031  # zpl 
        1 0  # 3 times electric charge
        2 3  # number of spin states (2S+1)
        3 1  # colour rep (1: singlet, 3: triplet, 8: octet)
        4 0  # Particle/Antiparticle distinction (0=own anti)
</slha>
## END BANNER##
<MGGenerationInfo>
#  Number of Events        :         3860
#  Integrated weight (pb)  :  0.10881E-02
#  Max wgt                 :  0.42242E-06
#  Average wgt             :  0.28189E-06
</MGGenerationInfo>
</header>
<init>
     2212     2212  0.40000000000E+04  0.40000000000E+04 0 0  247000  247000 2   1
  0.10894245632E-02  0.23485554617E-05  0.42241630000E-06   0
</init>
<event>
 5   0  0.4115143E-06  0.2903269E+04  0.7818609E-02  0.8271905E-01
        2   -1    0    0  501    0  0.00000000000E+00  0.00000000000E+00  0.15175565488E+04  0.15175565488E+04  0.25500000920E-02 0.  1.
       -2   -1    0    0    0  501  0.00000000000E+00  0.00000000000E+00 -0.13885764222E+04  0.13885764222E+04  0.25500000920E-02 0. -1.
    10030    2    1    2    0    0  0.00000000000E+00  0.00000000000E+00  0.12898012656E+03  0.29061329710E+04  0.29032693592E+04 0.  0.
        1    1    3    3  502    0  0.76517327947E+03 -0.10269761133E+04  0.74859166308E+03  0.14834283140E+04  0.50400001928E-02 0. -1.
       -1    1    3    3    0  502 -0.76517327947E+03  0.10269761133E+04 -0.61961153652E+03  0.14227046570E+04  0.50400001928E-02 0.  1.
</event>
<event>
 5   0  0.4115143E-06  0.2918656E+04  0.7818609E-02  0.8267348E-01
       -2   -1    0    0    0  501  0.00000000000E+00  0.00000000000E+00  0.98008413465E+03  0.98008413465E+03  0.25500000920E-02 0. -1.
        2   -1    0    0  501    0  0.00000000000E+00  0.00000000000E+00 -0.21729133996E+04  0.21729133996E+04  0.25500000920E-02 0.  1.
    10030    2    1    2    0    0  0.00000000000E+00  0.00000000000E+00 -0.11928292650E+04  0.31529975343E+04  0.29186558200E+04 0.  0.
        1    1    3    3  502    0 -0.92081860784E+03 -0.81094671139E+03 -0.14498420883E+04  0.18993639879E+04  0.50400001928E-02 0. -1.
       -1    1    3    3    0  502  0.92081860784E+03  0.81094671139E+03  0.25701282336E+03  0.12536335464E+04  0.50400001928E-02 0.  1.
</event>
<event>
 5   0  0.4187518E-06  0.2866377E+04  0.7818609E-02  0.8282952E-01
        2   -1    0    0  501    0  0.00000000000E+00  0.00000000000E+00  0.19092243370E+04  0.19092243370E+04  0.25500000920E-02 0.  1.
       -2   -1    0    0    0  501  0.00000000000E+00  0.00000000000E+00 -0.10758445527E+04  0.10758445527E+04  0.25500000920E-02 0. -1.
    10030    2    1    2    0    0  0.00000000000E+00  0.00000000000E+00  0.83337978433E+03  0.29850688897E+04  0.28663765299E+04 0.  0.
        3    1    3    3  502    0  0.75235409719E+03 -0.53755504129E+03 -0.72365312311E+03  0.11741703295E+04  0.10100000352E+00 0. -1.
       -3    1    3    3    0  502 -0.75235409719E+03  0.53755504129E+03  0.15570329074E+04  0.18108985601E+04  0.10100000352E+00 0.  1.
</event>
<event>
 5   0  0.4115143E-06  0.2912756E+04  0.7818609E-02  0.8269092E-01
        2   -1    0    0  501    0  0.00000000000E+00  0.00000000000E+00  0.20012930694E+04  0.20012930694E+04  0.25500000920E-02 0.  1.
       -2   -1    0    0    0  501  0.00000000000E+00  0.00000000000E+00 -0.10598335126E+04  0.10598335126E+04  0.25500000920E-02 0. -1.
    10030    2    1    2    0    0  0.00000000000E+00  0.00000000000E+00  0.94145955675E+03  0.30611265820E+04  0.29127564014E+04 0.  0.
        1    1    3    3  502    0  0.21321094058E+03  0.12373995262E+04  0.12461632549E+04  0.17690504092E+04  0.50400001928E-02 0.  1.
       -1    1    3    3    0  502 -0.21321094058E+03 -0.12373995262E+04 -0.30470369816E+03  0.12920761728E+04  0.50400001928E-02 0. -1.
</event>
<event>
 5   0  0.4187518E-06  0.2900081E+04  0.7818609E-02  0.8272853E-01
        2   -1    0    0  501    0  0.00000000000E+00  0.00000000000E+00  0.28372992222E+04  0.28372992222E+04  0.25500000920E-02 0.  1.
       -2   -1    0    0    0  501  0.00000000000E+00  0.00000000000E+00 -0.74106314906E+03  0.74106314906E+03  0.25500000920E-02 0. -1.
    10030    2    1    2    0    0  0.00000000000E+00  0.00000000000E+00  0.20962360731E+04  0.35783623712E+04  0.29000813067E+04 0.  0.
        3    1    3    3  502    0 -0.13866220624E+04 -0.72629117846E+02  0.53250508912E+03  0.14871305971E+04  0.10100000352E+00 0. -1.
       -3    1    3    3    0  502  0.13866220624E+04  0.72629117846E+02  0.15637309840E+04  0.20912317741E+04  0.10100000352E+00 0.  1.
</event>
<event>
 5   0  0.1602873E-06  0.2934219E+04  0.7818609E-02  0.8262768E-01
       -1   -1    0    0    0  501  0.00000000000E+00  0.00000000000E+00  0.82356133635E+03  0.82356133637E+03  0.50400001928E-02 0. -1.
        1   -1    0    0  501    0  0.00000000000E+00  0.00000000000E+00 -0.26135400019E+04  0.26135400019E+04  0.50400001928E-02 0.  1.
    10030    2    1    2    0    0  0.00000000000E+00  0.00000000000E+00 -0.17899786656E+04  0.34371013383E+04  0.29342191443E+04 0.  0.
        1    1    3    3  502    0 -0.85119929063E+03  0.35253263227E+03 -0.22324175093E+04  0.24150584724E+04  0.50400001928E-02 0.  1.
       -1    1    3    3    0  502  0.85119929063E+03 -0.35253263227E+03  0.44243884377E+03  0.10220428659E+04  0.50400001928E-02 0. -1.
</event>
<event>
 5   0  0.1543678E-06  0.2896137E+04  0.7818609E-02  0.8274028E-01
        1   -1    0    0  501    0  0.00000000000E+00  0.00000000000E+00  0.28363955932E+04  0.28363955932E+04  0.50400001928E-02 0.  1.
       -1   -1    0    0    0  501  0.00000000000E+00  0.00000000000E+00 -0.73928400580E+03  0.73928400582E+03  0.50400001928E-02 0. -1.
    10030    2    1    2    0    0  0.00000000000E+00  0.00000000000E+00  0.20971115874E+04  0.35756795990E+04  0.28961366654E+04 0.  0.
        3    1    3    3  502    0  0.18068806832E+03 -0.43803873302E+03  0.27379696493E+04  0.27786694514E+04  0.10100000352E+00 0.  1.
       -3    1    3    3    0  502 -0.18068806832E+03  0.43803873302E+03 -0.64085806190E+03  0.79701014759E+03  0.10100000352E+00 0. -1.
</event>
<event>
 5   0  0.4115143E-06  0.2887625E+04  0.7818609E-02  0.8276569E-01
        2   -1    0    0  501    0  0.00000000000E+00  0.00000000000E+00  0.11228298939E+04  0.11228298939E+04  0.25500000920E-02 0. -1.
       -2   -1    0    0    0  501  0.00000000000E+00  0.00000000000E+00 -0.18565545531E+04  0.18565545531E+04  0.25500000920E-02 0.  1.
    10030    2    1    2    0    0  0.00000000000E+00  0.00000000000E+00 -0.73372465924E+03  0.29793844470E+04  0.28876252886E+04 0.  0.
        1    1    3    3  502    0 -0.31568253319E+03  0.10992204732E+04 -0.12761461368E+04  0.17136189988E+04  0.50400001928E-02 0.  1.
       -1    1    3    3    0  502  0.31568253319E+03 -0.10992204732E+04  0.54242147758E+03  0.12657654482E+04  0.50400001928E-02 0. -1.
</event>
<event>
 5   0  0.1550278E-06  0.2900512E+04  0.7818609E-02  0.8272725E-01
       -1   -1    0    0    0  501  0.00000000000E+00  0.00000000000E+00  0.92957370102E+03  0.92957370104E+03  0.50400001928E-02 0.  1.
        1   -1    0    0  501    0  0.00000000000E+00  0.00000000000E+00 -0.22625888121E+04  0.22625888121E+04  0.50400001928E-02 0. -1.
    10030    2    1    2    0    0  0.00000000000E+00  0.00000000000E+00 -0.13330151110E+04  0.31921625131E+04  0.29005124071E+04 0.  0.
        2    1    3    3  502    0  0.64073809736E+03  0.52442491077E+03 -0.19768922114E+04  0.21432847715E+04  0.25500000920E-02 0. -1.
       -2    1    3    3    0  502 -0.64073809736E+03 -0.52442491077E+03  0.64387710033E+03  0.10488777416E+04  0.25500000920E-02 0.  1.
</event>
<event>
 5   0  0.4115143E-06  0.2893589E+04  0.7818609E-02  0.8274787E-01
        2   -1    0    0  501    0  0.00000000000E+00  0.00000000000E+00  0.11744609646E+04  0.11744609646E+04  0.25500000920E-02 0.  1.
       -2   -1    0    0    0  501  0.00000000000E+00  0.00000000000E+00 -0.17822771658E+04  0.17822771658E+04  0.25500000920E-02 0. -1.
    10030    2    1    2    0    0  0.00000000000E+00  0.00000000000E+00 -0.60781620120E+03  0.29567381305E+04  0.28935894383E+04 0.  0.
        1    1    3    3  502    0  0.57723344197E+03  0.12388422282E+04  0.18109384856E+03  0.13786672894E+04  0.50400001928E-02 0.  1.
       -1    1    3    3    0  502 -0.57723344197E+03 -0.12388422282E+04 -0.78891004976E+03  0.15780708411E+04  0.50400001928E-02 0. -1.
</event>
<event>
 5   0  0.1550278E-06  0.2895872E+04  0.7818609E-02  0.8274107E-01
       -1   -1    0    0    0  501  0.00000000000E+00  0.00000000000E+00  0.12299847832E+04  0.12299847832E+04  0.50400001928E-02 0.  1.
        1   -1    0    0  501    0  0.00000000000E+00  0.00000000000E+00 -0.17045076297E+04  0.17045076297E+04  0.50400001928E-02 0. -1.
    10030    2    1    2    0    0  0.00000000000E+00  0.00000000000E+00 -0.47452284649E+03  0.29344924129E+04  0.28958718530E+04 0.  0.
        2    1    3    3  502    0 -0.47063752752E+03 -0.12881448673E+03 -0.16186830159E+04  0.16906293385E+04  0.25500000920E-02 0. -1.
       -2    1    3    3    0  502  0.47063752752E+03  0.12881448673E+03  0.11441601694E+04  0.12438630743E+04  0.25500000920E-02 0.  1.
</event>
<event>
 5   0  0.4148677E-06  0.2905027E+04  0.7818609E-02  0.8271383E-01
        2   -1    0    0  501    0  0.00000000000E+00  0.00000000000E+00  0.18599642512E+04  0.18599642512E+04  0.25500000920E-02 0. -1.
       -2   -1    0    0    0  501  0.00000000000E+00  0.00000000000E+00 -0.11343206981E+04  0.11343206981E+04  0.25500000920E-02 0.  1.
    10030    2    1    2    0    0  0.00000000000E+00  0.00000000000E+00  0.72564355309E+03  0.29942849492E+04  0.29050273305E+04 0.  0.
        5    1    3    3  502    0  0.54789858268E+03 -0.10994247388E+04  0.11617809366E+04  0.16907645158E+04  0.46999998093E+01 0. -1.
       -5    1    3    3    0  502 -0.54789858268E+03  0.10994247388E+04 -0.43613738353E+03  0.13035204334E+04  0.46999998093E+01 0.  1.
</event>
<event>
 5   0  0.1511126E-06  0.2866725E+04  0.7818609E-02  0.8282847E-01
       -1   -1    0    0    0  501  0.00000000000E+00  0.00000000000E+00  0.89949227313E+03  0.89949227314E+03  0.50400001928E-02 0. -1.
        1   -1    0    0  501    0  0.00000000000E+00  0.00000000000E+00 -0.22840975755E+04  0.22840975755E+04  0.50400001928E-02 0.  1.
    10030    2    1    2    0    0  0.00000000000E+00  0.00000000000E+00 -0.13846053024E+04  0.31835898487E+04  0.28667250446E+04 0.  0.
        5    1    3    3  502    0 -0.79517503836E+03 -0.11220622657E+04 -0.11409066616E+04  0.17869015559E+04  0.46999998093E+01 0.  1.
       -5    1    3    3    0  502  0.79517503836E+03  0.11220622657E+04 -0.24369864079E+03  0.13966882928E+04  0.46999998093E+01 0. -1.
</event>
<event>
 5   0  0.1602873E-06  0.2896455E+04  0.7818609E-02  0.8273933E-01
       -1   -1    0    0    0  501  0.00000000000E+00  0.00000000000E+00  0.14354446158E+04  0.14354446159E+04  0.50400001928E-02 0. -1.
        1   -1    0    0  501    0  0.00000000000E+00  0.00000000000E+00 -0.14611243846E+04  0.14611243846E+04  0.50400001928E-02 0.  1.
    10030    2    1    2    0    0  0.00000000000E+00  0.00000000000E+00 -0.25679768758E+02  0.28965690005E+04  0.28964551652E+04 0.  0.
        1    1    3    3  502    0 -0.40996688270E+03 -0.80107559011E+03 -0.11475950976E+04  0.14583447651E+04  0.50400001928E-02 0.  1.
       -1    1    3    3    0  502  0.40996688270E+03  0.80107559011E+03  0.11219153288E+04  0.14382242353E+04  0.50400001928E-02 0. -1.
</event>
<event>
 5   0  0.1543678E-06  0.2893392E+04  0.7818609E-02  0.8274846E-01
       -1   -1    0    0    0  501  0.00000000000E+00  0.00000000000E+00  0.17966311663E+04  0.17966311663E+04  0.50400001928E-02 0.  1.
        1   -1    0    0  501    0  0.00000000000E+00  0.00000000000E+00 -0.11649185523E+04  0.11649185523E+04  0.50400001928E-02 0. -1.
    10030    2    1    2    0    0  0.00000000000E+00  0.00000000000E+00  0.63171261395E+03  0.29615497186E+04  0.28933917656E+04 0.  0.
        3    1    3    3  502    0 -0.21907523030E+03 -0.13428335866E+04 -0.18738899611E+03  0.13734302472E+04  0.10100000352E+00 0. -1.
       -3    1    3    3    0  502  0.21907523030E+03  0.13428335866E+04  0.81910161006E+03  0.15881194714E+04  0.10100000352E+00 0.  1.
</event>
<event>
 5   0  0.1543678E-06  0.2889875E+04  0.7818609E-02  0.8275896E-01
       -1   -1    0    0    0  501  0.00000000000E+00  0.00000000000E+00  0.11897936520E+04  0.11897936520E+04  0.50400001928E-02 0. -1.
        1   -1    0    0  501    0  0.00000000000E+00  0.00000000000E+00 -0.17547949883E+04  0.17547949883E+04  0.50400001928E-02 0.  1.
    10030    2    1    2    0    0  0.00000000000E+00  0.00000000000E+00 -0.56500133626E+03  0.29445886403E+04  0.28898746946E+04 0.  0.
        3    1    3    3  502    0 -0.65355881350E+03 -0.59898646587E+03 -0.14451206226E+04  0.16953753369E+04  0.10100000352E+00 0.  1.
       -3    1    3    3    0  502  0.65355881350E+03  0.59898646587E+03  0.88011928634E+03  0.12492133034E+04  0.10100000352E+00 0. -1.
</event>
<event>
 5   0  0.4115143E-06  0.2899216E+04  0.7818609E-02  0.8273111E-01
       -2   -1    0    0    0  501  0.00000000000E+00  0.00000000000E+00  0.15291816184E+04  0.15291816184E+04  0.25500000920E-02 0.  1.
        2   -1    0    0  501    0  0.00000000000E+00  0.00000000000E+00 -0.13741753589E+04  0.13741753589E+04  0.25500000920E-02 0. -1.
    10030    2    1    2    0    0  0.00000000000E+00  0.00000000000E+00  0.15500625945E+03  0.29033569773E+04  0.28992162385E+04 0.  0.
        1    1    3    3  502    0 -0.96881591045E+03 -0.10779368659E+04  0.48974831031E+02  0.14501554018E+04  0.50400001928E-02 0.  1.
       -1    1    3    3    0  502  0.96881591045E+03  0.10779368659E+04  0.10603142842E+03  0.14532015755E+04  0.50400001928E-02 0. -1.
</event>
<event>
 5   0  0.1580212E-06  0.2903142E+04  0.7818609E-02  0.8271943E-01
        1   -1    0    0  501    0  0.00000000000E+00  0.00000000000E+00  0.21070008270E+04  0.21070008270E+04  0.50400001928E-02 0.  1.
       -1   -1    0    0    0  501  0.00000000000E+00  0.00000000000E+00 -0.10000273670E+04  0.10000273670E+04  0.50400001928E-02 0. -1.
    10030    2    1    2    0    0  0.00000000000E+00  0.00000000000E+00  0.11069734600E+04  0.31070281941E+04  0.29031420836E+04 0.  0.
        4    1    3    3  502    0  0.18577081239E+02 -0.77744637891E+03  0.18652444584E+04  0.20208677548E+04  0.12699999809E+01 0.  1.
       -4    1    3    3    0  502 -0.18577081239E+02  0.77744637891E+03 -0.75827099835E+03  0.10861604393E+04  0.12699999809E+01 0. -1.
</event>
<event>
 5   0  0.1602873E-06  0.2884780E+04  0.7818609E-02  0.8277420E-01
        1   -1    0    0  501    0  0.00000000000E+00  0.00000000000E+00  0.21809543215E+04  0.21809543215E+04  0.50400001928E-02 0.  1.
       -1   -1    0    0    0  501  0.00000000000E+00  0.00000000000E+00 -0.95393506106E+03  0.95393506108E+03  0.50400001928E-02 0. -1.
    10030    2    1    2    0    0  0.00000000000E+00  0.00000000000E+00  0.12270192605E+04  0.31348893826E+04  0.28847799181E+04 0.  0.
        1    1    3    3  502    0  0.27583883952E+03  0.24837341142E+03  0.21281648589E+04  0.21602921292E+04  0.50400001928E-02 0.  1.
       -1    1    3    3    0  502 -0.27583883952E+03 -0.24837341142E+03 -0.90114559839E+03  0.97459725344E+03  0.50400001928E-02 0. -1.
</event>
<event>
 5   0  0.4162450E-06  0.2896286E+04  0.7818609E-02  0.8273983E-01
        2   -1    0    0  501    0  0.00000000000E+00  0.00000000000E+00  0.16565861913E+04  0.16565861913E+04  0.25500000920E-02 0. -1.
       -2   -1    0    0    0  501  0.00000000000E+00  0.00000000000E+00 -0.12659275640E+04  0.12659275640E+04  0.25500000920E-02 0.  1.
    10030    2    1    2    0    0  0.00000000000E+00  0.00000000000E+00  0.39065862730E+03  0.29225137553E+04  0.28962859816E+04 0.  0.
        2    1    3    3  502    0  0.13446329946E+04 -0.42754063705E+03  0.52430194046E+03  0.15052313481E+04  0.25500000920E-02 0.  1.
       -2    1    3    3    0  502 -0.13446329946E+04  0.42754063705E+03 -0.13364331316E+03  0.14172824072E+04  0.25500000920E-02 0. -1.
</event>
<event>
 5   0  0.1543678E-06  0.2892841E+04  0.7818609E-02  0.8275011E-01
       -1   -1    0    0    0  501  0.00000000000E+00  0.00000000000E+00  0.14217568987E+04  0.14217568987E+04  0.50400001928E-02 0. -1.
        1   -1    0    0  501    0  0.00000000000E+00  0.00000000000E+00 -0.14715117601E+04  0.14715117601E+04  0.50400001928E-02 0.  1.
    10030    2    1    2    0    0  0.00000000000E+00  0.00000000000E+00 -0.49754861352E+02  0.28932686588E+04  0.28928408159E+04 0.  0.
        3    1    3    3  502    0  0.45028519130E+02  0.37771064325E+03  0.13708357106E+04  0.14226325784E+04  0.10100000352E+00 0. -1.
       -3    1    3    3    0  502 -0.45028519130E+02 -0.37771064325E+03 -0.14205905720E+04  0.14706360804E+04  0.10100000352E+00 0.  1.
</event>
<event>
 5   0  0.4187518E-06  0.2897271E+04  0.7818609E-02  0.8273690E-01
       -2   -1    0    0    0  501  0.00000000000E+00  0.00000000000E+00  0.13440176047E+04  0.13440176047E+04  0.25500000920E-02 0.  1.
        2   -1    0    0  501    0  0.00000000000E+00  0.00000000000E+00 -0.15613964913E+04  0.15613964913E+04  0.25500000920E-02 0. -1.
    10030    2    1    2    0    0  0.00000000000E+00  0.00000000000E+00 -0.21737888662E+03  0.29054140959E+04  0.28972706965E+04 0.  0.
        3    1    3    3  502    0 -0.14384853495E+04  0.12627232266E+03  0.72189988496E+01  0.14440349457E+04  0.10100000352E+00 0. -1.
       -3    1    3    3    0  502  0.14384853495E+04 -0.12627232266E+03 -0.22459788547E+03  0.14613791502E+04  0.10100000352E+00 0.  1.
</event>
<event>
 5   0  0.1602873E-06  0.2888809E+04  0.7818609E-02  0.8276215E-01
       -1   -1    0    0    0  501  0.00000000000E+00  0.00000000000E+00  0.92639107418E+03  0.92639107420E+03  0.50400001928E-02 0.  1.
        1   -1    0    0  501    0  0.00000000000E+00  0.00000000000E+00 -0.22520766990E+04  0.22520766990E+04  0.50400001928E-02 0. -1.
    10030    2    1    2    0    0  0.00000000000E+00  0.00000000000E+00 -0.13256856249E+04  0.31784677732E+04  0.28888085796E+04 0.  0.
        1    1    3    3  502    0  0.66234238194E+03 -0.12452308336E+04 -0.32015437749E+03  0.14463042852E+04  0.50400001928E-02 0. -1.
       -1    1    3    3    0  502 -0.66234238194E+03  0.12452308336E+04 -0.10055312474E+04  0.17321634881E+04  0.50400001928E-02 0.  1.
</event>
<event>
 5   0  0.4162450E-06  0.2912266E+04  0.7818609E-02  0.8269237E-01
        2   -1    0    0  501    0  0.00000000000E+00  0.00000000000E+00  0.18303978356E+04  0.18303978356E+04  0.25500000920E-02 0. -1.
       -2   -1    0    0    0  501  0.00000000000E+00  0.00000000000E+00 -0.11583951163E+04  0.11583951163E+04  0.25500000920E-02 0.  1.
    10030    2    1    2    0    0  0.00000000000E+00  0.00000000000E+00  0.67200271926E+03  0.29887929519E+04  0.29122664120E+04 0.  0.
        2    1    3    3  502    0 -0.34061553309E+03 -0.12745531195E+04  0.96849076293E+03  0.16366059250E+04  0.25500000920E-02 0. -1.
       -2    1    3    3    0  502  0.34061553309E+03  0.12745531195E+04 -0.29648804368E+03  0.13521870269E+04  0.25500000920E-02 0.  1.
</event>
<event>
 5   0  0.1550278E-06  0.2901751E+04  0.7818609E-02  0.8272357E-01
        1   -1    0    0  501    0  0.00000000000E+00  0.00000000000E+00  0.82118522413E+03  0.82118522414E+03  0.50400001928E-02 0. -1.
       -1   -1    0    0    0  501  0.00000000000E+00  0.00000000000E+00 -0.25634167672E+04  0.25634167672E+04  0.50400001928E-02 0.  1.
    10030    2    1    2    0    0  0.00000000000E+00  0.00000000000E+00 -0.17422315430E+04  0.33846019913E+04  0.29017511764E+04 0.  0.
        2    1    3    3  502    0  0.82125337990E+03  0.43372292013E+03  0.42902362369E+03  0.10230512964E+04  0.25500000920E-02 0. -1.
       -2    1    3    3    0  502 -0.82125337990E+03 -0.43372292013E+03 -0.21712551667E+04  0.23615506949E+04  0.25500000920E-02 0.  1.
</event>
<event>
 5   0  0.4187518E-06  0.2890346E+04  0.7818609E-02  0.8275756E-01
       -2   -1    0    0    0  501  0.00000000000E+00  0.00000000000E+00  0.16465610055E+04  0.16465610055E+04  0.25500000920E-02 0.  1.
        2   -1    0    0  501    0  0.00000000000E+00  0.00000000000E+00 -0.12684162780E+04  0.12684162780E+04  0.25500000920E-02 0. -1.
    10030    2    1    2    0    0  0.00000000000E+00  0.00000000000E+00  0.37814472747E+03  0.29149772835E+04  0.28903458493E+04 0.  0.
        3    1    3    3  502    0 -0.90152399706E+03  0.71422565944E+03  0.10715498102E+04  0.15719678164E+04  0.10100000352E+00 0.  1.
       -3    1    3    3    0  502  0.90152399706E+03 -0.71422565944E+03 -0.69340508273E+03  0.13430094671E+04  0.10100000352E+00 0. -1.
</event>
<event>
 5   0  0.4148677E-06  0.2879714E+04  0.7818609E-02  0.8278939E-01
       -2   -1    0    0    0  501  0.00000000000E+00  0.00000000000E+00  0.14359617678E+04  0.14359617678E+04  0.25500000920E-02 0. -1.
        2   -1    0    0  501    0  0.00000000000E+00  0.00000000000E+00 -0.14437624385E+04  0.14437624385E+04  0.25500000920E-02 0.  1.
    10030    2    1    2    0    0  0.00000000000E+00  0.00000000000E+00 -0.78006706924E+01  0.28797242063E+04  0.28797136410E+04 0.  0.
        5    1    3    3  502    0 -0.31907515000E+03  0.13892445386E+04 -0.20726340350E+03  0.14404129783E+04  0.46999998093E+01 0. -1.
       -5    1    3    3    0  502  0.31907515000E+03 -0.13892445386E+04  0.19946273280E+03  0.14393112281E+04  0.46999998093E+01 0.  1.
</event>
<event>
 5   0  0.1550278E-06  0.2900301E+04  0.7818609E-02  0.8272788E-01
       -1   -1    0    0    0  501  0.00000000000E+00  0.00000000000E+00  0.14383305446E+04  0.14383305446E+04  0.50400001928E-02 0.  1.
        1   -1    0    0  501    0  0.00000000000E+00  0.00000000000E+00 -0.14620680258E+04  0.14620680259E+04  0.50400001928E-02 0. -1.
    10030    2    1    2    0    0  0.00000000000E+00  0.00000000000E+00 -0.23737481228E+02  0.29003985705E+04  0.29003014326E+04 0.  0.
        2    1    3    3  502    0  0.65902789603E+03 -0.52136944320E+03 -0.11937683985E+04  0.14598722044E+04  0.25500000920E-02 0. -1.
       -2    1    3    3    0  502 -0.65902789603E+03  0.52136944320E+03  0.11700309172E+04  0.14405263661E+04  0.25500000920E-02 0.  1.
</event>
<event>
 5   0  0.4187518E-06  0.2985506E+04  0.7818609E-02  0.8247882E-01
       -2   -1    0    0    0  501  0.00000000000E+00  0.00000000000E+00  0.10587681196E+04  0.10587681196E+04  0.25500000920E-02 0.  1.
        2   -1    0    0  501    0  0.00000000000E+00  0.00000000000E+00 -0.21046261760E+04  0.21046261760E+04  0.25500000920E-02 0. -1.
    10030    2    1    2    0    0  0.00000000000E+00  0.00000000000E+00 -0.10458580563E+04  0.31633942956E+04  0.29855057186E+04 0.  0.
        3    1    3    3  502    0 -0.67422414274E+03 -0.45240095721E+03  0.80433114485E+03  0.11428881929E+04  0.10100000352E+00 0.  1.
       -3    1    3    3    0  502  0.67422414274E+03  0.45240095721E+03 -0.18501892012E+04  0.20205061027E+04  0.10100000352E+00 0. -1.
</event>
<event>
 5   0  0.4115143E-06  0.2966743E+04  0.7818609E-02  0.8253292E-01
       -2   -1    0    0    0  501  0.00000000000E+00  0.00000000000E+00  0.12329342768E+04  0.12329342768E+04  0.25500000920E-02 0. -1.
        2   -1    0    0  501    0  0.00000000000E+00  0.00000000000E+00 -0.17846779717E+04  0.17846779717E+04  0.25500000920E-02 0.  1.
    10030    2    1    2    0    0  0.00000000000E+00  0.00000000000E+00 -0.55174369493E+03  0.30176122485E+04  0.29667427555E+04 0.  0.
        1    1    3    3  502    0 -0.71919614495E+03 -0.11319712974E+04 -0.92060842769E+03  0.16266905023E+04  0.50400001928E-02 0.  1.
       -1    1    3    3    0  502  0.71919614495E+03  0.11319712974E+04  0.36886473276E+03  0.13909217462E+04  0.50400001928E-02 0. -1.
</event>
<event>
 5   0  0.1511126E-06  0.2881282E+04  0.7818609E-02  0.8278469E-01
        1   -1    0    0  501    0  0.00000000000E+00  0.00000000000E+00  0.13965684614E+04  0.13965684614E+04  0.50400001928E-02 0. -1.
       -1   -1    0    0    0  501  0.00000000000E+00  0.00000000000E+00 -0.14861038592E+04  0.14861038592E+04  0.50400001928E-02 0.  1.
    10030    2    1    2    0    0  0.00000000000E+00  0.00000000000E+00 -0.89535397853E+02  0.28826723206E+04  0.28812815067E+04 0.  0.
        5    1    3    3  502    0  0.14694696580E+03 -0.13406333122E+04  0.46196726293E+03  0.14255970435E+04  0.46999998093E+01 0. -1.
       -5    1    3    3    0  502 -0.14694696580E+03  0.13406333122E+04 -0.55150266078E+03  0.14570752771E+04  0.46999998093E+01 0.  1.
</event>
<event>
 5   0  0.4187518E-06  0.2632763E+04  0.7818609E-02  0.8357157E-01
        2   -1    0    0  501    0  0.00000000000E+00  0.00000000000E+00  0.16869797623E+04  0.16869797623E+04  0.25500000920E-02 0. -1.
       -2   -1    0    0    0  501  0.00000000000E+00  0.00000000000E+00 -0.10271967161E+04  0.10271967161E+04  0.25500000920E-02 0.  1.
    10030    2    1    2    0    0  0.00000000000E+00  0.00000000000E+00  0.65978304615E+03  0.27141764784E+04  0.26327628620E+04 0.  0.
        3    1    3    3  502    0 -0.11660314610E+04  0.55112006582E+03  0.58115891402E+02  0.12910229131E+04  0.10100000352E+00 0.  1.
       -3    1    3    3    0  502  0.11660314610E+04 -0.55112006582E+03  0.60166715474E+03  0.14231535653E+04  0.10100000352E+00 0. -1.
</event>
<event>
 5   0  0.1580212E-06  0.2910673E+04  0.7818609E-02  0.8269709E-01
       -1   -1    0    0    0  501  0.00000000000E+00  0.00000000000E+00  0.10919192892E+04  0.10919192892E+04  0.50400001928E-02 0.  1.
        1   -1    0    0  501    0  0.00000000000E+00  0.00000000000E+00 -0.19397075477E+04  0.19397075477E+04  0.50400001928E-02 0. -1.
    10030    2    1    2    0    0  0.00000000000E+00  0.00000000000E+00 -0.84778825853E+03  0.30316268369E+04  0.29106728340E+04 0.  0.
        4    1    3    3  502    0 -0.12424406831E+03  0.92033059776E+03 -0.15909741907E+04  0.18421849760E+04  0.12699999809E+01 0. -1.
       -4    1    3    3    0  502  0.12424406831E+03 -0.92033059776E+03  0.74318593212E+03  0.11894418608E+04  0.12699999809E+01 0.  1.
</event>
<event>
 5   0  0.1602873E-06  0.2893726E+04  0.7818609E-02  0.8274747E-01
       -1   -1    0    0    0  501  0.00000000000E+00  0.00000000000E+00  0.12506367243E+04  0.12506367243E+04  0.50400001928E-02 0.  1.
        1   -1    0    0  501    0  0.00000000000E+00  0.00000000000E+00 -0.16738774791E+04  0.16738774792E+04  0.50400001928E-02 0. -1.
    10030    2    1    2    0    0  0.00000000000E+00  0.00000000000E+00 -0.42324075489E+03  0.29245142034E+04  0.28937260737E+04 0.  0.
        1    1    3    3  502    0 -0.37116297558E+03  0.44621315498E+03 -0.15510684986E+04  0.16561043510E+04  0.50400001928E-02 0. -1.
       -1    1    3    3    0  502  0.37116297558E+03 -0.44621315498E+03  0.11278277437E+04  0.12684098524E+04  0.50400001928E-02 0.  1.
</event>
<event>
 5   0  0.1511126E-06  0.2895317E+04  0.7818609E-02  0.8274272E-01
        1   -1    0    0  501    0  0.00000000000E+00  0.00000000000E+00  0.18066121022E+04  0.18066121022E+04  0.50400001928E-02 0.  1.
       -1   -1    0    0    0  501  0.00000000000E+00  0.00000000000E+00 -0.11600252500E+04  0.11600252500E+04  0.50400001928E-02 0. -1.
    10030    2    1    2    0    0  0.00000000000E+00  0.00000000000E+00  0.64658685221E+03  0.29666373522E+04  0.28953173612E+04 0.  0.
        5    1    3    3  502    0  0.34691905173E+03 -0.51322122058E+03  0.16639364539E+04  0.17755155483E+04  0.46999998093E+01 0.  1.
       -5    1    3    3    0  502 -0.34691905173E+03  0.51322122058E+03 -0.10173496017E+04  0.11911218039E+04  0.46999998093E+01 0. -1.
</event>
<event>
 5   0  0.4224163E-06  0.2920660E+04  0.7818609E-02  0.8266757E-01
        2   -1    0    0  501    0  0.00000000000E+00  0.00000000000E+00  0.15136293023E+04  0.15136293023E+04  0.25500000920E-02 0.  1.
       -2   -1    0    0    0  501  0.00000000000E+00  0.00000000000E+00 -0.14089076357E+04  0.14089076357E+04  0.25500000920E-02 0. -1.
    10030    2    1    2    0    0  0.00000000000E+00  0.00000000000E+00  0.10472166661E+03  0.29225369381E+04  0.29206601184E+04 0.  0.
        4    1    3    3  502    0 -0.73665425871E+03 -0.26639730080E+03  0.12856037196E+04  0.15054585864E+04  0.12699999809E+01 0.  1.
       -4    1    3    3    0  502  0.73665425871E+03  0.26639730080E+03 -0.11808820530E+04  0.14170783516E+04  0.12699999809E+01 0. -1.
</event>
<event>
 5   0  0.4224163E-06  0.2890882E+04  0.7818609E-02  0.8275596E-01
       -2   -1    0    0    0  501  0.00000000000E+00  0.00000000000E+00  0.20618480364E+04  0.20618480364E+04  0.25500000920E-02 0.  1.
        2   -1    0    0  501    0  0.00000000000E+00  0.00000000000E+00 -0.10133139368E+04  0.10133139368E+04  0.25500000920E-02 0. -1.
    10030    2    1    2    0    0  0.00000000000E+00  0.00000000000E+00  0.10485340996E+04  0.30751619732E+04  0.28908817692E+04 0.  0.
        4    1    3    3  502    0 -0.34429757891E+03  0.64319036178E+02 -0.96748927715E+03  0.10289387132E+04  0.12699999809E+01 0. -1.
       -4    1    3    3    0  502  0.34429757891E+03 -0.64319036178E+02  0.20160233768E+04  0.20462232600E+04  0.12699999809E+01 0.  1.
</event>
<event>
 5   0  0.1550278E-06  0.2889886E+04  0.7818609E-02  0.8275893E-01
       -1   -1    0    0    0  501  0.00000000000E+00  0.00000000000E+00  0.13196694432E+04  0.13196694432E+04  0.50400001928E-02 0.  1.
        1   -1    0    0  501    0  0.00000000000E+00  0.00000000000E+00 -0.15821087180E+04  0.15821087180E+04  0.50400001928E-02 0. -1.
    10030    2    1    2    0    0  0.00000000000E+00  0.00000000000E+00 -0.26243927483E+03  0.29017781612E+04  0.28898861784E+04 0.  0.
        2    1    3    3  502    0  0.13599800618E+04  0.31698347806E+03 -0.50401042722E+03  0.14846045954E+04  0.25500000920E-02 0.  1.
       -2    1    3    3    0  502 -0.13599800618E+04 -0.31698347806E+03  0.24157115239E+03  0.14171735658E+04  0.25500000920E-02 0. -1.
</event>
<event>
 5   0  0.1511126E-06  0.2902582E+04  0.7818609E-02  0.8272110E-01
        1   -1    0    0  501    0  0.00000000000E+00  0.00000000000E+00  0.16254013814E+04  0.16254013814E+04  0.50400001928E-02 0.  1.
       -1   -1    0    0    0  501  0.00000000000E+00  0.00000000000E+00 -0.12958310986E+04  0.12958310986E+04  0.50400001928E-02 0. -1.
    10030    2    1    2    0    0  0.00000000000E+00  0.00000000000E+00  0.32957028281E+03  0.29212324800E+04  0.29025820628E+04 0.  0.
        5    1    3    3  502    0  0.53432816466E+03  0.87078922191E+03 -0.87258670204E+03  0.13435810728E+04  0.46999998093E+01 0. -1.
       -5    1    3    3    0  502 -0.53432816466E+03 -0.87078922191E+03  0.12021569849E+04  0.15776514072E+04  0.46999998093E+01 0.  1.
</event>
<event>
 5   0  0.1511126E-06  0.2741969E+04  0.7818609E-02  0.8321515E-01
       -1   -1    0    0    0  501  0.00000000000E+00  0.00000000000E+00  0.10656062339E+04  0.10656062339E+04  0.50400001928E-02 0. -1.
        1   -1    0    0  501    0  0.00000000000E+00  0.00000000000E+00 -0.17638769272E+04  0.17638769272E+04  0.50400001928E-02 0.  1.
    10030    2    1    2    0    0  0.00000000000E+00  0.00000000000E+00 -0.69827069332E+03  0.28294831612E+04  0.27419688179E+04 0.  0.
        5    1    3    3  502    0 -0.10013205866E+04 -0.27951703354E+03  0.57314843906E+03  0.11871368550E+04  0.46999998093E+01 0.  1.
       -5    1    3    3    0  502  0.10013205866E+04  0.27951703354E+03 -0.12714191324E+04  0.16423463062E+04  0.46999998093E+01 0. -1.
</event>
<event>
 5   0  0.4162450E-06  0.2868472E+04  0.7818609E-02  0.8282320E-01
       -2   -1    0    0    0  501  0.00000000000E+00  0.00000000000E+00  0.78303285475E+03  0.78303285476E+03  0.25500000920E-02 0. -1.
        2   -1    0    0  501    0  0.00000000000E+00  0.00000000000E+00 -0.26270066249E+04  0.26270066249E+04  0.25500000920E-02 0.  1.
    10030    2    1    2    0    0  0.00000000000E+00  0.00000000000E+00 -0.18439737701E+04  0.34100394796E+04  0.28684717164E+04 0.  0.
        2    1    3    3  502    0  0.12031651933E+04  0.15092324814E+03 -0.11449667937E+02  0.12126480957E+04  0.25500000920E-02 0.  1.
       -2    1    3    3    0  502 -0.12031651933E+04 -0.15092324814E+03 -0.18325241022E+04  0.21973913839E+04  0.25500000920E-02 0. -1.
</event>
<event>
 5   0  0.4187518E-06  0.2853538E+04  0.7818609E-02  0.8286837E-01
        2   -1    0    0  501    0  0.00000000000E+00  0.00000000000E+00  0.21035991003E+04  0.21035991003E+04  0.25500000920E-02 0.  1.
       -2   -1    0    0    0  501  0.00000000000E+00  0.00000000000E+00 -0.96770810508E+03  0.96770810508E+03  0.25500000920E-02 0. -1.
    10030    2    1    2    0    0  0.00000000000E+00  0.00000000000E+00  0.11358909952E+04  0.30713072053E+04  0.28535380840E+04 0.  0.
        3    1    3    3  502    0  0.64678838412E+03  0.21559015938E+03  0.19169323348E+04  0.20345623404E+04  0.10100000352E+00 0.  1.
       -3    1    3    3    0  502 -0.64678838412E+03 -0.21559015938E+03 -0.78104133958E+03  0.10367448649E+04  0.10100000352E+00 0. -1.
</event>
<event>
 5   0  0.4115143E-06  0.2904770E+04  0.7818609E-02  0.8271460E-01
        2   -1    0    0  501    0  0.00000000000E+00  0.00000000000E+00  0.18538680858E+04  0.18538680858E+04  0.25500000920E-02 0.  1.
       -2   -1    0    0    0  501  0.00000000000E+00  0.00000000000E+00 -0.11378488833E+04  0.11378488833E+04  0.25500000920E-02 0. -1.
    10030    2    1    2    0    0  0.00000000000E+00  0.00000000000E+00  0.71601920247E+03  0.29917169691E+04  0.29047696854E+04 0.  0.
        1    1    3    3  502    0 -0.10187993736E+04 -0.92253271958E+03 -0.12551380462E+03  0.13801349562E+04  0.50400001928E-02 0. -1.
       -1    1    3    3    0  502  0.10187993736E+04  0.92253271958E+03  0.84153300709E+03  0.16115820129E+04  0.50400001928E-02 0.  1.
</event>
<event>
 5   0  0.4162450E-06  0.2830439E+04  0.7818609E-02  0.8293880E-01
       -2   -1    0    0    0  501  0.00000000000E+00  0.00000000000E+00  0.13202780343E+04  0.13202780343E+04  0.25500000920E-02 0. -1.
        2   -1    0    0  501    0  0.00000000000E+00  0.00000000000E+00 -0.15169886563E+04  0.15169886563E+04  0.25500000920E-02 0.  1.
    10030    2    1    2    0    0  0.00000000000E+00  0.00000000000E+00 -0.19671062192E+03  0.28372666906E+04  0.28304394014E+04 0.  0.
        2    1    3    3  502    0  0.11673943508E+04 -0.79652242025E+03 -0.23413592404E+02  0.14134375588E+04  0.25500000920E-02 0.  1.
       -2    1    3    3    0  502 -0.11673943508E+04  0.79652242025E+03 -0.17329702951E+03  0.14238291318E+04  0.25500000920E-02 0. -1.
</event>
<event>
 5   0  0.4187518E-06  0.2903650E+04  0.7818609E-02  0.8271792E-01
        2   -1    0    0  501    0  0.00000000000E+00  0.00000000000E+00  0.22715221111E+04  0.22715221111E+04  0.25500000920E-02 0. -1.
       -2   -1    0    0    0  501  0.00000000000E+00  0.00000000000E+00 -0.92792252931E+03  0.92792252931E+03  0.25500000920E-02 0.  1.
    10030    2    1    2    0    0  0.00000000000E+00  0.00000000000E+00  0.13435995818E+04  0.31994446404E+04  0.29036504905E+04 0.  0.
        3    1    3    3  502    0 -0.11171108170E+04  0.34723125910E+03 -0.27560984191E+03  0.12018597754E+04  0.10100000352E+00 0. -1.
       -3    1    3    3    0  502  0.11171108170E+04 -0.34723125910E+03  0.16192094237E+04  0.19975848649E+04  0.10100000352E+00 0.  1.
</event>
<event>
 5   0  0.1511126E-06  0.2921455E+04  0.7818609E-02  0.8266522E-01
       -1   -1    0    0    0  501  0.00000000000E+00  0.00000000000E+00  0.85959372887E+03  0.85959372888E+03  0.50400001928E-02 0. -1.
        1   -1    0    0  501    0  0.00000000000E+00  0.00000000000E+00 -0.24822479296E+04  0.24822479296E+04  0.50400001928E-02 0.  1.
    10030    2    1    2    0    0  0.00000000000E+00  0.00000000000E+00 -0.16226542008E+04  0.33418416585E+04  0.29214549484E+04 0.  0.
        5    1    3    3  502    0 -0.44614609139E+03 -0.13459242349E+04 -0.40991191088E+03  0.14760109233E+04  0.46999998093E+01 0. -1.
       -5    1    3    3    0  502  0.44614609139E+03  0.13459242349E+04 -0.12127422899E+04  0.18658307353E+04  0.46999998093E+01 0.  1.
</event>
<event>
 5   0  0.4148677E-06  0.2910136E+04  0.7818609E-02  0.8269868E-01
       -2   -1    0    0    0  501  0.00000000000E+00  0.00000000000E+00  0.10805075454E+04  0.10805075454E+04  0.25500000920E-02 0.  1.
        2   -1    0    0  501    0  0.00000000000E+00  0.00000000000E+00 -0.19594706356E+04  0.19594706356E+04  0.25500000920E-02 0. -1.
    10030    2    1    2    0    0  0.00000000000E+00  0.00000000000E+00 -0.87896309023E+03  0.30399781810E+04  0.29101359465E+04 0.  0.
        5    1    3    3  502    0 -0.12997447526E+03  0.11592143777E+04 -0.13480760127E+04  0.17826952527E+04  0.46999998093E+01 0. -1.
       -5    1    3    3    0  502  0.12997447526E+03 -0.11592143777E+04  0.46911292249E+03  0.12572829283E+04  0.46999998093E+01 0.  1.
</event>
<event>
 5   0  0.1511126E-06  0.2932360E+04  0.7818609E-02  0.8263314E-01
       -1   -1    0    0    0  501  0.00000000000E+00  0.00000000000E+00  0.85448393156E+03  0.85448393157E+03  0.50400001928E-02 0. -1.
        1   -1    0    0  501    0  0.00000000000E+00  0.00000000000E+00 -0.25157679483E+04  0.25157679483E+04  0.50400001928E-02 0.  1.
    10030    2    1    2    0    0  0.00000000000E+00  0.00000000000E+00 -0.16612840168E+04  0.33702518799E+04  0.29323596556E+04 0.  0.
        5    1    3    3  502    0 -0.87125701606E+03  0.97229443054E+03 -0.63756588292E+02  0.13071083506E+04  0.46999998093E+01 0. -1.
       -5    1    3    3    0  502  0.87125701606E+03 -0.97229443054E+03 -0.15975274285E+04  0.20631435293E+04  0.46999998093E+01 0.  1.
</event>
<event>
 5   0  0.1543678E-06  0.2920390E+04  0.7818609E-02  0.8266836E-01
        1   -1    0    0  501    0  0.00000000000E+00  0.00000000000E+00  0.16244469129E+04  0.16244469129E+04  0.50400001928E-02 0. -1.
       -1   -1    0    0    0  501  0.00000000000E+00  0.00000000000E+00 -0.13125514285E+04  0.13125514285E+04  0.50400001928E-02 0.  1.
    10030    2    1    2    0    0  0.00000000000E+00  0.00000000000E+00  0.31189548439E+03  0.29369983414E+04  0.29203904643E+04 0.  0.
        3    1    3    3  502    0  0.46861021506E+03 -0.12971198863E+04  0.63831543704E+03  0.15197243633E+04  0.10100000352E+00 0.  1.
       -3    1    3    3    0  502 -0.46861021506E+03  0.12971198863E+04 -0.32641995265E+03  0.14172739780E+04  0.10100000352E+00 0. -1.
</event>
<event>
 5   0  0.4187518E-06  0.2874835E+04  0.7818609E-02  0.8280404E-01
        2   -1    0    0  501    0  0.00000000000E+00  0.00000000000E+00  0.23978104901E+04  0.23978104901E+04  0.25500000920E-02 0. -1.
       -2   -1    0    0    0  501  0.00000000000E+00  0.00000000000E+00 -0.86168995931E+03  0.86168995932E+03  0.25500000920E-02 0.  1.
    10030    2    1    2    0    0  0.00000000000E+00  0.00000000000E+00  0.15361205308E+04  0.32595004494E+04  0.28748351074E+04 0.  0.
        3    1    3    3  502    0 -0.36209341925E+03  0.58800593352E+03  0.21974213295E+04  0.23033721219E+04  0.10100000352E+00 0. -1.
       -3    1    3    3    0  502  0.36209341925E+03 -0.58800593352E+03 -0.66130079875E+03  0.95612832755E+03  0.10100000352E+00 0.  1.
</event>
<event>
 5   0  0.1602873E-06  0.2867386E+04  0.7818609E-02  0.8282648E-01
       -1   -1    0    0    0  501  0.00000000000E+00  0.00000000000E+00  0.13742816011E+04  0.13742816011E+04  0.50400001928E-02 0.  1.
        1   -1    0    0  501    0  0.00000000000E+00  0.00000000000E+00 -0.14956727118E+04  0.14956727118E+04  0.50400001928E-02 0. -1.
    10030    2    1    2    0    0  0.00000000000E+00  0.00000000000E+00 -0.12139111073E+03  0.28699543128E+04  0.28673859099E+04 0.  0.
        1    1    3    3  502    0 -0.84156060310E+02 -0.14815265165E+03 -0.14855028956E+04  0.14952425568E+04  0.50400001928E-02 0. -1.
       -1    1    3    3    0  502  0.84156060310E+02  0.14815265165E+03  0.13641117849E+04  0.13747117561E+04  0.50400001928E-02 0.  1.
</event>
<event>
 5   0  0.1511126E-06  0.2945299E+04  0.7818609E-02  0.8259526E-01
        1   -1    0    0  501    0  0.00000000000E+00  0.00000000000E+00  0.20265028605E+04  0.20265028605E+04  0.50400001928E-02 0.  1.
       -1   -1    0    0    0  501  0.00000000000E+00  0.00000000000E+00 -0.10701671877E+04  0.10701671877E+04  0.50400001928E-02 0. -1.
    10030    2    1    2    0    0  0.00000000000E+00  0.00000000000E+00  0.95633567275E+03  0.30966700482E+04  0.29452992155E+04 0.  0.
        5    1    3    3  502    0  0.10656181191E+04 -0.70730022067E+03 -0.28932043204E+03  0.13113138375E+04  0.46999998093E+01 0.  1.
       -5    1    3    3    0  502 -0.10656181191E+04  0.70730022067E+03  0.12456561048E+04  0.17853562108E+04  0.46999998093E+01 0. -1.
</event>
<event>
 5   0  0.1580212E-06  0.2921255E+04  0.7818609E-02  0.8266581E-01
        1   -1    0    0  501    0  0.00000000000E+00  0.00000000000E+00  0.26240409947E+04  0.26240409947E+04  0.50400001928E-02 0. -1.
       -1   -1    0    0    0  501  0.00000000000E+00  0.00000000000E+00 -0.81303334274E+03  0.81303334276E+03  0.50400001928E-02 0.  1.
    10030    2    1    2    0    0  0.00000000000E+00  0.00000000000E+00  0.18110076519E+04  0.34370743374E+04  0.29212550874E+04 0.  0.
        4    1    3    3  502    0  0.11427895578E+03  0.13990018173E+04  0.43024133833E+03  0.14681195410E+04  0.12699999809E+01 0.  1.
       -4    1    3    3    0  502 -0.11427895578E+03 -0.13990018173E+04  0.13807663136E+04  0.19689547964E+04  0.12699999809E+01 0. -1.
</event>
<event>
 5   0  0.1511126E-06  0.2887915E+04  0.7818609E-02  0.8276482E-01
       -1   -1    0    0    0  501  0.00000000000E+00  0.00000000000E+00  0.10218493295E+04  0.10218493295E+04  0.50400001928E-02 0.  1.
        1   -1    0    0  501    0  0.00000000000E+00  0.00000000000E+00 -0.20404311190E+04  0.20404311190E+04  0.50400001928E-02 0. -1.
    10030    2    1    2    0    0  0.00000000000E+00  0.00000000000E+00 -0.10185817895E+04  0.30622804485E+04  0.28879149370E+04 0.  0.
        5    1    3    3  502    0  0.15527621237E+03  0.11997876252E+04 -0.13451685313E+04  0.18091714997E+04  0.46999998093E+01 0. -1.
       -5    1    3    3    0  502 -0.15527621237E+03 -0.11997876252E+04  0.32658674179E+03  0.12531089488E+04  0.46999998093E+01 0.  1.
</event>
<event>
 5   0  0.4224163E-06  0.2912882E+04  0.7818609E-02  0.8269055E-01
        2   -1    0    0  501    0  0.00000000000E+00  0.00000000000E+00  0.12597401153E+04  0.12597401153E+04  0.25500000920E-02 0.  1.
       -2   -1    0    0    0  501  0.00000000000E+00  0.00000000000E+00 -0.16838560894E+04  0.16838560894E+04  0.25500000920E-02 0. -1.
    10030    2    1    2    0    0  0.00000000000E+00  0.00000000000E+00 -0.42411597409E+03  0.29435962048E+04  0.29128824654E+04 0.  0.
        4    1    3    3  502    0  0.52301709860E+03  0.19338607974E+03  0.11475931081E+04  0.12758983564E+04  0.12699999809E+01 0.  1.
       -4    1    3    3    0  502 -0.52301709860E+03 -0.19338607974E+03 -0.15717090822E+04  0.16676978483E+04  0.12699999809E+01 0. -1.
</event>
<event>
 5   0  0.4115143E-06  0.2901252E+04  0.7818609E-02  0.8272505E-01
       -2   -1    0    0    0  501  0.00000000000E+00  0.00000000000E+00  0.98591852429E+03  0.98591852430E+03  0.25500000920E-02 0. -1.
        2   -1    0    0  501    0  0.00000000000E+00  0.00000000000E+00 -0.21343705601E+04  0.21343705601E+04  0.25500000920E-02 0.  1.
    10030    2    1    2    0    0  0.00000000000E+00  0.00000000000E+00 -0.11484520358E+04  0.31202890844E+04  0.29012517801E+04 0.  0.
        1    1    3    3  502    0 -0.34151794547E+03  0.41940253797E+03 -0.20218722335E+04  0.20929644824E+04  0.50400001928E-02 0.  1.
       -1    1    3    3    0  502  0.34151794547E+03 -0.41940253797E+03  0.87342019774E+03  0.10273246020E+04  0.50400001928E-02 0. -1.
</event>
<event>
 5   0  0.1580212E-06  0.2885721E+04  0.7818609E-02  0.8277139E-01
       -1   -1    0    0    0  501  0.00000000000E+00  0.00000000000E+00  0.16446483097E+04  0.16446483097E+04  0.50400001928E-02 0.  1.
        1   -1    0    0  501    0  0.00000000000E+00  0.00000000000E+00 -0.12658306643E+04  0.12658306643E+04  0.50400001928E-02 0. -1.
    10030    2    1    2    0    0  0.00000000000E+00  0.00000000000E+00  0.37881764535E+03  0.29104789740E+04  0.28857208891E+04 0.  0.
        4    1    3    3  502    0  0.96771091041E+03  0.77927314409E+03  0.92926470536E+03  0.15515365109E+04  0.12699999809E+01 0.  1.
       -4    1    3    3    0  502 -0.96771091041E+03 -0.77927314409E+03 -0.55044706001E+03  0.13589424631E+04  0.12699999809E+01 0. -1.
</event>
<event>
 5   0  0.4162450E-06  0.2891515E+04  0.7818609E-02  0.8275406E-01
        2   -1    0    0  501    0  0.00000000000E+00  0.00000000000E+00  0.19422281800E+04  0.19422281800E+04  0.25500000920E-02 0.  1.
       -2   -1    0    0    0  501  0.00000000000E+00  0.00000000000E+00 -0.10761945057E+04  0.10761945057E+04  0.25500000920E-02 0. -1.
    10030    2    1    2    0    0  0.00000000000E+00  0.00000000000E+00  0.86603367435E+03  0.30184226857E+04  0.28915153785E+04 0.  0.
        2    1    3    3  502    0 -0.11717659498E+04 -0.82205748051E+03  0.64542041116E+03  0.15701533204E+04  0.25500000920E-02 0. -1.
       -2    1    3    3    0  502  0.11717659498E+04  0.82205748051E+03  0.22061326318E+03  0.14482693653E+04  0.25500000920E-02 0.  1.
</event>
<event>
 5   0  0.1511126E-06  0.3007827E+04  0.7818609E-02  0.8241499E-01
       -1   -1    0    0    0  501  0.00000000000E+00  0.00000000000E+00  0.15836086968E+04  0.15836086968E+04  0.50400001928E-02 0. -1.
        1   -1    0    0  501    0  0.00000000000E+00  0.00000000000E+00 -0.14282288933E+04  0.14282288933E+04  0.50400001928E-02 0.  1.
    10030    2    1    2    0    0  0.00000000000E+00  0.00000000000E+00  0.15537980356E+03  0.30118375901E+04  0.30078269209E+04 0.  0.
        5    1    3    3  502    0  0.90153363268E+03 -0.95455446969E+03  0.81201383823E+03  0.15438023481E+04  0.46999998093E+01 0. -1.
       -5    1    3    3    0  502 -0.90153363268E+03  0.95455446969E+03 -0.65663403466E+03  0.14680352421E+04  0.46999998093E+01 0.  1.
</event>
<event>
 5   0  0.4162450E-06  0.2845958E+04  0.7818609E-02  0.8289141E-01
        2   -1    0    0  501    0  0.00000000000E+00  0.00000000000E+00  0.17073298985E+04  0.17073298985E+04  0.25500000920E-02 0.  1.
       -2   -1    0    0    0  501  0.00000000000E+00  0.00000000000E+00 -0.11859855461E+04  0.11859855461E+04  0.25500000920E-02 0. -1.
    10030    2    1    2    0    0  0.00000000000E+00  0.00000000000E+00  0.52134435246E+03  0.28933154446E+04  0.28459575415E+04 0.  0.
        2    1    3    3  502    0 -0.56624022818E+03  0.11260675671E+04  0.93212635702E+03  0.15676465504E+04  0.25500000920E-02 0.  1.
       -2    1    3    3    0  502  0.56624022818E+03 -0.11260675671E+04 -0.41078200456E+03  0.13256688941E+04  0.25500000920E-02 0. -1.
</event>
<event>
 5   0  0.1580212E-06  0.2898525E+04  0.7818609E-02  0.8273316E-01
        1   -1    0    0  501    0  0.00000000000E+00  0.00000000000E+00  0.21375821650E+04  0.21375821650E+04  0.50400001928E-02 0. -1.
       -1   -1    0    0    0  501  0.00000000000E+00  0.00000000000E+00 -0.98258774386E+03  0.98258774387E+03  0.50400001928E-02 0.  1.
    10030    2    1    2    0    0  0.00000000000E+00  0.00000000000E+00  0.11549944211E+04  0.31201699089E+04  0.28985251676E+04 0.  0.
        4    1    3    3  502    0  0.62326088977E+03 -0.68987400427E+03 -0.61926237778E+03  0.11170800257E+04  0.12699999809E+01 0. -1.
       -4    1    3    3    0  502 -0.62326088977E+03  0.68987400427E+03  0.17742567989E+04  0.20030898831E+04  0.12699999809E+01 0.  1.
</event>
<event>
 5   0  0.1580212E-06  0.2899941E+04  0.7818609E-02  0.8272895E-01
        1   -1    0    0  501    0  0.00000000000E+00  0.00000000000E+00  0.26824507138E+04  0.26824507138E+04  0.50400001928E-02 0. -1.
       -1   -1    0    0    0  501  0.00000000000E+00  0.00000000000E+00 -0.78376602564E+03  0.78376602566E+03  0.50400001928E-02 0.  1.
    10030    2    1    2    0    0  0.00000000000E+00  0.00000000000E+00  0.18986846881E+04  0.34662167394E+04  0.28999405063E+04 0.  0.
        4    1    3    3  502    0 -0.11136844021E+04  0.52920309838E+03  0.37432888463E+02  0.12335930046E+04  0.12699999809E+01 0.  1.
       -4    1    3    3    0  502  0.11136844021E+04 -0.52920309838E+03  0.18612517997E+04  0.22326237349E+04  0.12699999809E+01 0. -1.
</event>
<event>
 5   0  0.1580212E-06  0.2848958E+04  0.7818609E-02  0.8288228E-01
       -1   -1    0    0    0  501  0.00000000000E+00  0.00000000000E+00  0.12734507999E+04  0.12734507999E+04  0.50400001928E-02 0.  1.
        1   -1    0    0  501    0  0.00000000000E+00  0.00000000000E+00 -0.15934186993E+04  0.15934186993E+04  0.50400001928E-02 0. -1.
    10030    2    1    2    0    0  0.00000000000E+00  0.00000000000E+00 -0.31996789939E+03  0.28668694992E+04  0.28489579268E+04 0.  0.
        4    1    3    3  502    0  0.13474945159E+04  0.19968653082E+03 -0.57916323781E+03  0.14802188520E+04  0.12699999809E+01 0.  1.
       -4    1    3    3    0  502 -0.13474945159E+04 -0.19968653082E+03  0.25919533842E+03  0.13866506472E+04  0.12699999809E+01 0. -1.
</event>
<event>
 5   0  0.4224163E-06  0.2919966E+04  0.7818609E-02  0.8266962E-01
        2   -1    0    0  501    0  0.00000000000E+00  0.00000000000E+00  0.20978761196E+04  0.20978761196E+04  0.25500000920E-02 0.  1.
       -2   -1    0    0    0  501  0.00000000000E+00  0.00000000000E+00 -0.10160512417E+04  0.10160512417E+04  0.25500000920E-02 0. -1.
    10030    2    1    2    0    0  0.00000000000E+00  0.00000000000E+00  0.10818248779E+04  0.31139273613E+04  0.29199655041E+04 0.  0.
        4    1    3    3  502    0  0.11025940723E+04  0.82601286167E+03  0.25554836956E+02  0.13779207519E+04  0.12699999809E+01 0. -1.
       -4    1    3    3    0  502 -0.11025940723E+04 -0.82601286167E+03  0.10562700409E+04  0.17360066095E+04  0.12699999809E+01 0.  1.
</event>
<event>
 5   0  0.1360125E-06  0.2899370E+04  0.7818609E-02  0.8273065E-01
        3   -1    0    0  501    0  0.00000000000E+00  0.00000000000E+00  0.17103577744E+04  0.17103577774E+04  0.10100000352E+00 0.  1.
       -3   -1    0    0    0  501  0.00000000000E+00  0.00000000000E+00 -0.12287405583E+04  0.12287405625E+04  0.10100000352E+00 0. -1.
    10030    2    1    2    0    0  0.00000000000E+00  0.00000000000E+00  0.48161721611E+03  0.29390983399E+04  0.28993695709E+04 0.  0.
        5    1    3    3  502    0 -0.19739692633E+03  0.12982758772E+04  0.86328973499E+03  0.15715524351E+04  0.46999998093E+01 0.  1.
       -5    1    3    3    0  502  0.19739692633E+03 -0.12982758772E+04 -0.38167251888E+03  0.13675459047E+04  0.46999998093E+01 0. -1.
</event>
<event>
 5   0  0.4148677E-06  0.2908743E+04  0.7818609E-02  0.8270281E-01
        2   -1    0    0  501    0  0.00000000000E+00  0.00000000000E+00  0.17713139385E+04  0.17713139385E+04  0.25500000920E-02 0.  1.
       -2   -1    0    0    0  501  0.00000000000E+00  0.00000000000E+00 -0.11941395922E+04  0.11941395922E+04  0.25500000920E-02 0. -1.
    10030    2    1    2    0    0  0.00000000000E+00  0.00000000000E+00  0.57717434631E+03  0.29654535306E+04  0.29087427553E+04 0.  0.
        5    1    3    3  502    0 -0.10148952536E+04  0.55586505604E+03 -0.60959787896E+03  0.13079105475E+04  0.46999998093E+01 0. -1.
       -5    1    3    3    0  502  0.10148952536E+04 -0.55586505604E+03  0.11867722253E+04  0.16575429831E+04  0.46999998093E+01 0.  1.
</event>
<event>
 5   0  0.4148677E-06  0.2880846E+04  0.7818609E-02  0.8278599E-01
        2   -1    0    0  501    0  0.00000000000E+00  0.00000000000E+00  0.17915094074E+04  0.17915094074E+04  0.25500000920E-02 0. -1.
       -2   -1    0    0    0  501  0.00000000000E+00  0.00000000000E+00 -0.11581395206E+04  0.11581395206E+04  0.25500000920E-02 0.  1.
    10030    2    1    2    0    0  0.00000000000E+00  0.00000000000E+00  0.63336988678E+03  0.29496489280E+04  0.28808456025E+04 0.  0.
        5    1    3    3  502    0 -0.60079564425E+03 -0.30950258992E+03 -0.98572023020E+03  0.11951626339E+04  0.46999998093E+01 0.  1.
       -5    1    3    3    0  502  0.60079564425E+03  0.30950258992E+03  0.16190901170E+04  0.17544862941E+04  0.46999998093E+01 0. -1.
</event>
<event>
 5   0  0.4224163E-06  0.2941611E+04  0.7818609E-02  0.8260603E-01
       -2   -1    0    0    0  501  0.00000000000E+00  0.00000000000E+00  0.10590136889E+04  0.10590136889E+04  0.25500000920E-02 0. -1.
        2   -1    0    0  501    0  0.00000000000E+00  0.00000000000E+00 -0.20427209377E+04  0.20427209378E+04  0.25500000920E-02 0.  1.
    10030    2    1    2    0    0  0.00000000000E+00  0.00000000000E+00 -0.98370724885E+03  0.31017346267E+04  0.29416114194E+04 0.  0.
        4    1    3    3  502    0  0.42820099189E+03 -0.11539302554E+04 -0.13408900773E+04  0.18201370652E+04  0.12699999809E+01 0.  1.
       -4    1    3    3    0  502 -0.42820099189E+03  0.11539302554E+04  0.35718282847E+03  0.12815975615E+04  0.12699999809E+01 0. -1.
</event>
<event>
 5   0  0.1602873E-06  0.2907222E+04  0.7818609E-02  0.8270732E-01
       -1   -1    0    0    0  501  0.00000000000E+00  0.00000000000E+00  0.12739829232E+04  0.12739829232E+04  0.50400001928E-02 0. -1.
        1   -1    0    0  501    0  0.00000000000E+00  0.00000000000E+00 -0.16585665382E+04  0.16585665382E+04  0.50400001928E-02 0.  1.
    10030    2    1    2    0    0  0.00000000000E+00  0.00000000000E+00 -0.38458361497E+03  0.29325494614E+04  0.29072223490E+04 0.  0.
        1    1    3    3  502    0 -0.16894022313E+03 -0.63823446251E+01 -0.16486159097E+04  0.16572615820E+04  0.50400001928E-02 0.  1.
       -1    1    3    3    0  502  0.16894022313E+03  0.63823446251E+01  0.12640322947E+04  0.12752878794E+04  0.50400001928E-02 0. -1.
</event>
<event>
 5   0  0.1550278E-06  0.2881393E+04  0.7818609E-02  0.8278435E-01
        1   -1    0    0  501    0  0.00000000000E+00  0.00000000000E+00  0.18028224840E+04  0.18028224840E+04  0.50400001928E-02 0. -1.
       -1   -1    0    0    0  501  0.00000000000E+00  0.00000000000E+00 -0.11513093125E+04  0.11513093125E+04  0.50400001928E-02 0.  1.
    10030    2    1    2    0    0  0.00000000000E+00  0.00000000000E+00  0.65151317148E+03  0.29541317965E+04  0.28813929372E+04 0.  0.
        2    1    3    3  502    0 -0.11761924639E+04  0.33656642363E+03  0.11058190786E+04  0.16491032424E+04  0.25500000920E-02 0. -1.
       -2    1    3    3    0  502  0.11761924639E+04 -0.33656642363E+03 -0.45430590716E+03  0.13050285540E+04  0.25500000920E-02 0.  1.
</event>
<event>
 5   0  0.4162450E-06  0.2908384E+04  0.7818609E-02  0.8270387E-01
        2   -1    0    0  501    0  0.00000000000E+00  0.00000000000E+00  0.15048166685E+04  0.15048166685E+04  0.25500000920E-02 0. -1.
       -2   -1    0    0    0  501  0.00000000000E+00  0.00000000000E+00 -0.14052706256E+04  0.14052706256E+04  0.25500000920E-02 0.  1.
    10030    2    1    2    0    0  0.00000000000E+00  0.00000000000E+00  0.99546042872E+02  0.29100872942E+04  0.29083841983E+04 0.  0.
        2    1    3    3  502    0  0.48455257407E+03  0.14805834607E+03 -0.13140960353E+04  0.14083894564E+04  0.25500000920E-02 0.  1.
       -2    1    3    3    0  502 -0.48455257407E+03 -0.14805834607E+03  0.14136420782E+04  0.15016978378E+04  0.25500000920E-02 0. -1.
</event>
<event>
 5   0  0.1550278E-06  0.2897929E+04  0.7818609E-02  0.8273494E-01
        1   -1    0    0  501    0  0.00000000000E+00  0.00000000000E+00  0.23796808520E+04  0.23796808520E+04  0.50400001928E-02 0. -1.
       -1   -1    0    0    0  501  0.00000000000E+00  0.00000000000E+00 -0.88226016086E+03  0.88226016087E+03  0.50400001928E-02 0.  1.
    10030    2    1    2    0    0  0.00000000000E+00  0.00000000000E+00  0.14974206911E+04  0.32619410128E+04  0.28979286473E+04 0.  0.
        2    1    3    3  502    0  0.10716881477E+04 -0.95551418036E+03  0.52936115875E+03  0.15302764689E+04  0.25500000920E-02 0.  1.
       -2    1    3    3    0  502 -0.10716881477E+04  0.95551418036E+03  0.96805953236E+03  0.17316645440E+04  0.25500000920E-02 0. -1.
</event>
<event>
 5   0  0.4187518E-06  0.2908351E+04  0.7818609E-02  0.8270397E-01
        2   -1    0    0  501    0  0.00000000000E+00  0.00000000000E+00  0.26293524222E+04  0.26293524222E+04  0.25500000920E-02 0. -1.
       -2   -1    0    0    0  501  0.00000000000E+00  0.00000000000E+00 -0.80423848461E+03  0.80423848461E+03  0.25500000920E-02 0.  1.
    10030    2    1    2    0    0  0.00000000000E+00  0.00000000000E+00  0.18251139376E+04  0.34335909069E+04  0.29083510157E+04 0.  0.
        3    1    3    3  502    0  0.34311563458E+02  0.14443575735E+04  0.71756065162E+03  0.16131458033E+04  0.10100000352E+00 0.  1.
       -3    1    3    3    0  502 -0.34311563458E+02 -0.14443575735E+04  0.11075532860E+04  0.18204451036E+04  0.10100000352E+00 0. -1.
</event>
<event>
 5   0  0.4148677E-06  0.2870427E+04  0.7818609E-02  0.8281731E-01
        2   -1    0    0  501    0  0.00000000000E+00  0.00000000000E+00  0.23037228830E+04  0.23037228830E+04  0.25500000920E-02 0. -1.
       -2   -1    0    0    0  501  0.00000000000E+00  0.00000000000E+00 -0.89413424877E+03  0.89413424877E+03  0.25500000920E-02 0.  1.
    10030    2    1    2    0    0  0.00000000000E+00  0.00000000000E+00  0.14095886342E+04  0.31978571317E+04  0.28704268180E+04 0.  0.
        5    1    3    3  502    0 -0.26948096023E+03 -0.12363624469E+04 -0.49656946609E+02  0.12663727691E+04  0.46999998093E+01 0.  1.
       -5    1    3    3    0  502  0.26948096023E+03  0.12363624469E+04  0.14592455808E+04  0.19314843626E+04  0.46999998093E+01 0. -1.
</event>
<event>
 5   0  0.1511126E-06  0.2886085E+04  0.7818609E-02  0.8277030E-01
       -1   -1    0    0    0  501  0.00000000000E+00  0.00000000000E+00  0.10803425007E+04  0.10803425007E+04  0.50400001928E-02 0. -1.
        1   -1    0    0  501    0  0.00000000000E+00  0.00000000000E+00 -0.19275103448E+04  0.19275103448E+04  0.50400001928E-02 0.  1.
    10030    2    1    2    0    0  0.00000000000E+00  0.00000000000E+00 -0.84716784414E+03  0.30078528456E+04  0.28860847847E+04 0.  0.
        5    1    3    3  502    0 -0.15802481837E+03 -0.11037895221E+04 -0.13782142696E+04  0.17727999931E+04  0.46999998093E+01 0. -1.
       -5    1    3    3    0  502  0.15802481837E+03  0.11037895221E+04  0.53104642548E+03  0.12350528525E+04  0.46999998093E+01 0.  1.
</event>
<event>
 5   0  0.1543678E-06  0.2814616E+04  0.7818609E-02  0.8298745E-01
       -1   -1    0    0    0  501  0.00000000000E+00  0.00000000000E+00  0.11739775047E+04  0.11739775047E+04  0.50400001928E-02 0. -1.
        1   -1    0    0  501    0  0.00000000000E+00  0.00000000000E+00 -0.16870136790E+04  0.16870136790E+04  0.50400001928E-02 0.  1.
    10030    2    1    2    0    0  0.00000000000E+00  0.00000000000E+00 -0.51303617432E+03  0.28609911838E+04  0.28146162149E+04 0.  0.
        3    1    3    3  502    0  0.68278265630E+03 -0.92572728274E+02  0.99079184516E+03  0.12068265643E+04  0.10100000352E+00 0. -1.
       -3    1    3    3    0  502 -0.68278265630E+03  0.92572728274E+02 -0.15038280195E+04  0.16541646194E+04  0.10100000352E+00 0.  1.
</event>
<event>
 5   0  0.4187518E-06  0.2864312E+04  0.7818609E-02  0.8283575E-01
       -2   -1    0    0    0  501  0.00000000000E+00  0.00000000000E+00  0.79779412849E+03  0.79779412849E+03  0.25500000920E-02 0.  1.
        2   -1    0    0  501    0  0.00000000000E+00  0.00000000000E+00 -0.25709283213E+04  0.25709283213E+04  0.25500000920E-02 0. -1.
    10030    2    1    2    0    0  0.00000000000E+00  0.00000000000E+00 -0.17731341928E+04  0.33687224498E+04  0.28643124965E+04 0.  0.
        3    1    3    3  502    0  0.15804623093E+03 -0.81901399533E+03  0.48262375915E+03  0.96368471958E+03  0.10100000352E+00 0.  1.
       -3    1    3    3    0  502 -0.15804623093E+03  0.81901399533E+03 -0.22557579519E+04  0.24050377302E+04  0.10100000352E+00 0. -1.
</event>
<event>
 5   0  0.4115143E-06  0.2777952E+04  0.7818609E-02  0.8310146E-01
       -2   -1    0    0    0  501  0.00000000000E+00  0.00000000000E+00  0.63429233499E+03  0.63429233500E+03  0.25500000920E-02 0.  1.
        2   -1    0    0  501    0  0.00000000000E+00  0.00000000000E+00 -0.30415851893E+04  0.30415851893E+04  0.25500000920E-02 0. -1.
    10030    2    1    2    0    0  0.00000000000E+00  0.00000000000E+00 -0.24072928543E+04  0.36758775243E+04  0.27779518871E+04 0.  0.
        1    1    3    3  502    0 -0.94778240800E+03  0.21660730210E+02 -0.25469028929E+04  0.27176230471E+04  0.50400001928E-02 0. -1.
       -1    1    3    3    0  502  0.94778240800E+03 -0.21660730210E+02  0.13961003861E+03  0.95825447719E+03  0.50400001928E-02 0.  1.
</event>
<event>
 5   0  0.4115143E-06  0.2880164E+04  0.7818609E-02  0.8278804E-01
        2   -1    0    0  501    0  0.00000000000E+00  0.00000000000E+00  0.17211426239E+04  0.17211426239E+04  0.25500000920E-02 0. -1.
       -2   -1    0    0    0  501  0.00000000000E+00  0.00000000000E+00 -0.12049181820E+04  0.12049181820E+04  0.25500000920E-02 0.  1.
    10030    2    1    2    0    0  0.00000000000E+00  0.00000000000E+00  0.51622444191E+03  0.29260608058E+04  0.28801639129E+04 0.  0.
        1    1    3    3  502    0 -0.11914258184E+04  0.12877471179E+02 -0.56358728263E+03  0.13180637068E+04  0.50400001928E-02 0.  1.
       -1    1    3    3    0  502  0.11914258184E+04 -0.12877471179E+02  0.10798117245E+04  0.16079970990E+04  0.50400001928E-02 0. -1.
</event>
<event>
 5   0  0.4162450E-06  0.2894697E+04  0.7818609E-02  0.8274457E-01
        2   -1    0    0  501    0  0.00000000000E+00  0.00000000000E+00  0.26503615882E+04  0.26503615882E+04  0.25500000920E-02 0.  1.
       -2   -1    0    0    0  501  0.00000000000E+00  0.00000000000E+00 -0.79038921871E+03  0.79038921871E+03  0.25500000920E-02 0. -1.
    10030    2    1    2    0    0  0.00000000000E+00  0.00000000000E+00  0.18599723695E+04  0.34407508069E+04  0.28946966853E+04 0.  0.
        2    1    3    3  502    0 -0.12233975476E+04  0.63518704353E+03  0.14544080638E+04  0.20038630083E+04  0.25500000920E-02 0.  1.
       -2    1    3    3    0  502  0.12233975476E+04 -0.63518704353E+03  0.40556430567E+03  0.14368877986E+04  0.25500000920E-02 0. -1.
</event>
<event>
 5   0  0.1602873E-06  0.2930751E+04  0.7818609E-02  0.8263786E-01
        1   -1    0    0  501    0  0.00000000000E+00  0.00000000000E+00  0.16362887377E+04  0.16362887377E+04  0.50400001928E-02 0.  1.
       -1   -1    0    0    0  501  0.00000000000E+00  0.00000000000E+00 -0.13123145422E+04  0.13123145422E+04  0.50400001928E-02 0. -1.
    10030    2    1    2    0    0  0.00000000000E+00  0.00000000000E+00  0.32397419553E+03  0.29486032799E+04  0.29307511022E+04 0.  0.
        1    1    3    3  502    0 -0.61241340724E+03 -0.37135972847E+03 -0.11242239524E+04  0.13329807668E+04  0.50400001928E-02 0. -1.
       -1    1    3    3    0  502  0.61241340724E+03  0.37135972847E+03  0.14481981480E+04  0.16156225132E+04  0.50400001928E-02 0.  1.
</event>
<event>
 5   0  0.4115143E-06  0.2895633E+04  0.7818609E-02  0.8274178E-01
        2   -1    0    0  501    0  0.00000000000E+00  0.00000000000E+00  0.12078984235E+04  0.12078984235E+04  0.25500000920E-02 0. -1.
       -2   -1    0    0    0  501  0.00000000000E+00  0.00000000000E+00 -0.17353876435E+04  0.17353876435E+04  0.25500000920E-02 0.  1.
    10030    2    1    2    0    0  0.00000000000E+00  0.00000000000E+00 -0.52748921997E+03  0.29432860670E+04  0.28956325725E+04 0.  0.
        1    1    3    3  502    0 -0.54192209029E+03 -0.54777753229E+03  0.98216479969E+03  0.12483539044E+04  0.50400001928E-02 0. -1.
       -1    1    3    3    0  502  0.54192209029E+03  0.54777753229E+03 -0.15096540197E+04  0.16949321626E+04  0.50400001928E-02 0.  1.
</event>
<event>
 5   0  0.4224163E-06  0.3217999E+04  0.7818609E-02  0.8184080E-01
       -2   -1    0    0    0  501  0.00000000000E+00  0.00000000000E+00  0.90873968876E+03  0.90873968876E+03  0.25500000920E-02 0.  1.
        2   -1    0    0  501    0  0.00000000000E+00  0.00000000000E+00 -0.28488677696E+04  0.28488677696E+04  0.25500000920E-02 0. -1.
    10030    2    1    2    0    0  0.00000000000E+00  0.00000000000E+00 -0.19401280809E+04  0.37576074584E+04  0.32179988877E+04 0.  0.
        4    1    3    3  502    0 -0.45166838329E+03 -0.98237920212E+03 -0.23614248748E+04  0.25971912285E+04  0.12699999809E+01 0. -1.
       -4    1    3    3    0  502  0.45166838329E+03  0.98237920212E+03  0.42129679389E+03  0.11604162299E+04  0.12699999809E+01 0.  1.
</event>
<event>
 5   0  0.4187518E-06  0.2900397E+04  0.7818609E-02  0.8272759E-01
       -2   -1    0    0    0  501  0.00000000000E+00  0.00000000000E+00  0.12503595111E+04  0.12503595111E+04  0.25500000920E-02 0.  1.
        2   -1    0    0  501    0  0.00000000000E+00  0.00000000000E+00 -0.16819768567E+04  0.16819768567E+04  0.25500000920E-02 0. -1.
    10030    2    1    2    0    0  0.00000000000E+00  0.00000000000E+00 -0.43161734560E+03  0.29323363678E+04  0.29003970488E+04 0.  0.
        3    1    3    3  502    0  0.71924093241E+03  0.20438438042E+03  0.10404506941E+04  0.12812564735E+04  0.10100000352E+00 0.  1.
       -3    1    3    3    0  502 -0.71924093241E+03 -0.20438438042E+03 -0.14720680397E+04  0.16510798943E+04  0.10100000352E+00 0. -1.
</event>
<event>
 5   0  0.1511126E-06  0.2906612E+04  0.7818609E-02  0.8270913E-01
       -1   -1    0    0    0  501  0.00000000000E+00  0.00000000000E+00  0.18948439842E+04  0.18948439842E+04  0.50400001928E-02 0.  1.
        1   -1    0    0  501    0  0.00000000000E+00  0.00000000000E+00 -0.11146555344E+04  0.11146555344E+04  0.50400001928E-02 0. -1.
    10030    2    1    2    0    0  0.00000000000E+00  0.00000000000E+00  0.78018844979E+03  0.30094995187E+04  0.29066120030E+04 0.  0.
        5    1    3    3  502    0  0.84960373253E+03 -0.11144740161E+04 -0.84968050503E+01  0.14014182533E+04  0.46999998093E+01 0. -1.
       -5    1    3    3    0  502 -0.84960373253E+03  0.11144740161E+04  0.78868525484E+03  0.16080812654E+04  0.46999998093E+01 0.  1.
</event>
<event>
 5   0  0.1550278E-06  0.2885634E+04  0.7818609E-02  0.8277165E-01
       -1   -1    0    0    0  501  0.00000000000E+00  0.00000000000E+00  0.94622197986E+03  0.94622197987E+03  0.50400001928E-02 0.  1.
        1   -1    0    0  501    0  0.00000000000E+00  0.00000000000E+00 -0.22000348740E+04  0.22000348740E+04  0.50400001928E-02 0. -1.
    10030    2    1    2    0    0  0.00000000000E+00  0.00000000000E+00 -0.12538128942E+04  0.31462568539E+04  0.28856343180E+04 0.  0.
        2    1    3    3  502    0 -0.97360386879E+03  0.99137854940E+03 -0.20324357660E+03  0.14042947956E+04  0.25500000920E-02 0.  1.
       -2    1    3    3    0  502  0.97360386879E+03 -0.99137854940E+03 -0.10505693176E+04  0.17419620583E+04  0.25500000920E-02 0. -1.
</event>
<event>
 5   0  0.4115143E-06  0.2919146E+04  0.7818609E-02  0.8267204E-01
        2   -1    0    0  501    0  0.00000000000E+00  0.00000000000E+00  0.16596798664E+04  0.16596798664E+04  0.25500000920E-02 0.  1.
       -2   -1    0    0    0  501  0.00000000000E+00  0.00000000000E+00 -0.12835927598E+04  0.12835927598E+04  0.25500000920E-02 0. -1.
    10030    2    1    2    0    0  0.00000000000E+00  0.00000000000E+00  0.37608710657E+03  0.29432726263E+04  0.29191458067E+04 0.  0.
        1    1    3    3  502    0 -0.33266850143E+03  0.11860628935E+03  0.16159466467E+04  0.16540916990E+04  0.50400001928E-02 0.  1.
       -1    1    3    3    0  502  0.33266850143E+03 -0.11860628935E+03 -0.12398595402E+04  0.12891809272E+04  0.50400001928E-02 0. -1.
</event>
<event>
 5   0  0.4224163E-06  0.2887162E+04  0.7818609E-02  0.8276707E-01
       -2   -1    0    0    0  501  0.00000000000E+00  0.00000000000E+00  0.21062114765E+04  0.21062114765E+04  0.25500000920E-02 0.  1.
        2   -1    0    0  501    0  0.00000000000E+00  0.00000000000E+00 -0.98941903918E+03  0.98941903918E+03  0.25500000920E-02 0. -1.
    10030    2    1    2    0    0  0.00000000000E+00  0.00000000000E+00  0.11167924373E+04  0.30956305157E+04  0.28871617450E+04 0.  0.
        4    1    3    3  502    0 -0.36783254960E+03  0.13779582329E+04  0.31899301750E+03  0.14614471712E+04  0.12699999809E+01 0.  1.
       -4    1    3    3    0  502  0.36783254960E+03 -0.13779582329E+04  0.79779941982E+03  0.16341833445E+04  0.12699999809E+01 0. -1.
</event>
<event>
 5   0  0.4187518E-06  0.2901922E+04  0.7818609E-02  0.8272306E-01
        2   -1    0    0  501    0  0.00000000000E+00  0.00000000000E+00  0.12322386289E+04  0.12322386289E+04  0.25500000920E-02 0. -1.
       -2   -1    0    0    0  501  0.00000000000E+00  0.00000000000E+00 -0.17085066406E+04  0.17085066406E+04  0.25500000920E-02 0.  1.
    10030    2    1    2    0    0  0.00000000000E+00  0.00000000000E+00 -0.47626801171E+03  0.29407452695E+04  0.29019220391E+04 0.  0.
        3    1    3    3  502    0 -0.48525898659E+03  0.10152395904E+04  0.69014508490E+03  0.13200333172E+04  0.10100000352E+00 0. -1.
       -3    1    3    3    0  502  0.48525898659E+03 -0.10152395904E+04 -0.11664130966E+04  0.16207119523E+04  0.10100000352E+00 0.  1.
</event>
<event>
 5   0  0.1543678E-06  0.2929090E+04  0.7818609E-02  0.8264274E-01
       -1   -1    0    0    0  501  0.00000000000E+00  0.00000000000E+00  0.15840794964E+04  0.15840794964E+04  0.50400001928E-02 0.  1.
        1   -1    0    0  501    0  0.00000000000E+00  0.00000000000E+00 -0.13540309405E+04  0.13540309405E+04  0.50400001928E-02 0. -1.
    10030    2    1    2    0    0  0.00000000000E+00  0.00000000000E+00  0.23004855592E+03  0.29381104369E+04  0.29290904051E+04 0.  0.
        3    1    3    3  502    0 -0.11276935141E+03 -0.38593919743E+03  0.15276317999E+04  0.15796597473E+04  0.10100000352E+00 0.  1.
       -3    1    3    3    0  502  0.11276935141E+03  0.38593919743E+03 -0.12975832440E+04  0.13584506896E+04  0.10100000352E+00 0. -1.
</event>
<event>
 5   0  0.4162450E-06  0.3147857E+04  0.7818609E-02  0.8202725E-01
       -2   -1    0    0    0  501  0.00000000000E+00  0.00000000000E+00  0.85410148513E+03  0.85410148513E+03  0.25500000920E-02 0. -1.
        2   -1    0    0  501    0  0.00000000000E+00  0.00000000000E+00 -0.29004184517E+04  0.29004184517E+04  0.25500000920E-02 0.  1.
    10030    2    1    2    0    0  0.00000000000E+00  0.00000000000E+00 -0.20463169666E+04  0.37545199369E+04  0.31478574981E+04 0.  0.
        2    1    3    3  502    0 -0.96418152239E+02  0.88599350997E+03 -0.25704695604E+04  0.27205872014E+04  0.25500000920E-02 0.  1.
       -2    1    3    3    0  502  0.96418152239E+02 -0.88599350997E+03  0.52415259379E+03  0.10339327354E+04  0.25500000920E-02 0. -1.
</event>
<event>
 5   0  0.1602873E-06  0.2863486E+04  0.7818609E-02  0.8283825E-01
       -1   -1    0    0    0  501  0.00000000000E+00  0.00000000000E+00  0.99679276174E+03  0.99679276175E+03  0.50400001928E-02 0.  1.
        1   -1    0    0  501    0  0.00000000000E+00  0.00000000000E+00 -0.20564842796E+04  0.20564842796E+04  0.50400001928E-02 0. -1.
    10030    2    1    2    0    0  0.00000000000E+00  0.00000000000E+00 -0.10596915179E+04  0.30532770414E+04  0.28634864376E+04 0.  0.
        1    1    3    3  502    0 -0.33504092105E+03  0.34012855485E+03 -0.19691054581E+04  0.20261579795E+04  0.50400001928E-02 0. -1.
       -1    1    3    3    0  502  0.33504092105E+03 -0.34012855485E+03  0.90941394023E+03  0.10271190619E+04  0.50400001928E-02 0.  1.
</event>
<event>
 5   0  0.1550278E-06  0.2901791E+04  0.7818609E-02  0.8272345E-01
        1   -1    0    0  501    0  0.00000000000E+00  0.00000000000E+00  0.15785462250E+04  0.15785462250E+04  0.50400001928E-02 0. -1.
       -1   -1    0    0    0  501  0.00000000000E+00  0.00000000000E+00 -0.13335673305E+04  0.13335673305E+04  0.50400001928E-02 0.  1.
    10030    2    1    2    0    0  0.00000000000E+00  0.00000000000E+00  0.24497889451E+03  0.29121135556E+04  0.29017909473E+04 0.  0.
        2    1    3    3  502    0 -0.70807088922E+03 -0.11377760187E+04  0.68052419255E+03  0.15030009413E+04  0.25500000920E-02 0.  1.
       -2    1    3    3    0  502  0.70807088922E+03  0.11377760187E+04 -0.43554529804E+03  0.14091126142E+04  0.25500000920E-02 0. -1.
</event>
<event>
 5   0  0.4148677E-06  0.2901731E+04  0.7818609E-02  0.8272363E-01
        2   -1    0    0  501    0  0.00000000000E+00  0.00000000000E+00  0.25534023691E+04  0.25534023691E+04  0.25500000920E-02 0.  1.
       -2   -1    0    0    0  501  0.00000000000E+00  0.00000000000E+00 -0.82439424314E+03  0.82439424315E+03  0.25500000920E-02 0. -1.
    10030    2    1    2    0    0  0.00000000000E+00  0.00000000000E+00  0.17290081260E+04  0.33777966123E+04  0.29017306654E+04 0.  0.
        5    1    3    3  502    0  0.43198481263E+03 -0.12817009783E+04  0.25337682528E+03  0.13760778254E+04  0.46999998093E+01 0. -1.
       -5    1    3    3    0  502 -0.43198481263E+03  0.12817009783E+04  0.14756313007E+04  0.20017187869E+04  0.46999998093E+01 0.  1.
</event>
<event>
 5   0  0.1602873E-06  0.2892035E+04  0.7818609E-02  0.8275251E-01
       -1   -1    0    0    0  501  0.00000000000E+00  0.00000000000E+00  0.10051327791E+04  0.10051327791E+04  0.50400001928E-02 0. -1.
        1   -1    0    0  501    0  0.00000000000E+00  0.00000000000E+00 -0.20802895541E+04  0.20802895541E+04  0.50400001928E-02 0.  1.
    10030    2    1    2    0    0  0.00000000000E+00  0.00000000000E+00 -0.10751567750E+04  0.30854223332E+04  0.28920354223E+04 0.  0.
        1    1    3    3  502    0 -0.31316372998E+03  0.14112138267E+04 -0.49807204271E+03  0.15289446512E+04  0.50400001928E-02 0. -1.
       -1    1    3    3    0  502  0.31316372998E+03 -0.14112138267E+04 -0.57708473227E+03  0.15564776821E+04  0.50400001928E-02 0.  1.
</event>
<event>
 5   0  0.4224163E-06  0.2899707E+04  0.7818609E-02  0.8272965E-01
       -2   -1    0    0    0  501  0.00000000000E+00  0.00000000000E+00  0.14550727996E+04  0.14550727996E+04  0.25500000920E-02 0.  1.
        2   -1    0    0  501    0  0.00000000000E+00  0.00000000000E+00 -0.14446532537E+04  0.14446532537E+04  0.25500000920E-02 0. -1.
    10030    2    1    2    0    0  0.00000000000E+00  0.00000000000E+00  0.10419545865E+02  0.28997260533E+04  0.28997073330E+04 0.  0.
        4    1    3    3  502    0  0.40372445817E+03  0.39729254790E+03 -0.13294295917E+04  0.14450672853E+04  0.12699999809E+01 0. -1.
       -4    1    3    3    0  502 -0.40372445817E+03 -0.39729254790E+03  0.13398491376E+04  0.14546587680E+04  0.12699999809E+01 0.  1.
</event>
<event>
 5   0  0.4187518E-06  0.2900768E+04  0.7818609E-02  0.8272649E-01
       -2   -1    0    0    0  501  0.00000000000E+00  0.00000000000E+00  0.75861695382E+03  0.75861695382E+03  0.25500000920E-02 0.  1.
        2   -1    0    0  501    0  0.00000000000E+00  0.00000000000E+00 -0.27729582719E+04  0.27729582719E+04  0.25500000920E-02 0. -1.
    10030    2    1    2    0    0  0.00000000000E+00  0.00000000000E+00 -0.20143413180E+04  0.35315752257E+04  0.29007675931E+04 0.  0.
        3    1    3    3  502    0  0.11849618907E+04  0.30568121673E+03 -0.19549456848E+04  0.23063799187E+04  0.10100000352E+00 0. -1.
       -3    1    3    3    0  502 -0.11849618907E+04 -0.30568121673E+03 -0.59395633231E+02  0.12251953070E+04  0.10100000352E+00 0.  1.
</event>
<event>
 5   0  0.4148677E-06  0.2981809E+04  0.7818609E-02  0.8248945E-01
        2   -1    0    0  501    0  0.00000000000E+00  0.00000000000E+00  0.11395739300E+04  0.11395739300E+04  0.25500000920E-02 0.  1.
       -2   -1    0    0    0  501  0.00000000000E+00  0.00000000000E+00 -0.19505497265E+04  0.19505497265E+04  0.25500000920E-02 0. -1.
    10030    2    1    2    0    0  0.00000000000E+00  0.00000000000E+00 -0.81097579649E+03  0.30901236565E+04  0.29818085904E+04 0.  0.
        5    1    3    3  502    0 -0.14698190644E+03  0.14564810124E+04 -0.69829868364E+03  0.16219074455E+04  0.46999998093E+01 0. -1.
       -5    1    3    3    0  502  0.14698190644E+03 -0.14564810124E+04 -0.11267711285E+03  0.14682162110E+04  0.46999998093E+01 0.  1.
</event>
<event>
 5   0  0.1511126E-06  0.2872265E+04  0.7818609E-02  0.8281178E-01
       -1   -1    0    0    0  501  0.00000000000E+00  0.00000000000E+00  0.17399613260E+04  0.17399613260E+04  0.50400001928E-02 0. -1.
        1   -1    0    0  501    0  0.00000000000E+00  0.00000000000E+00 -0.11853575519E+04  0.11853575519E+04  0.50400001928E-02 0.  1.
    10030    2    1    2    0    0  0.00000000000E+00  0.00000000000E+00  0.55460377416E+03  0.29253188779E+04  0.28722648191E+04 0.  0.
        5    1    3    3  502    0 -0.10347967878E+04  0.92967440458E+03 -0.86158660055E+02  0.13937518772E+04  0.46999998093E+01 0. -1.
       -5    1    3    3    0  502  0.10347967878E+04 -0.92967440458E+03  0.64076243421E+03  0.15315670007E+04  0.46999998093E+01 0.  1.
</event>
<event>
 5   0  0.4162450E-06  0.2903038E+04  0.7818609E-02  0.8271974E-01
       -2   -1    0    0    0  501  0.00000000000E+00  0.00000000000E+00  0.90573881748E+03  0.90573881748E+03  0.25500000920E-02 0. -1.
        2   -1    0    0  501    0  0.00000000000E+00  0.00000000000E+00 -0.23261749549E+04  0.23261749549E+04  0.25500000920E-02 0.  1.
    10030    2    1    2    0    0  0.00000000000E+00  0.00000000000E+00 -0.14204361375E+04  0.32319137724E+04  0.29030376869E+04 0.  0.
        2    1    3    3  502    0 -0.76104595549E+03 -0.23085189701E+03  0.64159985370E+03  0.10218287122E+04  0.25500000920E-02 0. -1.
       -2    1    3    3    0  502  0.76104595549E+03  0.23085189701E+03 -0.20620359912E+04  0.22100850603E+04  0.25500000920E-02 0.  1.
</event>
<event>
 5   0  0.4224163E-06  0.2886319E+04  0.7818609E-02  0.8276960E-01
       -2   -1    0    0    0  501  0.00000000000E+00  0.00000000000E+00  0.12752453927E+04  0.12752453927E+04  0.25500000920E-02 0. -1.
        2   -1    0    0  501    0  0.00000000000E+00  0.00000000000E+00 -0.16331836032E+04  0.16331836032E+04  0.25500000920E-02 0.  1.
    10030    2    1    2    0    0  0.00000000000E+00  0.00000000000E+00 -0.35793821053E+03  0.29084289959E+04  0.28863193624E+04 0.  0.
        4    1    3    3  502    0 -0.10113897508E+04  0.92180710006E+03 -0.64081471431E+03  0.15110534963E+04  0.12699999809E+01 0.  1.
       -4    1    3    3    0  502  0.10113897508E+04 -0.92180710006E+03  0.28287650379E+03  0.13973754996E+04  0.12699999809E+01 0. -1.
</event>
<event>
 5   0  0.4224163E-06  0.2920704E+04  0.7818609E-02  0.8266744E-01
       -2   -1    0    0    0  501  0.00000000000E+00  0.00000000000E+00  0.10066038751E+04  0.10066038751E+04  0.25500000920E-02 0.  1.
        2   -1    0    0  501    0  0.00000000000E+00  0.00000000000E+00 -0.21186371716E+04  0.21186371716E+04  0.25500000920E-02 0. -1.
    10030    2    1    2    0    0  0.00000000000E+00  0.00000000000E+00 -0.11120332966E+04  0.31252410467E+04  0.29207042896E+04 0.  0.
        4    1    3    3  502    0 -0.37259272567E+03  0.12114720908E+04 -0.13321659551E+04  0.18387924600E+04  0.12699999809E+01 0. -1.
       -4    1    3    3    0  502  0.37259272567E+03 -0.12114720908E+04  0.22013265852E+03  0.12864485867E+04  0.12699999809E+01 0.  1.
</event>
<event>
 5   0  0.1580212E-06  0.2855341E+04  0.7818609E-02  0.8286290E-01
       -1   -1    0    0    0  501  0.00000000000E+00  0.00000000000E+00  0.17063954026E+04  0.17063954026E+04  0.50400001928E-02 0. -1.
        1   -1    0    0  501    0  0.00000000000E+00  0.00000000000E+00 -0.11944731241E+04  0.11944731241E+04  0.50400001928E-02 0.  1.
    10030    2    1    2    0    0  0.00000000000E+00  0.00000000000E+00  0.51192227855E+03  0.29008685267E+04  0.28553412738E+04 0.  0.
        4    1    3    3  502    0 -0.74385320700E+03  0.10491155672E+04  0.88574909066E+03  0.15615742478E+04  0.12699999809E+01 0. -1.
       -4    1    3    3    0  502  0.74385320700E+03 -0.10491155672E+04 -0.37382681211E+03  0.13392942788E+04  0.12699999809E+01 0.  1.
</event>
<event>
 5   0  0.1511126E-06  0.2929293E+04  0.7818609E-02  0.8264215E-01
        1   -1    0    0  501    0  0.00000000000E+00  0.00000000000E+00  0.20051220361E+04  0.20051220361E+04  0.50400001928E-02 0.  1.
       -1   -1    0    0    0  501  0.00000000000E+00  0.00000000000E+00 -0.10698549743E+04  0.10698549743E+04  0.50400001928E-02 0. -1.
    10030    2    1    2    0    0  0.00000000000E+00  0.00000000000E+00  0.93526706184E+03  0.30749770104E+04  0.29292932829E+04 0.  0.
        5    1    3    3  502    0 -0.43137709753E+03  0.32118022703E+03  0.18977097996E+04  0.19724521571E+04  0.46999998093E+01 0.  1.
       -5    1    3    3    0  502  0.43137709753E+03 -0.32118022703E+03 -0.96244273779E+03  0.11025248532E+04  0.46999998093E+01 0. -1.
</event>
<event>
 5   0  0.1602873E-06  0.3054694E+04  0.7818609E-02  0.8228283E-01
       -1   -1    0    0    0  501  0.00000000000E+00  0.00000000000E+00  0.10200611345E+04  0.10200611345E+04  0.50400001928E-02 0. -1.
        1   -1    0    0  501    0  0.00000000000E+00  0.00000000000E+00 -0.22869112424E+04  0.22869112424E+04  0.50400001928E-02 0.  1.
    10030    2    1    2    0    0  0.00000000000E+00  0.00000000000E+00 -0.12668501079E+04  0.33069723768E+04  0.30546942736E+04 0.  0.
        1    1    3    3  502    0 -0.26133673061E+02 -0.15189648700E+04 -0.46276033100E+03  0.15881071655E+04  0.50400001928E-02 0. -1.
       -1    1    3    3    0  502  0.26133673061E+02  0.15189648700E+04 -0.80408977687E+03  0.17188652113E+04  0.50400001928E-02 0.  1.
</event>
<event>
 5   0  0.1580212E-06  0.2891657E+04  0.7818609E-02  0.8275364E-01
        1   -1    0    0  501    0  0.00000000000E+00  0.00000000000E+00  0.16947067846E+04  0.16947067846E+04  0.50400001928E-02 0. -1.
       -1   -1    0    0    0  501  0.00000000000E+00  0.00000000000E+00 -0.12334996563E+04  0.12334996563E+04  0.50400001928E-02 0.  1.
    10030    2    1    2    0    0  0.00000000000E+00  0.00000000000E+00  0.46120712834E+03  0.29282064409E+04  0.28916571279E+04 0.  0.
        4    1    3    3  502    0 -0.56848141954E+03 -0.12540683050E+04  0.67726852111E+03  0.15344551804E+04  0.12699999809E+01 0. -1.
       -4    1    3    3    0  502  0.56848141954E+03  0.12540683050E+04 -0.21606139276E+03  0.13937512606E+04  0.12699999809E+01 0.  1.
</event>
<event>
 5   0  0.1602873E-06  0.2929244E+04  0.7818609E-02  0.8264229E-01
       -1   -1    0    0    0  501  0.00000000000E+00  0.00000000000E+00  0.18998254281E+04  0.18998254281E+04  0.50400001928E-02 0.  1.
        1   -1    0    0  501    0  0.00000000000E+00  0.00000000000E+00 -0.11291126248E+04  0.11291126248E+04  0.50400001928E-02 0. -1.
    10030    2    1    2    0    0  0.00000000000E+00  0.00000000000E+00  0.77071280324E+03  0.30289380529E+04  0.29292435036E+04 0.  0.
        1    1    3    3  502    0  0.54081763839E+03  0.43610512996E+03 -0.94788447599E+03  0.11752260983E+04  0.50400001928E-02 0. -1.
       -1    1    3    3    0  502 -0.54081763839E+03 -0.43610512996E+03  0.17185972792E+04  0.18537119546E+04  0.50400001928E-02 0.  1.
</event>
<event>
 5   0  0.4162450E-06  0.2903478E+04  0.7818609E-02  0.8271843E-01
       -2   -1    0    0    0  501  0.00000000000E+00  0.00000000000E+00  0.17031224631E+04  0.17031224631E+04  0.25500000920E-02 0.  1.
        2   -1    0    0  501    0  0.00000000000E+00  0.00000000000E+00 -0.12374604191E+04  0.12374604191E+04  0.25500000920E-02 0. -1.
    10030    2    1    2    0    0  0.00000000000E+00  0.00000000000E+00  0.46566204395E+03  0.29405828822E+04  0.29034783533E+04 0.  0.
        2    1    3    3  502    0  0.10251538994E+04 -0.10277735209E+04  0.21565226416E+03  0.14675710636E+04  0.25500000920E-02 0. -1.
       -2    1    3    3    0  502 -0.10251538994E+04  0.10277735209E+04  0.25000977979E+03  0.14730118186E+04  0.25500000920E-02 0.  1.
</event>
<event>
 5   0  0.1580212E-06  0.2863757E+04  0.7818609E-02  0.8283743E-01
        1   -1    0    0  501    0  0.00000000000E+00  0.00000000000E+00  0.20660354180E+04  0.20660354180E+04  0.50400001928E-02 0.  1.
       -1   -1    0    0    0  501  0.00000000000E+00  0.00000000000E+00 -0.99237209092E+03  0.99237209093E+03  0.50400001928E-02 0. -1.
    10030    2    1    2    0    0  0.00000000000E+00  0.00000000000E+00  0.10736633271E+04  0.30584075090E+04  0.28637568945E+04 0.  0.
        4    1    3    3  502    0  0.71532613750E+01 -0.14306220913E+04  0.47325792979E+03  0.15068860005E+04  0.12699999809E+01 0. -1.
       -4    1    3    3    0  502 -0.71532613750E+01  0.14306220913E+04  0.60040539732E+03  0.15515215085E+04  0.12699999809E+01 0.  1.
</event>
<event>
 5   0  0.4224163E-06  0.2926105E+04  0.7818609E-02  0.8265153E-01
       -2   -1    0    0    0  501  0.00000000000E+00  0.00000000000E+00  0.90011100326E+03  0.90011100327E+03  0.25500000920E-02 0. -1.
        2   -1    0    0  501    0  0.00000000000E+00  0.00000000000E+00 -0.23780648334E+04  0.23780648334E+04  0.25500000920E-02 0.  1.
    10030    2    1    2    0    0  0.00000000000E+00  0.00000000000E+00 -0.14779538301E+04  0.32781758366E+04  0.29261047985E+04 0.  0.
        4    1    3    3  502    0 -0.41753026009E+03  0.19608817368E+03 -0.22944641179E+04  0.23403737504E+04  0.12699999809E+01 0.  1.
       -4    1    3    3    0  502  0.41753026009E+03 -0.19608817368E+03  0.81651028785E+03  0.93780208627E+03  0.12699999809E+01 0. -1.
</event>
<event>
 5   0  0.1602873E-06  0.2917785E+04  0.7818609E-02  0.8267606E-01
        1   -1    0    0  501    0  0.00000000000E+00  0.00000000000E+00  0.21779566000E+04  0.21779566001E+04  0.50400001928E-02 0. -1.
       -1   -1    0    0    0  501  0.00000000000E+00  0.00000000000E+00 -0.97723095050E+03  0.97723095051E+03  0.50400001928E-02 0.  1.
    10030    2    1    2    0    0  0.00000000000E+00  0.00000000000E+00  0.12007256495E+04  0.31551875506E+04  0.29177845009E+04 0.  0.
        1    1    3    3  502    0 -0.72652585839E+03  0.11225852099E+04  0.12312062587E+04  0.18176650483E+04  0.50400001928E-02 0.  1.
       -1    1    3    3    0  502  0.72652585839E+03 -0.11225852099E+04 -0.30480609165E+02  0.13375225022E+04  0.50400001928E-02 0. -1.
</event>
<event>
 5   0  0.1511126E-06  0.2899112E+04  0.7818609E-02  0.8273142E-01
        1   -1    0    0  501    0  0.00000000000E+00  0.00000000000E+00  0.14650797933E+04  0.14650797933E+04  0.50400001928E-02 0. -1.
       -1   -1    0    0    0  501  0.00000000000E+00  0.00000000000E+00 -0.14341963864E+04  0.14341963864E+04  0.50400001928E-02 0.  1.
    10030    2    1    2    0    0  0.00000000000E+00  0.00000000000E+00  0.30883406895E+02  0.28992761796E+04  0.28991116882E+04 0.  0.
        5    1    3    3  502    0  0.75548327296E+03  0.12038483631E+04 -0.26950287170E+03  0.14466028290E+04  0.46999998093E+01 0.  1.
       -5    1    3    3    0  502 -0.75548327296E+03 -0.12038483631E+04  0.30038627859E+03  0.14526733506E+04  0.46999998093E+01 0. -1.
</event>
<event>
 5   0  0.4162450E-06  0.2905133E+04  0.7818609E-02  0.8271352E-01
        2   -1    0    0  501    0  0.00000000000E+00  0.00000000000E+00  0.12960725898E+04  0.12960725898E+04  0.25500000920E-02 0.  1.
       -2   -1    0    0    0  501  0.00000000000E+00  0.00000000000E+00 -0.16279566353E+04  0.16279566353E+04  0.25500000920E-02 0. -1.
    10030    2    1    2    0    0  0.00000000000E+00  0.00000000000E+00 -0.33188404549E+03  0.29240292252E+04  0.29051333687E+04 0.  0.
        2    1    3    3  502    0 -0.56969994951E+03 -0.98609167804E+03  0.74159625482E+03  0.13590069298E+04  0.25500000920E-02 0.  1.
       -2    1    3    3    0  502  0.56969994951E+03  0.98609167804E+03 -0.10734803003E+04  0.15650222954E+04  0.25500000920E-02 0. -1.
</event>
<event>
 5   0  0.4187518E-06  0.2865501E+04  0.7818609E-02  0.8283217E-01
        2   -1    0    0  501    0  0.00000000000E+00  0.00000000000E+00  0.15266529606E+04  0.15266529606E+04  0.25500000920E-02 0. -1.
       -2   -1    0    0    0  501  0.00000000000E+00  0.00000000000E+00 -0.13446237248E+04  0.13446237248E+04  0.25500000920E-02 0.  1.
    10030    2    1    2    0    0  0.00000000000E+00  0.00000000000E+00  0.18202923586E+03  0.28712766854E+04  0.28655008570E+04 0.  0.
        3    1    3    3  502    0  0.91836950356E+03  0.57930636303E+03  0.10276582867E+04  0.14950183851E+04  0.10100000352E+00 0. -1.
       -3    1    3    3    0  502 -0.91836950356E+03 -0.57930636303E+03 -0.84562905084E+03  0.13762583003E+04  0.10100000352E+00 0.  1.
</event>
<event>
 5   0  0.4148677E-06  0.2905346E+04  0.7818609E-02  0.8271289E-01
       -2   -1    0    0    0  501  0.00000000000E+00  0.00000000000E+00  0.80850491472E+03  0.80850491473E+03  0.25500000920E-02 0. -1.
        2   -1    0    0  501    0  0.00000000000E+00  0.00000000000E+00 -0.26100755784E+04  0.26100755784E+04  0.25500000920E-02 0.  1.
    10030    2    1    2    0    0  0.00000000000E+00  0.00000000000E+00 -0.18015706637E+04  0.34185804931E+04  0.29053460606E+04 0.  0.
        5    1    3    3  502    0 -0.11232787033E+04 -0.70653892327E+03 -0.20538062283E+03  0.13428162888E+04  0.46999998093E+01 0. -1.
       -5    1    3    3    0  502  0.11232787033E+04  0.70653892327E+03 -0.15961900408E+04  0.20757642043E+04  0.46999998093E+01 0.  1.
</event>
<event>
 5   0  0.1580212E-06  0.2913274E+04  0.7818609E-02  0.8268939E-01
        1   -1    0    0  501    0  0.00000000000E+00  0.00000000000E+00  0.21633565767E+04  0.21633565767E+04  0.50400001928E-02 0. -1.
       -1   -1    0    0    0  501  0.00000000000E+00  0.00000000000E+00 -0.98078693141E+03  0.98078693143E+03  0.50400001928E-02 0.  1.
    10030    2    1    2    0    0  0.00000000000E+00  0.00000000000E+00  0.11825696452E+04  0.31441435081E+04  0.29132743492E+04 0.  0.
        4    1    3    3  502    0  0.16011691101E+03 -0.13712147242E+04  0.10927842350E+04  0.17606948181E+04  0.12699999809E+01 0.  1.
       -4    1    3    3    0  502 -0.16011691101E+03  0.13712147242E+04  0.89785410219E+02  0.13834486900E+04  0.12699999809E+01 0. -1.
</event>
<event>
 5   0  0.1602873E-06  0.2898615E+04  0.7818609E-02  0.8273290E-01
       -1   -1    0    0    0  501  0.00000000000E+00  0.00000000000E+00  0.28279308371E+04  0.28279308371E+04  0.50400001928E-02 0. -1.
        1   -1    0    0  501    0  0.00000000000E+00  0.00000000000E+00 -0.74276647846E+03  0.74276647848E+03  0.50400001928E-02 0.  1.
    10030    2    1    2    0    0  0.00000000000E+00  0.00000000000E+00  0.20851643587E+04  0.35706973156E+04  0.28986149998E+04 0.  0.
        1    1    3    3  502    0  0.72505415094E+03 -0.12004637049E+04  0.59219235091E+03  0.15223364967E+04  0.50400001928E-02 0. -1.
       -1    1    3    3    0  502 -0.72505415094E+03  0.12004637049E+04  0.14929720077E+04  0.20483608189E+04  0.50400001928E-02 0.  1.
</event>
<event>
 5   0  0.1511126E-06  0.2896149E+04  0.7818609E-02  0.8274024E-01
       -1   -1    0    0    0  501  0.00000000000E+00  0.00000000000E+00  0.18888323969E+04  0.18888323969E+04  0.50400001928E-02 0.  1.
        1   -1    0    0  501    0  0.00000000000E+00  0.00000000000E+00 -0.11101668767E+04  0.11101668768E+04  0.50400001928E-02 0. -1.
    10030    2    1    2    0    0  0.00000000000E+00  0.00000000000E+00  0.77866552019E+03  0.29989992737E+04  0.28961485893E+04 0.  0.
        5    1    3    3  502    0 -0.14370650047E+04  0.16019440887E+03  0.30859597258E+03  0.14785369933E+04  0.46999998093E+01 0. -1.
       -5    1    3    3    0  502  0.14370650047E+04 -0.16019440887E+03  0.47006954761E+03  0.15204622804E+04  0.46999998093E+01 0.  1.
</event>
<event>
 5   0  0.4187518E-06  0.2901705E+04  0.7818609E-02  0.8272370E-01
       -2   -1    0    0    0  501  0.00000000000E+00  0.00000000000E+00  0.11837404140E+04  0.11837404140E+04  0.25500000920E-02 0.  1.
        2   -1    0    0  501    0  0.00000000000E+00  0.00000000000E+00 -0.17782381426E+04  0.17782381426E+04  0.25500000920E-02 0. -1.
    10030    2    1    2    0    0  0.00000000000E+00  0.00000000000E+00 -0.59449772866E+03  0.29619785566E+04  0.29017045715E+04 0.  0.
        3    1    3    3  502    0 -0.42621224905E+03 -0.54593579729E+02 -0.17117953218E+04  0.17649024262E+04  0.10100000352E+00 0. -1.
       -3    1    3    3    0  502  0.42621224905E+03  0.54593579729E+02  0.11172975931E+04  0.11970761304E+04  0.10100000352E+00 0.  1.
</event>
<event>
 5   0  0.4162450E-06  0.2826223E+04  0.7818609E-02  0.8295173E-01
       -2   -1    0    0    0  501  0.00000000000E+00  0.00000000000E+00  0.11181956399E+04  0.11181956399E+04  0.25500000920E-02 0.  1.
        2   -1    0    0  501    0  0.00000000000E+00  0.00000000000E+00 -0.17858088309E+04  0.17858088309E+04  0.25500000920E-02 0. -1.
    10030    2    1    2    0    0  0.00000000000E+00  0.00000000000E+00 -0.66761319095E+03  0.29040044708E+04  0.28262226724E+04 0.  0.
        2    1    3    3  502    0 -0.28308353383E+03 -0.88962744106E+03 -0.14238080226E+04  0.17025870187E+04  0.25500000920E-02 0. -1.
       -2    1    3    3    0  502  0.28308353383E+03  0.88962744106E+03  0.75619483161E+03  0.12014174522E+04  0.25500000920E-02 0.  1.
</event>
<event>
 5   0  0.1550278E-06  0.2921896E+04  0.7818609E-02  0.8266392E-01
       -1   -1    0    0    0  501  0.00000000000E+00  0.00000000000E+00  0.13046942043E+04  0.13046942043E+04  0.50400001928E-02 0.  1.
        1   -1    0    0  501    0  0.00000000000E+00  0.00000000000E+00 -0.16359150510E+04  0.16359150510E+04  0.50400001928E-02 0. -1.
    10030    2    1    2    0    0  0.00000000000E+00  0.00000000000E+00 -0.33122084672E+03  0.29406092553E+04  0.29218958816E+04 0.  0.
        2    1    3    3  502    0 -0.86794049873E+02  0.36238551474E+02  0.13016440130E+04  0.13050377681E+04  0.25500000920E-02 0.  1.
       -2    1    3    3    0  502  0.86794049873E+02 -0.36238551474E+02 -0.16328648597E+04  0.16355714872E+04  0.25500000920E-02 0. -1.
</event>
<event>
 5   0  0.1550278E-06  0.2889810E+04  0.7818609E-02  0.8275916E-01
       -1   -1    0    0    0  501  0.00000000000E+00  0.00000000000E+00  0.10340491314E+04  0.10340491314E+04  0.50400001928E-02 0.  1.
        1   -1    0    0  501    0  0.00000000000E+00  0.00000000000E+00 -0.20190050615E+04  0.20190050615E+04  0.50400001928E-02 0. -1.
    10030    2    1    2    0    0  0.00000000000E+00  0.00000000000E+00 -0.98495593004E+03  0.30530541929E+04  0.28898099800E+04 0.  0.
        2    1    3    3  502    0 -0.30704154445E+03  0.13156373621E+04  0.48888431273E+02  0.13518750894E+04  0.25500000920E-02 0.  1.
       -2    1    3    3    0  502  0.30704154445E+03 -0.13156373621E+04 -0.10338443613E+04  0.17011791035E+04  0.25500000920E-02 0. -1.
</event>
<event>
 5   0  0.4115143E-06  0.2950368E+04  0.7818609E-02  0.8258047E-01
        2   -1    0    0  501    0  0.00000000000E+00  0.00000000000E+00  0.11785671214E+04  0.11785671214E+04  0.25500000920E-02 0.  1.
       -2   -1    0    0    0  501  0.00000000000E+00  0.00000000000E+00 -0.18464524687E+04  0.18464524687E+04  0.25500000920E-02 0. -1.
    10030    2    1    2    0    0  0.00000000000E+00  0.00000000000E+00 -0.66788534730E+03  0.30250195901E+04  0.29503682284E+04 0.  0.
        1    1    3    3  502    0  0.11498205016E+04 -0.13631022522E+03 -0.12711276714E+04  0.17194281667E+04  0.50400001928E-02 0.  1.
       -1    1    3    3    0  502 -0.11498205016E+04  0.13631022522E+03  0.60324232406E+03  0.13055914234E+04  0.50400001928E-02 0. -1.
</event>
<event>
 5   0  0.1543678E-06  0.2908584E+04  0.7818609E-02  0.8270328E-01
        1   -1    0    0  501    0  0.00000000000E+00  0.00000000000E+00  0.20948788403E+04  0.20948788403E+04  0.50400001928E-02 0. -1.
       -1   -1    0    0    0  501  0.00000000000E+00  0.00000000000E+00 -0.10095885035E+04  0.10095885035E+04  0.50400001928E-02 0.  1.
    10030    2    1    2    0    0  0.00000000000E+00  0.00000000000E+00  0.10852903368E+04  0.31044673438E+04  0.29085842559E+04 0.  0.
        3    1    3    3  502    0 -0.85829716725E+01 -0.35395425258E+03 -0.96288422581E+03  0.10259158459E+04  0.10100000352E+00 0.  1.
       -3    1    3    3    0  502  0.85829716725E+01  0.35395425258E+03  0.20481745626E+04  0.20785514979E+04  0.10100000352E+00 0. -1.
</event>
<event>
 5   0  0.4115143E-06  0.2906433E+04  0.7818609E-02  0.8270966E-01
       -2   -1    0    0    0  501  0.00000000000E+00  0.00000000000E+00  0.81476610471E+03  0.81476610472E+03  0.25500000920E-02 0. -1.
        2   -1    0    0  501    0  0.00000000000E+00  0.00000000000E+00 -0.25919559659E+04  0.25919559659E+04  0.25500000920E-02 0.  1.
    10030    2    1    2    0    0  0.00000000000E+00  0.00000000000E+00 -0.17771898611E+04  0.34067220706E+04  0.29064327729E+04 0.  0.
        1    1    3    3  502    0  0.12077464677E+04  0.80801133561E+03 -0.90903232574E+03  0.17140226422E+04  0.50400001928E-02 0.  1.
       -1    1    3    3    0  502 -0.12077464677E+04 -0.80801133561E+03 -0.86815753540E+03  0.16926994284E+04  0.50400001928E-02 0. -1.
</event>
<event>
 5   0  0.1550278E-06  0.2882293E+04  0.7818609E-02  0.8278165E-01
       -1   -1    0    0    0  501  0.00000000000E+00  0.00000000000E+00  0.13107233524E+04  0.13107233524E+04  0.50400001928E-02 0. -1.
        1   -1    0    0  501    0  0.00000000000E+00  0.00000000000E+00 -0.15845473658E+04  0.15845473658E+04  0.50400001928E-02 0.  1.
    10030    2    1    2    0    0  0.00000000000E+00  0.00000000000E+00 -0.27382401342E+03  0.28952707183E+04  0.28822930007E+04 0.  0.
        2    1    3    3  502    0 -0.26093531000E+03  0.23239681840E+03 -0.15413516295E+04  0.15804620726E+04  0.25500000920E-02 0.  1.
       -2    1    3    3    0  502  0.26093531000E+03 -0.23239681840E+03  0.12675276161E+04  0.13148086457E+04  0.25500000920E-02 0. -1.
</event>
<event>
 5   0  0.1580212E-06  0.2882110E+04  0.7818609E-02  0.8278220E-01
        1   -1    0    0  501    0  0.00000000000E+00  0.00000000000E+00  0.28100319997E+04  0.28100319997E+04  0.50400001928E-02 0. -1.
       -1   -1    0    0    0  501  0.00000000000E+00  0.00000000000E+00 -0.73900905037E+03  0.73900905038E+03  0.50400001928E-02 0.  1.
    10030    2    1    2    0    0  0.00000000000E+00  0.00000000000E+00  0.20710229493E+04  0.35490410500E+04  0.28821096992E+04 0.  0.
        4    1    3    3  502    0  0.24732192149E+02  0.19579547629E+03  0.27933118946E+04  0.28002750764E+04  0.12699999809E+01 0. -1.
       -4    1    3    3    0  502 -0.24732192149E+02 -0.19579547629E+03 -0.72228894533E+03  0.74876597366E+03  0.12699999809E+01 0.  1.
</event>
<event>
 5   0  0.4224163E-06  0.2786843E+04  0.7818609E-02  0.8307365E-01
       -2   -1    0    0    0  501  0.00000000000E+00  0.00000000000E+00  0.10489795133E+04  0.10489795133E+04  0.25500000920E-02 0.  1.
        2   -1    0    0  501    0  0.00000000000E+00  0.00000000000E+00 -0.18509638993E+04  0.18509638993E+04  0.25500000920E-02 0. -1.
    10030    2    1    2    0    0  0.00000000000E+00  0.00000000000E+00 -0.80198438597E+03  0.28999434126E+04  0.27868428088E+04 0.  0.
        4    1    3    3  502    0 -0.11899301100E+04  0.89001878349E+02  0.34777027058E+03  0.12429001469E+04  0.12699999809E+01 0.  1.
       -4    1    3    3    0  502  0.11899301100E+04 -0.89001878349E+02 -0.11497546566E+04  0.16570432657E+04  0.12699999809E+01 0. -1.
</event>
<event>
 5   0  0.4162450E-06  0.2890942E+04  0.7818609E-02  0.8275578E-01
        2   -1    0    0  501    0  0.00000000000E+00  0.00000000000E+00  0.14716621695E+04  0.14716621695E+04  0.25500000920E-02 0. -1.
       -2   -1    0    0    0  501  0.00000000000E+00  0.00000000000E+00 -0.14197456012E+04  0.14197456012E+04  0.25500000920E-02 0.  1.
    10030    2    1    2    0    0  0.00000000000E+00  0.00000000000E+00  0.51916568356E+02  0.28914077707E+04  0.28909416401E+04 0.  0.
        2    1    3    3  502    0  0.11020047754E+04 -0.58480895804E+03  0.75612383627E+03  0.14588143467E+04  0.25500000920E-02 0.  1.
       -2    1    3    3    0  502 -0.11020047754E+04  0.58480895804E+03 -0.70420726791E+03  0.14325934240E+04  0.25500000920E-02 0. -1.
</event>
<event>
 5   0  0.1511126E-06  0.2905831E+04  0.7818609E-02  0.8271145E-01
       -1   -1    0    0    0  501  0.00000000000E+00  0.00000000000E+00  0.12106345800E+04  0.12106345800E+04  0.50400001928E-02 0. -1.
        1   -1    0    0  501    0  0.00000000000E+00  0.00000000000E+00 -0.17436833688E+04  0.17436833688E+04  0.50400001928E-02 0.  1.
    10030    2    1    2    0    0  0.00000000000E+00  0.00000000000E+00 -0.53304878883E+03  0.29543179488E+04  0.29058309537E+04 0.  0.
        5    1    3    3  502    0 -0.12584310681E+04  0.39054300586E+03  0.35587411467E+03  0.13648593583E+04  0.46999998093E+01 0. -1.
       -5    1    3    3    0  502  0.12584310681E+04 -0.39054300586E+03 -0.88892290350E+03  0.15894585905E+04  0.46999998093E+01 0.  1.
</event>
<event>
 5   0  0.4148677E-06  0.2897146E+04  0.7818609E-02  0.8273727E-01
       -2   -1    0    0    0  501  0.00000000000E+00  0.00000000000E+00  0.15028415918E+04  0.15028415918E+04  0.25500000920E-02 0.  1.
        2   -1    0    0  501    0  0.00000000000E+00  0.00000000000E+00 -0.13962642725E+04  0.13962642725E+04  0.25500000920E-02 0. -1.
    10030    2    1    2    0    0  0.00000000000E+00  0.00000000000E+00  0.10657731928E+03  0.28991058644E+04  0.28971461972E+04 0.  0.
        5    1    3    3  502    0  0.57557588526E+03  0.22212012859E+03  0.13647922009E+04  0.14977666016E+04  0.46999998093E+01 0.  1.
       -5    1    3    3    0  502 -0.57557588526E+03 -0.22212012859E+03 -0.12582148816E+04  0.14013392628E+04  0.46999998093E+01 0. -1.
</event>
<event>
 5   0  0.4162450E-06  0.2895866E+04  0.7818609E-02  0.8274109E-01
        2   -1    0    0  501    0  0.00000000000E+00  0.00000000000E+00  0.13553441057E+04  0.13553441057E+04  0.25500000920E-02 0. -1.
       -2   -1    0    0    0  501  0.00000000000E+00  0.00000000000E+00 -0.15468469391E+04  0.15468469391E+04  0.25500000920E-02 0.  1.
    10030    2    1    2    0    0  0.00000000000E+00  0.00000000000E+00 -0.19150283345E+03  0.29021910448E+04  0.28958659371E+04 0.  0.
        2    1    3    3  502    0 -0.58412557589E+03  0.97208387581E+03 -0.99791767115E+03  0.15106255090E+04  0.25500000920E-02 0.  1.
       -2    1    3    3    0  502  0.58412557589E+03 -0.97208387581E+03  0.80641483771E+03  0.13915655358E+04  0.25500000920E-02 0. -1.
</event>
<event>
 5   0  0.1550278E-06  0.2914680E+04  0.7818609E-02  0.8268523E-01
        1   -1    0    0  501    0  0.00000000000E+00  0.00000000000E+00  0.13828403645E+04  0.13828403645E+04  0.50400001928E-02 0.  1.
       -1   -1    0    0    0  501  0.00000000000E+00  0.00000000000E+00 -0.15358536842E+04  0.15358536842E+04  0.50400001928E-02 0. -1.
    10030    2    1    2    0    0  0.00000000000E+00  0.00000000000E+00 -0.15301331970E+03  0.29186940486E+04  0.29146804068E+04 0.  0.
        2    1    3    3  502    0  0.80285551384E+03 -0.22775308461E+03 -0.12728869896E+04  0.15220675846E+04  0.25500000920E-02 0. -1.
       -2    1    3    3    0  502 -0.80285551384E+03  0.22775308461E+03  0.11198736699E+04  0.13966264641E+04  0.25500000920E-02 0.  1.
</event>
<event>
 5   0  0.1543678E-06  0.2914954E+04  0.7818609E-02  0.8268442E-01
       -1   -1    0    0    0  501  0.00000000000E+00  0.00000000000E+00  0.17641815881E+04  0.17641815881E+04  0.50400001928E-02 0. -1.
        1   -1    0    0  501    0  0.00000000000E+00  0.00000000000E+00 -0.12040933065E+04  0.12040933065E+04  0.50400001928E-02 0.  1.
    10030    2    1    2    0    0  0.00000000000E+00  0.00000000000E+00  0.56008828163E+03  0.29682748946E+04  0.29149540248E+04 0.  0.
        3    1    3    3  502    0  0.40846447801E+03  0.13508783220E+04 -0.90653042103E+02  0.14141900349E+04  0.10100000352E+00 0. -1.
       -3    1    3    3    0  502 -0.40846447801E+03 -0.13508783220E+04  0.65074132374E+03  0.15540848597E+04  0.10100000352E+00 0.  1.
</event>
<event>
 5   0  0.4115143E-06  0.2917756E+04  0.7818609E-02  0.8267614E-01
        2   -1    0    0  501    0  0.00000000000E+00  0.00000000000E+00  0.13204159580E+04  0.13204159580E+04  0.25500000920E-02 0.  1.
       -2   -1    0    0    0  501  0.00000000000E+00  0.00000000000E+00 -0.16118599338E+04  0.16118599338E+04  0.25500000920E-02 0. -1.
    10030    2    1    2    0    0  0.00000000000E+00  0.00000000000E+00 -0.29144397587E+03  0.29322758918E+04  0.29177563837E+04 0.  0.
        1    1    3    3  502    0 -0.17891061732E+03 -0.14436841888E+04 -0.25623525932E+03  0.14771220512E+04  0.50400001928E-02 0.  1.
       -1    1    3    3    0  502  0.17891061732E+03  0.14436841888E+04 -0.35208716551E+02  0.14551538406E+04  0.50400001928E-02 0. -1.
</event>
<event>
 5   0  0.1543678E-06  0.2846979E+04  0.7818609E-02  0.8288830E-01
       -1   -1    0    0    0  501  0.00000000000E+00  0.00000000000E+00  0.15101808238E+04  0.15101808238E+04  0.50400001928E-02 0.  1.
        1   -1    0    0  501    0  0.00000000000E+00  0.00000000000E+00 -0.13417747032E+04  0.13417747032E+04  0.50400001928E-02 0. -1.
    10030    2    1    2    0    0  0.00000000000E+00  0.00000000000E+00  0.16840612064E+03  0.28519555270E+04  0.28469790492E+04 0.  0.
        3    1    3    3  502    0 -0.39410771631E+03  0.13116958439E+04 -0.30436094386E+03  0.14030333116E+04  0.10100000352E+00 0. -1.
       -3    1    3    3    0  502  0.39410771631E+03 -0.13116958439E+04  0.47276706450E+03  0.14489222155E+04  0.10100000352E+00 0.  1.
</event>
<event>
 5   0  0.4162450E-06  0.2892297E+04  0.7818609E-02  0.8275173E-01
       -2   -1    0    0    0  501  0.00000000000E+00  0.00000000000E+00  0.11246901827E+04  0.11246901827E+04  0.25500000920E-02 0.  1.
        2   -1    0    0  501    0  0.00000000000E+00  0.00000000000E+00 -0.18594859353E+04  0.18594859353E+04  0.25500000920E-02 0. -1.
    10030    2    1    2    0    0  0.00000000000E+00  0.00000000000E+00 -0.73479575254E+03  0.29841761180E+04  0.28922970638E+04 0.  0.
        2    1    3    3  502    0 -0.32274115570E+03  0.41214205688E+03  0.10235074595E+04  0.11496044748E+04  0.25500000920E-02 0.  1.
       -2    1    3    3    0  502  0.32274115570E+03 -0.41214205688E+03 -0.17583032121E+04  0.18345716433E+04  0.25500000920E-02 0. -1.
</event>
<event>
 5   0  0.4187518E-06  0.2886344E+04  0.7818609E-02  0.8276952E-01
       -2   -1    0    0    0  501  0.00000000000E+00  0.00000000000E+00  0.98923184352E+03  0.98923184353E+03  0.25500000920E-02 0. -1.
        2   -1    0    0  501    0  0.00000000000E+00  0.00000000000E+00 -0.21054170594E+04  0.21054170594E+04  0.25500000920E-02 0.  1.
    10030    2    1    2    0    0  0.00000000000E+00  0.00000000000E+00 -0.11161852158E+04  0.30946489029E+04  0.28863441230E+04 0.  0.
        3    1    3    3  502    0 -0.10049606663E+04 -0.10206150022E+04 -0.36887780502E+03  0.14790780131E+04  0.10100000352E+00 0. -1.
       -3    1    3    3    0  502  0.10049606663E+04  0.10206150022E+04 -0.74730741082E+03  0.16155708898E+04  0.10100000352E+00 0.  1.
</event>
<event>
 5   0  0.4115143E-06  0.2894232E+04  0.7818609E-02  0.8274596E-01
       -2   -1    0    0    0  501  0.00000000000E+00  0.00000000000E+00  0.11204773176E+04  0.11204773176E+04  0.25500000920E-02 0.  1.
        2   -1    0    0  501    0  0.00000000000E+00  0.00000000000E+00 -0.18689750361E+04  0.18689750361E+04  0.25500000920E-02 0. -1.
    10030    2    1    2    0    0  0.00000000000E+00  0.00000000000E+00 -0.74849771849E+03  0.29894523537E+04  0.28942315976E+04 0.  0.
        1    1    3    3  502    0  0.13534093450E+04 -0.51213112881E+03 -0.38685646350E+03  0.14978828631E+04  0.50400001928E-02 0. -1.
       -1    1    3    3    0  502 -0.13534093450E+04  0.51213112881E+03 -0.36164125499E+03  0.14915694906E+04  0.50400001928E-02 0.  1.
</event>
<event>
 5   0  0.4148677E-06  0.2905417E+04  0.7818609E-02  0.8271268E-01
        2   -1    0    0  501    0  0.00000000000E+00  0.00000000000E+00  0.18654749178E+04  0.18654749178E+04  0.25500000920E-02 0. -1.
       -2   -1    0    0    0  501  0.00000000000E+00  0.00000000000E+00 -0.11312733104E+04  0.11312733104E+04  0.25500000920E-02 0.  1.
    10030    2    1    2    0    0  0.00000000000E+00  0.00000000000E+00  0.73420160743E+03  0.29967482283E+04  0.29054169999E+04 0.  0.
        5    1    3    3  502    0  0.10320026163E+04 -0.63773742831E+03 -0.45714499148E+03  0.12964343642E+04  0.46999998093E+01 0.  1.
       -5    1    3    3    0  502 -0.10320026163E+04  0.63773742831E+03  0.11913465989E+04  0.17003138640E+04  0.46999998093E+01 0. -1.
</event>
<event>
 5   0  0.1580212E-06  0.2840232E+04  0.7818609E-02  0.8290886E-01
       -1   -1    0    0    0  501  0.00000000000E+00  0.00000000000E+00  0.10379182415E+04  0.10379182415E+04  0.50400001928E-02 0.  1.
        1   -1    0    0  501    0  0.00000000000E+00  0.00000000000E+00 -0.19430522112E+04  0.19430522112E+04  0.50400001928E-02 0. -1.
    10030    2    1    2    0    0  0.00000000000E+00  0.00000000000E+00 -0.90513396972E+03  0.29809704527E+04  0.28402319160E+04 0.  0.
        4    1    3    3  502    0  0.32562451019E+03 -0.70794158136E+03 -0.16986263598E+04  0.18688353933E+04  0.12699999809E+01 0. -1.
       -4    1    3    3    0  502 -0.32562451019E+03  0.70794158136E+03  0.79349239006E+03  0.11121350594E+04  0.12699999809E+01 0.  1.
</event>
<event>
 5   0  0.1511126E-06  0.2918449E+04  0.7818609E-02  0.8267409E-01
       -1   -1    0    0    0  501  0.00000000000E+00  0.00000000000E+00  0.15726080838E+04  0.15726080838E+04  0.50400001928E-02 0.  1.
        1   -1    0    0  501    0  0.00000000000E+00  0.00000000000E+00 -0.13540161487E+04  0.13540161487E+04  0.50400001928E-02 0. -1.
    10030    2    1    2    0    0  0.00000000000E+00  0.00000000000E+00  0.21859193510E+03  0.29266242326E+04  0.29184494110E+04 0.  0.
        5    1    3    3  502    0  0.41231949560E+02 -0.14583797235E+04  0.81958651611E+02  0.14612702700E+04  0.46999998093E+01 0. -1.
       -5    1    3    3    0  502 -0.41231949560E+02  0.14583797235E+04  0.13663328349E+03  0.14653539626E+04  0.46999998093E+01 0.  1.
</event>
<event>
 5   0  0.4224163E-06  0.2890837E+04  0.7818609E-02  0.8275609E-01
       -2   -1    0    0    0  501  0.00000000000E+00  0.00000000000E+00  0.17817121210E+04  0.17817121210E+04  0.25500000920E-02 0.  1.
        2   -1    0    0  501    0  0.00000000000E+00  0.00000000000E+00 -0.11725996253E+04  0.11725996253E+04  0.25500000920E-02 0. -1.
    10030    2    1    2    0    0  0.00000000000E+00  0.00000000000E+00  0.60911249569E+03  0.29543117462E+04  0.28908372250E+04 0.  0.
        4    1    3    3  502    0  0.45178638877E+03 -0.11392414875E+04 -0.47859321730E+03  0.13156881046E+04  0.12699999809E+01 0. -1.
       -4    1    3    3    0  502 -0.45178638877E+03  0.11392414875E+04  0.10877057130E+04  0.16386236416E+04  0.12699999809E+01 0.  1.
</event>
<event>
 5   0  0.1580212E-06  0.2899720E+04  0.7818609E-02  0.8272961E-01
       -1   -1    0    0    0  501  0.00000000000E+00  0.00000000000E+00  0.10219769217E+04  0.10219769217E+04  0.50400001928E-02 0. -1.
        1   -1    0    0  501    0  0.00000000000E+00  0.00000000000E+00 -0.20568905204E+04  0.20568905204E+04  0.50400001928E-02 0.  1.
    10030    2    1    2    0    0  0.00000000000E+00  0.00000000000E+00 -0.10349135987E+04  0.30788674421E+04  0.28997204295E+04 0.  0.
        4    1    3    3  502    0  0.58871966380E+03 -0.13207422937E+04 -0.62953368640E+03  0.15771066305E+04  0.12699999809E+01 0. -1.
       -4    1    3    3    0  502 -0.58871966380E+03  0.13207422937E+04 -0.40537991226E+03  0.15017608115E+04  0.12699999809E+01 0.  1.
</event>
<event>
 5   0  0.1543678E-06  0.2895146E+04  0.7818609E-02  0.8274323E-01
       -1   -1    0    0    0  501  0.00000000000E+00  0.00000000000E+00  0.12560066986E+04  0.12560066986E+04  0.50400001928E-02 0.  1.
        1   -1    0    0  501    0  0.00000000000E+00  0.00000000000E+00 -0.16683572364E+04  0.16683572364E+04  0.50400001928E-02 0. -1.
    10030    2    1    2    0    0  0.00000000000E+00  0.00000000000E+00 -0.41235053784E+03  0.29243639351E+04  0.28951461895E+04 0.  0.
        3    1    3    3  502    0  0.11738364076E+04  0.92680196770E+02  0.64433556493E+03  0.13422555126E+04  0.10100000352E+00 0.  1.
       -3    1    3    3    0  502 -0.11738364076E+04 -0.92680196770E+02 -0.10566861028E+04  0.15821084225E+04  0.10100000352E+00 0. -1.
</event>
<event>
 5   0  0.4115143E-06  0.2908903E+04  0.7818609E-02  0.8270233E-01
       -2   -1    0    0    0  501  0.00000000000E+00  0.00000000000E+00  0.11191883399E+04  0.11191883399E+04  0.25500000920E-02 0.  1.
        2   -1    0    0  501    0  0.00000000000E+00  0.00000000000E+00 -0.18901461543E+04  0.18901461543E+04  0.25500000920E-02 0. -1.
    10030    2    1    2    0    0  0.00000000000E+00  0.00000000000E+00 -0.77095781445E+03  0.30093344942E+04  0.29089032549E+04 0.  0.
        1    1    3    3  502    0  0.40554468633E+03 -0.52408425459E+03 -0.17248992625E+04  0.18478117502E+04  0.50400001928E-02 0. -1.
       -1    1    3    3    0  502 -0.40554468633E+03  0.52408425459E+03  0.95394144801E+03  0.11615227440E+04  0.50400001928E-02 0.  1.
</event>
<event>
 5   0  0.1511126E-06  0.2902056E+04  0.7818609E-02  0.8272266E-01
       -1   -1    0    0    0  501  0.00000000000E+00  0.00000000000E+00  0.29733704052E+04  0.29733704052E+04  0.50400001928E-02 0. -1.
        1   -1    0    0  501    0  0.00000000000E+00  0.00000000000E+00 -0.70811278074E+03  0.70811278075E+03  0.50400001928E-02 0.  1.
    10030    2    1    2    0    0  0.00000000000E+00  0.00000000000E+00  0.22652576245E+04  0.36814831860E+04  0.29020555376E+04 0.  0.
        5    1    3    3  502    0 -0.29049942218E+02  0.35127466873E+03 -0.65296898030E+03  0.74204337559E+03  0.46999998093E+01 0.  1.
       -5    1    3    3    0  502  0.29049942218E+02 -0.35127466873E+03  0.29182266048E+04  0.29394398104E+04  0.46999998093E+01 0. -1.
</event>
<event>
 5   0  0.4224163E-06  0.2885554E+04  0.7818609E-02  0.8277189E-01
        2   -1    0    0  501    0  0.00000000000E+00  0.00000000000E+00  0.17313546040E+04  0.17313546040E+04  0.25500000920E-02 0.  1.
       -2   -1    0    0    0  501  0.00000000000E+00  0.00000000000E+00 -0.12022988386E+04  0.12022988386E+04  0.25500000920E-02 0. -1.
    10030    2    1    2    0    0  0.00000000000E+00  0.00000000000E+00  0.52905576536E+03  0.29336534426E+04  0.28855541094E+04 0.  0.
        4    1    3    3  502    0  0.60634291309E+03 -0.17840775678E+03  0.15831138681E+04  0.17046208341E+04  0.12699999809E+01 0.  1.
       -4    1    3    3    0  502 -0.60634291309E+03  0.17840775678E+03 -0.10540581027E+04  0.12290326085E+04  0.12699999809E+01 0. -1.
</event>
<event>
 5   0  0.4115143E-06  0.2894065E+04  0.7818609E-02  0.8274645E-01
       -2   -1    0    0    0  501  0.00000000000E+00  0.00000000000E+00  0.13367542105E+04  0.13367542105E+04  0.25500000920E-02 0. -1.
        2   -1    0    0  501    0  0.00000000000E+00  0.00000000000E+00 -0.15664084416E+04  0.15664084416E+04  0.25500000920E-02 0.  1.
    10030    2    1    2    0    0  0.00000000000E+00  0.00000000000E+00 -0.22965423109E+03  0.29031626522E+04  0.28940650164E+04 0.  0.
        1    1    3    3  502    0 -0.11447268999E+04  0.33895999766E+03 -0.93508301795E+03  0.15164675420E+04  0.50400001928E-02 0.  1.
       -1    1    3    3    0  502  0.11447268999E+04 -0.33895999766E+03  0.70542878686E+03  0.13866951102E+04  0.50400001928E-02 0. -1.
</event>
<event>
 5   0  0.4187518E-06  0.2905436E+04  0.7818609E-02  0.8271262E-01
        2   -1    0    0  501    0  0.00000000000E+00  0.00000000000E+00  0.20008987910E+04  0.20008987910E+04  0.25500000920E-02 0.  1.
       -2   -1    0    0    0  501  0.00000000000E+00  0.00000000000E+00 -0.10547211053E+04  0.10547211053E+04  0.25500000920E-02 0. -1.
    10030    2    1    2    0    0  0.00000000000E+00  0.00000000000E+00  0.94617768565E+03  0.30556198963E+04  0.29054364109E+04 0.  0.
        3    1    3    3  502    0 -0.23612555377E+03  0.41288907199E+03  0.19166877926E+04  0.19748227180E+04  0.10100000352E+00 0.  1.
       -3    1    3    3    0  502  0.23612555377E+03 -0.41288907199E+03 -0.97051010694E+03  0.10807971784E+04  0.10100000352E+00 0. -1.
</event>
<event>
 5   0  0.4162450E-06  0.2755139E+04  0.7818609E-02  0.8317333E-01
       -2   -1    0    0    0  501  0.00000000000E+00  0.00000000000E+00  0.11117444898E+04  0.11117444898E+04  0.25500000920E-02 0. -1.
        2   -1    0    0  501    0  0.00000000000E+00  0.00000000000E+00 -0.17069553222E+04  0.17069553222E+04  0.25500000920E-02 0.  1.
    10030    2    1    2    0    0  0.00000000000E+00  0.00000000000E+00 -0.59521083242E+03  0.28186998120E+04  0.27551393240E+04 0.  0.
        2    1    3    3  502    0 -0.44504921327E+03  0.11355205982E+03  0.10311000698E+04  0.11287737712E+04  0.25500000920E-02 0. -1.
       -2    1    3    3    0  502  0.44504921327E+03 -0.11355205982E+03 -0.16263109022E+04  0.16899260408E+04  0.25500000920E-02 0.  1.
</event>
<event>
 5   0  0.4115143E-06  0.2902194E+04  0.7818609E-02  0.8272225E-01
       -2   -1    0    0    0  501  0.00000000000E+00  0.00000000000E+00  0.12295885967E+04  0.12295885967E+04  0.25500000920E-02 0. -1.
        2   -1    0    0  501    0  0.00000000000E+00  0.00000000000E+00 -0.17125100967E+04  0.17125100967E+04  0.25500000920E-02 0.  1.
    10030    2    1    2    0    0  0.00000000000E+00  0.00000000000E+00 -0.48292149991E+03  0.29420986934E+04  0.29021942641E+04 0.  0.
        1    1    3    3  502    0 -0.68560882448E+03 -0.28975937790E+03  0.10213243533E+04  0.12637734734E+04  0.50400001928E-02 0. -1.
       -1    1    3    3    0  502  0.68560882448E+03  0.28975937790E+03 -0.15042458532E+04  0.16783252200E+04  0.50400001928E-02 0.  1.
</event>
<event>
 5   0  0.4148677E-06  0.2896758E+04  0.7818609E-02  0.8273843E-01
       -2   -1    0    0    0  501  0.00000000000E+00  0.00000000000E+00  0.10084684438E+04  0.10084684438E+04  0.25500000920E-02 0. -1.
        2   -1    0    0  501    0  0.00000000000E+00  0.00000000000E+00 -0.20801864320E+04  0.20801864320E+04  0.25500000920E-02 0.  1.
    10030    2    1    2    0    0  0.00000000000E+00  0.00000000000E+00 -0.10717179882E+04  0.30886548758E+04  0.28967584462E+04 0.  0.
        5    1    3    3  502    0  0.69771078144E+03 -0.94175721894E+03  0.37143568711E+03  0.12295094768E+04  0.46999998093E+01 0. -1.
       -5    1    3    3    0  502 -0.69771078144E+03  0.94175721894E+03 -0.14431536753E+04  0.18591453990E+04  0.46999998093E+01 0.  1.
</event>
<event>
 5   0  0.4162450E-06  0.2929777E+04  0.7818609E-02  0.8264073E-01
       -2   -1    0    0    0  501  0.00000000000E+00  0.00000000000E+00  0.11940442287E+04  0.11940442287E+04  0.25500000920E-02 0.  1.
        2   -1    0    0  501    0  0.00000000000E+00  0.00000000000E+00 -0.17971687166E+04  0.17971687166E+04  0.25500000920E-02 0. -1.
    10030    2    1    2    0    0  0.00000000000E+00  0.00000000000E+00 -0.60312448792E+03  0.29912129453E+04  0.29297774210E+04 0.  0.
        2    1    3    3  502    0  0.11616019988E+04 -0.41659085760E+03  0.50431298514E+03  0.13331161740E+04  0.25500000920E-02 0.  1.
       -2    1    3    3    0  502 -0.11616019988E+04  0.41659085760E+03 -0.11074374731E+04  0.16580967713E+04  0.25500000920E-02 0. -1.
</event>
<event>
 5   0  0.1543678E-06  0.2894125E+04  0.7818609E-02  0.8274628E-01
       -1   -1    0    0    0  501  0.00000000000E+00  0.00000000000E+00  0.95160703257E+03  0.95160703258E+03  0.50400001928E-02 0.  1.
        1   -1    0    0  501    0  0.00000000000E+00  0.00000000000E+00 -0.22004773992E+04  0.22004773992E+04  0.50400001928E-02 0. -1.
    10030    2    1    2    0    0  0.00000000000E+00  0.00000000000E+00 -0.12488703666E+04  0.31520844318E+04  0.28941249234E+04 0.  0.
        3    1    3    3  502    0  0.55978015070E+02  0.10418215181E+04  0.46766847681E+03  0.11433457168E+04  0.10100000352E+00 0.  1.
       -3    1    3    3    0  502 -0.55978015070E+02 -0.10418215181E+04 -0.17165388434E+04  0.20087387149E+04  0.10100000352E+00 0. -1.
</event>
<event>
 5   0  0.1602873E-06  0.2917652E+04  0.7818609E-02  0.8267645E-01
       -1   -1    0    0    0  501  0.00000000000E+00  0.00000000000E+00  0.10800855826E+04  0.10800855826E+04  0.50400001928E-02 0.  1.
        1   -1    0    0  501    0  0.00000000000E+00  0.00000000000E+00 -0.19703750369E+04  0.19703750370E+04  0.50400001928E-02 0. -1.
    10030    2    1    2    0    0  0.00000000000E+00  0.00000000000E+00 -0.89028945432E+03  0.30504606196E+04  0.29176522547E+04 0.  0.
        1    1    3    3  502    0 -0.29328529412E+03 -0.10837811805E+04  0.52869076492E+03  0.12410124237E+04  0.50400001928E-02 0.  1.
       -1    1    3    3    0  502  0.29328529412E+03  0.10837811805E+04 -0.14189802192E+04  0.18094481959E+04  0.50400001928E-02 0. -1.
</event>
<event>
 5   0  0.4224163E-06  0.2933828E+04  0.7818609E-02  0.8262883E-01
       -2   -1    0    0    0  501  0.00000000000E+00  0.00000000000E+00  0.87622245207E+03  0.87622245208E+03  0.25500000920E-02 0. -1.
        2   -1    0    0  501    0  0.00000000000E+00  0.00000000000E+00 -0.24558108971E+04  0.24558108971E+04  0.25500000920E-02 0.  1.
    10030    2    1    2    0    0  0.00000000000E+00  0.00000000000E+00 -0.15795884450E+04  0.33320333491E+04  0.29338279745E+04 0.  0.
        4    1    3    3  502    0 -0.12826677885E+04  0.12953330729E+03  0.50695971845E+01  0.12892024073E+04  0.12699999809E+01 0. -1.
       -4    1    3    3    0  502  0.12826677885E+04 -0.12953330729E+03 -0.15846580422E+04  0.20428309418E+04  0.12699999809E+01 0.  1.
</event>
<event>
 5   0  0.4148677E-06  0.2899683E+04  0.7818609E-02  0.8272972E-01
        2   -1    0    0  501    0  0.00000000000E+00  0.00000000000E+00  0.26503869048E+04  0.26503869048E+04  0.25500000920E-02 0.  1.
       -2   -1    0    0    0  501  0.00000000000E+00  0.00000000000E+00 -0.79310689517E+03  0.79310689518E+03  0.25500000920E-02 0. -1.
    10030    2    1    2    0    0  0.00000000000E+00  0.00000000000E+00  0.18572800097E+04  0.34434938000E+04  0.28996828303E+04 0.  0.
        5    1    3    3  502    0 -0.93027560916E+03  0.10954617922E+04  0.11557331970E+04  0.18442316990E+04  0.46999998093E+01 0. -1.
       -5    1    3    3    0  502  0.93027560916E+03 -0.10954617922E+04  0.70154681272E+03  0.15992621010E+04  0.46999998093E+01 0.  1.
</event>
<event>
 5   0  0.4148677E-06  0.2827118E+04  0.7818609E-02  0.8294899E-01
        2   -1    0    0  501    0  0.00000000000E+00  0.00000000000E+00  0.18035092696E+04  0.18035092696E+04  0.25500000920E-02 0.  1.
       -2   -1    0    0    0  501  0.00000000000E+00  0.00000000000E+00 -0.11079225124E+04  0.11079225124E+04  0.25500000920E-02 0. -1.
    10030    2    1    2    0    0  0.00000000000E+00  0.00000000000E+00  0.69558675717E+03  0.29114317820E+04  0.28271176284E+04 0.  0.
        5    1    3    3  502    0 -0.19857882507E+03 -0.23030885660E+03  0.17694162133E+04  0.17953639032E+04  0.46999998093E+01 0.  1.
       -5    1    3    3    0  502  0.19857882507E+03  0.23030885660E+03 -0.10738294561E+04  0.11160678788E+04  0.46999998093E+01 0. -1.
</event>
<event>
 5   0  0.1580212E-06  0.2906850E+04  0.7818609E-02  0.8270842E-01
       -1   -1    0    0    0  501  0.00000000000E+00  0.00000000000E+00  0.16942215474E+04  0.16942215474E+04  0.50400001928E-02 0.  1.
        1   -1    0    0  501    0  0.00000000000E+00  0.00000000000E+00 -0.12468521383E+04  0.12468521383E+04  0.50400001928E-02 0. -1.
    10030    2    1    2    0    0  0.00000000000E+00  0.00000000000E+00  0.44736940911E+03  0.29410736858E+04  0.29068496757E+04 0.  0.
        4    1    3    3  502    0  0.92091228056E+03 -0.10260497120E+04 -0.24171431991E+03  0.13997445715E+04  0.12699999809E+01 0. -1.
       -4    1    3    3    0  502 -0.92091228056E+03  0.10260497120E+04  0.68908372902E+03  0.15413291143E+04  0.12699999809E+01 0.  1.
</event>
<event>
 5   0  0.1360125E-06  0.2899125E+04  0.7818609E-02  0.8273138E-01
        3   -1    0    0  501    0  0.00000000000E+00  0.00000000000E+00  0.12769812951E+04  0.12769812990E+04  0.10100000352E+00 0.  1.
       -3   -1    0    0    0  501  0.00000000000E+00  0.00000000000E+00 -0.16454681325E+04  0.16454681356E+04  0.10100000352E+00 0. -1.
    10030    2    1    2    0    0  0.00000000000E+00  0.00000000000E+00 -0.36848683745E+03  0.29224494346E+04  0.28991254110E+04 0.  0.
        4    1    3    3  502    0 -0.77891189552E+03  0.18324421829E+03 -0.14026645369E+04  0.16148534300E+04  0.12699999809E+01 0. -1.
       -4    1    3    3    0  502  0.77891189552E+03 -0.18324421829E+03  0.10341776994E+04  0.13075960046E+04  0.12699999809E+01 0.  1.
</event>
<event>
 5   0  0.4115143E-06  0.2890474E+04  0.7818609E-02  0.8275717E-01
       -2   -1    0    0    0  501  0.00000000000E+00  0.00000000000E+00  0.11398687451E+04  0.11398687451E+04  0.25500000920E-02 0. -1.
        2   -1    0    0  501    0  0.00000000000E+00  0.00000000000E+00 -0.18324131062E+04  0.18324131062E+04  0.25500000920E-02 0.  1.
    10030    2    1    2    0    0  0.00000000000E+00  0.00000000000E+00 -0.69254436105E+03  0.29722818513E+04  0.28904743056E+04 0.  0.
        1    1    3    3  502    0 -0.52371756749E+03  0.85181967681E+02  0.10360870151E+04  0.11640499821E+04  0.50400001928E-02 0. -1.
       -1    1    3    3    0  502  0.52371756749E+03 -0.85181967681E+02 -0.17286313761E+04  0.18082318691E+04  0.50400001928E-02 0.  1.
</event>
<event>
 5   0  0.4224163E-06  0.2901519E+04  0.7818609E-02  0.8272426E-01
       -2   -1    0    0    0  501  0.00000000000E+00  0.00000000000E+00  0.25785784671E+04  0.25785784671E+04  0.25500000920E-02 0.  1.
        2   -1    0    0  501    0  0.00000000000E+00  0.00000000000E+00 -0.81622628544E+03  0.81622628545E+03  0.25500000920E-02 0. -1.
    10030    2    1    2    0    0  0.00000000000E+00  0.00000000000E+00  0.17623521817E+04  0.33948047526E+04  0.29015192737E+04 0.  0.
        4    1    3    3  502    0  0.76759644419E+03  0.61714137512E+03  0.21274607920E+04  0.23443887929E+04  0.12699999809E+01 0.  1.
       -4    1    3    3    0  502 -0.76759644419E+03 -0.61714137512E+03 -0.36510861032E+03  0.10504159596E+04  0.12699999809E+01 0. -1.
</event>
<event>
 5   0  0.4162450E-06  0.2907524E+04  0.7818609E-02  0.8270643E-01
        2   -1    0    0  501    0  0.00000000000E+00  0.00000000000E+00  0.15540377700E+04  0.15540377700E+04  0.25500000920E-02 0. -1.
       -2   -1    0    0    0  501  0.00000000000E+00  0.00000000000E+00 -0.13599561590E+04  0.13599561590E+04  0.25500000920E-02 0.  1.
    10030    2    1    2    0    0  0.00000000000E+00  0.00000000000E+00  0.19408161107E+03  0.29139939290E+04  0.29075235075E+04 0.  0.
        2    1    3    3  502    0 -0.29862644446E+02 -0.33355074726E+03 -0.13207717954E+04  0.13625659669E+04  0.25500000920E-02 0.  1.
       -2    1    3    3    0  502  0.29862644446E+02  0.33355074726E+03  0.15148534065E+04  0.15514279621E+04  0.25500000920E-02 0. -1.
</event>
<event>
 5   0  0.4162450E-06  0.3090625E+04  0.7818609E-02  0.8218316E-01
        2   -1    0    0  501    0  0.00000000000E+00  0.00000000000E+00  0.19447122262E+04  0.19447122262E+04  0.25500000920E-02 0.  1.
       -2   -1    0    0    0  501  0.00000000000E+00  0.00000000000E+00 -0.12279400335E+04  0.12279400335E+04  0.25500000920E-02 0. -1.
    10030    2    1    2    0    0  0.00000000000E+00  0.00000000000E+00  0.71677219264E+03  0.31726522597E+04  0.30906245299E+04 0.  0.
        2    1    3    3  502    0  0.47784857958E+03  0.14693845949E+04  0.33410144272E+03  0.15808396904E+04  0.25500000920E-02 0.  1.
       -2    1    3    3    0  502 -0.47784857958E+03 -0.14693845949E+04  0.38267074993E+03  0.15918125693E+04  0.25500000920E-02 0. -1.
</event>
<event>
 5   0  0.1550278E-06  0.2903449E+04  0.7818609E-02  0.8271852E-01
       -1   -1    0    0    0  501  0.00000000000E+00  0.00000000000E+00  0.16517193807E+04  0.16517193807E+04  0.50400001928E-02 0. -1.
        1   -1    0    0  501    0  0.00000000000E+00  0.00000000000E+00 -0.12759453008E+04  0.12759453008E+04  0.50400001928E-02 0.  1.
    10030    2    1    2    0    0  0.00000000000E+00  0.00000000000E+00  0.37577407991E+03  0.29276646814E+04  0.29034486956E+04 0.  0.
        2    1    3    3  502    0  0.59350897276E+03  0.13996243661E+03  0.15163200366E+04  0.16343404902E+04  0.25500000920E-02 0. -1.
       -2    1    3    3    0  502 -0.59350897276E+03 -0.13996243661E+03 -0.11405459567E+04  0.12933241913E+04  0.25500000920E-02 0.  1.
</event>
<event>
 5   0  0.1543678E-06  0.2848638E+04  0.7818609E-02  0.8288325E-01
        1   -1    0    0  501    0  0.00000000000E+00  0.00000000000E+00  0.14981721399E+04  0.14981721399E+04  0.50400001928E-02 0.  1.
       -1   -1    0    0    0  501  0.00000000000E+00  0.00000000000E+00 -0.13541067666E+04  0.13541067666E+04  0.50400001928E-02 0. -1.
    10030    2    1    2    0    0  0.00000000000E+00  0.00000000000E+00  0.14406537332E+03  0.28522789064E+04  0.28486382937E+04 0.  0.
        3    1    3    3  502    0  0.10147222485E+04 -0.68902834922E+03  0.79701862320E+03  0.14627576708E+04  0.10100000352E+00 0. -1.
       -3    1    3    3    0  502 -0.10147222485E+04  0.68902834922E+03 -0.65295324988E+03  0.13895212356E+04  0.10100000352E+00 0.  1.
</event>
<event>
 5   0  0.4148677E-06  0.2909376E+04  0.7818609E-02  0.8270093E-01
       -2   -1    0    0    0  501  0.00000000000E+00  0.00000000000E+00  0.16984964370E+04  0.16984964370E+04  0.25500000920E-02 0. -1.
        2   -1    0    0  501    0  0.00000000000E+00  0.00000000000E+00 -0.12458769240E+04  0.12458769240E+04  0.25500000920E-02 0.  1.
    10030    2    1    2    0    0  0.00000000000E+00  0.00000000000E+00  0.45261951299E+03  0.29443733611E+04  0.29093762331E+04 0.  0.
        5    1    3    3  502    0 -0.50206313844E+02 -0.33268674900E+03 -0.12059507152E+04  0.12520145224E+04  0.46999998093E+01 0.  1.
       -5    1    3    3    0  502  0.50206313844E+02  0.33268674900E+03  0.16585702282E+04  0.16923588386E+04  0.46999998093E+01 0. -1.
</event>
<event>
 5   0  0.4115143E-06  0.2910230E+04  0.7818609E-02  0.8269840E-01
       -2   -1    0    0    0  501  0.00000000000E+00  0.00000000000E+00  0.80081864248E+03  0.80081864248E+03  0.25500000920E-02 0. -1.
        2   -1    0    0  501    0  0.00000000000E+00  0.00000000000E+00 -0.26439942183E+04  0.26439942183E+04  0.25500000920E-02 0.  1.
    10030    2    1    2    0    0  0.00000000000E+00  0.00000000000E+00 -0.18431755758E+04  0.34448128607E+04  0.29102301356E+04 0.  0.
        1    1    3    3  502    0 -0.16482327559E+03  0.96302108329E+03 -0.21979905587E+04  0.24053562762E+04  0.50400001928E-02 0.  1.
       -1    1    3    3    0  502  0.16482327559E+03 -0.96302108329E+03  0.35481498295E+03  0.10394565846E+04  0.50400001928E-02 0. -1.
</event>
<event>
 5   0  0.1580212E-06  0.2926744E+04  0.7818609E-02  0.8264965E-01
        1   -1    0    0  501    0  0.00000000000E+00  0.00000000000E+00  0.14613424611E+04  0.14613424611E+04  0.50400001928E-02 0. -1.
       -1   -1    0    0    0  501  0.00000000000E+00  0.00000000000E+00 -0.14654039599E+04  0.14654039599E+04  0.50400001928E-02 0.  1.
    10030    2    1    2    0    0  0.00000000000E+00  0.00000000000E+00 -0.40614988513E+01  0.29267464210E+04  0.29267436029E+04 0.  0.
        4    1    3    3  502    0  0.64929973177E+03  0.13098068088E+04 -0.67386748772E+02  0.14634639062E+04  0.12699999809E+01 0.  1.
       -4    1    3    3    0  502 -0.64929973177E+03 -0.13098068088E+04  0.63325249920E+02  0.14632825148E+04  0.12699999809E+01 0. -1.
</event>
<event>
 5   0  0.1543678E-06  0.2787896E+04  0.7818609E-02  0.8307036E-01
        1   -1    0    0  501    0  0.00000000000E+00  0.00000000000E+00  0.14247226867E+04  0.14247226867E+04  0.50400001928E-02 0.  1.
       -1   -1    0    0    0  501  0.00000000000E+00  0.00000000000E+00 -0.13638381869E+04  0.13638381869E+04  0.50400001928E-02 0. -1.
    10030    2    1    2    0    0  0.00000000000E+00  0.00000000000E+00  0.60884499794E+02  0.27885608736E+04  0.27878961285E+04 0.  0.
        3    1    3    3  502    0  0.87842808634E+03 -0.10628365218E+04  0.23502419627E+03  0.13987472102E+04  0.10100000352E+00 0.  1.
       -3    1    3    3    0  502 -0.87842808634E+03  0.10628365218E+04 -0.17413969648E+03  0.13898136634E+04  0.10100000352E+00 0. -1.
</event>
<event>
 5   0  0.4148677E-06  0.2828019E+04  0.7818609E-02  0.8294622E-01
        2   -1    0    0  501    0  0.00000000000E+00  0.00000000000E+00  0.86407609399E+03  0.86407609400E+03  0.25500000920E-02 0.  1.
       -2   -1    0    0    0  501  0.00000000000E+00  0.00000000000E+00 -0.23139430514E+04  0.23139430514E+04  0.25500000920E-02 0. -1.
    10030    2    1    2    0    0  0.00000000000E+00  0.00000000000E+00 -0.14498669574E+04  0.31780191454E+04  0.28280190053E+04 0.  0.
        5    1    3    3  502    0  0.10036570607E+04  0.31914766437E+03 -0.17852179111E+04  0.20727295548E+04  0.46999998093E+01 0. -1.
       -5    1    3    3    0  502 -0.10036570607E+04 -0.31914766437E+03  0.33535095368E+03  0.11052895907E+04  0.46999998093E+01 0.  1.
</event>
<event>
 5   0  0.1360125E-06  0.2898642E+04  0.7818609E-02  0.8273281E-01
       -4   -1    0    0    0  501  0.00000000000E+00  0.00000000000E+00  0.13248264753E+04  0.13248270840E+04  0.12699999809E+01 0. -1.
        4   -1    0    0  501    0  0.00000000000E+00  0.00000000000E+00 -0.15855136001E+04  0.15855141087E+04  0.12699999809E+01 0.  1.
    10030    2    1    2    0    0  0.00000000000E+00  0.00000000000E+00 -0.26068712481E+03  0.29103411927E+04  0.28986424549E+04 0.  0.
        3    1    3    3  502    0  0.93813660949E+03  0.10853263159E+04  0.76640095662E+02  0.14366305108E+04  0.10100000352E+00 0.  1.
       -3    1    3    3    0  502 -0.93813660949E+03 -0.10853263159E+04 -0.33732722047E+03  0.14737106819E+04  0.10100000352E+00 0. -1.
</event>
<event>
 5   0  0.4162450E-06  0.2884797E+04  0.7818609E-02  0.8277415E-01
        2   -1    0    0  501    0  0.00000000000E+00  0.00000000000E+00  0.96484504725E+03  0.96484504726E+03  0.25500000920E-02 0. -1.
       -2   -1    0    0    0  501  0.00000000000E+00  0.00000000000E+00 -0.21563191757E+04  0.21563191757E+04  0.25500000920E-02 0.  1.
    10030    2    1    2    0    0  0.00000000000E+00  0.00000000000E+00 -0.11914741285E+04  0.31211642230E+04  0.28847973080E+04 0.  0.
        2    1    3    3  502    0 -0.10476163768E+04 -0.36997574600E+03  0.39948572491E+03  0.11806654776E+04  0.25500000920E-02 0. -1.
       -2    1    3    3    0  502  0.10476163768E+04  0.36997574600E+03 -0.15909598534E+04  0.19404987454E+04  0.25500000920E-02 0.  1.
</event>
<event>
 5   0  0.4224163E-06  0.2893658E+04  0.7818609E-02  0.8274767E-01
       -2   -1    0    0    0  501  0.00000000000E+00  0.00000000000E+00  0.13998736279E+04  0.13998736279E+04  0.25500000920E-02 0. -1.
        2   -1    0    0  501    0  0.00000000000E+00  0.00000000000E+00 -0.14953597662E+04  0.14953597662E+04  0.25500000920E-02 0.  1.
    10030    2    1    2    0    0  0.00000000000E+00  0.00000000000E+00 -0.95486138285E+02  0.28952333940E+04  0.28936583771E+04 0.  0.
        4    1    3    3  502    0 -0.10142631450E+04 -0.10199888875E+04  0.10792448603E+03  0.14424827090E+04  0.12699999809E+01 0. -1.
       -4    1    3    3    0  502  0.10142631450E+04  0.10199888875E+04 -0.20341062432E+03  0.14527506851E+04  0.12699999809E+01 0.  1.
</event>
<event>
 5   0  0.1602873E-06  0.2937592E+04  0.7818609E-02  0.8261780E-01
       -1   -1    0    0    0  501  0.00000000000E+00  0.00000000000E+00  0.15924006353E+04  0.15924006353E+04  0.50400001928E-02 0.  1.
        1   -1    0    0  501    0  0.00000000000E+00  0.00000000000E+00 -0.13547855457E+04  0.13547855457E+04  0.50400001928E-02 0. -1.
    10030    2    1    2    0    0  0.00000000000E+00  0.00000000000E+00  0.23761508962E+03  0.29471861811E+04  0.29375917782E+04 0.  0.
        1    1    3    3  502    0 -0.12784289356E+04 -0.14583499010E+03 -0.59182287604E+03  0.14162989460E+04  0.50400001928E-02 0. -1.
       -1    1    3    3    0  502  0.12784289356E+04  0.14583499010E+03  0.82943796566E+03  0.15308872351E+04  0.50400001928E-02 0.  1.
</event>
<event>
 5   0  0.1602873E-06  0.2911904E+04  0.7818609E-02  0.8269345E-01
        1   -1    0    0  501    0  0.00000000000E+00  0.00000000000E+00  0.14114064329E+04  0.14114064329E+04  0.50400001928E-02 0. -1.
       -1   -1    0    0    0  501  0.00000000000E+00  0.00000000000E+00 -0.15019033498E+04  0.15019033498E+04  0.50400001928E-02 0.  1.
    10030    2    1    2    0    0  0.00000000000E+00  0.00000000000E+00 -0.90496916878E+02  0.29133097828E+04  0.29119038786E+04 0.  0.
        1    1    3    3  502    0 -0.16428155153E+03 -0.14264818290E+04  0.19561081852E+03  0.14491730156E+04  0.50400001928E-02 0.  1.
       -1    1    3    3    0  502  0.16428155153E+03  0.14264818290E+04 -0.28610773540E+03  0.14641367672E+04  0.50400001928E-02 0. -1.
</event>
<event>
 5   0  0.1511126E-06  0.2882539E+04  0.7818609E-02  0.8278092E-01
       -1   -1    0    0    0  501  0.00000000000E+00  0.00000000000E+00  0.11333167740E+04  0.11333167740E+04  0.50400001928E-02 0. -1.
        1   -1    0    0  501    0  0.00000000000E+00  0.00000000000E+00 -0.18329016547E+04  0.18329016547E+04  0.50400001928E-02 0.  1.
    10030    2    1    2    0    0  0.00000000000E+00  0.00000000000E+00 -0.69958488066E+03  0.29662184287E+04  0.28825392906E+04 0.  0.
        5    1    3    3  502    0  0.83797229585E+03 -0.36664974711E+03 -0.14959515706E+04  0.17534317202E+04  0.46999998093E+01 0.  1.
       -5    1    3    3    0  502 -0.83797229585E+03  0.36664974711E+03  0.79636668994E+03  0.12127867086E+04  0.46999998093E+01 0. -1.
</event>
<event>
 5   0  0.4115143E-06  0.2900760E+04  0.7818609E-02  0.8272651E-01
       -2   -1    0    0    0  501  0.00000000000E+00  0.00000000000E+00  0.97344419155E+03  0.97344419155E+03  0.25500000920E-02 0.  1.
        2   -1    0    0  501    0  0.00000000000E+00  0.00000000000E+00 -0.21609887002E+04  0.21609887002E+04  0.25500000920E-02 0. -1.
    10030    2    1    2    0    0  0.00000000000E+00  0.00000000000E+00 -0.11875445087E+04  0.31344328918E+04  0.29007598303E+04 0.  0.
        1    1    3    3  502    0  0.11266862117E+04 -0.71144714690E+03  0.25097666647E+02  0.13327448200E+04  0.50400001928E-02 0.  1.
       -1    1    3    3    0  502 -0.11266862117E+04  0.71144714690E+03 -0.12126421753E+04  0.18016880717E+04  0.50400001928E-02 0. -1.
</event>
<event>
 5   0  0.4224163E-06  0.2897726E+04  0.7818609E-02  0.8273554E-01
        2   -1    0    0  501    0  0.00000000000E+00  0.00000000000E+00  0.13140851455E+04  0.13140851455E+04  0.25500000920E-02 0.  1.
       -2   -1    0    0    0  501  0.00000000000E+00  0.00000000000E+00 -0.15974638499E+04  0.15974638499E+04  0.25500000920E-02 0. -1.
    10030    2    1    2    0    0  0.00000000000E+00  0.00000000000E+00 -0.28337870437E+03  0.29115489954E+04  0.28977256707E+04 0.  0.
        4    1    3    3  502    0 -0.85781493422E+03 -0.60557829790E+03 -0.11447654746E+04  0.15534030839E+04  0.12699999809E+01 0. -1.
       -4    1    3    3    0  502  0.85781493422E+03  0.60557829790E+03  0.86138677024E+03  0.13581459116E+04  0.12699999809E+01 0.  1.
</event>
<event>
 5   0  0.1580212E-06  0.2915435E+04  0.7818609E-02  0.8268300E-01
       -1   -1    0    0    0  501  0.00000000000E+00  0.00000000000E+00  0.15406312851E+04  0.15406312851E+04  0.50400001928E-02 0.  1.
        1   -1    0    0  501    0  0.00000000000E+00  0.00000000000E+00 -0.13792659201E+04  0.13792659201E+04  0.50400001928E-02 0. -1.
    10030    2    1    2    0    0  0.00000000000E+00  0.00000000000E+00  0.16136536498E+03  0.29198972053E+04  0.29154349432E+04 0.  0.
        4    1    3    3  502    0  0.13904025386E+04  0.10526354940E+03  0.50634964448E+03  0.14834726858E+04  0.12699999809E+01 0. -1.
       -4    1    3    3    0  502 -0.13904025386E+04 -0.10526354940E+03 -0.34498427950E+03  0.14364245195E+04  0.12699999809E+01 0.  1.
</event>
<event>
 5   0  0.1360125E-06  0.2918168E+04  0.7818609E-02  0.8267492E-01
       -3   -1    0    0    0  501  0.00000000000E+00  0.00000000000E+00  0.91723460182E+03  0.91723460738E+03  0.10100000352E+00 0.  1.
        3   -1    0    0  501    0  0.00000000000E+00  0.00000000000E+00 -0.23210272870E+04  0.23210272892E+04  0.10100000352E+00 0. -1.
    10030    2    1    2    0    0  0.00000000000E+00  0.00000000000E+00 -0.14037926852E+04  0.32382618966E+04  0.29181682967E+04 0.  0.
        2    1    3    3  502    0 -0.58557143219E+03  0.44419642806E+02 -0.21840946311E+04  0.22616667227E+04  0.25500000920E-02 0. -1.
       -2    1    3    3    0  502  0.58557143219E+03 -0.44419642806E+02  0.78030194592E+03  0.97659517389E+03  0.25500000920E-02 0.  1.
</event>
<event>
 5   0  0.4115143E-06  0.2901938E+04  0.7818609E-02  0.8272301E-01
        2   -1    0    0  501    0  0.00000000000E+00  0.00000000000E+00  0.29904541986E+04  0.29904541986E+04  0.25500000920E-02 0. -1.
       -2   -1    0    0    0  501  0.00000000000E+00  0.00000000000E+00 -0.70401037443E+03  0.70401037444E+03  0.25500000920E-02 0.  1.
    10030    2    1    2    0    0  0.00000000000E+00  0.00000000000E+00  0.22864438242E+04  0.36944645731E+04  0.29019378216E+04 0.  0.
        1    1    3    3  502    0  0.10227782753E+04 -0.72851476666E+03  0.21770030378E+03  0.12744420693E+04  0.50400001928E-02 0.  1.
       -1    1    3    3    0  502 -0.10227782753E+04  0.72851476666E+03  0.20687435204E+04  0.24200225038E+04  0.50400001928E-02 0. -1.
</event>
<event>
 5   0  0.1543678E-06  0.2846119E+04  0.7818609E-02  0.8289092E-01
       -1   -1    0    0    0  501  0.00000000000E+00  0.00000000000E+00  0.12098544721E+04  0.12098544721E+04  0.50400001928E-02 0. -1.
        1   -1    0    0  501    0  0.00000000000E+00  0.00000000000E+00 -0.16738363304E+04  0.16738363304E+04  0.50400001928E-02 0.  1.
    10030    2    1    2    0    0  0.00000000000E+00  0.00000000000E+00 -0.46398185834E+03  0.28836908025E+04  0.28461190206E+04 0.  0.
        3    1    3    3  502    0 -0.21557737596E+03  0.79358801578E+03  0.94473766317E+03  0.12525113996E+04  0.10100000352E+00 0. -1.
       -3    1    3    3    0  502  0.21557737596E+03 -0.79358801578E+03 -0.14087195215E+04  0.16311794029E+04  0.10100000352E+00 0.  1.
</event>
<event>
 5   0  0.4162450E-06  0.2636149E+04  0.7818609E-02  0.8356025E-01
        2   -1    0    0  501    0  0.00000000000E+00  0.00000000000E+00  0.20611740020E+04  0.20611740020E+04  0.25500000920E-02 0. -1.
       -2   -1    0    0    0  501  0.00000000000E+00  0.00000000000E+00 -0.84287919189E+03  0.84287919190E+03  0.25500000920E-02 0.  1.
    10030    2    1    2    0    0  0.00000000000E+00  0.00000000000E+00  0.12182948101E+04  0.29040531939E+04  0.26361492197E+04 0.  0.
        2    1    3    3  502    0  0.87565357948E+03 -0.12135607456E+03 -0.46787214257E+03  0.10002003949E+04  0.25500000920E-02 0.  1.
       -2    1    3    3    0  502 -0.87565357948E+03  0.12135607456E+03  0.16861669527E+04  0.19038527990E+04  0.25500000920E-02 0. -1.
</event>
<event>
 5   0  0.4162450E-06  0.2902139E+04  0.7818609E-02  0.8272241E-01
       -2   -1    0    0    0  501  0.00000000000E+00  0.00000000000E+00  0.17609433143E+04  0.17609433143E+04  0.25500000920E-02 0.  1.
        2   -1    0    0  501    0  0.00000000000E+00  0.00000000000E+00 -0.11957241884E+04  0.11957241885E+04  0.25500000920E-02 0. -1.
    10030    2    1    2    0    0  0.00000000000E+00  0.00000000000E+00  0.56521912583E+03  0.29566675027E+04  0.29021388770E+04 0.  0.
        2    1    3    3  502    0 -0.13655483233E+04 -0.33323168917E+02  0.78147290324E+03  0.15737002749E+04  0.25500000920E-02 0. -1.
       -2    1    3    3    0  502  0.13655483233E+04  0.33323168917E+02 -0.21625377741E+03  0.13829672278E+04  0.25500000920E-02 0.  1.
</event>
<event>
 5   0  0.4224163E-06  0.2884243E+04  0.7818609E-02  0.8277581E-01
        2   -1    0    0  501    0  0.00000000000E+00  0.00000000000E+00  0.14890468250E+04  0.14890468250E+04  0.25500000920E-02 0. -1.
       -2   -1    0    0    0  501  0.00000000000E+00  0.00000000000E+00 -0.13966750043E+04  0.13966750043E+04  0.25500000920E-02 0.  1.
    10030    2    1    2    0    0  0.00000000000E+00  0.00000000000E+00  0.92371820718E+02  0.28857218293E+04  0.28842430416E+04 0.  0.
        4    1    3    3  502    0  0.62706377851E+03 -0.69411960635E+03  0.11443377696E+04  0.14780127043E+04  0.12699999809E+01 0. -1.
       -4    1    3    3    0  502 -0.62706377851E+03  0.69411960635E+03 -0.10519659489E+04  0.14077091250E+04  0.12699999809E+01 0.  1.
</event>
<event>
 5   0  0.4148677E-06  0.2905597E+04  0.7818609E-02  0.8271214E-01
       -2   -1    0    0    0  501  0.00000000000E+00  0.00000000000E+00  0.18250330539E+04  0.18250330539E+04  0.25500000920E-02 0. -1.
        2   -1    0    0  501    0  0.00000000000E+00  0.00000000000E+00 -0.11564854153E+04  0.11564854153E+04  0.25500000920E-02 0.  1.
    10030    2    1    2    0    0  0.00000000000E+00  0.00000000000E+00  0.66854763863E+03  0.29815184692E+04  0.29055974320E+04 0.  0.
        5    1    3    3  502    0  0.44908266518E+03  0.29972041382E+02  0.17516805301E+04  0.18085851744E+04  0.46999998093E+01 0. -1.
       -5    1    3    3    0  502 -0.44908266518E+03 -0.29972041382E+02 -0.10831328915E+04  0.11729332948E+04  0.46999998093E+01 0.  1.
</event>
<event>
 5   0  0.4115143E-06  0.2906209E+04  0.7818609E-02  0.8271032E-01
       -2   -1    0    0    0  501  0.00000000000E+00  0.00000000000E+00  0.13869650962E+04  0.13869650962E+04  0.25500000920E-02 0.  1.
        2   -1    0    0  501    0  0.00000000000E+00  0.00000000000E+00 -0.15223981906E+04  0.15223981906E+04  0.25500000920E-02 0. -1.
    10030    2    1    2    0    0  0.00000000000E+00  0.00000000000E+00 -0.13543309440E+03  0.29093632868E+04  0.29062093199E+04 0.  0.
        1    1    3    3  502    0  0.12688282630E+04  0.64598764816E+03 -0.35835549287E+03  0.14682111094E+04  0.50400001928E-02 0. -1.
       -1    1    3    3    0  502 -0.12688282630E+04 -0.64598764816E+03  0.22292239846E+03  0.14411521773E+04  0.50400001928E-02 0.  1.
</event>
<event>
 5   0  0.4148677E-06  0.2900024E+04  0.7818609E-02  0.8272870E-01
        2   -1    0    0  501    0  0.00000000000E+00  0.00000000000E+00  0.11840801973E+04  0.11840801973E+04  0.25500000920E-02 0.  1.
       -2   -1    0    0    0  501  0.00000000000E+00  0.00000000000E+00 -0.17756695937E+04  0.17756695937E+04  0.25500000920E-02 0. -1.
    10030    2    1    2    0    0  0.00000000000E+00  0.00000000000E+00 -0.59158939641E+03  0.29597497910E+04  0.29000242777E+04 0.  0.
        5    1    3    3  502    0  0.11652812448E+04 -0.85014151632E+03 -0.44680181960E+03  0.15100579238E+04  0.46999998093E+01 0. -1.
       -5    1    3    3    0  502 -0.11652812448E+04  0.85014151632E+03 -0.14478757682E+03  0.14496918672E+04  0.46999998093E+01 0.  1.
</event>
<event>
 5   0  0.1580212E-06  0.2898708E+04  0.7818609E-02  0.8273262E-01
        1   -1    0    0  501    0  0.00000000000E+00  0.00000000000E+00  0.13959270191E+04  0.13959270191E+04  0.50400001928E-02 0.  1.
       -1   -1    0    0    0  501  0.00000000000E+00  0.00000000000E+00 -0.15048254748E+04  0.15048254748E+04  0.50400001928E-02 0. -1.
    10030    2    1    2    0    0  0.00000000000E+00  0.00000000000E+00 -0.10889845574E+03  0.29007524939E+04  0.28987076702E+04 0.  0.
        4    1    3    3  502    0 -0.80826653967E+03  0.30889950345E+03  0.11090881559E+04  0.14066953660E+04  0.12699999809E+01 0.  1.
       -4    1    3    3    0  502  0.80826653967E+03 -0.30889950345E+03 -0.12179866116E+04  0.14940571279E+04  0.12699999809E+01 0. -1.
</event>
<event>
 5   0  0.1511126E-06  0.2903966E+04  0.7818609E-02  0.8271698E-01
       -1   -1    0    0    0  501  0.00000000000E+00  0.00000000000E+00  0.26759824022E+04  0.26759824022E+04  0.50400001928E-02 0.  1.
        1   -1    0    0  501    0  0.00000000000E+00  0.00000000000E+00 -0.78784341613E+03  0.78784341615E+03  0.50400001928E-02 0. -1.
    10030    2    1    2    0    0  0.00000000000E+00  0.00000000000E+00  0.18881389861E+04  0.34638258183E+04  0.29039663340E+04 0.  0.
        5    1    3    3  502    0 -0.11994475993E+04  0.74207882035E+03  0.53281153534E+03  0.15077353021E+04  0.46999998093E+01 0. -1.
       -5    1    3    3    0  502  0.11994475993E+04 -0.74207882035E+03  0.13553274507E+04  0.19560905162E+04  0.46999998093E+01 0.  1.
</event>
<event>
 5   0  0.4224163E-06  0.2933717E+04  0.7818609E-02  0.8262916E-01
       -2   -1    0    0    0  501  0.00000000000E+00  0.00000000000E+00  0.10317167339E+04  0.10317167339E+04  0.25500000920E-02 0. -1.
        2   -1    0    0  501    0  0.00000000000E+00  0.00000000000E+00 -0.20855273491E+04  0.20855273491E+04  0.25500000920E-02 0.  1.
    10030    2    1    2    0    0  0.00000000000E+00  0.00000000000E+00 -0.10538106152E+04  0.31172440830E+04  0.29337167314E+04 0.  0.
        4    1    3    3  502    0 -0.30489769731E+03  0.10547337623E+04  0.50669979684E+03  0.12092031311E+04  0.12699999809E+01 0. -1.
       -4    1    3    3    0  502  0.30489769731E+03 -0.10547337623E+04 -0.15605104120E+04  0.19080409519E+04  0.12699999809E+01 0.  1.
</event>
<event>
 5   0  0.4162450E-06  0.2934372E+04  0.7818609E-02  0.8262724E-01
        2   -1    0    0  501    0  0.00000000000E+00  0.00000000000E+00  0.23802584494E+04  0.23802584494E+04  0.25500000920E-02 0. -1.
       -2   -1    0    0    0  501  0.00000000000E+00  0.00000000000E+00 -0.90437022855E+03  0.90437022855E+03  0.25500000920E-02 0.  1.
    10030    2    1    2    0    0  0.00000000000E+00  0.00000000000E+00  0.14758882209E+04  0.32846286780E+04  0.29343720813E+04 0.  0.
        2    1    3    3  502    0 -0.13315216665E+04  0.55177729732E+03  0.43093078185E+03  0.15043634776E+04  0.25500000920E-02 0.  1.
       -2    1    3    3    0  502  0.13315216665E+04 -0.55177729732E+03  0.10449574390E+04  0.17802652003E+04  0.25500000920E-02 0. -1.
</event>
<event>
 5   0  0.1511126E-06  0.2891653E+04  0.7818609E-02  0.8275365E-01
       -1   -1    0    0    0  501  0.00000000000E+00  0.00000000000E+00  0.85429322827E+03  0.85429322828E+03  0.50400001928E-02 0.  1.
        1   -1    0    0  501    0  0.00000000000E+00  0.00000000000E+00 -0.24469512596E+04  0.24469512596E+04  0.50400001928E-02 0. -1.
    10030    2    1    2    0    0  0.00000000000E+00  0.00000000000E+00 -0.15926580313E+04  0.33012444879E+04  0.28916527392E+04 0.  0.
        5    1    3    3  502    0  0.55465833459E+03  0.10017890548E+04 -0.18040636035E+04  0.21367954403E+04  0.46999998093E+01 0. -1.
       -5    1    3    3    0  502 -0.55465833459E+03 -0.10017890548E+04  0.21140557212E+03  0.11644490476E+04  0.46999998093E+01 0.  1.
</event>
<event>
 5   0  0.1580212E-06  0.2888786E+04  0.7818609E-02  0.8276222E-01
        1   -1    0    0  501    0  0.00000000000E+00  0.00000000000E+00  0.12827572145E+04  0.12827572146E+04  0.50400001928E-02 0.  1.
       -1   -1    0    0    0  501  0.00000000000E+00  0.00000000000E+00 -0.16263958840E+04  0.16263958840E+04  0.50400001928E-02 0. -1.
    10030    2    1    2    0    0  0.00000000000E+00  0.00000000000E+00 -0.34363866948E+03  0.29091530986E+04  0.28887859415E+04 0.  0.
        4    1    3    3  502    0 -0.55531087184E+03 -0.97958875050E+03 -0.10827993702E+04  0.15621844876E+04  0.12699999809E+01 0. -1.
       -4    1    3    3    0  502  0.55531087184E+03  0.97958875050E+03  0.73916070070E+03  0.13469686109E+04  0.12699999809E+01 0.  1.
</event>
<event>
 5   0  0.4148677E-06  0.2908891E+04  0.7818609E-02  0.8270237E-01
       -2   -1    0    0    0  501  0.00000000000E+00  0.00000000000E+00  0.10781773809E+04  0.10781773810E+04  0.25500000920E-02 0.  1.
        2   -1    0    0  501    0  0.00000000000E+00  0.00000000000E+00 -0.19620262019E+04  0.19620262019E+04  0.25500000920E-02 0. -1.
    10030    2    1    2    0    0  0.00000000000E+00  0.00000000000E+00 -0.88384882097E+03  0.30402035829E+04  0.29088913845E+04 0.  0.
        5    1    3    3  502    0  0.14913983363E+03  0.22020515743E+03 -0.19363882532E+04  0.19545727304E+04  0.46999998093E+01 0. -1.
       -5    1    3    3    0  502 -0.14913983363E+03 -0.22020515743E+03  0.10525394323E+04  0.10856308524E+04  0.46999998093E+01 0.  1.
</event>
<event>
 5   0  0.1550278E-06  0.2890394E+04  0.7818609E-02  0.8275741E-01
        1   -1    0    0  501    0  0.00000000000E+00  0.00000000000E+00  0.15255721583E+04  0.15255721583E+04  0.50400001928E-02 0. -1.
       -1   -1    0    0    0  501  0.00000000000E+00  0.00000000000E+00 -0.13690563178E+04  0.13690563178E+04  0.50400001928E-02 0.  1.
    10030    2    1    2    0    0  0.00000000000E+00  0.00000000000E+00  0.15651584048E+03  0.28946284761E+04  0.28903938843E+04 0.  0.
        2    1    3    3  502    0 -0.26883036601E+03  0.74498783313E+02  0.14983531569E+04  0.15241003960E+04  0.25500000920E-02 0. -1.
       -2    1    3    3    0  502  0.26883036601E+03 -0.74498783313E+02 -0.13418373164E+04  0.13705280800E+04  0.25500000920E-02 0.  1.
</event>
<event>
 5   0  0.1543678E-06  0.2878388E+04  0.7818609E-02  0.8279337E-01
        1   -1    0    0  501    0  0.00000000000E+00  0.00000000000E+00  0.22976218461E+04  0.22976218461E+04  0.50400001928E-02 0. -1.
       -1   -1    0    0    0  501  0.00000000000E+00  0.00000000000E+00 -0.90148858456E+03  0.90148858457E+03  0.50400001928E-02 0.  1.
    10030    2    1    2    0    0  0.00000000000E+00  0.00000000000E+00  0.13961332615E+04  0.31991104307E+04  0.28783883448E+04 0.  0.
        3    1    3    3  502    0  0.99098949644E+03 -0.80135745926E+03 -0.45048151646E+02  0.12752502914E+04  0.10100000352E+00 0.  1.
       -3    1    3    3    0  502 -0.99098949644E+03  0.80135745926E+03  0.14411814132E+04  0.19238601393E+04  0.10100000352E+00 0. -1.
</event>
<event>
 5   0  0.1602873E-06  0.2908652E+04  0.7818609E-02  0.8270308E-01
        1   -1    0    0  501    0  0.00000000000E+00  0.00000000000E+00  0.95802262544E+03  0.95802262545E+03  0.50400001928E-02 0. -1.
       -1   -1    0    0    0  501  0.00000000000E+00  0.00000000000E+00 -0.22077399476E+04  0.22077399476E+04  0.50400001928E-02 0.  1.
    10030    2    1    2    0    0  0.00000000000E+00  0.00000000000E+00 -0.12497173222E+04  0.31657625731E+04  0.29086524859E+04 0.  0.
        1    1    3    3  502    0  0.36964249148E+03 -0.24018766290E+03  0.88355583195E+03  0.98741915776E+03  0.50400001928E-02 0. -1.
       -1    1    3    3    0  502 -0.36964249148E+03  0.24018766290E+03 -0.21332731541E+04  0.21783434153E+04  0.50400001928E-02 0.  1.
</event>
<event>
 5   0  0.4115143E-06  0.2915949E+04  0.7818609E-02  0.8268148E-01
       -2   -1    0    0    0  501  0.00000000000E+00  0.00000000000E+00  0.91790055217E+03  0.91790055217E+03  0.25500000920E-02 0. -1.
        2   -1    0    0  501    0  0.00000000000E+00  0.00000000000E+00 -0.23158164129E+04  0.23158164129E+04  0.25500000920E-02 0.  1.
    10030    2    1    2    0    0  0.00000000000E+00  0.00000000000E+00 -0.13979158607E+04  0.32337169651E+04  0.29159486718E+04 0.  0.
        1    1    3    3  502    0  0.12982688562E+04 -0.58345463443E+03 -0.34867627376E+03  0.14654338870E+04  0.50400001928E-02 0.  1.
       -1    1    3    3    0  502 -0.12982688562E+04  0.58345463443E+03 -0.10492395870E+04  0.17682830781E+04  0.50400001928E-02 0. -1.
</event>
<event>
 5   0  0.4187518E-06  0.2924724E+04  0.7818609E-02  0.8265559E-01
       -2   -1    0    0    0  501  0.00000000000E+00  0.00000000000E+00  0.16233032379E+04  0.16233032379E+04  0.25500000920E-02 0. -1.
        2   -1    0    0  501    0  0.00000000000E+00  0.00000000000E+00 -0.13173775960E+04  0.13173775960E+04  0.25500000920E-02 0.  1.
    10030    2    1    2    0    0  0.00000000000E+00  0.00000000000E+00  0.30592564183E+03  0.29406808339E+04  0.29247244774E+04 0.  0.
        3    1    3    3  502    0  0.17046407934E+03 -0.12094835795E+04  0.96146096411E+03  0.15544502974E+04  0.10100000352E+00 0. -1.
       -3    1    3    3    0  502 -0.17046407934E+03  0.12094835795E+04 -0.65553532228E+03  0.13862305365E+04  0.10100000352E+00 0.  1.
</event>
<event>
 5   0  0.4148677E-06  0.2923419E+04  0.7818609E-02  0.8265943E-01
       -2   -1    0    0    0  501  0.00000000000E+00  0.00000000000E+00  0.12998374057E+04  0.12998374057E+04  0.25500000920E-02 0. -1.
        2   -1    0    0  501    0  0.00000000000E+00  0.00000000000E+00 -0.16437402534E+04  0.16437402534E+04  0.25500000920E-02 0.  1.
    10030    2    1    2    0    0  0.00000000000E+00  0.00000000000E+00 -0.34390284770E+03  0.29435776591E+04  0.29234192766E+04 0.  0.
        5    1    3    3  502    0  0.12643904464E+04  0.28347632716E+03 -0.85302593836E+03  0.15513598456E+04  0.46999998093E+01 0.  1.
       -5    1    3    3    0  502 -0.12643904464E+04 -0.28347632716E+03  0.50912309066E+03  0.13922178135E+04  0.46999998093E+01 0. -1.
</event>
<event>
 5   0  0.4224163E-06  0.2913155E+04  0.7818609E-02  0.8268974E-01
        2   -1    0    0  501    0  0.00000000000E+00  0.00000000000E+00  0.76386614615E+03  0.76386614615E+03  0.25500000920E-02 0.  1.
       -2   -1    0    0    0  501  0.00000000000E+00  0.00000000000E+00 -0.27774738113E+04  0.27774738113E+04  0.25500000920E-02 0. -1.
    10030    2    1    2    0    0  0.00000000000E+00  0.00000000000E+00 -0.20136076651E+04  0.35413399574E+04  0.29131551392E+04 0.  0.
        4    1    3    3  502    0 -0.57254390101E+03  0.40947855105E+03  0.54337793816E+03  0.88923585113E+03  0.12699999809E+01 0.  1.
       -4    1    3    3    0  502  0.57254390101E+03 -0.40947855105E+03 -0.25569856033E+04  0.26521041063E+04  0.12699999809E+01 0. -1.
</event>
<event>
 5   0  0.4115143E-06  0.2905005E+04  0.7818609E-02  0.8271390E-01
        2   -1    0    0  501    0  0.00000000000E+00  0.00000000000E+00  0.14364885702E+04  0.14364885702E+04  0.25500000920E-02 0.  1.
       -2   -1    0    0    0  501  0.00000000000E+00  0.00000000000E+00 -0.14686945364E+04  0.14686945364E+04  0.25500000920E-02 0. -1.
    10030    2    1    2    0    0  0.00000000000E+00  0.00000000000E+00 -0.32205966189E+02  0.29051831065E+04  0.29050045883E+04 0.  0.
        1    1    3    3  502    0  0.87813258473E+03 -0.11538604638E+04  0.69061561244E+02  0.14516474453E+04  0.50400001928E-02 0.  1.
       -1    1    3    3    0  502 -0.87813258473E+03  0.11538604638E+04 -0.10126752743E+03  0.14535356612E+04  0.50400001928E-02 0. -1.
</event>
<event>
 5   0  0.1550278E-06  0.2905124E+04  0.7818609E-02  0.8271355E-01
       -1   -1    0    0    0  501  0.00000000000E+00  0.00000000000E+00  0.10596741576E+04  0.10596741576E+04  0.50400001928E-02 0.  1.
        1   -1    0    0  501    0  0.00000000000E+00  0.00000000000E+00 -0.19911181819E+04  0.19911181819E+04  0.50400001928E-02 0. -1.
    10030    2    1    2    0    0  0.00000000000E+00  0.00000000000E+00 -0.93144402434E+03  0.30507923395E+04  0.29051240814E+04 0.  0.
        2    1    3    3  502    0  0.12403153213E+04  0.72819287206E+03 -0.67910899085E+03  0.15905458109E+04  0.25500000920E-02 0. -1.
       -2    1    3    3    0  502 -0.12403153213E+04 -0.72819287206E+03 -0.25233503349E+03  0.14602465286E+04  0.25500000920E-02 0.  1.
</event>
<event>
 5   0  0.1543678E-06  0.2905073E+04  0.7818609E-02  0.8271370E-01
       -1   -1    0    0    0  501  0.00000000000E+00  0.00000000000E+00  0.11436281838E+04  0.11436281838E+04  0.50400001928E-02 0.  1.
        1   -1    0    0  501    0  0.00000000000E+00  0.00000000000E+00 -0.18448842669E+04  0.18448842669E+04  0.50400001928E-02 0. -1.
    10030    2    1    2    0    0  0.00000000000E+00  0.00000000000E+00 -0.70125608306E+03  0.29885124507E+04  0.29050725592E+04 0.  0.
        3    1    3    3  502    0 -0.10107271374E+04 -0.10427718444E+04 -0.31943947311E+03  0.14869378107E+04  0.10100000352E+00 0.  1.
       -3    1    3    3    0  502  0.10107271374E+04  0.10427718444E+04 -0.38181660995E+03  0.15015746400E+04  0.10100000352E+00 0. -1.
</event>
<event>
 5   0  0.4187518E-06  0.3021260E+04  0.7818609E-02  0.8237686E-01
        2   -1    0    0  501    0  0.00000000000E+00  0.00000000000E+00  0.10400904006E+04  0.10400904006E+04  0.25500000920E-02 0.  1.
       -2   -1    0    0    0  501  0.00000000000E+00  0.00000000000E+00 -0.21940426912E+04  0.21940426912E+04  0.25500000920E-02 0. -1.
    10030    2    1    2    0    0  0.00000000000E+00  0.00000000000E+00 -0.11539522906E+04  0.32341330918E+04  0.30212598310E+04 0.  0.
        3    1    3    3  502    0 -0.69816600821E+03  0.87465673401E+03 -0.16631315374E+04  0.20046113584E+04  0.10100000352E+00 0. -1.
       -3    1    3    3    0  502  0.69816600821E+03 -0.87465673401E+03  0.50917924680E+03  0.12295217334E+04  0.10100000352E+00 0.  1.
</event>
<event>
 5   0  0.4187518E-06  0.2908549E+04  0.7818609E-02  0.8270339E-01
       -2   -1    0    0    0  501  0.00000000000E+00  0.00000000000E+00  0.93154329940E+03  0.93154329940E+03  0.25500000920E-02 0. -1.
        2   -1    0    0  501    0  0.00000000000E+00  0.00000000000E+00 -0.22703333867E+04  0.22703333867E+04  0.25500000920E-02 0.  1.
    10030    2    1    2    0    0  0.00000000000E+00  0.00000000000E+00 -0.13387900873E+04  0.32018766861E+04  0.29085486785E+04 0.  0.
        3    1    3    3  502    0  0.21272197179E+03  0.11570984653E+04 -0.16104684004E+04  0.19944262269E+04  0.10100000352E+00 0.  1.
       -3    1    3    3    0  502 -0.21272197179E+03 -0.11570984653E+04  0.27167831306E+03  0.12074504593E+04  0.10100000352E+00 0. -1.
</event>
<event>
 5   0  0.1580212E-06  0.2909222E+04  0.7818609E-02  0.8270139E-01
       -1   -1    0    0    0  501  0.00000000000E+00  0.00000000000E+00  0.12473740242E+04  0.12473740242E+04  0.50400001928E-02 0.  1.
        1   -1    0    0  501    0  0.00000000000E+00  0.00000000000E+00 -0.16962781063E+04  0.16962781063E+04  0.50400001928E-02 0. -1.
    10030    2    1    2    0    0  0.00000000000E+00  0.00000000000E+00 -0.44890408212E+03  0.29436521306E+04  0.29092220594E+04 0.  0.
        4    1    3    3  502    0 -0.89956563542E+03  0.10521200756E+04  0.22773358033E+03  0.14028681985E+04  0.12699999809E+01 0. -1.
       -4    1    3    3    0  502  0.89956563542E+03 -0.10521200756E+04 -0.67663766245E+03  0.15407839320E+04  0.12699999809E+01 0.  1.
</event>
<event>
 5   0  0.1602873E-06  0.2902167E+04  0.7818609E-02  0.8272233E-01
       -1   -1    0    0    0  501  0.00000000000E+00  0.00000000000E+00  0.11342564387E+04  0.11342564388E+04  0.50400001928E-02 0.  1.
        1   -1    0    0  501    0  0.00000000000E+00  0.00000000000E+00 -0.18564084426E+04  0.18564084426E+04  0.50400001928E-02 0. -1.
    10030    2    1    2    0    0  0.00000000000E+00  0.00000000000E+00 -0.72215200387E+03  0.29906648814E+04  0.29021669345E+04 0.  0.
        1    1    3    3  502    0  0.66733552919E+03 -0.73133346434E+03 -0.14543020858E+04  0.17593123376E+04  0.50400001928E-02 0. -1.
       -1    1    3    3    0  502 -0.66733552919E+03  0.73133346434E+03  0.73215008190E+03  0.12313525438E+04  0.50400001928E-02 0.  1.
</event>
<event>
 5   0  0.4148677E-06  0.2907908E+04  0.7818609E-02  0.8270528E-01
       -2   -1    0    0    0  501  0.00000000000E+00  0.00000000000E+00  0.85963189386E+03  0.85963189386E+03  0.25500000920E-02 0.  1.
        2   -1    0    0  501    0  0.00000000000E+00  0.00000000000E+00 -0.24591718168E+04  0.24591718168E+04  0.25500000920E-02 0. -1.
    10030    2    1    2    0    0  0.00000000000E+00  0.00000000000E+00 -0.15995399229E+04  0.33188037106E+04  0.29079082009E+04 0.  0.
        5    1    3    3  502    0  0.11301070415E+04 -0.85330607706E+03 -0.42350812173E+03  0.14780576462E+04  0.46999998093E+01 0. -1.
       -5    1    3    3    0  502 -0.11301070415E+04  0.85330607706E+03 -0.11760318012E+04  0.18407460644E+04  0.46999998093E+01 0.  1.
</event>
<event>
 5   0  0.1602873E-06  0.2899456E+04  0.7818609E-02  0.8273039E-01
       -1   -1    0    0    0  501  0.00000000000E+00  0.00000000000E+00  0.20384875293E+04  0.20384875293E+04  0.50400001928E-02 0. -1.
        1   -1    0    0  501    0  0.00000000000E+00  0.00000000000E+00 -0.10310147159E+04  0.10310147159E+04  0.50400001928E-02 0.  1.
    10030    2    1    2    0    0  0.00000000000E+00  0.00000000000E+00  0.10074728134E+04  0.30695022452E+04  0.28994555633E+04 0.  0.
        1    1    3    3  502    0  0.65481590871E+03 -0.10996693568E+04  0.12245924396E+04  0.17713506744E+04  0.50400001928E-02 0. -1.
       -1    1    3    3    0  502 -0.65481590871E+03  0.10996693568E+04 -0.21711962622E+03  0.12981515708E+04  0.50400001928E-02 0.  1.
</event>
<event>
 5   0  0.1602873E-06  0.2896220E+04  0.7818609E-02  0.8274003E-01
       -1   -1    0    0    0  501  0.00000000000E+00  0.00000000000E+00  0.82059010159E+03  0.82059010161E+03  0.50400001928E-02 0. -1.
        1   -1    0    0  501    0  0.00000000000E+00  0.00000000000E+00 -0.25555053285E+04  0.25555053285E+04  0.50400001928E-02 0.  1.
    10030    2    1    2    0    0  0.00000000000E+00  0.00000000000E+00 -0.17349152269E+04  0.33760954301E+04  0.28962198654E+04 0.  0.
        1    1    3    3  502    0  0.10101610432E+03 -0.92863111637E+03 -0.21573572135E+04  0.23509041134E+04  0.50400001928E-02 0.  1.
       -1    1    3    3    0  502 -0.10101610432E+03  0.92863111637E+03  0.42244198668E+03  0.10251913167E+04  0.50400001928E-02 0. -1.
</event>
<event>
 5   0  0.4224163E-06  0.2906103E+04  0.7818609E-02  0.8271064E-01
        2   -1    0    0  501    0  0.00000000000E+00  0.00000000000E+00  0.25430645651E+04  0.25430645651E+04  0.25500000920E-02 0. -1.
       -2   -1    0    0    0  501  0.00000000000E+00  0.00000000000E+00 -0.83024213650E+03  0.83024213651E+03  0.25500000920E-02 0.  1.
    10030    2    1    2    0    0  0.00000000000E+00  0.00000000000E+00  0.17128224286E+04  0.33733067016E+04  0.29061034791E+04 0.  0.
        4    1    3    3  502    0  0.29028596964E+03  0.25035271322E+03 -0.77049085264E+03  0.86058131056E+03  0.12699999809E+01 0.  1.
       -4    1    3    3    0  502 -0.29028596964E+03 -0.25035271322E+03  0.24833132812E+04  0.25127253910E+04  0.12699999809E+01 0. -1.
</event>
<event>
 5   0  0.1543678E-06  0.2895718E+04  0.7818609E-02  0.8274153E-01
        1   -1    0    0  501    0  0.00000000000E+00  0.00000000000E+00  0.19497192582E+04  0.19497192582E+04  0.50400001928E-02 0.  1.
       -1   -1    0    0    0  501  0.00000000000E+00  0.00000000000E+00 -0.10751783018E+04  0.10751783019E+04  0.50400001928E-02 0. -1.
    10030    2    1    2    0    0  0.00000000000E+00  0.00000000000E+00  0.87454095639E+03  0.30248975601E+04  0.28957181086E+04 0.  0.
        3    1    3    3  502    0 -0.55975189311E+03 -0.11362445007E+04 -0.29538963610E+03  0.13006263086E+04  0.10100000352E+00 0. -1.
       -3    1    3    3    0  502  0.55975189311E+03  0.11362445007E+04  0.11699305925E+04  0.17242712515E+04  0.10100000352E+00 0.  1.
</event>
<event>
 5   0  0.1543678E-06  0.2910953E+04  0.7818609E-02  0.8269626E-01
        1   -1    0    0  501    0  0.00000000000E+00  0.00000000000E+00  0.16712810237E+04  0.16712810237E+04  0.50400001928E-02 0. -1.
       -1   -1    0    0    0  501  0.00000000000E+00  0.00000000000E+00 -0.12675379071E+04  0.12675379072E+04  0.50400001928E-02 0.  1.
    10030    2    1    2    0    0  0.00000000000E+00  0.00000000000E+00  0.40374311658E+03  0.29388189309E+04  0.29109531436E+04 0.  0.
        3    1    3    3  502    0  0.25075886078E+02  0.25018938195E+03 -0.12454447174E+04  0.12705731310E+04  0.10100000352E+00 0.  1.
       -3    1    3    3    0  502 -0.25075886078E+02 -0.25018938195E+03  0.16491878340E+04  0.16682457999E+04  0.10100000352E+00 0. -1.
</event>
<event>
 5   0  0.1543678E-06  0.2903690E+04  0.7818609E-02  0.8271781E-01
       -1   -1    0    0    0  501  0.00000000000E+00  0.00000000000E+00  0.12348450968E+04  0.12348450968E+04  0.50400001928E-02 0.  1.
        1   -1    0    0  501    0  0.00000000000E+00  0.00000000000E+00 -0.17069778750E+04  0.17069778750E+04  0.50400001928E-02 0. -1.
    10030    2    1    2    0    0  0.00000000000E+00  0.00000000000E+00 -0.47213277821E+03  0.29418229718E+04  0.29036895559E+04 0.  0.
        3    1    3    3  502    0 -0.94222019368E+03  0.11028797391E+04 -0.17418531687E+03  0.14609802008E+04  0.10100000352E+00 0. -1.
       -3    1    3    3    0  502  0.94222019368E+03 -0.11028797391E+04 -0.29794746134E+03  0.14808427710E+04  0.10100000352E+00 0.  1.
</event>
<event>
 5   0  0.1511126E-06  0.2876878E+04  0.7818609E-02  0.8279790E-01
       -1   -1    0    0    0  501  0.00000000000E+00  0.00000000000E+00  0.22617832028E+04  0.22617832028E+04  0.50400001928E-02 0. -1.
        1   -1    0    0  501    0  0.00000000000E+00  0.00000000000E+00 -0.91481199469E+03  0.91481199470E+03  0.50400001928E-02 0.  1.
    10030    2    1    2    0    0  0.00000000000E+00  0.00000000000E+00  0.13469712081E+04  0.31765951975E+04  0.28768777543E+04 0.  0.
        5    1    3    3  502    0 -0.64313158800E+03 -0.11868999170E+04  0.12219589769E+04  0.18208666848E+04  0.46999998093E+01 0. -1.
       -5    1    3    3    0  502  0.64313158800E+03  0.11868999170E+04  0.12501223118E+03  0.13557285128E+04  0.46999998093E+01 0.  1.
</event>
<event>
 5   0  0.1511126E-06  0.2880547E+04  0.7818609E-02  0.8278689E-01
       -1   -1    0    0    0  501  0.00000000000E+00  0.00000000000E+00  0.70650728092E+03  0.70650728093E+03  0.50400001928E-02 0. -1.
        1   -1    0    0  501    0  0.00000000000E+00  0.00000000000E+00 -0.29361163772E+04  0.29361163772E+04  0.50400001928E-02 0.  1.
    10030    2    1    2    0    0  0.00000000000E+00  0.00000000000E+00 -0.22296090963E+04  0.36426236582E+04  0.28805468913E+04 0.  0.
        5    1    3    3  502    0 -0.10632110151E+04 -0.68925251422E+03 -0.24890071734E+03  0.12913018036E+04  0.46999998093E+01 0. -1.
       -5    1    3    3    0  502  0.10632110151E+04  0.68925251422E+03 -0.19807083790E+04  0.23513218545E+04  0.46999998093E+01 0.  1.
</event>
<event>
 5   0  0.1550278E-06  0.2922527E+04  0.7818609E-02  0.8266206E-01
       -1   -1    0    0    0  501  0.00000000000E+00  0.00000000000E+00  0.10864353071E+04  0.10864353071E+04  0.50400001928E-02 0. -1.
        1   -1    0    0  501    0  0.00000000000E+00  0.00000000000E+00 -0.19654100929E+04  0.19654100929E+04  0.50400001928E-02 0.  1.
    10030    2    1    2    0    0  0.00000000000E+00  0.00000000000E+00 -0.87897478576E+03  0.30518454000E+04  0.29225269325E+04 0.  0.
        2    1    3    3  502    0 -0.63298652517E+03 -0.56474059710E+03  0.80298753751E+03  0.11680722873E+04  0.25500000920E-02 0. -1.
       -2    1    3    3    0  502  0.63298652517E+03  0.56474059710E+03 -0.16819623233E+04  0.18837731127E+04  0.25500000920E-02 0.  1.
</event>
<event>
 5   0  0.1550278E-06  0.2908757E+04  0.7818609E-02  0.8270277E-01
        1   -1    0    0  501    0  0.00000000000E+00  0.00000000000E+00  0.15282031819E+04  0.15282031819E+04  0.50400001928E-02 0. -1.
       -1   -1    0    0    0  501  0.00000000000E+00  0.00000000000E+00 -0.13841204342E+04  0.13841204343E+04  0.50400001928E-02 0.  1.
    10030    2    1    2    0    0  0.00000000000E+00  0.00000000000E+00  0.14408274767E+03  0.29123236162E+04  0.29087572960E+04 0.  0.
        2    1    3    3  502    0  0.30887644811E+03 -0.69536077681E+03  0.13130310830E+04  0.15175578721E+04  0.25500000920E-02 0. -1.
       -2    1    3    3    0  502 -0.30887644811E+03  0.69536077681E+03 -0.11689483354E+04  0.13947657441E+04  0.25500000920E-02 0.  1.
</event>
<event>
 5   0  0.1550278E-06  0.2905661E+04  0.7818609E-02  0.8271195E-01
       -1   -1    0    0    0  501  0.00000000000E+00  0.00000000000E+00  0.14220563092E+04  0.14220563092E+04  0.50400001928E-02 0. -1.
        1   -1    0    0  501    0  0.00000000000E+00  0.00000000000E+00 -0.14842708863E+04  0.14842708863E+04  0.50400001928E-02 0.  1.
    10030    2    1    2    0    0  0.00000000000E+00  0.00000000000E+00 -0.62214577159E+02  0.29063271955E+04  0.29056612180E+04 0.  0.
        2    1    3    3  502    0  0.11468329558E+04 -0.54960261433E+03  0.67149795589E+03  0.14381232099E+04  0.25500000920E-02 0. -1.
       -2    1    3    3    0  502 -0.11468329558E+04  0.54960261433E+03 -0.73371253304E+03  0.14682039856E+04  0.25500000920E-02 0.  1.
</event>
<event>
 5   0  0.4148677E-06  0.2909700E+04  0.7818609E-02  0.8269997E-01
        2   -1    0    0  501    0  0.00000000000E+00  0.00000000000E+00  0.13009067721E+04  0.13009067722E+04  0.25500000920E-02 0. -1.
       -2   -1    0    0    0  501  0.00000000000E+00  0.00000000000E+00 -0.16270101000E+04  0.16270101000E+04  0.25500000920E-02 0.  1.
    10030    2    1    2    0    0  0.00000000000E+00  0.00000000000E+00 -0.32610332785E+03  0.29279168722E+04  0.29096999553E+04 0.  0.
        5    1    3    3  502    0  0.10825144838E+04 -0.64351587799E+03  0.56994287019E+03  0.13823195210E+04  0.46999998093E+01 0. -1.
       -5    1    3    3    0  502 -0.10825144838E+04  0.64351587799E+03 -0.89604619804E+03  0.15455973512E+04  0.46999998093E+01 0.  1.
</event>
<event>
 5   0  0.1543678E-06  0.2886432E+04  0.7818609E-02  0.8276926E-01
        1   -1    0    0  501    0  0.00000000000E+00  0.00000000000E+00  0.21488439057E+04  0.21488439057E+04  0.50400001928E-02 0.  1.
       -1   -1    0    0    0  501  0.00000000000E+00  0.00000000000E+00 -0.96929877439E+03  0.96929877440E+03  0.50400001928E-02 0. -1.
    10030    2    1    2    0    0  0.00000000000E+00  0.00000000000E+00  0.11795451313E+04  0.31181426801E+04  0.28864315437E+04 0.  0.
        3    1    3    3  502    0  0.34783212428E+03  0.74196931620E+03 -0.69360535345E+03  0.10735893300E+04  0.10100000352E+00 0. -1.
       -3    1    3    3    0  502 -0.34783212428E+03 -0.74196931620E+03  0.18731504847E+04  0.20445533501E+04  0.10100000352E+00 0.  1.
</event>
<event>
 5   0  0.4148677E-06  0.2889449E+04  0.7818609E-02  0.8276024E-01
       -2   -1    0    0    0  501  0.00000000000E+00  0.00000000000E+00  0.12174975999E+04  0.12174975999E+04  0.25500000920E-02 0. -1.
        2   -1    0    0  501    0  0.00000000000E+00  0.00000000000E+00 -0.17143601786E+04  0.17143601786E+04  0.25500000920E-02 0.  1.
    10030    2    1    2    0    0  0.00000000000E+00  0.00000000000E+00 -0.49686257876E+03  0.29318577785E+04  0.28894493613E+04 0.  0.
        5    1    3    3  502    0  0.30944072211E+01 -0.93553488574E+03 -0.13654852260E+04  0.16552362641E+04  0.46999998093E+01 0.  1.
       -5    1    3    3    0  502 -0.30944072211E+01  0.93553488574E+03  0.86862264719E+03  0.12766215144E+04  0.46999998093E+01 0. -1.
</event>
<event>
 5   0  0.1580212E-06  0.2892425E+04  0.7818609E-02  0.8275135E-01
        1   -1    0    0  501    0  0.00000000000E+00  0.00000000000E+00  0.11627335266E+04  0.11627335266E+04  0.50400001928E-02 0.  1.
       -1   -1    0    0    0  501  0.00000000000E+00  0.00000000000E+00 -0.17988042940E+04  0.17988042940E+04  0.50400001928E-02 0. -1.
    10030    2    1    2    0    0  0.00000000000E+00  0.00000000000E+00 -0.63607076740E+03  0.29615378205E+04  0.28924246302E+04 0.  0.
        4    1    3    3  502    0  0.37599665796E+02  0.14445309011E+04 -0.37813361789E+03  0.14936766400E+04  0.12699999809E+01 0.  1.
       -4    1    3    3    0  502 -0.37599665796E+02 -0.14445309011E+04 -0.25793714951E+03  0.14678611805E+04  0.12699999809E+01 0. -1.
</event>
<event>
 5   0  0.4224163E-06  0.2904692E+04  0.7818609E-02  0.8271483E-01
       -2   -1    0    0    0  501  0.00000000000E+00  0.00000000000E+00  0.98643217452E+03  0.98643217452E+03  0.25500000920E-02 0. -1.
        2   -1    0    0  501    0  0.00000000000E+00  0.00000000000E+00 -0.21383213775E+04  0.21383213775E+04  0.25500000920E-02 0.  1.
    10030    2    1    2    0    0  0.00000000000E+00  0.00000000000E+00 -0.11518892030E+04  0.31247535520E+04  0.29046920706E+04 0.  0.
        4    1    3    3  502    0 -0.57633501906E+03 -0.13319252822E+04 -0.51585220286E+03  0.15402246978E+04  0.12699999809E+01 0.  1.
       -4    1    3    3    0  502  0.57633501906E+03  0.13319252822E+04 -0.63603700011E+03  0.15845288542E+04  0.12699999809E+01 0. -1.
</event>
<event>
 5   0  0.4115143E-06  0.2895506E+04  0.7818609E-02  0.8274216E-01
       -2   -1    0    0    0  501  0.00000000000E+00  0.00000000000E+00  0.21853298605E+04  0.21853298605E+04  0.25500000920E-02 0. -1.
        2   -1    0    0  501    0  0.00000000000E+00  0.00000000000E+00 -0.95911762303E+03  0.95911762303E+03  0.25500000920E-02 0.  1.
    10030    2    1    2    0    0  0.00000000000E+00  0.00000000000E+00  0.12262122375E+04  0.31444474835E+04  0.28955057460E+04 0.  0.
        1    1    3    3  502    0  0.30401203227E+03 -0.13289063131E+04  0.11424263891E+04  0.17786380630E+04  0.50400001928E-02 0.  1.
       -1    1    3    3    0  502 -0.30401203227E+03  0.13289063131E+04  0.83785848321E+02  0.13658094205E+04  0.50400001928E-02 0. -1.
</event>
<event>
 5   0  0.1543678E-06  0.2901487E+04  0.7818609E-02  0.8272435E-01
       -1   -1    0    0    0  501  0.00000000000E+00  0.00000000000E+00  0.11368488135E+04  0.11368488135E+04  0.50400001928E-02 0.  1.
        1   -1    0    0  501    0  0.00000000000E+00  0.00000000000E+00 -0.18513076715E+04  0.18513076715E+04  0.50400001928E-02 0. -1.
    10030    2    1    2    0    0  0.00000000000E+00  0.00000000000E+00 -0.71445885805E+03  0.29881564850E+04  0.29014871564E+04 0.  0.
        3    1    3    3  502    0  0.72362962338E+03 -0.82981291643E+03  0.61567276759E+03  0.12614603740E+04  0.10100000352E+00 0.  1.
       -3    1    3    3    0  502 -0.72362962338E+03  0.82981291643E+03 -0.13301316256E+04  0.17266961110E+04  0.10100000352E+00 0. -1.
</event>
<event>
 5   0  0.4187518E-06  0.2886994E+04  0.7818609E-02  0.8276758E-01
        2   -1    0    0  501    0  0.00000000000E+00  0.00000000000E+00  0.32762368375E+04  0.32762368376E+04  0.25500000920E-02 0.  1.
       -2   -1    0    0    0  501  0.00000000000E+00  0.00000000000E+00 -0.63599917897E+03  0.63599917898E+03  0.25500000920E-02 0. -1.
    10030    2    1    2    0    0  0.00000000000E+00  0.00000000000E+00  0.26402376586E+04  0.39122360165E+04  0.28869942423E+04 0.  0.
        3    1    3    3  502    0  0.67685874080E+03 -0.71431022574E+03  0.27512398400E+04  0.29219338666E+04  0.10100000352E+00 0.  1.
       -3    1    3    3    0  502 -0.67685874080E+03  0.71431022574E+03 -0.11100218142E+03  0.99030214989E+03  0.10100000352E+00 0. -1.
</event>
<event>
 5   0  0.1602873E-06  0.2837344E+04  0.7818609E-02  0.8291768E-01
       -1   -1    0    0    0  501  0.00000000000E+00  0.00000000000E+00  0.18727299490E+04  0.18727299490E+04  0.50400001928E-02 0.  1.
        1   -1    0    0  501    0  0.00000000000E+00  0.00000000000E+00 -0.10747036997E+04  0.10747036997E+04  0.50400001928E-02 0. -1.
    10030    2    1    2    0    0  0.00000000000E+00  0.00000000000E+00  0.79802624929E+03  0.29474336487E+04  0.28373436906E+04 0.  0.
        1    1    3    3  502    0 -0.11389693279E+04 -0.62755442153E+03  0.98807258183E+03  0.16332063889E+04  0.50400001928E-02 0.  1.
       -1    1    3    3    0  502  0.11389693279E+04  0.62755442153E+03 -0.19004633254E+03  0.13142272598E+04  0.50400001928E-02 0. -1.
</event>
<event>
 5   0  0.4162450E-06  0.2865072E+04  0.7818609E-02  0.8283346E-01
       -2   -1    0    0    0  501  0.00000000000E+00  0.00000000000E+00  0.11928178542E+04  0.11928178542E+04  0.25500000920E-02 0.  1.
        2   -1    0    0  501    0  0.00000000000E+00  0.00000000000E+00 -0.17204293646E+04  0.17204293646E+04  0.25500000920E-02 0. -1.
    10030    2    1    2    0    0  0.00000000000E+00  0.00000000000E+00 -0.52761151039E+03  0.29132472189E+04  0.28650716313E+04 0.  0.
        2    1    3    3  502    0  0.13932351255E+04 -0.58188908470E+02 -0.59745242211E+03  0.15170495907E+04  0.25500000920E-02 0. -1.
       -2    1    3    3    0  502 -0.13932351255E+04  0.58188908470E+02  0.69840911718E+02  0.13961976282E+04  0.25500000920E-02 0.  1.
</event>
<event>
 5   0  0.1580212E-06  0.2729264E+04  0.7818609E-02  0.8325572E-01
        1   -1    0    0  501    0  0.00000000000E+00  0.00000000000E+00  0.15224177114E+04  0.15224177114E+04  0.50400001928E-02 0. -1.
       -1   -1    0    0    0  501  0.00000000000E+00  0.00000000000E+00 -0.12231995874E+04  0.12231995874E+04  0.50400001928E-02 0.  1.
    10030    2    1    2    0    0  0.00000000000E+00  0.00000000000E+00  0.29921812402E+03  0.27456172988E+04  0.27292641619E+04 0.  0.
        4    1    3    3  502    0 -0.90341374645E+03  0.17277531082E+01 -0.87928975959E+03  0.12606789745E+04  0.12699999809E+01 0.  1.
       -4    1    3    3    0  502  0.90341374645E+03 -0.17277531082E+01  0.11785078836E+04  0.14849383243E+04  0.12699999809E+01 0. -1.
</event>
<event>
 5   0  0.1602873E-06  0.2903620E+04  0.7818609E-02  0.8271801E-01
        1   -1    0    0  501    0  0.00000000000E+00  0.00000000000E+00  0.26993677439E+04  0.26993677439E+04  0.50400001928E-02 0.  1.
       -1   -1    0    0    0  501  0.00000000000E+00  0.00000000000E+00 -0.78083167805E+03  0.78083167806E+03  0.50400001928E-02 0. -1.
    10030    2    1    2    0    0  0.00000000000E+00  0.00000000000E+00  0.19185360658E+04  0.34801994219E+04  0.29036197032E+04 0.  0.
        1    1    3    3  502    0 -0.36007585367E+03  0.10412916629E+04  0.20924162834E+04  0.23647724733E+04  0.50400001928E-02 0.  1.
       -1    1    3    3    0  502  0.36007585367E+03 -0.10412916629E+04 -0.17388021761E+03  0.11154269486E+04  0.50400001928E-02 0. -1.
</event>
<event>
 5   0  0.1550278E-06  0.2959496E+04  0.7818609E-02  0.8255393E-01
        1   -1    0    0  501    0  0.00000000000E+00  0.00000000000E+00  0.16979566930E+04  0.16979566930E+04  0.50400001928E-02 0. -1.
       -1   -1    0    0    0  501  0.00000000000E+00  0.00000000000E+00 -0.12895817885E+04  0.12895817885E+04  0.50400001928E-02 0.  1.
    10030    2    1    2    0    0  0.00000000000E+00  0.00000000000E+00  0.40837490454E+03  0.29875384816E+04  0.29594959226E+04 0.  0.
        2    1    3    3  502    0  0.13156187632E+04 -0.56409004600E+03  0.58271210160E+03  0.15455108228E+04  0.25500000920E-02 0.  1.
       -2    1    3    3    0  502 -0.13156187632E+04  0.56409004600E+03 -0.17433719706E+03  0.14420276587E+04  0.25500000920E-02 0. -1.
</event>
<event>
 5   0  0.4162450E-06  0.2912724E+04  0.7818609E-02  0.8269102E-01
        2   -1    0    0  501    0  0.00000000000E+00  0.00000000000E+00  0.16039243390E+04  0.16039243390E+04  0.25500000920E-02 0.  1.
       -2   -1    0    0    0  501  0.00000000000E+00  0.00000000000E+00 -0.13223756955E+04  0.13223756955E+04  0.25500000920E-02 0. -1.
    10030    2    1    2    0    0  0.00000000000E+00  0.00000000000E+00  0.28154864348E+03  0.29263000346E+04  0.29127241980E+04 0.  0.
        2    1    3    3  502    0 -0.13316480672E+04 -0.26238618558E+03  0.67130516383E+03  0.15141940788E+04  0.25500000920E-02 0.  1.
       -2    1    3    3    0  502  0.13316480672E+04  0.26238618558E+03 -0.38975652035E+03  0.14121059558E+04  0.25500000920E-02 0. -1.
</event>
<event>
 5   0  0.4115143E-06  0.2896753E+04  0.7818609E-02  0.8273844E-01
       -2   -1    0    0    0  501  0.00000000000E+00  0.00000000000E+00  0.85703443686E+03  0.85703443686E+03  0.25500000920E-02 0.  1.
        2   -1    0    0  501    0  0.00000000000E+00  0.00000000000E+00 -0.24477365226E+04  0.24477365226E+04  0.25500000920E-02 0. -1.
    10030    2    1    2    0    0  0.00000000000E+00  0.00000000000E+00 -0.15907020857E+04  0.33047709594E+04  0.28967530044E+04 0.  0.
        1    1    3    3  502    0 -0.59111399128E+03  0.87326183176E+03 -0.19280712747E+04  0.21976034259E+04  0.50400001928E-02 0. -1.
       -1    1    3    3    0  502  0.59111399128E+03 -0.87326183176E+03  0.33736918897E+03  0.11071675335E+04  0.50400001928E-02 0.  1.
</event>
<event>
 5   0  0.1550278E-06  0.2913667E+04  0.7818609E-02  0.8268823E-01
       -1   -1    0    0    0  501  0.00000000000E+00  0.00000000000E+00  0.12862763183E+04  0.12862763183E+04  0.50400001928E-02 0. -1.
        1   -1    0    0  501    0  0.00000000000E+00  0.00000000000E+00 -0.16500056381E+04  0.16500056381E+04  0.50400001928E-02 0.  1.
    10030    2    1    2    0    0  0.00000000000E+00  0.00000000000E+00 -0.36372931982E+03  0.29362819564E+04  0.29136665405E+04 0.  0.
        2    1    3    3  502    0 -0.12386771386E+03 -0.12509089457E+04 -0.92395435183E+03  0.15600666798E+04  0.25500000920E-02 0.  1.
       -2    1    3    3    0  502  0.12386771386E+03  0.12509089457E+04  0.56022503201E+03  0.13762152766E+04  0.25500000920E-02 0. -1.
</event>
<event>
 5   0  0.4115143E-06  0.2941711E+04  0.7818609E-02  0.8260574E-01
        2   -1    0    0  501    0  0.00000000000E+00  0.00000000000E+00  0.20681945133E+04  0.20681945133E+04  0.25500000920E-02 0. -1.
       -2   -1    0    0    0  501  0.00000000000E+00  0.00000000000E+00 -0.10460406893E+04  0.10460406893E+04  0.25500000920E-02 0.  1.
    10030    2    1    2    0    0  0.00000000000E+00  0.00000000000E+00  0.10221538240E+04  0.31142352026E+04  0.29417108045E+04 0.  0.
        1    1    3    3  502    0 -0.72961174836E+03 -0.39811687926E+03 -0.77359331348E+03  0.11354633273E+04  0.50400001928E-02 0.  1.
       -1    1    3    3    0  502  0.72961174836E+03  0.39811687926E+03  0.17957471375E+04  0.19787718753E+04  0.50400001928E-02 0. -1.
</event>
<event>
 5   0  0.1602873E-06  0.2900120E+04  0.7818609E-02  0.8272842E-01
       -1   -1    0    0    0  501  0.00000000000E+00  0.00000000000E+00  0.11365432287E+04  0.11365432287E+04  0.50400001928E-02 0.  1.
        1   -1    0    0  501    0  0.00000000000E+00  0.00000000000E+00 -0.18500609681E+04  0.18500609681E+04  0.50400001928E-02 0. -1.
    10030    2    1    2    0    0  0.00000000000E+00  0.00000000000E+00 -0.71351773937E+03  0.29866041968E+04  0.29001201809E+04 0.  0.
        1    1    3    3  502    0  0.56218674135E+03  0.10548612267E+04 -0.12021458941E+04  0.16952701527E+04  0.50400001928E-02 0. -1.
       -1    1    3    3    0  502 -0.56218674135E+03 -0.10548612267E+04  0.48862815476E+03  0.12913340441E+04  0.50400001928E-02 0.  1.
</event>
<event>
 5   0  0.4148677E-06  0.2955549E+04  0.7818609E-02  0.8256539E-01
        2   -1    0    0  501    0  0.00000000000E+00  0.00000000000E+00  0.17999731297E+04  0.17999731297E+04  0.25500000920E-02 0. -1.
       -2   -1    0    0    0  501  0.00000000000E+00  0.00000000000E+00 -0.12132502879E+04  0.12132502879E+04  0.25500000920E-02 0.  1.
    10030    2    1    2    0    0  0.00000000000E+00  0.00000000000E+00  0.58672284180E+03  0.30132234176E+04  0.29555493011E+04 0.  0.
        5    1    3    3  502    0  0.98983456259E+03  0.10972324394E+04  0.30377547351E+03  0.15086394916E+04  0.46999998093E+01 0. -1.
       -5    1    3    3    0  502 -0.98983456259E+03 -0.10972324394E+04  0.28294736829E+03  0.15045839260E+04  0.46999998093E+01 0.  1.
</event>
<event>
 5   0  0.4224163E-06  0.2880878E+04  0.7818609E-02  0.8278590E-01
       -2   -1    0    0    0  501  0.00000000000E+00  0.00000000000E+00  0.11700730599E+04  0.11700730599E+04  0.25500000920E-02 0.  1.
        2   -1    0    0  501    0  0.00000000000E+00  0.00000000000E+00 -0.17732775447E+04  0.17732775447E+04  0.25500000920E-02 0. -1.
    10030    2    1    2    0    0  0.00000000000E+00  0.00000000000E+00 -0.60320448483E+03  0.29433506045E+04  0.28808778403E+04 0.  0.
        4    1    3    3  502    0 -0.13191886270E+04 -0.47537247556E+03  0.35128013325E+02  0.14026664658E+04  0.12699999809E+01 0.  1.
       -4    1    3    3    0  502  0.13191886270E+04  0.47537247556E+03 -0.63833249815E+03  0.15406841387E+04  0.12699999809E+01 0. -1.
</event>
<event>
 5   0  0.4224163E-06  0.2901155E+04  0.7818609E-02  0.8272534E-01
       -2   -1    0    0    0  501  0.00000000000E+00  0.00000000000E+00  0.11151278455E+04  0.11151278455E+04  0.25500000920E-02 0.  1.
        2   -1    0    0  501    0  0.00000000000E+00  0.00000000000E+00 -0.18869364701E+04  0.18869364701E+04  0.25500000920E-02 0. -1.
    10030    2    1    2    0    0  0.00000000000E+00  0.00000000000E+00 -0.77180862461E+03  0.30020643156E+04  0.29011552185E+04 0.  0.
        4    1    3    3  502    0  0.68964304951E+03  0.85778283376E+03 -0.13636367048E+04  0.17523999547E+04  0.12699999809E+01 0. -1.
       -4    1    3    3    0  502 -0.68964304951E+03 -0.85778283376E+03  0.59182808016E+03  0.12496643609E+04  0.12699999809E+01 0.  1.
</event>
<event>
 5   0  0.1550278E-06  0.2904657E+04  0.7818609E-02  0.8271493E-01
       -1   -1    0    0    0  501  0.00000000000E+00  0.00000000000E+00  0.15621414440E+04  0.15621414440E+04  0.50400001928E-02 0.  1.
        1   -1    0    0  501    0  0.00000000000E+00  0.00000000000E+00 -0.13502353465E+04  0.13502353465E+04  0.50400001928E-02 0. -1.
    10030    2    1    2    0    0  0.00000000000E+00  0.00000000000E+00  0.21190609754E+03  0.29123767905E+04  0.29046573594E+04 0.  0.
        2    1    3    3  502    0  0.52454010371E+03 -0.12015597148E+04 -0.52050380004E+03  0.14106070589E+04  0.25500000920E-02 0. -1.
       -2    1    3    3    0  502 -0.52454010371E+03  0.12015597148E+04  0.73240989758E+03  0.15017697316E+04  0.25500000920E-02 0.  1.
</event>
<event>
 5   0  0.1543678E-06  0.2898500E+04  0.7818609E-02  0.8273324E-01
       -1   -1    0    0    0  501  0.00000000000E+00  0.00000000000E+00  0.89952554883E+03  0.89952554884E+03  0.50400001928E-02 0.  1.
        1   -1    0    0  501    0  0.00000000000E+00  0.00000000000E+00 -0.23349264600E+04  0.23349264600E+04  0.50400001928E-02 0. -1.
    10030    2    1    2    0    0  0.00000000000E+00  0.00000000000E+00 -0.14354009111E+04  0.32344520088E+04  0.28985003056E+04 0.  0.
        3    1    3    3  502    0 -0.60324509862E+03  0.16437379787E+03  0.74128022584E+03  0.96975243122E+03  0.10100000352E+00 0.  1.
       -3    1    3    3    0  502  0.60324509862E+03 -0.16437379787E+03 -0.21766811370E+04  0.22646995776E+04  0.10100000352E+00 0. -1.
</event>
<event>
 5   0  0.1511126E-06  0.2880034E+04  0.7818609E-02  0.8278843E-01
        1   -1    0    0  501    0  0.00000000000E+00  0.00000000000E+00  0.17287985470E+04  0.17287985471E+04  0.50400001928E-02 0.  1.
       -1   -1    0    0    0  501  0.00000000000E+00  0.00000000000E+00 -0.11994739142E+04  0.11994739142E+04  0.50400001928E-02 0. -1.
    10030    2    1    2    0    0  0.00000000000E+00  0.00000000000E+00  0.52932463284E+03  0.29282724613E+04  0.28800338610E+04 0.  0.
        5    1    3    3  502    0  0.57350730017E+03  0.70455763590E+03  0.14006559870E+04  0.16694823658E+04  0.46999998093E+01 0.  1.
       -5    1    3    3    0  502 -0.57350730017E+03 -0.70455763590E+03 -0.87133135420E+03  0.12587900955E+04  0.46999998093E+01 0. -1.
</event>
<event>
 5   0  0.4224163E-06  0.2890797E+04  0.7818609E-02  0.8275621E-01
        2   -1    0    0  501    0  0.00000000000E+00  0.00000000000E+00  0.23007375474E+04  0.23007375474E+04  0.25500000920E-02 0.  1.
       -2   -1    0    0    0  501  0.00000000000E+00  0.00000000000E+00 -0.90804626049E+03  0.90804626050E+03  0.25500000920E-02 0. -1.
    10030    2    1    2    0    0  0.00000000000E+00  0.00000000000E+00  0.13926912869E+04  0.32087838079E+04  0.28907965174E+04 0.  0.
        4    1    3    3  502    0 -0.13192704480E+04  0.16338703944E+03  0.13262201371E+04  0.18777729641E+04  0.12699999809E+01 0.  1.
       -4    1    3    3    0  502  0.13192704480E+04 -0.16338703944E+03  0.66471149778E+02  0.13310108438E+04  0.12699999809E+01 0. -1.
</event>
<event>
 5   0  0.4148677E-06  0.2925694E+04  0.7818609E-02  0.8265274E-01
       -2   -1    0    0    0  501  0.00000000000E+00  0.00000000000E+00  0.67507392950E+03  0.67507392951E+03  0.25500000920E-02 0.  1.
        2   -1    0    0  501    0  0.00000000000E+00  0.00000000000E+00 -0.31699068616E+04  0.31699068616E+04  0.25500000920E-02 0. -1.
    10030    2    1    2    0    0  0.00000000000E+00  0.00000000000E+00 -0.24948329321E+04  0.38449807911E+04  0.29256940928E+04 0.  0.
        5    1    3    3  502    0  0.24108882445E+03  0.14027318492E+04 -0.80345619934E+03  0.16344247968E+04  0.46999998093E+01 0.  1.
       -5    1    3    3    0  502 -0.24108882445E+03 -0.14027318492E+04 -0.16913767327E+04  0.22105559943E+04  0.46999998093E+01 0. -1.
</event>
<event>
 5   0  0.4115143E-06  0.2890454E+04  0.7818609E-02  0.8275723E-01
        2   -1    0    0  501    0  0.00000000000E+00  0.00000000000E+00  0.17377970807E+04  0.17377970807E+04  0.25500000920E-02 0.  1.
       -2   -1    0    0    0  501  0.00000000000E+00  0.00000000000E+00 -0.12019127799E+04  0.12019127799E+04  0.25500000920E-02 0. -1.
    10030    2    1    2    0    0  0.00000000000E+00  0.00000000000E+00  0.53588430081E+03  0.29397098607E+04  0.28904536116E+04 0.  0.
        1    1    3    3  502    0  0.96804056948E+02  0.11153872766E+04 -0.66153580628E+03  0.13004189422E+04  0.50400001928E-02 0. -1.
       -1    1    3    3    0  502 -0.96804056948E+02 -0.11153872766E+04  0.11974201071E+04  0.16392909184E+04  0.50400001928E-02 0.  1.
</event>
<event>
 5   0  0.4115143E-06  0.2903414E+04  0.7818609E-02  0.8271862E-01
       -2   -1    0    0    0  501  0.00000000000E+00  0.00000000000E+00  0.11597798183E+04  0.11597798183E+04  0.25500000920E-02 0.  1.
        2   -1    0    0  501    0  0.00000000000E+00  0.00000000000E+00 -0.18171152708E+04  0.18171152708E+04  0.25500000920E-02 0. -1.
    10030    2    1    2    0    0  0.00000000000E+00  0.00000000000E+00 -0.65733545256E+03  0.29768950891E+04  0.29034142788E+04 0.  0.
        1    1    3    3  502    0 -0.59493524176E+03 -0.79623753981E+03  0.75618002356E+03  0.12488996716E+04  0.50400001928E-02 0.  1.
       -1    1    3    3    0  502  0.59493524176E+03  0.79623753981E+03 -0.14135154761E+04  0.17279954175E+04  0.50400001928E-02 0. -1.
</event>
<event>
 5   0  0.1360125E-06  0.2906692E+04  0.7818609E-02  0.8270889E-01
       -3   -1    0    0    0  501  0.00000000000E+00  0.00000000000E+00  0.11108132012E+04  0.11108132058E+04  0.10100000352E+00 0.  1.
        3   -1    0    0  501    0  0.00000000000E+00  0.00000000000E+00 -0.19015029831E+04  0.19015029857E+04  0.10100000352E+00 0. -1.
    10030    2    1    2    0    0  0.00000000000E+00  0.00000000000E+00 -0.79068978187E+03  0.30123161915E+04  0.29066920213E+04 0.  0.
        5    1    3    3  502    0  0.30990176026E+03  0.13262265441E+04 -0.92100094732E+03  0.16441352688E+04  0.46999998093E+01 0. -1.
       -5    1    3    3    0  502 -0.30990176026E+03 -0.13262265441E+04  0.13031116545E+03  0.13681809227E+04  0.46999998093E+01 0.  1.
</event>
<event>
 5   0  0.1360125E-06  0.2916722E+04  0.7818609E-02  0.8267920E-01
        3   -1    0    0  501    0  0.00000000000E+00  0.00000000000E+00  0.26716673304E+04  0.26716673323E+04  0.10100000352E+00 0.  1.
       -3   -1    0    0    0  501  0.00000000000E+00  0.00000000000E+00 -0.79606339192E+03  0.79606339832E+03  0.10100000352E+00 0. -1.
    10030    2    1    2    0    0  0.00000000000E+00  0.00000000000E+00  0.18756039385E+04  0.34677307306E+04  0.29167218390E+04 0.  0.
        5    1    3    3  502    0 -0.13902891784E+03 -0.35993780742E+03  0.26098688338E+04  0.26382421582E+04  0.46999998093E+01 0.  1.
       -5    1    3    3    0  502  0.13902891784E+03  0.35993780742E+03 -0.73426489539E+03  0.82948857244E+03  0.46999998093E+01 0. -1.
</event>
<event>
 5   0  0.4224163E-06  0.2890005E+04  0.7818609E-02  0.8275858E-01
        2   -1    0    0  501    0  0.00000000000E+00  0.00000000000E+00  0.16521578024E+04  0.16521578024E+04  0.25500000920E-02 0. -1.
       -2   -1    0    0    0  501  0.00000000000E+00  0.00000000000E+00 -0.12638211761E+04  0.12638211761E+04  0.25500000920E-02 0.  1.
    10030    2    1    2    0    0  0.00000000000E+00  0.00000000000E+00  0.38833662632E+03  0.29159789785E+04  0.28900048560E+04 0.  0.
        4    1    3    3  502    0  0.24835606878E+03 -0.13664210795E+04 -0.20847095572E+03  0.14043678491E+04  0.12699999809E+01 0.  1.
       -4    1    3    3    0  502 -0.24835606878E+03  0.13664210795E+04  0.59680758204E+03  0.15116111293E+04  0.12699999809E+01 0. -1.
</event>
<event>
 5   0  0.1580212E-06  0.2888159E+04  0.7818609E-02  0.8276409E-01
       -1   -1    0    0    0  501  0.00000000000E+00  0.00000000000E+00  0.16242620212E+04  0.16242620212E+04  0.50400001928E-02 0. -1.
        1   -1    0    0  501    0  0.00000000000E+00  0.00000000000E+00 -0.12838850095E+04  0.12838850095E+04  0.50400001928E-02 0.  1.
    10030    2    1    2    0    0  0.00000000000E+00  0.00000000000E+00  0.34037701177E+03  0.29081470307E+04  0.28881590403E+04 0.  0.
        4    1    3    3  502    0 -0.36783327421E+03  0.12410062156E+04 -0.47452881192E+03  0.13786141415E+04  0.12699999809E+01 0.  1.
       -4    1    3    3    0  502  0.36783327421E+03 -0.12410062156E+04  0.81490582369E+03  0.15295328892E+04  0.12699999809E+01 0. -1.
</event>
<event>
 5   0  0.4224163E-06  0.2921187E+04  0.7818609E-02  0.8266602E-01
        2   -1    0    0  501    0  0.00000000000E+00  0.00000000000E+00  0.19250884176E+04  0.19250884176E+04  0.25500000920E-02 0.  1.
       -2   -1    0    0    0  501  0.00000000000E+00  0.00000000000E+00 -0.11081739600E+04  0.11081739600E+04  0.25500000920E-02 0. -1.
    10030    2    1    2    0    0  0.00000000000E+00  0.00000000000E+00  0.81691445763E+03  0.30332623776E+04  0.29211866459E+04 0.  0.
        4    1    3    3  502    0 -0.63043704560E+03  0.13094794570E+04  0.25746886478E+03  0.14759671900E+04  0.12699999809E+01 0.  1.
       -4    1    3    3    0  502  0.63043704560E+03 -0.13094794570E+04  0.55944559285E+03  0.15572951875E+04  0.12699999809E+01 0. -1.
</event>
<event>
 5   0  0.1543678E-06  0.2915916E+04  0.7818609E-02  0.8268158E-01
       -1   -1    0    0    0  501  0.00000000000E+00  0.00000000000E+00  0.13770748634E+04  0.13770748634E+04  0.50400001928E-02 0. -1.
        1   -1    0    0  501    0  0.00000000000E+00  0.00000000000E+00 -0.15435915068E+04  0.15435915068E+04  0.50400001928E-02 0.  1.
    10030    2    1    2    0    0  0.00000000000E+00  0.00000000000E+00 -0.16651664339E+03  0.29206663702E+04  0.29159156801E+04 0.  0.
        3    1    3    3  502    0 -0.25156295733E+03  0.49573499443E+03  0.12667520824E+04  0.13833647222E+04  0.10100000352E+00 0. -1.
       -3    1    3    3    0  502  0.25156295733E+03 -0.49573499443E+03 -0.14332687258E+04  0.15373016480E+04  0.10100000352E+00 0.  1.
</event>
<event>
 5   0  0.1580212E-06  0.2908787E+04  0.7818609E-02  0.8270268E-01
       -1   -1    0    0    0  501  0.00000000000E+00  0.00000000000E+00  0.10028049660E+04  0.10028049660E+04  0.50400001928E-02 0.  1.
        1   -1    0    0  501    0  0.00000000000E+00  0.00000000000E+00 -0.21093445266E+04  0.21093445266E+04  0.50400001928E-02 0. -1.
    10030    2    1    2    0    0  0.00000000000E+00  0.00000000000E+00 -0.11065395606E+04  0.31121494927E+04  0.29087874906E+04 0.  0.
        4    1    3    3  502    0  0.11014228739E+04 -0.85254521910E+03 -0.10012221137E+04  0.17153463299E+04  0.12699999809E+01 0. -1.
       -4    1    3    3    0  502 -0.11014228739E+04  0.85254521910E+03 -0.10531744694E+03  0.13968031627E+04  0.12699999809E+01 0.  1.
</event>
<event>
 5   0  0.1550278E-06  0.2885870E+04  0.7818609E-02  0.8277094E-01
        1   -1    0    0  501    0  0.00000000000E+00  0.00000000000E+00  0.10891104091E+04  0.10891104091E+04  0.50400001928E-02 0. -1.
       -1   -1    0    0    0  501  0.00000000000E+00  0.00000000000E+00 -0.19117082851E+04  0.19117082851E+04  0.50400001928E-02 0.  1.
    10030    2    1    2    0    0  0.00000000000E+00  0.00000000000E+00 -0.82259787594E+03  0.30008186942E+04  0.28858699849E+04 0.  0.
        2    1    3    3  502    0  0.77379090606E+03  0.88154320673E+03 -0.12851229244E+04  0.17399458964E+04  0.25500000920E-02 0.  1.
       -2    1    3    3    0  502 -0.77379090606E+03 -0.88154320673E+03  0.46252504849E+03  0.12608727978E+04  0.25500000920E-02 0. -1.
</event>
<event>
 5   0  0.4115143E-06  0.2912725E+04  0.7818609E-02  0.8269101E-01
       -2   -1    0    0    0  501  0.00000000000E+00  0.00000000000E+00  0.11220582814E+04  0.11220582814E+04  0.25500000920E-02 0. -1.
        2   -1    0    0  501    0  0.00000000000E+00  0.00000000000E+00 -0.18902690287E+04  0.18902690287E+04  0.25500000920E-02 0.  1.
    10030    2    1    2    0    0  0.00000000000E+00  0.00000000000E+00 -0.76821074727E+03  0.30123273102E+04  0.29127251967E+04 0.  0.
        1    1    3    3  502    0  0.97921166457E+03  0.50575223335E+03 -0.13686851398E+04  0.17572534870E+04  0.50400001928E-02 0.  1.
       -1    1    3    3    0  502 -0.97921166457E+03 -0.50575223335E+03  0.60047439252E+03  0.12550738232E+04  0.50400001928E-02 0. -1.
</event>
<event>
 5   0  0.1543678E-06  0.2902702E+04  0.7818609E-02  0.8272074E-01
        1   -1    0    0  501    0  0.00000000000E+00  0.00000000000E+00  0.14581482917E+04  0.14581482917E+04  0.50400001928E-02 0.  1.
       -1   -1    0    0    0  501  0.00000000000E+00  0.00000000000E+00 -0.14445851253E+04  0.14445851253E+04  0.50400001928E-02 0. -1.
    10030    2    1    2    0    0  0.00000000000E+00  0.00000000000E+00  0.13563166373E+02  0.29027334170E+04  0.29027017295E+04 0.  0.
        3    1    3    3  502    0 -0.57505715529E+03  0.13066230753E+04 -0.25487893073E+03  0.14501440867E+04  0.10100000352E+00 0. -1.
       -3    1    3    3    0  502  0.57505715529E+03 -0.13066230753E+04  0.26844209710E+03  0.14525893303E+04  0.10100000352E+00 0.  1.
</event>
<event>
 5   0  0.4187518E-06  0.2907207E+04  0.7818609E-02  0.8270737E-01
       -2   -1    0    0    0  501  0.00000000000E+00  0.00000000000E+00  0.17007820014E+04  0.17007820014E+04  0.25500000920E-02 0.  1.
        2   -1    0    0  501    0  0.00000000000E+00  0.00000000000E+00 -0.12423477343E+04  0.12423477343E+04  0.25500000920E-02 0. -1.
    10030    2    1    2    0    0  0.00000000000E+00  0.00000000000E+00  0.45843426706E+03  0.29431297357E+04  0.29072066772E+04 0.  0.
        3    1    3    3  502    0  0.99551696055E+03  0.91020891966E+03 -0.31916657223E+03  0.13861463152E+04  0.10100000352E+00 0. -1.
       -3    1    3    3    0  502 -0.99551696055E+03 -0.91020891966E+03  0.77760083928E+03  0.15569834205E+04  0.10100000352E+00 0.  1.
</event>
<event>
 5   0  0.4162450E-06  0.2887059E+04  0.7818609E-02  0.8276738E-01
       -2   -1    0    0    0  501  0.00000000000E+00  0.00000000000E+00  0.10833824435E+04  0.10833824435E+04  0.25500000920E-02 0. -1.
        2   -1    0    0  501    0  0.00000000000E+00  0.00000000000E+00 -0.19234003035E+04  0.19234003035E+04  0.25500000920E-02 0.  1.
    10030    2    1    2    0    0  0.00000000000E+00  0.00000000000E+00 -0.84001786003E+03  0.30067827471E+04  0.28870594872E+04 0.  0.
        2    1    3    3  502    0 -0.39451147382E+03 -0.13166360436E+04  0.39429213417E+02  0.13750361585E+04  0.25500000920E-02 0. -1.
       -2    1    3    3    0  502  0.39451147382E+03  0.13166360436E+04 -0.87944707344E+03  0.16317465886E+04  0.25500000920E-02 0.  1.
</event>
<event>
 5   0  0.4224163E-06  0.2899342E+04  0.7818609E-02  0.8273073E-01
        2   -1    0    0  501    0  0.00000000000E+00  0.00000000000E+00  0.17004972099E+04  0.17004972099E+04  0.25500000920E-02 0.  1.
       -2   -1    0    0    0  501  0.00000000000E+00  0.00000000000E+00 -0.12358424779E+04  0.12358424779E+04  0.25500000920E-02 0. -1.
    10030    2    1    2    0    0  0.00000000000E+00  0.00000000000E+00  0.46465473199E+03  0.29363396879E+04  0.28993424673E+04 0.  0.
        4    1    3    3  502    0  0.12898033249E+04  0.61377813323E+03 -0.18274823817E+02  0.14285138416E+04  0.12699999809E+01 0.  1.
       -4    1    3    3    0  502 -0.12898033249E+04 -0.61377813323E+03  0.48292955581E+03  0.15078258462E+04  0.12699999809E+01 0. -1.
</event>
<event>
 5   0  0.1580212E-06  0.2961918E+04  0.7818609E-02  0.8254690E-01
        1   -1    0    0  501    0  0.00000000000E+00  0.00000000000E+00  0.24917787169E+04  0.24917787169E+04  0.50400001928E-02 0. -1.
       -1   -1    0    0    0  501  0.00000000000E+00  0.00000000000E+00 -0.88019051987E+03  0.88019051988E+03  0.50400001928E-02 0.  1.
    10030    2    1    2    0    0  0.00000000000E+00  0.00000000000E+00  0.16115881970E+04  0.33719692368E+04  0.29619183002E+04 0.  0.
        4    1    3    3  502    0  0.11913024092E+04 -0.77920940351E+03  0.12708436480E+04  0.19082489133E+04  0.12699999809E+01 0. -1.
       -4    1    3    3    0  502 -0.11913024092E+04  0.77920940351E+03  0.34074454904E+03  0.14637203235E+04  0.12699999809E+01 0.  1.
</event>
<event>
 5   0  0.1602873E-06  0.2885893E+04  0.7818609E-02  0.8277087E-01
       -1   -1    0    0    0  501  0.00000000000E+00  0.00000000000E+00  0.15972557327E+04  0.15972557327E+04  0.50400001928E-02 0. -1.
        1   -1    0    0  501    0  0.00000000000E+00  0.00000000000E+00 -0.13035445202E+04  0.13035445202E+04  0.50400001928E-02 0.  1.
    10030    2    1    2    0    0  0.00000000000E+00  0.00000000000E+00  0.29371121251E+03  0.29008002529E+04  0.28858925536E+04 0.  0.
        1    1    3    3  502    0  0.47597337159E+03 -0.41037700631E+03  0.14524625718E+04  0.15825951662E+04  0.50400001928E-02 0. -1.
       -1    1    3    3    0  502 -0.47597337159E+03  0.41037700631E+03 -0.11587513593E+04  0.13182050866E+04  0.50400001928E-02 0.  1.
</event>
<event>
 5   0  0.4224163E-06  0.2897253E+04  0.7818609E-02  0.8273695E-01
        2   -1    0    0  501    0  0.00000000000E+00  0.00000000000E+00  0.23676096613E+04  0.23676096613E+04  0.25500000920E-02 0. -1.
       -2   -1    0    0    0  501  0.00000000000E+00  0.00000000000E+00 -0.88634516879E+03  0.88634516879E+03  0.25500000920E-02 0.  1.
    10030    2    1    2    0    0  0.00000000000E+00  0.00000000000E+00  0.14812644926E+04  0.32539548301E+04  0.28972534476E+04 0.  0.
        4    1    3    3  502    0  0.49277882438E+03 -0.13532396235E+04  0.91617412934E+03  0.17068875466E+04  0.12699999809E+01 0. -1.
       -4    1    3    3    0  502 -0.49277882438E+03  0.13532396235E+04  0.56509036321E+03  0.15470672836E+04  0.12699999809E+01 0.  1.
</event>
<event>
 5   0  0.4148677E-06  0.2881098E+04  0.7818609E-02  0.8278524E-01
       -2   -1    0    0    0  501  0.00000000000E+00  0.00000000000E+00  0.12528992187E+04  0.12528992187E+04  0.25500000920E-02 0.  1.
        2   -1    0    0  501    0  0.00000000000E+00  0.00000000000E+00 -0.16563036656E+04  0.16563036656E+04  0.25500000920E-02 0. -1.
    10030    2    1    2    0    0  0.00000000000E+00  0.00000000000E+00 -0.40340444687E+03  0.29092028843E+04  0.28810981021E+04 0.  0.
        5    1    3    3  502    0  0.20043710593E+03  0.42320248667E+03  0.11738953107E+04  0.12638542909E+04  0.46999998093E+01 0.  1.
       -5    1    3    3    0  502 -0.20043710593E+03 -0.42320248667E+03 -0.15772997576E+04  0.16453485933E+04  0.46999998093E+01 0. -1.
</event>
<event>
 5   0  0.1550278E-06  0.2868377E+04  0.7818609E-02  0.8282349E-01
       -1   -1    0    0    0  501  0.00000000000E+00  0.00000000000E+00  0.88864834536E+03  0.88864834538E+03  0.50400001928E-02 0. -1.
        1   -1    0    0  501    0  0.00000000000E+00  0.00000000000E+00 -0.23146343906E+04  0.23146343906E+04  0.50400001928E-02 0.  1.
    10030    2    1    2    0    0  0.00000000000E+00  0.00000000000E+00 -0.14259860452E+04  0.32032827360E+04  0.28683765592E+04 0.  0.
        2    1    3    3  502    0 -0.10018604331E+04 -0.46136071769E+03  0.31072638573E+03  0.11459183767E+04  0.25500000920E-02 0. -1.
       -2    1    3    3    0  502  0.10018604331E+04  0.46136071769E+03 -0.17367124309E+04  0.20573643593E+04  0.25500000920E-02 0.  1.
</event>
<event>
 5   0  0.1543678E-06  0.2814566E+04  0.7818609E-02  0.8298761E-01
       -1   -1    0    0    0  501  0.00000000000E+00  0.00000000000E+00  0.76876281558E+03  0.76876281560E+03  0.50400001928E-02 0. -1.
        1   -1    0    0  501    0  0.00000000000E+00  0.00000000000E+00 -0.25761457461E+04  0.25761457461E+04  0.50400001928E-02 0.  1.
    10030    2    1    2    0    0  0.00000000000E+00  0.00000000000E+00 -0.18073829305E+04  0.33449085617E+04  0.28145657265E+04 0.  0.
        3    1    3    3  502    0  0.45834260694E+03  0.91968094665E+03 -0.20464093111E+04  0.22899087466E+04  0.10100000352E+00 0.  1.
       -3    1    3    3    0  502 -0.45834260694E+03 -0.91968094665E+03  0.23902638063E+03  0.10549998151E+04  0.10100000352E+00 0. -1.
</event>
<event>
 5   0  0.4162450E-06  0.2828967E+04  0.7818609E-02  0.8294331E-01
        2   -1    0    0  501    0  0.00000000000E+00  0.00000000000E+00  0.83608300923E+03  0.83608300924E+03  0.25500000920E-02 0. -1.
       -2   -1    0    0    0  501  0.00000000000E+00  0.00000000000E+00 -0.23930205675E+04  0.23930205675E+04  0.25500000920E-02 0.  1.
    10030    2    1    2    0    0  0.00000000000E+00  0.00000000000E+00 -0.15569375583E+04  0.32291035767E+04  0.28289671877E+04 0.  0.
        2    1    3    3  502    0 -0.79039797249E+01 -0.78657403555E+03 -0.21203327848E+04  0.22615420192E+04  0.25500000920E-02 0.  1.
       -2    1    3    3    0  502  0.79039797249E+01  0.78657403555E+03  0.56339522655E+03  0.96756155753E+03  0.25500000920E-02 0. -1.
</event>
<event>
 5   0  0.4224163E-06  0.2836606E+04  0.7818609E-02  0.8291993E-01
        2   -1    0    0  501    0  0.00000000000E+00  0.00000000000E+00  0.13410075168E+04  0.13410075168E+04  0.25500000920E-02 0.  1.
       -2   -1    0    0    0  501  0.00000000000E+00  0.00000000000E+00 -0.15000535513E+04  0.15000535513E+04  0.25500000920E-02 0. -1.
    10030    2    1    2    0    0  0.00000000000E+00  0.00000000000E+00 -0.15904603444E+03  0.28410610681E+04  0.28366057801E+04 0.  0.
        4    1    3    3  502    0 -0.47048328293E+03 -0.11251772225E+04  0.64563292197E+03  0.13799354276E+04  0.12699999809E+01 0.  1.
       -4    1    3    3    0  502  0.47048328293E+03  0.11251772225E+04 -0.80467895642E+03  0.14611256405E+04  0.12699999809E+01 0. -1.
</event>
<event>
 5   0  0.1602873E-06  0.2852035E+04  0.7818609E-02  0.8287293E-01
       -1   -1    0    0    0  501  0.00000000000E+00  0.00000000000E+00  0.16383982142E+04  0.16383982142E+04  0.50400001928E-02 0.  1.
        1   -1    0    0  501    0  0.00000000000E+00  0.00000000000E+00 -0.12411673906E+04  0.12411673906E+04  0.50400001928E-02 0. -1.
    10030    2    1    2    0    0  0.00000000000E+00  0.00000000000E+00  0.39723082359E+03  0.28795656049E+04  0.28520353689E+04 0.  0.
        1    1    3    3  502    0  0.13581087332E+04 -0.38685526319E+03  0.39905149021E+03  0.14674325939E+04  0.50400001928E-02 0.  1.
       -1    1    3    3    0  502 -0.13581087332E+04  0.38685526319E+03 -0.18206666218E+01  0.14121330110E+04  0.50400001928E-02 0. -1.
</event>
<event>
 5   0  0.1602873E-06  0.2883200E+04  0.7818609E-02  0.8277893E-01
       -1   -1    0    0    0  501  0.00000000000E+00  0.00000000000E+00  0.79984825864E+03  0.79984825866E+03  0.50400001928E-02 0. -1.
        1   -1    0    0  501    0  0.00000000000E+00  0.00000000000E+00 -0.25982568120E+04  0.25982568120E+04  0.50400001928E-02 0.  1.
    10030    2    1    2    0    0  0.00000000000E+00  0.00000000000E+00 -0.17984085533E+04  0.33981050706E+04  0.28832004347E+04 0.  0.
        1    1    3    3  502    0  0.12801638439E+03  0.14241308411E+04 -0.68292669230E+03  0.15845900777E+04  0.50400001928E-02 0.  1.
       -1    1    3    3    0  502 -0.12801638439E+03 -0.14241308411E+04 -0.11154818610E+04  0.18135149929E+04  0.50400001928E-02 0. -1.
</event>
<event>
 5   0  0.4187518E-06  0.2952859E+04  0.7818609E-02  0.8257322E-01
        2   -1    0    0  501    0  0.00000000000E+00  0.00000000000E+00  0.22013253276E+04  0.22013253276E+04  0.25500000920E-02 0.  1.
       -2   -1    0    0    0  501  0.00000000000E+00  0.00000000000E+00 -0.99024157366E+03  0.99024157366E+03  0.25500000920E-02 0. -1.
    10030    2    1    2    0    0  0.00000000000E+00  0.00000000000E+00  0.12110837539E+04  0.31915669013E+04  0.29528588565E+04 0.  0.
        3    1    3    3  502    0 -0.48287624297E+03  0.21603854850E+03  0.20953771817E+04  0.21611218532E+04  0.10100000352E+00 0.  1.
       -3    1    3    3    0  502  0.48287624297E+03 -0.21603854850E+03 -0.88429342779E+03  0.10304450481E+04  0.10100000352E+00 0. -1.
</event>
<event>
 5   0  0.1602873E-06  0.2894242E+04  0.7818609E-02  0.8274593E-01
        1   -1    0    0  501    0  0.00000000000E+00  0.00000000000E+00  0.16958698952E+04  0.16958698953E+04  0.50400001928E-02 0. -1.
       -1   -1    0    0    0  501  0.00000000000E+00  0.00000000000E+00 -0.12348581772E+04  0.12348581772E+04  0.50400001928E-02 0.  1.
    10030    2    1    2    0    0  0.00000000000E+00  0.00000000000E+00  0.46101171809E+03  0.29307280724E+04  0.28942417367E+04 0.  0.
        1    1    3    3  502    0 -0.71055099794E+03 -0.10242170482E+04 -0.51378096484E+03  0.13482856383E+04  0.50400001928E-02 0.  1.
       -1    1    3    3    0  502  0.71055099794E+03  0.10242170482E+04  0.97479268293E+03  0.15824424341E+04  0.50400001928E-02 0. -1.
</event>
<event>
 5   0  0.1543678E-06  0.2868604E+04  0.7818609E-02  0.8282280E-01
       -1   -1    0    0    0  501  0.00000000000E+00  0.00000000000E+00  0.16481681526E+04  0.16481681526E+04  0.50400001928E-02 0. -1.
        1   -1    0    0  501    0  0.00000000000E+00  0.00000000000E+00 -0.12481873608E+04  0.12481873608E+04  0.50400001928E-02 0.  1.
    10030    2    1    2    0    0  0.00000000000E+00  0.00000000000E+00  0.39998079179E+03  0.28963555135E+04  0.28686042994E+04 0.  0.
        3    1    3    3  502    0  0.71621023856E+03 -0.12013833632E+04  0.52078017443E+03  0.14924781712E+04  0.10100000352E+00 0. -1.
       -3    1    3    3    0  502 -0.71621023856E+03  0.12013833632E+04 -0.12079938264E+03  0.14038773423E+04  0.10100000352E+00 0.  1.
</event>
<event>
 5   0  0.1602873E-06  0.2879136E+04  0.7818609E-02  0.8279112E-01
       -1   -1    0    0    0  501  0.00000000000E+00  0.00000000000E+00  0.13704185366E+04  0.13704185366E+04  0.50400001928E-02 0. -1.
        1   -1    0    0  501    0  0.00000000000E+00  0.00000000000E+00 -0.15122067482E+04  0.15122067483E+04  0.50400001928E-02 0.  1.
    10030    2    1    2    0    0  0.00000000000E+00  0.00000000000E+00 -0.14178821163E+03  0.28826252849E+04  0.28791360920E+04 0.  0.
        1    1    3    3  502    0 -0.92912213214E+03  0.65947727625E+03 -0.95183423824E+03  0.14846436042E+04  0.50400001928E-02 0.  1.
       -1    1    3    3    0  502  0.92912213214E+03 -0.65947727625E+03  0.81004602661E+03  0.13979816807E+04  0.50400001928E-02 0. -1.
</event>
<event>
 5   0  0.1543678E-06  0.2855105E+04  0.7818609E-02  0.8286362E-01
        1   -1    0    0  501    0  0.00000000000E+00  0.00000000000E+00  0.14104059732E+04  0.14104059732E+04  0.50400001928E-02 0. -1.
       -1   -1    0    0    0  501  0.00000000000E+00  0.00000000000E+00 -0.14449079052E+04  0.14449079052E+04  0.50400001928E-02 0.  1.
    10030    2    1    2    0    0  0.00000000000E+00  0.00000000000E+00 -0.34501932045E+02  0.28553138784E+04  0.28551054202E+04 0.  0.
        3    1    3    3  502    0  0.26872220546E+03 -0.12763206961E+04 -0.59755240093E+03  0.14346689601E+04  0.10100000352E+00 0. -1.
       -3    1    3    3    0  502 -0.26872220546E+03  0.12763206961E+04  0.56305046889E+03  0.14206449183E+04  0.10100000352E+00 0.  1.
</event>
<event>
 5   0  0.1360125E-06  0.2891997E+04  0.7818609E-02  0.8275263E-01
        4   -1    0    0  501    0  0.00000000000E+00  0.00000000000E+00  0.13636356021E+04  0.13636361935E+04  0.12699999809E+01 0. -1.
       -4   -1    0    0    0  501  0.00000000000E+00  0.00000000000E+00 -0.15333345057E+04  0.15333350316E+04  0.12699999809E+01 0.  1.
    10030    2    1    2    0    0  0.00000000000E+00  0.00000000000E+00 -0.16969890358E+03  0.28969712251E+04  0.28919966392E+04 0.  0.
        4    1    3    3  502    0 -0.43339674965E+03  0.98455385697E+03 -0.10528089087E+04  0.15051867828E+04  0.12699999809E+01 0.  1.
       -4    1    3    3    0  502  0.43339674965E+03 -0.98455385697E+03  0.88311000511E+03  0.13917844423E+04  0.12699999809E+01 0. -1.
</event>
<event>
 5   0  0.1580212E-06  0.3023679E+04  0.7818609E-02  0.8237001E-01
       -1   -1    0    0    0  501  0.00000000000E+00  0.00000000000E+00  0.17059303151E+04  0.17059303151E+04  0.50400001928E-02 0.  1.
        1   -1    0    0  501    0  0.00000000000E+00  0.00000000000E+00 -0.13398313332E+04  0.13398313332E+04  0.50400001928E-02 0. -1.
    10030    2    1    2    0    0  0.00000000000E+00  0.00000000000E+00  0.36609898193E+03  0.30457616483E+04  0.30236791420E+04 0.  0.
        4    1    3    3  502    0  0.65634873119E+03 -0.13156863875E+04  0.53751853667E+03  0.15654878209E+04  0.12699999809E+01 0.  1.
       -4    1    3    3    0  502 -0.65634873119E+03  0.13156863875E+04 -0.17141955474E+03  0.14802738274E+04  0.12699999809E+01 0. -1.
</event>
<event>
 5   0  0.1602873E-06  0.2852128E+04  0.7818609E-02  0.8287265E-01
        1   -1    0    0  501    0  0.00000000000E+00  0.00000000000E+00  0.14432125111E+04  0.14432125111E+04  0.50400001928E-02 0. -1.
       -1   -1    0    0    0  501  0.00000000000E+00  0.00000000000E+00 -0.14091196439E+04  0.14091196439E+04  0.50400001928E-02 0.  1.
    10030    2    1    2    0    0  0.00000000000E+00  0.00000000000E+00  0.34092867192E+02  0.28523321550E+04  0.28521283980E+04 0.  0.
        1    1    3    3  502    0 -0.97176136232E+03 -0.82981122242E+03 -0.61604878146E+03  0.14185989255E+04  0.50400001928E-02 0.  1.
       -1    1    3    3    0  502  0.97176136232E+03  0.82981122242E+03  0.65014164865E+03  0.14337332295E+04  0.50400001928E-02 0. -1.
</event>
<event>
 5   0  0.1543678E-06  0.2892428E+04  0.7818609E-02  0.8275134E-01
        1   -1    0    0  501    0  0.00000000000E+00  0.00000000000E+00  0.15838233260E+04  0.15838233260E+04  0.50400001928E-02 0.  1.
       -1   -1    0    0    0  501  0.00000000000E+00  0.00000000000E+00 -0.13205609816E+04  0.13205609816E+04  0.50400001928E-02 0. -1.
    10030    2    1    2    0    0  0.00000000000E+00  0.00000000000E+00  0.26326234438E+03  0.29043843076E+04  0.28924282436E+04 0.  0.
        3    1    3    3  502    0 -0.91118707416E+03 -0.10906757866E+04 -0.13724370101E+03  0.14278205067E+04  0.10100000352E+00 0.  1.
       -3    1    3    3    0  502  0.91118707416E+03  0.10906757866E+04  0.40050604539E+03  0.14765638009E+04  0.10100000352E+00 0. -1.
</event>
<event>
 5   0  0.4148677E-06  0.2905963E+04  0.7818609E-02  0.8271106E-01
        2   -1    0    0  501    0  0.00000000000E+00  0.00000000000E+00  0.11238748305E+04  0.11238748305E+04  0.25500000920E-02 0.  1.
       -2   -1    0    0    0  501  0.00000000000E+00  0.00000000000E+00 -0.18784612095E+04  0.18784612095E+04  0.25500000920E-02 0. -1.
    10030    2    1    2    0    0  0.00000000000E+00  0.00000000000E+00 -0.75458637897E+03  0.30023360400E+04  0.29059630235E+04 0.  0.
        5    1    3    3  502    0  0.53203214247E+03 -0.34725172065E+03 -0.17273388461E+04  0.18404791597E+04  0.46999998093E+01 0. -1.
       -5    1    3    3    0  502 -0.53203214247E+03  0.34725172065E+03  0.97275246711E+03  0.11618568803E+04  0.46999998093E+01 0.  1.
</event>
<event>
 5   0  0.4224163E-06  0.2908396E+04  0.7818609E-02  0.8270384E-01
       -2   -1    0    0    0  501  0.00000000000E+00  0.00000000000E+00  0.17097894490E+04  0.17097894490E+04  0.25500000920E-02 0.  1.
        2   -1    0    0  501    0  0.00000000000E+00  0.00000000000E+00 -0.12368145833E+04  0.12368145833E+04  0.25500000920E-02 0. -1.
    10030    2    1    2    0    0  0.00000000000E+00  0.00000000000E+00  0.47297486567E+03  0.29466040323E+04  0.29083964825E+04 0.  0.
        4    1    3    3  502    0 -0.18082367944E+03 -0.53678140607E+03 -0.11204579643E+04  0.12554915944E+04  0.12699999809E+01 0. -1.
       -4    1    3    3    0  502  0.18082367944E+03  0.53678140607E+03  0.15934328300E+04  0.16911124379E+04  0.12699999809E+01 0.  1.
</event>
<event>
 5   0  0.1511126E-06  0.2885463E+04  0.7818609E-02  0.8277216E-01
        1   -1    0    0  501    0  0.00000000000E+00  0.00000000000E+00  0.14928847952E+04  0.14928847952E+04  0.50400001928E-02 0.  1.
       -1   -1    0    0    0  501  0.00000000000E+00  0.00000000000E+00 -0.13942631915E+04  0.13942631915E+04  0.50400001928E-02 0. -1.
    10030    2    1    2    0    0  0.00000000000E+00  0.00000000000E+00  0.98621603641E+02  0.28871479867E+04  0.28854630956E+04 0.  0.
        5    1    3    3  502    0  0.44013716218E+03  0.39022727874E+03  0.13674464234E+04  0.14885999669E+04  0.46999998093E+01 0.  1.
       -5    1    3    3    0  502 -0.44013716218E+03 -0.39022727874E+03 -0.12688248197E+04  0.13985480198E+04  0.46999998093E+01 0. -1.
</event>
<event>
 5   0  0.4224163E-06  0.2693403E+04  0.7818609E-02  0.8337149E-01
        2   -1    0    0  501    0  0.00000000000E+00  0.00000000000E+00  0.17890400831E+04  0.17890400831E+04  0.25500000920E-02 0. -1.
       -2   -1    0    0    0  501  0.00000000000E+00  0.00000000000E+00 -0.10137308268E+04  0.10137308268E+04  0.25500000920E-02 0.  1.
    10030    2    1    2    0    0  0.00000000000E+00  0.00000000000E+00  0.77530925623E+03  0.28027709099E+04  0.26934031133E+04 0.  0.
        4    1    3    3  502    0  0.12751159013E+04  0.38722006640E+03  0.18548892025E+03  0.13454618887E+04  0.12699999809E+01 0. -1.
       -4    1    3    3    0  502 -0.12751159013E+04 -0.38722006640E+03  0.58982033598E+03  0.14573090212E+04  0.12699999809E+01 0.  1.
</event>
<event>
 5   0  0.1511126E-06  0.3126380E+04  0.7818609E-02  0.8208535E-01
        1   -1    0    0  501    0  0.00000000000E+00  0.00000000000E+00  0.21089399665E+04  0.21089399666E+04  0.50400001928E-02 0.  1.
       -1   -1    0    0    0  501  0.00000000000E+00  0.00000000000E+00 -0.11586689661E+04  0.11586689661E+04  0.50400001928E-02 0. -1.
    10030    2    1    2    0    0  0.00000000000E+00  0.00000000000E+00  0.95027100045E+03  0.32676089327E+04  0.31263802012E+04 0.  0.
        5    1    3    3  502    0  0.58073129567E+03 -0.65567233237E+03  0.18283770244E+04  0.20273479422E+04  0.46999998093E+01 0.  1.
       -5    1    3    3    0  502 -0.58073129567E+03  0.65567233237E+03 -0.87810602397E+03  0.12402609905E+04  0.46999998093E+01 0. -1.
</event>
<event>
 5   0  0.4162450E-06  0.2856238E+04  0.7818609E-02  0.8286018E-01
        2   -1    0    0  501    0  0.00000000000E+00  0.00000000000E+00  0.16137195532E+04  0.16137195532E+04  0.25500000920E-02 0.  1.
       -2   -1    0    0    0  501  0.00000000000E+00  0.00000000000E+00 -0.12638647453E+04  0.12638647453E+04  0.25500000920E-02 0. -1.
    10030    2    1    2    0    0  0.00000000000E+00  0.00000000000E+00  0.34985480790E+03  0.28775842986E+04  0.28562375617E+04 0.  0.
        2    1    3    3  502    0 -0.10639455782E+04 -0.32809934377E+03 -0.72612472220E+03  0.13292428239E+04  0.25500000920E-02 0. -1.
       -2    1    3    3    0  502  0.10639455782E+04  0.32809934377E+03  0.10759795301E+04  0.15483414746E+04  0.25500000920E-02 0.  1.
</event>
<event>
 5   0  0.4115143E-06  0.2894086E+04  0.7818609E-02  0.8274639E-01
       -2   -1    0    0    0  501  0.00000000000E+00  0.00000000000E+00  0.18371603703E+04  0.18371603703E+04  0.25500000920E-02 0.  1.
        2   -1    0    0  501    0  0.00000000000E+00  0.00000000000E+00 -0.11397662245E+04  0.11397662245E+04  0.25500000920E-02 0. -1.
    10030    2    1    2    0    0  0.00000000000E+00  0.00000000000E+00  0.69739414575E+03  0.29769265948E+04  0.28940859276E+04 0.  0.
        1    1    3    3  502    0  0.96799465753E+03 -0.69138093765E+03 -0.49884930637E+03  0.12899115816E+04  0.50400001928E-02 0. -1.
       -1    1    3    3    0  502 -0.96799465753E+03  0.69138093765E+03  0.11962434521E+04  0.16870150132E+04  0.50400001928E-02 0.  1.
</event>
<event>
 5   0  0.1580212E-06  0.2908360E+04  0.7818609E-02  0.8270395E-01
        1   -1    0    0  501    0  0.00000000000E+00  0.00000000000E+00  0.12419347857E+04  0.12419347857E+04  0.50400001928E-02 0.  1.
       -1   -1    0    0    0  501  0.00000000000E+00  0.00000000000E+00 -0.17026971308E+04  0.17026971308E+04  0.50400001928E-02 0. -1.
    10030    2    1    2    0    0  0.00000000000E+00  0.00000000000E+00 -0.46076234511E+03  0.29446319166E+04  0.29083595351E+04 0.  0.
        4    1    3    3  502    0  0.14268363170E+04 -0.24125208090E+03 -0.85160311759E+02  0.14495924715E+04  0.12699999809E+01 0. -1.
       -4    1    3    3    0  502 -0.14268363170E+04  0.24125208090E+03 -0.37560203335E+03  0.14950394451E+04  0.12699999809E+01 0.  1.
</event>
<event>
 5   0  0.4115143E-06  0.2874629E+04  0.7818609E-02  0.8280466E-01
       -2   -1    0    0    0  501  0.00000000000E+00  0.00000000000E+00  0.77435551529E+03  0.77435551530E+03  0.25500000920E-02 0.  1.
        2   -1    0    0  501    0  0.00000000000E+00  0.00000000000E+00 -0.26678613938E+04  0.26678613938E+04  0.25500000920E-02 0. -1.
    10030    2    1    2    0    0  0.00000000000E+00  0.00000000000E+00 -0.18935058786E+04  0.34422169091E+04  0.28746291478E+04 0.  0.
        1    1    3    3  502    0 -0.13064954241E+04  0.52889266950E+03 -0.60972856157E+03  0.15357169882E+04  0.50400001928E-02 0.  1.
       -1    1    3    3    0  502  0.13064954241E+04 -0.52889266950E+03 -0.12837773170E+04  0.19064999210E+04  0.50400001928E-02 0. -1.
</event>
<event>
 5   0  0.1550278E-06  0.2731295E+04  0.7818609E-02  0.8324922E-01
       -1   -1    0    0    0  501  0.00000000000E+00  0.00000000000E+00  0.11735397828E+04  0.11735397828E+04  0.50400001928E-02 0. -1.
        1   -1    0    0  501    0  0.00000000000E+00  0.00000000000E+00 -0.15892036505E+04  0.15892036505E+04  0.50400001928E-02 0.  1.
    10030    2    1    2    0    0  0.00000000000E+00  0.00000000000E+00 -0.41566386774E+03  0.27627434333E+04  0.27312954486E+04 0.  0.
        2    1    3    3  502    0  0.12419593476E+04 -0.55354969938E+03 -0.33623212936E+03  0.14006899499E+04  0.25500000920E-02 0.  1.
       -2    1    3    3    0  502 -0.12419593476E+04  0.55354969938E+03 -0.79431738378E+02  0.13620534835E+04  0.25500000920E-02 0. -1.
</event>
<event>
 5   0  0.4224163E-06  0.2843939E+04  0.7818609E-02  0.8289755E-01
       -2   -1    0    0    0  501  0.00000000000E+00  0.00000000000E+00  0.17657905741E+04  0.17657905741E+04  0.25500000920E-02 0.  1.
        2   -1    0    0  501    0  0.00000000000E+00  0.00000000000E+00 -0.11450947455E+04  0.11450947455E+04  0.25500000920E-02 0. -1.
    10030    2    1    2    0    0  0.00000000000E+00  0.00000000000E+00  0.62069582862E+03  0.29108853195E+04  0.28439391751E+04 0.  0.
        4    1    3    3  502    0  0.13472100491E+04 -0.45315307028E+03  0.35221649892E+03  0.14643704096E+04  0.12699999809E+01 0. -1.
       -4    1    3    3    0  502 -0.13472100491E+04  0.45315307028E+03  0.26847932970E+03  0.14465149100E+04  0.12699999809E+01 0.  1.
</event>
<event>
 5   0  0.4187518E-06  0.2905507E+04  0.7818609E-02  0.8271241E-01
        2   -1    0    0  501    0  0.00000000000E+00  0.00000000000E+00  0.10733728281E+04  0.10733728281E+04  0.25500000920E-02 0. -1.
       -2   -1    0    0    0  501  0.00000000000E+00  0.00000000000E+00 -0.19662246146E+04  0.19662246146E+04  0.25500000920E-02 0.  1.
    10030    2    1    2    0    0  0.00000000000E+00  0.00000000000E+00 -0.89285178652E+03  0.30395974427E+04  0.29055065480E+04 0.  0.
        3    1    3    3  502    0  0.91548747389E+03 -0.74142805458E+03  0.44290008118E+03  0.12585679827E+04  0.10100000352E+00 0. -1.
       -3    1    3    3    0  502 -0.91548747389E+03  0.74142805458E+03 -0.13357518677E+04  0.17810294600E+04  0.10100000352E+00 0.  1.
</event>
<event>
 5   0  0.1550278E-06  0.2897345E+04  0.7818609E-02  0.8273668E-01
       -1   -1    0    0    0  501  0.00000000000E+00  0.00000000000E+00  0.14781166805E+04  0.14781166805E+04  0.50400001928E-02 0.  1.
        1   -1    0    0  501    0  0.00000000000E+00  0.00000000000E+00 -0.14198149446E+04  0.14198149446E+04  0.50400001928E-02 0. -1.
    10030    2    1    2    0    0  0.00000000000E+00  0.00000000000E+00  0.58301735866E+02  0.28979316252E+04  0.28973450971E+04 0.  0.
        2    1    3    3  502    0  0.73293339564E+02  0.14277587829E+04  0.26326041572E+03  0.14536757212E+04  0.25500000920E-02 0.  1.
       -2    1    3    3    0  502 -0.73293339564E+02 -0.14277587829E+04 -0.20495867986E+03  0.14442559040E+04  0.25500000920E-02 0. -1.
</event>
<event>
 5   0  0.1580212E-06  0.2917276E+04  0.7818609E-02  0.8267756E-01
       -1   -1    0    0    0  501  0.00000000000E+00  0.00000000000E+00  0.95478949008E+03  0.95478949010E+03  0.50400001928E-02 0.  1.
        1   -1    0    0  501    0  0.00000000000E+00  0.00000000000E+00 -0.22283710097E+04  0.22283710097E+04  0.50400001928E-02 0. -1.
    10030    2    1    2    0    0  0.00000000000E+00  0.00000000000E+00 -0.12735815196E+04  0.31831604998E+04  0.29172762777E+04 0.  0.
        4    1    3    3  502    0 -0.13081893525E+04  0.21309464625E+03  0.27690880026E+02  0.13257213538E+04  0.12699999809E+01 0. -1.
       -4    1    3    3    0  502  0.13081893525E+04 -0.21309464625E+03 -0.13012723997E+04  0.18574391460E+04  0.12699999809E+01 0.  1.
</event>
<event>
 5   0  0.1511126E-06  0.2891762E+04  0.7818609E-02  0.8275333E-01
       -1   -1    0    0    0  501  0.00000000000E+00  0.00000000000E+00  0.10177390038E+04  0.10177390038E+04  0.50400001928E-02 0.  1.
        1   -1    0    0  501    0  0.00000000000E+00  0.00000000000E+00 -0.20541334767E+04  0.20541334767E+04  0.50400001928E-02 0. -1.
    10030    2    1    2    0    0  0.00000000000E+00  0.00000000000E+00 -0.10363944729E+04  0.30718724806E+04  0.28917619254E+04 0.  0.
        5    1    3    3  502    0  0.10765019774E+04 -0.91435019589E+03 -0.84674518078E+03  0.16467824019E+04  0.46999998093E+01 0. -1.
       -5    1    3    3    0  502 -0.10765019774E+04  0.91435019589E+03 -0.18964929211E+03  0.14250900786E+04  0.46999998093E+01 0.  1.
</event>
<event>
 5   0  0.1543678E-06  0.2883941E+04  0.7818609E-02  0.8277672E-01
        1   -1    0    0  501    0  0.00000000000E+00  0.00000000000E+00  0.15326759137E+04  0.15326759137E+04  0.50400001928E-02 0. -1.
       -1   -1    0    0    0  501  0.00000000000E+00  0.00000000000E+00 -0.13566333552E+04  0.13566333552E+04  0.50400001928E-02 0.  1.
    10030    2    1    2    0    0  0.00000000000E+00  0.00000000000E+00  0.17604255854E+03  0.28893092689E+04  0.28839412388E+04 0.  0.
        3    1    3    3  502    0  0.63232479226E+03  0.12959073173E+04  0.79708904346E+02  0.14441481702E+04  0.10100000352E+00 0. -1.
       -3    1    3    3    0  502 -0.63232479226E+03 -0.12959073173E+04  0.96333654196E+02  0.14451610987E+04  0.10100000352E+00 0.  1.
</event>
<event>
 5   0  0.4187518E-06  0.2905490E+04  0.7818609E-02  0.8271246E-01
       -2   -1    0    0    0  501  0.00000000000E+00  0.00000000000E+00  0.15831402327E+04  0.15831402327E+04  0.25500000920E-02 0.  1.
        2   -1    0    0  501    0  0.00000000000E+00  0.00000000000E+00 -0.13330902028E+04  0.13330902028E+04  0.25500000920E-02 0. -1.
    10030    2    1    2    0    0  0.00000000000E+00  0.00000000000E+00  0.25005002997E+03  0.29162304355E+04  0.29054904810E+04 0.  0.
        3    1    3    3  502    0  0.73268095005E+03 -0.37494031115E+03  0.13265578567E+04  0.15611397660E+04  0.10100000352E+00 0.  1.
       -3    1    3    3    0  502 -0.73268095005E+03  0.37494031115E+03 -0.10765078267E+04  0.13550906695E+04  0.10100000352E+00 0. -1.
</event>
<event>
 5   0  0.4148677E-06  0.2888331E+04  0.7818609E-02  0.8276358E-01
        2   -1    0    0  501    0  0.00000000000E+00  0.00000000000E+00  0.22429433719E+04  0.22429433719E+04  0.25500000920E-02 0.  1.
       -2   -1    0    0    0  501  0.00000000000E+00  0.00000000000E+00 -0.92985564191E+03  0.92985564191E+03  0.25500000920E-02 0. -1.
    10030    2    1    2    0    0  0.00000000000E+00  0.00000000000E+00  0.13130877300E+04  0.31727990138E+04  0.28883306936E+04 0.  0.
        5    1    3    3  502    0 -0.70381942131E+03 -0.81917434232E+03  0.17097094446E+04  0.20222603333E+04  0.46999998093E+01 0.  1.
       -5    1    3    3    0  502  0.70381942131E+03  0.81917434232E+03 -0.39662171453E+03  0.11505386805E+04  0.46999998093E+01 0. -1.
</event>
<event>
 5   0  0.4162450E-06  0.2927500E+04  0.7818609E-02  0.8264742E-01
       -2   -1    0    0    0  501  0.00000000000E+00  0.00000000000E+00  0.12554591644E+04  0.12554591644E+04  0.25500000920E-02 0. -1.
        2   -1    0    0  501    0  0.00000000000E+00  0.00000000000E+00 -0.17065979188E+04  0.17065979188E+04  0.25500000920E-02 0.  1.
    10030    2    1    2    0    0  0.00000000000E+00  0.00000000000E+00 -0.45113875443E+03  0.29620570832E+04  0.29274999553E+04 0.  0.
        2    1    3    3  502    0  0.14194101060E+04 -0.17619289637E+01 -0.58733129543E+03  0.15361270142E+04  0.25500000920E-02 0.  1.
       -2    1    3    3    0  502 -0.14194101060E+04  0.17619289637E+01  0.13619254100E+03  0.14259300689E+04  0.25500000920E-02 0. -1.
</event>
<event>
 5   0  0.1543678E-06  0.2901896E+04  0.7818609E-02  0.8272314E-01
       -1   -1    0    0    0  501  0.00000000000E+00  0.00000000000E+00  0.16162243928E+04  0.16162243929E+04  0.50400001928E-02 0. -1.
        1   -1    0    0  501    0  0.00000000000E+00  0.00000000000E+00 -0.13025725092E+04  0.13025725092E+04  0.50400001928E-02 0.  1.
    10030    2    1    2    0    0  0.00000000000E+00  0.00000000000E+00  0.31365188364E+03  0.29187969021E+04  0.29018955618E+04 0.  0.
        3    1    3    3  502    0  0.12600530352E+04  0.57006196445E+03  0.59818129554E+03  0.15068261902E+04  0.10100000352E+00 0.  1.
       -3    1    3    3    0  502 -0.12600530352E+04 -0.57006196445E+03 -0.28452941190E+03  0.14119707119E+04  0.10100000352E+00 0. -1.
</event>
<event>
 5   0  0.4162450E-06  0.2902434E+04  0.7818609E-02  0.8272154E-01
        2   -1    0    0  501    0  0.00000000000E+00  0.00000000000E+00  0.22038525405E+04  0.22038525405E+04  0.25500000920E-02 0.  1.
       -2   -1    0    0    0  501  0.00000000000E+00  0.00000000000E+00 -0.95561345865E+03  0.95561345865E+03  0.25500000920E-02 0. -1.
    10030    2    1    2    0    0  0.00000000000E+00  0.00000000000E+00  0.12482390819E+04  0.31594659992E+04  0.29024342533E+04 0.  0.
        2    1    3    3  502    0 -0.45001888207E+03  0.21505205266E+03 -0.85938349487E+03  0.99363190913E+03  0.25500000920E-02 0. -1.
       -2    1    3    3    0  502  0.45001888207E+03 -0.21505205266E+03  0.21076225768E+04  0.21658340901E+04  0.25500000920E-02 0.  1.
</event>
<event>
 5   0  0.1602873E-06  0.2874505E+04  0.7818609E-02  0.8280504E-01
       -1   -1    0    0    0  501  0.00000000000E+00  0.00000000000E+00  0.12721457331E+04  0.12721457331E+04  0.50400001928E-02 0.  1.
        1   -1    0    0  501    0  0.00000000000E+00  0.00000000000E+00 -0.16237877194E+04  0.16237877194E+04  0.50400001928E-02 0. -1.
    10030    2    1    2    0    0  0.00000000000E+00  0.00000000000E+00 -0.35164198636E+03  0.28959334525E+04  0.28745049095E+04 0.  0.
        1    1    3    3  502    0 -0.94698632489E+03 -0.42093418048E+02 -0.12642169932E+04  0.15801264384E+04  0.50400001928E-02 0. -1.
       -1    1    3    3    0  502  0.94698632489E+03  0.42093418048E+02  0.91257500681E+03  0.13158070141E+04  0.50400001928E-02 0.  1.
</event>
<event>
 5   0  0.1360125E-06  0.2893668E+04  0.7818609E-02  0.8274764E-01
       -3   -1    0    0    0  501  0.00000000000E+00  0.00000000000E+00  0.16543471958E+04  0.16543471989E+04  0.10100000352E+00 0. -1.
        3   -1    0    0  501    0  0.00000000000E+00  0.00000000000E+00 -0.12653499010E+04  0.12653499050E+04  0.10100000352E+00 0.  1.
    10030    2    1    2    0    0  0.00000000000E+00  0.00000000000E+00  0.38899729486E+03  0.29196971039E+04  0.28936676180E+04 0.  0.
        2    1    3    3  502    0 -0.13595792612E+04 -0.19074997628E+03  0.65520943806E+03  0.15212300052E+04  0.25500000920E-02 0. -1.
       -2    1    3    3    0  502  0.13595792612E+04  0.19074997628E+03 -0.26621214320E+03  0.13984670987E+04  0.25500000920E-02 0.  1.
</event>
<event>
 5   0  0.4224163E-06  0.2874734E+04  0.7818609E-02  0.8280435E-01
       -2   -1    0    0    0  501  0.00000000000E+00  0.00000000000E+00  0.89950873430E+03  0.89950873430E+03  0.25500000920E-02 0.  1.
        2   -1    0    0  501    0  0.00000000000E+00  0.00000000000E+00 -0.22968357345E+04  0.22968357345E+04  0.25500000920E-02 0. -1.
    10030    2    1    2    0    0  0.00000000000E+00  0.00000000000E+00 -0.13973270002E+04  0.31963444688E+04  0.28747339386E+04 0.  0.
        4    1    3    3  502    0 -0.81819338881E+03 -0.47786794621E+03 -0.19004269242E+04  0.21235400403E+04  0.12699999809E+01 0. -1.
       -4    1    3    3    0  502  0.81819338881E+03  0.47786794621E+03  0.50309992398E+03  0.10728044286E+04  0.12699999809E+01 0.  1.
</event>
<event>
 5   0  0.1543678E-06  0.2878222E+04  0.7818609E-02  0.8279387E-01
        1   -1    0    0  501    0  0.00000000000E+00  0.00000000000E+00  0.15789492176E+04  0.15789492176E+04  0.50400001928E-02 0. -1.
       -1   -1    0    0    0  501  0.00000000000E+00  0.00000000000E+00 -0.13116578502E+04  0.13116578502E+04  0.50400001928E-02 0.  1.
    10030    2    1    2    0    0  0.00000000000E+00  0.00000000000E+00  0.26729136744E+03  0.28906070678E+04  0.28782224628E+04 0.  0.
        3    1    3    3  502    0  0.10835696384E+04 -0.30810014542E+03  0.10330392817E+04  0.15284695053E+04  0.10100000352E+00 0. -1.
       -3    1    3    3    0  502 -0.10835696384E+04  0.30810014542E+03 -0.76574791426E+03  0.13621375625E+04  0.10100000352E+00 0.  1.
</event>
<event>
 5   0  0.1602873E-06  0.2917125E+04  0.7818609E-02  0.8267800E-01
        1   -1    0    0  501    0  0.00000000000E+00  0.00000000000E+00  0.19919446653E+04  0.19919446653E+04  0.50400001928E-02 0.  1.
       -1   -1    0    0    0  501  0.00000000000E+00  0.00000000000E+00 -0.10680038437E+04  0.10680038437E+04  0.50400001928E-02 0. -1.
    10030    2    1    2    0    0  0.00000000000E+00  0.00000000000E+00  0.92394082160E+03  0.30599485090E+04  0.29171249949E+04 0.  0.
        1    1    3    3  502    0 -0.62051369370E+03 -0.15238293719E+03  0.18373277712E+04  0.19452586313E+04  0.50400001928E-02 0.  1.
       -1    1    3    3    0  502  0.62051369370E+03  0.15238293719E+03 -0.91338694965E+03  0.11146898777E+04  0.50400001928E-02 0. -1.
</event>
<event>
 5   0  0.1550278E-06  0.2934644E+04  0.7818609E-02  0.8262644E-01
        1   -1    0    0  501    0  0.00000000000E+00  0.00000000000E+00  0.11403776287E+04  0.11403776287E+04  0.50400001928E-02 0.  1.
       -1   -1    0    0    0  501  0.00000000000E+00  0.00000000000E+00 -0.18880004493E+04  0.18880004493E+04  0.50400001928E-02 0. -1.
    10030    2    1    2    0    0  0.00000000000E+00  0.00000000000E+00 -0.74762282060E+03  0.30283780780E+04  0.29346437436E+04 0.  0.
        2    1    3    3  502    0  0.46944858427E+03 -0.83463141292E+03 -0.15210963814E+04  0.17974219789E+04  0.25500000920E-02 0. -1.
       -2    1    3    3    0  502 -0.46944858427E+03  0.83463141292E+03  0.77347356080E+03  0.12309560991E+04  0.25500000920E-02 0.  1.
</event>
<event>
 5   0  0.1580212E-06  0.2893089E+04  0.7818609E-02  0.8274937E-01
       -1   -1    0    0    0  501  0.00000000000E+00  0.00000000000E+00  0.86100911430E+03  0.86100911431E+03  0.50400001928E-02 0. -1.
        1   -1    0    0  501    0  0.00000000000E+00  0.00000000000E+00 -0.24302779401E+04  0.24302779401E+04  0.50400001928E-02 0.  1.
    10030    2    1    2    0    0  0.00000000000E+00  0.00000000000E+00 -0.15692688258E+04  0.32912870545E+04  0.28930893223E+04 0.  0.
        4    1    3    3  502    0 -0.89779684392E+03 -0.11153351346E+04 -0.55016455773E+03  0.15338495001E+04  0.12699999809E+01 0.  1.
       -4    1    3    3    0  502  0.89779684392E+03  0.11153351346E+04 -0.10191042681E+04  0.17574375544E+04  0.12699999809E+01 0. -1.
</event>
<event>
 5   0  0.1360125E-06  0.2904035E+04  0.7818609E-02  0.8271678E-01
        3   -1    0    0  501    0  0.00000000000E+00  0.00000000000E+00  0.16787391393E+04  0.16787391423E+04  0.10100000352E+00 0. -1.
       -3   -1    0    0    0  501  0.00000000000E+00  0.00000000000E+00 -0.12559160325E+04  0.12559160366E+04  0.10100000352E+00 0.  1.
    10030    2    1    2    0    0  0.00000000000E+00  0.00000000000E+00  0.42282310675E+03  0.29346551789E+04  0.29040354060E+04 0.  0.
        3    1    3    3  502    0 -0.29071060424E+03 -0.99984294922E+02 -0.12226516358E+04  0.12607087481E+04  0.10100000352E+00 0.  1.
       -3    1    3    3    0  502  0.29071060424E+03  0.99984294922E+02  0.16454747426E+04  0.16739464308E+04  0.10100000352E+00 0. -1.
</event>
<event>
 5   0  0.4115143E-06  0.2886538E+04  0.7818609E-02  0.8276894E-01
       -2   -1    0    0    0  501  0.00000000000E+00  0.00000000000E+00  0.10107607647E+04  0.10107607647E+04  0.25500000920E-02 0. -1.
        2   -1    0    0  501    0  0.00000000000E+00  0.00000000000E+00 -0.20608498054E+04  0.20608498054E+04  0.25500000920E-02 0.  1.
    10030    2    1    2    0    0  0.00000000000E+00  0.00000000000E+00 -0.10500890407E+04  0.30716105701E+04  0.28865384981E+04 0.  0.
        1    1    3    3  502    0  0.54546961763E+03  0.13309916898E+04 -0.39936105928E+03  0.14928379811E+04  0.50400001928E-02 0.  1.
       -1    1    3    3    0  502 -0.54546961763E+03 -0.13309916898E+04 -0.65072798140E+03  0.15787725890E+04  0.50400001928E-02 0. -1.
</event>
<event>
 5   0  0.1550278E-06  0.2900644E+04  0.7818609E-02  0.8272686E-01
       -1   -1    0    0    0  501  0.00000000000E+00  0.00000000000E+00  0.99528483946E+03  0.99528483947E+03  0.50400001928E-02 0.  1.
        1   -1    0    0  501    0  0.00000000000E+00  0.00000000000E+00 -0.21133990125E+04  0.21133990125E+04  0.50400001928E-02 0. -1.
    10030    2    1    2    0    0  0.00000000000E+00  0.00000000000E+00 -0.11181141731E+04  0.31086838520E+04  0.29006440643E+04 0.  0.
        2    1    3    3  502    0  0.10445823339E+04  0.35550122275E+02  0.51855274919E+03  0.11667531946E+04  0.25500000920E-02 0.  1.
       -2    1    3    3    0  502 -0.10445823339E+04 -0.35550122275E+02 -0.16366669223E+04  0.19419306573E+04  0.25500000920E-02 0. -1.
</event>
<event>
 5   0  0.4187518E-06  0.2877155E+04  0.7818609E-02  0.8279707E-01
       -2   -1    0    0    0  501  0.00000000000E+00  0.00000000000E+00  0.14114553361E+04  0.14114553361E+04  0.25500000920E-02 0.  1.
        2   -1    0    0  501    0  0.00000000000E+00  0.00000000000E+00 -0.14662204061E+04  0.14662204061E+04  0.25500000920E-02 0. -1.
    10030    2    1    2    0    0  0.00000000000E+00  0.00000000000E+00 -0.54765069927E+02  0.28776757422E+04  0.28771545778E+04 0.  0.
        3    1    3    3  502    0  0.10491051717E+04  0.26332633240E+02  0.95676192714E+03  0.14201086100E+04  0.10100000352E+00 0.  1.
       -3    1    3    3    0  502 -0.10491051717E+04 -0.26332633240E+02 -0.10115269971E+04  0.14575671322E+04  0.10100000352E+00 0. -1.
</event>
<event>
 5   0  0.1580212E-06  0.2905351E+04  0.7818609E-02  0.8271287E-01
       -1   -1    0    0    0  501  0.00000000000E+00  0.00000000000E+00  0.17892912295E+04  0.17892912295E+04  0.50400001928E-02 0.  1.
        1   -1    0    0  501    0  0.00000000000E+00  0.00000000000E+00 -0.11793868955E+04  0.11793868955E+04  0.50400001928E-02 0. -1.
    10030    2    1    2    0    0  0.00000000000E+00  0.00000000000E+00  0.60990433401E+03  0.29686781250E+04  0.29053513579E+04 0.  0.
        4    1    3    3  502    0  0.45311781520E+03 -0.12950437802E+04 -0.18274661468E+03  0.13841430870E+04  0.12699999809E+01 0.  1.
       -4    1    3    3    0  502 -0.45311781520E+03  0.12950437802E+04  0.79265094869E+03  0.15845350380E+04  0.12699999809E+01 0. -1.
</event>
<event>
 5   0  0.4115143E-06  0.2555634E+04  0.7818609E-02  0.8383429E-01
        2   -1    0    0  501    0  0.00000000000E+00  0.00000000000E+00  0.13852971254E+04  0.13852971254E+04  0.25500000920E-02 0. -1.
       -2   -1    0    0    0  501  0.00000000000E+00  0.00000000000E+00 -0.11786757047E+04  0.11786757047E+04  0.25500000920E-02 0.  1.
    10030    2    1    2    0    0  0.00000000000E+00  0.00000000000E+00  0.20662142066E+03  0.25639728301E+04  0.25556338278E+04 0.  0.
        1    1    3    3  502    0  0.45328041825E+03  0.54709620316E+03  0.11688679522E+04  0.13678558706E+04  0.50400001928E-02 0. -1.
       -1    1    3    3    0  502 -0.45328041825E+03 -0.54709620316E+03 -0.96224653157E+03  0.11961169594E+04  0.50400001928E-02 0.  1.
</event>
<event>
 5   0  0.1543678E-06  0.2896855E+04  0.7818609E-02  0.8273814E-01
       -1   -1    0    0    0  501  0.00000000000E+00  0.00000000000E+00  0.86484867729E+03  0.86484867730E+03  0.50400001928E-02 0. -1.
        1   -1    0    0  501    0  0.00000000000E+00  0.00000000000E+00 -0.24257913324E+04  0.24257913324E+04  0.50400001928E-02 0.  1.
    10030    2    1    2    0    0  0.00000000000E+00  0.00000000000E+00 -0.15609426551E+04  0.32906400097E+04  0.28968551398E+04 0.  0.
        3    1    3    3  502    0  0.89202264601E+03 -0.50294616749E+03  0.38311858679E+03  0.10933613813E+04  0.10100000352E+00 0. -1.
       -3    1    3    3    0  502 -0.89202264601E+03  0.50294616749E+03 -0.19440612419E+04  0.21972786284E+04  0.10100000352E+00 0.  1.
</event>
<event>
 5   0  0.4224163E-06  0.2909766E+04  0.7818609E-02  0.8269978E-01
        2   -1    0    0  501    0  0.00000000000E+00  0.00000000000E+00  0.16374506303E+04  0.16374506303E+04  0.25500000920E-02 0. -1.
       -2   -1    0    0    0  501  0.00000000000E+00  0.00000000000E+00 -0.12926707360E+04  0.12926707361E+04  0.25500000920E-02 0.  1.
    10030    2    1    2    0    0  0.00000000000E+00  0.00000000000E+00  0.34477989421E+03  0.29301213663E+04  0.29097659779E+04 0.  0.
        4    1    3    3  502    0  0.53901531477E+03  0.18752189354E+03  0.15200272638E+04  0.16236337228E+04  0.12699999809E+01 0. -1.
       -4    1    3    3    0  502 -0.53901531477E+03 -0.18752189354E+03 -0.11752473696E+04  0.13064876435E+04  0.12699999809E+01 0.  1.
</event>
<event>
 5   0  0.4224163E-06  0.2829020E+04  0.7818609E-02  0.8294315E-01
        2   -1    0    0  501    0  0.00000000000E+00  0.00000000000E+00  0.21602742320E+04  0.21602742320E+04  0.25500000920E-02 0.  1.
       -2   -1    0    0    0  501  0.00000000000E+00  0.00000000000E+00 -0.92619651080E+03  0.92619651080E+03  0.25500000920E-02 0. -1.
    10030    2    1    2    0    0  0.00000000000E+00  0.00000000000E+00  0.12340777212E+04  0.30864707428E+04  0.28290199406E+04 0.  0.
        4    1    3    3  502    0  0.15409239197E+02 -0.92011064858E+03 -0.55496291244E+03  0.10746285392E+04  0.12699999809E+01 0. -1.
       -4    1    3    3    0  502 -0.15409239197E+02  0.92011064858E+03  0.17890406336E+04  0.20118422036E+04  0.12699999809E+01 0.  1.
</event>
<event>
 5   0  0.4148677E-06  0.2923629E+04  0.7818609E-02  0.8265882E-01
       -2   -1    0    0    0  501  0.00000000000E+00  0.00000000000E+00  0.15745955163E+04  0.15745955163E+04  0.25500000920E-02 0.  1.
        2   -1    0    0  501    0  0.00000000000E+00  0.00000000000E+00 -0.13571113465E+04  0.13571113465E+04  0.25500000920E-02 0. -1.
    10030    2    1    2    0    0  0.00000000000E+00  0.00000000000E+00  0.21748416978E+03  0.29317068628E+04  0.29236288693E+04 0.  0.
        5    1    3    3  502    0 -0.10560724908E+04  0.81722221710E+03  0.70514425811E+03  0.15100966104E+04  0.46999998093E+01 0.  1.
       -5    1    3    3    0  502  0.10560724908E+04 -0.81722221710E+03 -0.48766008833E+03  0.14216102524E+04  0.46999998093E+01 0. -1.
</event>
<event>
 5   0  0.4162450E-06  0.2888194E+04  0.7818609E-02  0.8276399E-01
        2   -1    0    0  501    0  0.00000000000E+00  0.00000000000E+00  0.13719179450E+04  0.13719179450E+04  0.25500000920E-02 0. -1.
       -2   -1    0    0    0  501  0.00000000000E+00  0.00000000000E+00 -0.15200739794E+04  0.15200739794E+04  0.25500000920E-02 0.  1.
    10030    2    1    2    0    0  0.00000000000E+00  0.00000000000E+00 -0.14815603439E+03  0.28919919245E+04  0.28881944326E+04 0.  0.
        2    1    3    3  502    0 -0.79267895445E+03 -0.11262320781E+04  0.36086409177E+03  0.14237139851E+04  0.25500000920E-02 0. -1.
       -2    1    3    3    0  502  0.79267895445E+03  0.11262320781E+04 -0.50902012616E+03  0.14682779394E+04  0.25500000920E-02 0.  1.
</event>
<event>
 5   0  0.4187518E-06  0.2909981E+04  0.7818609E-02  0.8269914E-01
        2   -1    0    0  501    0  0.00000000000E+00  0.00000000000E+00  0.25309671253E+04  0.25309671253E+04  0.25500000920E-02 0. -1.
       -2   -1    0    0    0  501  0.00000000000E+00  0.00000000000E+00 -0.83643817698E+03  0.83643817698E+03  0.25500000920E-02 0.  1.
    10030    2    1    2    0    0  0.00000000000E+00  0.00000000000E+00  0.16945289483E+04  0.33674053023E+04  0.29099811190E+04 0.  0.
        3    1    3    3  502    0  0.10796204543E+04 -0.77474348669E+02 -0.27790112532E+03  0.11175024142E+04  0.10100000352E+00 0.  1.
       -3    1    3    3    0  502 -0.10796204543E+04  0.77474348669E+02  0.19724300737E+04  0.22499028881E+04  0.10100000352E+00 0. -1.
</event>
<event>
 5   0  0.4187518E-06  0.2940398E+04  0.7818609E-02  0.8260958E-01
        2   -1    0    0  501    0  0.00000000000E+00  0.00000000000E+00  0.15940737849E+04  0.15940737849E+04  0.25500000920E-02 0. -1.
       -2   -1    0    0    0  501  0.00000000000E+00  0.00000000000E+00 -0.13559504263E+04  0.13559504263E+04  0.25500000920E-02 0.  1.
    10030    2    1    2    0    0  0.00000000000E+00  0.00000000000E+00  0.23812335864E+03  0.29500242112E+04  0.29403979514E+04 0.  0.
        3    1    3    3  502    0  0.10795845113E+04  0.52876065621E+03 -0.73011015524E+03  0.14064677023E+04  0.10100000352E+00 0.  1.
       -3    1    3    3    0  502 -0.10795845113E+04 -0.52876065621E+03  0.96823351388E+03  0.15435565089E+04  0.10100000352E+00 0. -1.
</event>
<event>
 5   0  0.4162450E-06  0.2887482E+04  0.7818609E-02  0.8276612E-01
        2   -1    0    0  501    0  0.00000000000E+00  0.00000000000E+00  0.10968551460E+04  0.10968551460E+04  0.25500000920E-02 0.  1.
       -2   -1    0    0    0  501  0.00000000000E+00  0.00000000000E+00 -0.19003307131E+04  0.19003307131E+04  0.25500000920E-02 0. -1.
    10030    2    1    2    0    0  0.00000000000E+00  0.00000000000E+00 -0.80347556710E+03  0.29971858592E+04  0.28874816168E+04 0.  0.
        2    1    3    3  502    0  0.97121479205E+03 -0.71200804746E+03 -0.12283439212E+04  0.17201867400E+04  0.25500000920E-02 0. -1.
       -2    1    3    3    0  502 -0.97121479205E+03  0.71200804746E+03  0.42486835406E+03  0.12769991191E+04  0.25500000920E-02 0.  1.
</event>
<event>
 5   0  0.1550278E-06  0.2543294E+04  0.7818609E-02  0.8387722E-01
       -1   -1    0    0    0  501  0.00000000000E+00  0.00000000000E+00  0.86279114750E+03  0.86279114752E+03  0.50400001928E-02 0.  1.
        1   -1    0    0  501    0  0.00000000000E+00  0.00000000000E+00 -0.18742490388E+04  0.18742490388E+04  0.50400001928E-02 0. -1.
    10030    2    1    2    0    0  0.00000000000E+00  0.00000000000E+00 -0.10114578913E+04  0.27370401863E+04  0.25432935174E+04 0.  0.
        2    1    3    3  502    0 -0.56375643100E+03 -0.11281651275E+04 -0.33051447167E+03  0.13037705644E+04  0.25500000920E-02 0. -1.
       -2    1    3    3    0  502  0.56375643100E+03  0.11281651275E+04 -0.68094341960E+03  0.14332696219E+04  0.25500000920E-02 0.  1.
</event>
<event>
 5   0  0.4187518E-06  0.2922751E+04  0.7818609E-02  0.8266141E-01
       -2   -1    0    0    0  501  0.00000000000E+00  0.00000000000E+00  0.19767571424E+04  0.19767571424E+04  0.25500000920E-02 0.  1.
        2   -1    0    0  501    0  0.00000000000E+00  0.00000000000E+00 -0.10803642374E+04  0.10803642374E+04  0.25500000920E-02 0. -1.
    10030    2    1    2    0    0  0.00000000000E+00  0.00000000000E+00  0.89639290495E+03  0.30571213798E+04  0.29227505694E+04 0.  0.
        3    1    3    3  502    0 -0.98287635957E+03 -0.35504326191E+03  0.15166865373E+04  0.18418576815E+04  0.10100000352E+00 0.  1.
       -3    1    3    3    0  502  0.98287635957E+03  0.35504326191E+03 -0.62029363238E+03  0.12152636984E+04  0.10100000352E+00 0. -1.
</event>
<event>
 5   0  0.1602873E-06  0.2853641E+04  0.7818609E-02  0.8286806E-01
        1   -1    0    0  501    0  0.00000000000E+00  0.00000000000E+00  0.85747702887E+03  0.85747702889E+03  0.50400001928E-02 0.  1.
       -1   -1    0    0    0  501  0.00000000000E+00  0.00000000000E+00 -0.23741939431E+04  0.23741939431E+04  0.50400001928E-02 0. -1.
    10030    2    1    2    0    0  0.00000000000E+00  0.00000000000E+00 -0.15167169142E+04  0.32316709719E+04  0.28536410204E+04 0.  0.
        1    1    3    3  502    0  0.12921433202E+02  0.50858973656E+03  0.75126917293E+03  0.90732345599E+03  0.50400001928E-02 0.  1.
       -1    1    3    3    0  502 -0.12921433202E+02 -0.50858973656E+03 -0.22679860871E+04  0.23243475160E+04  0.50400001928E-02 0. -1.
</event>
<event>
 5   0  0.4115143E-06  0.3014990E+04  0.7818609E-02  0.8239463E-01
        2   -1    0    0  501    0  0.00000000000E+00  0.00000000000E+00  0.25765724339E+04  0.25765724339E+04  0.25500000920E-02 0.  1.
       -2   -1    0    0    0  501  0.00000000000E+00  0.00000000000E+00 -0.88200181911E+03  0.88200181911E+03  0.25500000920E-02 0. -1.
    10030    2    1    2    0    0  0.00000000000E+00  0.00000000000E+00  0.16945706148E+04  0.34585742530E+04  0.30149902645E+04 0.  0.
        1    1    3    3  502    0  0.12048207923E+03  0.12947620451E+04  0.17221274478E+04  0.21579266974E+04  0.50400001928E-02 0.  1.
       -1    1    3    3    0  502 -0.12048207923E+03 -0.12947620451E+04 -0.27556833025E+02  0.13006475556E+04  0.50400001928E-02 0. -1.
</event>
<event>
 5   0  0.4162450E-06  0.2903165E+04  0.7818609E-02  0.8271936E-01
        2   -1    0    0  501    0  0.00000000000E+00  0.00000000000E+00  0.21258214120E+04  0.21258214120E+04  0.25500000920E-02 0. -1.
       -2   -1    0    0    0  501  0.00000000000E+00  0.00000000000E+00 -0.99118933324E+03  0.99118933324E+03  0.25500000920E-02 0.  1.
    10030    2    1    2    0    0  0.00000000000E+00  0.00000000000E+00  0.11346320788E+04  0.31170107453E+04  0.29031648303E+04 0.  0.
        2    1    3    3  502    0 -0.37112723164E+03 -0.12009788057E+04  0.13467411312E+04  0.18422261501E+04  0.25500000920E-02 0.  1.
       -2    1    3    3    0  502  0.37112723164E+03  0.12009788057E+04 -0.21210905239E+03  0.12747845951E+04  0.25500000920E-02 0. -1.
</event>
<event>
 5   0  0.1550278E-06  0.2900184E+04  0.7818609E-02  0.8272823E-01
       -1   -1    0    0    0  501  0.00000000000E+00  0.00000000000E+00  0.13621130016E+04  0.13621130016E+04  0.50400001928E-02 0.  1.
        1   -1    0    0  501    0  0.00000000000E+00  0.00000000000E+00 -0.15437533000E+04  0.15437533000E+04  0.50400001928E-02 0. -1.
    10030    2    1    2    0    0  0.00000000000E+00  0.00000000000E+00 -0.18164029844E+03  0.29058663016E+04  0.29001837467E+04 0.  0.
        2    1    3    3  502    0  0.36572373764E+03 -0.34706554331E+03 -0.14531010457E+04  0.15380867962E+04  0.25500000920E-02 0. -1.
       -2    1    3    3    0  502 -0.36572373764E+03  0.34706554331E+03  0.12714607472E+04  0.13677795054E+04  0.25500000920E-02 0.  1.
</event>
<event>
 5   0  0.4148677E-06  0.2963994E+04  0.7818609E-02  0.8254088E-01
       -2   -1    0    0    0  501  0.00000000000E+00  0.00000000000E+00  0.10565071508E+04  0.10565071508E+04  0.25500000920E-02 0. -1.
        2   -1    0    0  501    0  0.00000000000E+00  0.00000000000E+00 -0.20788461489E+04  0.20788461489E+04  0.25500000920E-02 0.  1.
    10030    2    1    2    0    0  0.00000000000E+00  0.00000000000E+00 -0.10223389981E+04  0.31353532997E+04  0.29639944816E+04 0.  0.
        5    1    3    3  502    0 -0.12463680116E+04  0.49803439125E+02 -0.13576715570E+04  0.18436940498E+04  0.46999998093E+01 0.  1.
       -5    1    3    3    0  502  0.12463680116E+04 -0.49803439125E+02  0.33533255885E+03  0.12916592499E+04  0.46999998093E+01 0. -1.
</event>
<event>
 5   0  0.1543678E-06  0.2894952E+04  0.7818609E-02  0.8274381E-01
       -1   -1    0    0    0  501  0.00000000000E+00  0.00000000000E+00  0.11387832813E+04  0.11387832813E+04  0.50400001928E-02 0. -1.
        1   -1    0    0  501    0  0.00000000000E+00  0.00000000000E+00 -0.18398472850E+04  0.18398472850E+04  0.50400001928E-02 0.  1.
    10030    2    1    2    0    0  0.00000000000E+00  0.00000000000E+00 -0.70106400367E+03  0.29786305663E+04  0.28949523853E+04 0.  0.
        3    1    3    3  502    0 -0.66643317926E+03  0.12699831551E+04 -0.55162150338E+03  0.15366446205E+04  0.10100000352E+00 0.  1.
       -3    1    3    3    0  502  0.66643317926E+03 -0.12699831551E+04 -0.14944250029E+03  0.14419859457E+04  0.10100000352E+00 0. -1.
</event>
<event>
 5   0  0.1511126E-06  0.2904057E+04  0.7818609E-02  0.8271671E-01
       -1   -1    0    0    0  501  0.00000000000E+00  0.00000000000E+00  0.91162292943E+03  0.91162292945E+03  0.50400001928E-02 0.  1.
        1   -1    0    0  501    0  0.00000000000E+00  0.00000000000E+00 -0.23127844918E+04  0.23127844918E+04  0.50400001928E-02 0. -1.
    10030    2    1    2    0    0  0.00000000000E+00  0.00000000000E+00 -0.14011615624E+04  0.32244074213E+04  0.29040574193E+04 0.  0.
        5    1    3    3  502    0  0.25949337501E+03  0.99458099742E+03 -0.18393060499E+04  0.21070351225E+04  0.46999998093E+01 0. -1.
       -5    1    3    3    0  502 -0.25949337501E+03 -0.99458099742E+03  0.43814448755E+03  0.11173722988E+04  0.46999998093E+01 0.  1.
</event>
<event>
 5   0  0.1580212E-06  0.2876582E+04  0.7818609E-02  0.8279879E-01
       -1   -1    0    0    0  501  0.00000000000E+00  0.00000000000E+00  0.30995236194E+04  0.30995236194E+04  0.50400001928E-02 0.  1.
        1   -1    0    0  501    0  0.00000000000E+00  0.00000000000E+00 -0.66741913006E+03  0.66741913007E+03  0.50400001928E-02 0. -1.
    10030    2    1    2    0    0  0.00000000000E+00  0.00000000000E+00  0.24321044893E+04  0.37669427495E+04  0.28765822482E+04 0.  0.
        4    1    3    3  502    0  0.67947233386E+03 -0.12537384406E+04  0.14615201150E+04  0.20419562653E+04  0.12699999809E+01 0. -1.
       -4    1    3    3    0  502 -0.67947233386E+03  0.12537384406E+04  0.97058437432E+03  0.17249864842E+04  0.12699999809E+01 0.  1.
</event>
<event>
 5   0  0.4224163E-06  0.2863161E+04  0.7818609E-02  0.8283923E-01
       -2   -1    0    0    0  501  0.00000000000E+00  0.00000000000E+00  0.11709561999E+04  0.11709561999E+04  0.25500000920E-02 0.  1.
        2   -1    0    0  501    0  0.00000000000E+00  0.00000000000E+00 -0.17502128458E+04  0.17502128458E+04  0.25500000920E-02 0. -1.
    10030    2    1    2    0    0  0.00000000000E+00  0.00000000000E+00 -0.57925664587E+03  0.29211690457E+04  0.28631608987E+04 0.  0.
        4    1    3    3  502    0  0.13593797864E+04  0.44065894441E+03 -0.20229464129E+03  0.14432665879E+04  0.12699999809E+01 0. -1.
       -4    1    3    3    0  502 -0.13593797864E+04 -0.44065894441E+03 -0.37696200457E+03  0.14779024578E+04  0.12699999809E+01 0.  1.
</event>
<event>
 5   0  0.4162450E-06  0.2936971E+04  0.7818609E-02  0.8261962E-01
       -2   -1    0    0    0  501  0.00000000000E+00  0.00000000000E+00  0.24086707806E+04  0.24086707806E+04  0.25500000920E-02 0.  1.
        2   -1    0    0  501    0  0.00000000000E+00  0.00000000000E+00 -0.89528608413E+03  0.89528608414E+03  0.25500000920E-02 0. -1.
    10030    2    1    2    0    0  0.00000000000E+00  0.00000000000E+00  0.15133846964E+04  0.33039568647E+04  0.29369708416E+04 0.  0.
        2    1    3    3  502    0  0.58172338140E+03 -0.95151941348E+03  0.18313961883E+04  0.21442488861E+04  0.25500000920E-02 0.  1.
       -2    1    3    3    0  502 -0.58172338140E+03  0.95151941348E+03 -0.31801149192E+03  0.11597079786E+04  0.25500000920E-02 0. -1.
</event>
<event>
 5   0  0.4224163E-06  0.2898524E+04  0.7818609E-02  0.8273317E-01
        2   -1    0    0  501    0  0.00000000000E+00  0.00000000000E+00  0.28163004036E+04  0.28163004036E+04  0.25500000920E-02 0.  1.
       -2   -1    0    0    0  501  0.00000000000E+00  0.00000000000E+00 -0.74578717022E+03  0.74578717022E+03  0.25500000920E-02 0. -1.
    10030    2    1    2    0    0  0.00000000000E+00  0.00000000000E+00  0.20705132333E+04  0.35620875738E+04  0.28985242510E+04 0.  0.
        4    1    3    3  502    0 -0.68773778558E+03  0.32423712456E+03  0.25515040966E+04  0.26623838458E+04  0.12699999809E+01 0.  1.
       -4    1    3    3    0  502  0.68773778558E+03 -0.32423712456E+03 -0.48099086326E+03  0.89970372796E+03  0.12699999809E+01 0. -1.
</event>
<event>
 5   0  0.4115143E-06  0.2622936E+04  0.7818609E-02  0.8360452E-01
       -2   -1    0    0    0  501  0.00000000000E+00  0.00000000000E+00  0.12404712745E+04  0.12404712745E+04  0.25500000920E-02 0. -1.
        2   -1    0    0  501    0  0.00000000000E+00  0.00000000000E+00 -0.13865284402E+04  0.13865284402E+04  0.25500000920E-02 0.  1.
    10030    2    1    2    0    0  0.00000000000E+00  0.00000000000E+00 -0.14605716570E+03  0.26269997147E+04  0.26229362946E+04 0.  0.
        1    1    3    3  502    0  0.46132117018E+03  0.64497560307E+03 -0.11192223144E+04  0.13716666285E+04  0.50400001928E-02 0.  1.
       -1    1    3    3    0  502 -0.46132117018E+03 -0.64497560307E+03  0.97316514872E+03  0.12553330862E+04  0.50400001928E-02 0. -1.
</event>
<event>
 5   0  0.4187518E-06  0.2814398E+04  0.7818609E-02  0.8298812E-01
        2   -1    0    0  501    0  0.00000000000E+00  0.00000000000E+00  0.19974464488E+04  0.19974464488E+04  0.25500000920E-02 0.  1.
       -2   -1    0    0    0  501  0.00000000000E+00  0.00000000000E+00 -0.99136992808E+03  0.99136992808E+03  0.25500000920E-02 0. -1.
    10030    2    1    2    0    0  0.00000000000E+00  0.00000000000E+00  0.10060765207E+04  0.29888163769E+04  0.28143975144E+04 0.  0.
        3    1    3    3  502    0  0.53578799874E+03  0.58385518104E+03  0.17379693411E+04  0.19101029011E+04  0.10100000352E+00 0.  1.
       -3    1    3    3    0  502 -0.53578799874E+03 -0.58385518104E+03 -0.73189282040E+03  0.10787134758E+04  0.10100000352E+00 0. -1.
</event>
<event>
 5   0  0.1602873E-06  0.2961313E+04  0.7818609E-02  0.8254865E-01
        1   -1    0    0  501    0  0.00000000000E+00  0.00000000000E+00  0.15525812328E+04  0.15525812328E+04  0.50400001928E-02 0.  1.
       -1   -1    0    0    0  501  0.00000000000E+00  0.00000000000E+00 -0.14120640032E+04  0.14120640032E+04  0.50400001928E-02 0. -1.
    10030    2    1    2    0    0  0.00000000000E+00  0.00000000000E+00  0.14051722963E+03  0.29646452360E+04  0.29613132701E+04 0.  0.
        1    1    3    3  502    0  0.81337550117E+03  0.12371709212E+04  0.57110799002E+02  0.14816994424E+04  0.50400001928E-02 0. -1.
       -1    1    3    3    0  502 -0.81337550117E+03 -0.12371709212E+04  0.83406430628E+02  0.14829457936E+04  0.50400001928E-02 0.  1.
</event>
<event>
 5   0  0.4162450E-06  0.2908053E+04  0.7818609E-02  0.8270486E-01
       -2   -1    0    0    0  501  0.00000000000E+00  0.00000000000E+00  0.14733699380E+04  0.14733699380E+04  0.25500000920E-02 0.  1.
        2   -1    0    0  501    0  0.00000000000E+00  0.00000000000E+00 -0.14349367773E+04  0.14349367773E+04  0.25500000920E-02 0. -1.
    10030    2    1    2    0    0  0.00000000000E+00  0.00000000000E+00  0.38433160702E+02  0.29083067153E+04  0.29080527578E+04 0.  0.
        2    1    3    3  502    0 -0.69100103961E+03  0.55471263014E+03 -0.11337085270E+04  0.14389174970E+04  0.25500000920E-02 0. -1.
       -2    1    3    3    0  502  0.69100103961E+03 -0.55471263014E+03  0.11721416877E+04  0.14693892183E+04  0.25500000920E-02 0.  1.
</event>
<event>
 5   0  0.1580212E-06  0.2912525E+04  0.7818609E-02  0.8269161E-01
       -1   -1    0    0    0  501  0.00000000000E+00  0.00000000000E+00  0.17006945174E+04  0.17006945174E+04  0.50400001928E-02 0.  1.
        1   -1    0    0  501    0  0.00000000000E+00  0.00000000000E+00 -0.12469615742E+04  0.12469615742E+04  0.50400001928E-02 0. -1.
    10030    2    1    2    0    0  0.00000000000E+00  0.00000000000E+00  0.45373294320E+03  0.29476560917E+04  0.29125251675E+04 0.  0.
        4    1    3    3  502    0  0.90455966099E+02  0.14528233739E+04  0.27005511117E+03  0.14804760767E+04  0.12699999809E+01 0. -1.
       -4    1    3    3    0  502 -0.90455966099E+02 -0.14528233739E+04  0.18367783203E+03  0.14671800150E+04  0.12699999809E+01 0.  1.
</event>
<event>
 5   0  0.4224163E-06  0.2901231E+04  0.7818609E-02  0.8272511E-01
        2   -1    0    0  501    0  0.00000000000E+00  0.00000000000E+00  0.20933741694E+04  0.20933741694E+04  0.25500000920E-02 0.  1.
       -2   -1    0    0    0  501  0.00000000000E+00  0.00000000000E+00 -0.10052119477E+04  0.10052119477E+04  0.25500000920E-02 0. -1.
    10030    2    1    2    0    0  0.00000000000E+00  0.00000000000E+00  0.10881622218E+04  0.30985861171E+04  0.29012305844E+04 0.  0.
        4    1    3    3  502    0 -0.11141792916E+04 -0.59408045977E+03  0.13067704712E+04  0.18171344925E+04  0.12699999809E+01 0.  1.
       -4    1    3    3    0  502  0.11141792916E+04  0.59408045977E+03 -0.21860824946E+03  0.12814516246E+04  0.12699999809E+01 0. -1.
</event>
<event>
 5   0  0.4224163E-06  0.2891218E+04  0.7818609E-02  0.8275495E-01
        2   -1    0    0  501    0  0.00000000000E+00  0.00000000000E+00  0.16989473759E+04  0.16989473759E+04  0.25500000920E-02 0.  1.
       -2   -1    0    0    0  501  0.00000000000E+00  0.00000000000E+00 -0.12300472024E+04  0.12300472024E+04  0.25500000920E-02 0. -1.
    10030    2    1    2    0    0  0.00000000000E+00  0.00000000000E+00  0.46890017352E+03  0.29289945784E+04  0.28912180595E+04 0.  0.
        4    1    3    3  502    0  0.39849533563E+03  0.20846900117E+03  0.16262736694E+04  0.16873131060E+04  0.12699999809E+01 0.  1.
       -4    1    3    3    0  502 -0.39849533563E+03 -0.20846900117E+03 -0.11573734959E+04  0.12416814724E+04  0.12699999809E+01 0. -1.
</event>
<event>
 5   0  0.1602873E-06  0.2903415E+04  0.7818609E-02  0.8271862E-01
        1   -1    0    0  501    0  0.00000000000E+00  0.00000000000E+00  0.16973583683E+04  0.16973583683E+04  0.50400001928E-02 0. -1.
       -1   -1    0    0    0  501  0.00000000000E+00  0.00000000000E+00 -0.12416087360E+04  0.12416087360E+04  0.50400001928E-02 0.  1.
    10030    2    1    2    0    0  0.00000000000E+00  0.00000000000E+00  0.45574963228E+03  0.29389671043E+04  0.29034152153E+04 0.  0.
        1    1    3    3  502    0  0.28058514039E+02  0.73366957500E+03  0.14955661750E+04  0.16660661780E+04  0.50400001928E-02 0. -1.
       -1    1    3    3    0  502 -0.28058514039E+02 -0.73366957500E+03 -0.10398165428E+04  0.12729009263E+04  0.50400001928E-02 0.  1.
</event>
<event>
 5   0  0.1511126E-06  0.2877493E+04  0.7818609E-02  0.8279606E-01
       -1   -1    0    0    0  501  0.00000000000E+00  0.00000000000E+00  0.17921678183E+04  0.17921678183E+04  0.50400001928E-02 0. -1.
        1   -1    0    0  501    0  0.00000000000E+00  0.00000000000E+00 -0.11550209439E+04  0.11550209440E+04  0.50400001928E-02 0.  1.
    10030    2    1    2    0    0  0.00000000000E+00  0.00000000000E+00  0.63714687435E+03  0.29471887623E+04  0.28774929124E+04 0.  0.
        5    1    3    3  502    0  0.67335733617E+03  0.89377887863E+03  0.12447538640E+04  0.16738234847E+04  0.46999998093E+01 0. -1.
       -5    1    3    3    0  502 -0.67335733617E+03 -0.89377887863E+03 -0.60760698968E+03  0.12733652775E+04  0.46999998093E+01 0.  1.
</event>
<event>
 5   0  0.4187518E-06  0.2899521E+04  0.7818609E-02  0.8273020E-01
       -2   -1    0    0    0  501  0.00000000000E+00  0.00000000000E+00  0.17372916838E+04  0.17372916838E+04  0.25500000920E-02 0. -1.
        2   -1    0    0  501    0  0.00000000000E+00  0.00000000000E+00 -0.12098170980E+04  0.12098170980E+04  0.25500000920E-02 0.  1.
    10030    2    1    2    0    0  0.00000000000E+00  0.00000000000E+00  0.52747458575E+03  0.29471087818E+04  0.28995207765E+04 0.  0.
        3    1    3    3  502    0  0.20224555502E+02 -0.43712299814E+03 -0.11410900779E+04  0.12221178847E+04  0.10100000352E+00 0.  1.
       -3    1    3    3    0  502 -0.20224555502E+02  0.43712299814E+03  0.16685646636E+04  0.17249908971E+04  0.10100000352E+00 0. -1.
</event>
<event>
 5   0  0.1511126E-06  0.3174408E+04  0.7818609E-02  0.8195609E-01
        1   -1    0    0  501    0  0.00000000000E+00  0.00000000000E+00  0.19804148327E+04  0.19804148327E+04  0.50400001928E-02 0. -1.
       -1   -1    0    0    0  501  0.00000000000E+00  0.00000000000E+00 -0.12720649307E+04  0.12720649307E+04  0.50400001928E-02 0.  1.
    10030    2    1    2    0    0  0.00000000000E+00  0.00000000000E+00  0.70834990200E+03  0.32524797635E+04  0.31744078232E+04 0.  0.
        5    1    3    3  502    0  0.13556196725E+04  0.71432091613E+03  0.77815778897E+03  0.17185781047E+04  0.46999998093E+01 0. -1.
       -5    1    3    3    0  502 -0.13556196725E+04 -0.71432091613E+03 -0.69807886976E+02  0.15339016587E+04  0.46999998093E+01 0.  1.
</event>
<event>
 5   0  0.1580212E-06  0.2899886E+04  0.7818609E-02  0.8272911E-01
       -1   -1    0    0    0  501  0.00000000000E+00  0.00000000000E+00  0.16547250202E+04  0.16547250202E+04  0.50400001928E-02 0.  1.
        1   -1    0    0  501    0  0.00000000000E+00  0.00000000000E+00 -0.12705037736E+04  0.12705037736E+04  0.50400001928E-02 0. -1.
    10030    2    1    2    0    0  0.00000000000E+00  0.00000000000E+00  0.38422124658E+03  0.29252287938E+04  0.28998857787E+04 0.  0.
        4    1    3    3  502    0 -0.43542454653E+03  0.43048886265E+03 -0.11336881540E+04  0.12884741518E+04  0.12699999809E+01 0. -1.
       -4    1    3    3    0  502  0.43542454653E+03 -0.43048886265E+03  0.15179094006E+04  0.16367546419E+04  0.12699999809E+01 0.  1.
</event>
<event>
 5   0  0.4224163E-06  0.2941738E+04  0.7818609E-02  0.8260566E-01
       -2   -1    0    0    0  501  0.00000000000E+00  0.00000000000E+00  0.14363925478E+04  0.14363925478E+04  0.25500000920E-02 0. -1.
        2   -1    0    0  501    0  0.00000000000E+00  0.00000000000E+00 -0.15061733378E+04  0.15061733378E+04  0.25500000920E-02 0.  1.
    10030    2    1    2    0    0  0.00000000000E+00  0.00000000000E+00 -0.69780789935E+02  0.29425658856E+04  0.29417383691E+04 0.  0.
        4    1    3    3  502    0 -0.83324257242E+03 -0.65047334429E+03  0.98816110965E+03  0.14470220274E+04  0.12699999809E+01 0. -1.
       -4    1    3    3    0  502  0.83324257242E+03  0.65047334429E+03 -0.10579418996E+04  0.14955438582E+04  0.12699999809E+01 0.  1.
</event>
<event>
 5   0  0.4115143E-06  0.2890294E+04  0.7818609E-02  0.8275771E-01
       -2   -1    0    0    0  501  0.00000000000E+00  0.00000000000E+00  0.15764841909E+04  0.15764841909E+04  0.25500000920E-02 0. -1.
        2   -1    0    0  501    0  0.00000000000E+00  0.00000000000E+00 -0.13247518409E+04  0.13247518409E+04  0.25500000920E-02 0.  1.
    10030    2    1    2    0    0  0.00000000000E+00  0.00000000000E+00  0.25173235003E+03  0.29012360318E+04  0.28902943338E+04 0.  0.
        1    1    3    3  502    0  0.53197530421E+03  0.75874563297E+03  0.12390086679E+04  0.15472023588E+04  0.50400001928E-02 0. -1.
       -1    1    3    3    0  502 -0.53197530421E+03 -0.75874563297E+03 -0.98727631784E+03  0.13540336730E+04  0.50400001928E-02 0.  1.
</event>
<event>
 5   0  0.1550278E-06  0.2900750E+04  0.7818609E-02  0.8272654E-01
       -1   -1    0    0    0  501  0.00000000000E+00  0.00000000000E+00  0.13090508618E+04  0.13090508618E+04  0.50400001928E-02 0.  1.
        1   -1    0    0  501    0  0.00000000000E+00  0.00000000000E+00 -0.16069568964E+04  0.16069568964E+04  0.50400001928E-02 0. -1.
    10030    2    1    2    0    0  0.00000000000E+00  0.00000000000E+00 -0.29790603462E+03  0.29160077583E+04  0.29007504616E+04 0.  0.
        2    1    3    3  502    0  0.13650032730E+04 -0.34264679651E+03 -0.50143606953E+03  0.14940143555E+04  0.25500000920E-02 0. -1.
       -2    1    3    3    0  502 -0.13650032730E+04  0.34264679651E+03  0.20353003491E+03  0.14219934028E+04  0.25500000920E-02 0.  1.
</event>
<event>
 5   0  0.4162450E-06  0.2915344E+04  0.7818609E-02  0.8268327E-01
       -2   -1    0    0    0  501  0.00000000000E+00  0.00000000000E+00  0.16656803290E+04  0.16656803290E+04  0.25500000920E-02 0. -1.
        2   -1    0    0  501    0  0.00000000000E+00  0.00000000000E+00 -0.12756393245E+04  0.12756393246E+04  0.25500000920E-02 0.  1.
    10030    2    1    2    0    0  0.00000000000E+00  0.00000000000E+00  0.39004100444E+03  0.29413196535E+04  0.29153437738E+04 0.  0.
        2    1    3    3  502    0  0.15231968202E+03 -0.10718678727E+04  0.11797835497E+04  0.16012467787E+04  0.25500000920E-02 0. -1.
       -2    1    3    3    0  502 -0.15231968202E+03  0.10718678727E+04 -0.78974254527E+03  0.13400728749E+04  0.25500000920E-02 0.  1.
</event>
<event>
 5   0  0.4115143E-06  0.3036320E+04  0.7818609E-02  0.8233435E-01
       -2   -1    0    0    0  501  0.00000000000E+00  0.00000000000E+00  0.11966327427E+04  0.11966327427E+04  0.25500000920E-02 0. -1.
        2   -1    0    0  501    0  0.00000000000E+00  0.00000000000E+00 -0.19260794591E+04  0.19260794591E+04  0.25500000920E-02 0.  1.
    10030    2    1    2    0    0  0.00000000000E+00  0.00000000000E+00 -0.72944671638E+03  0.31227122017E+04  0.30363199737E+04 0.  0.
        1    1    3    3  502    0 -0.33489116779E+03 -0.94044431530E+03  0.81159580291E+03  0.12865750471E+04  0.50400001928E-02 0. -1.
       -1    1    3    3    0  502  0.33489116779E+03  0.94044431530E+03 -0.15410425193E+04  0.18361371547E+04  0.50400001928E-02 0.  1.
</event>
<event>
 5   0  0.4187518E-06  0.2899189E+04  0.7818609E-02  0.8273119E-01
        2   -1    0    0  501    0  0.00000000000E+00  0.00000000000E+00  0.15381767984E+04  0.15381767984E+04  0.25500000920E-02 0.  1.
       -2   -1    0    0    0  501  0.00000000000E+00  0.00000000000E+00 -0.13661135853E+04  0.13661135853E+04  0.25500000920E-02 0. -1.
    10030    2    1    2    0    0  0.00000000000E+00  0.00000000000E+00  0.17206321313E+03  0.29042903837E+04  0.28991890044E+04 0.  0.
        3    1    3    3  502    0 -0.46685208699E+03 -0.94552708936E+03 -0.91038027113E+03  0.13931132747E+04  0.10100000352E+00 0. -1.
       -3    1    3    3    0  502  0.46685208699E+03  0.94552708936E+03  0.10824434843E+04  0.15111771090E+04  0.10100000352E+00 0.  1.
</event>
<event>
 5   0  0.4162450E-06  0.2841695E+04  0.7818609E-02  0.8290439E-01
       -2   -1    0    0    0  501  0.00000000000E+00  0.00000000000E+00  0.10131852588E+04  0.10131852588E+04  0.25500000920E-02 0. -1.
        2   -1    0    0  501    0  0.00000000000E+00  0.00000000000E+00 -0.19925358461E+04  0.19925358461E+04  0.25500000920E-02 0.  1.
    10030    2    1    2    0    0  0.00000000000E+00  0.00000000000E+00 -0.97935058724E+03  0.30057211049E+04  0.28416952313E+04 0.  0.
        2    1    3    3  502    0  0.10124785980E+04  0.60429926401E+03 -0.13282270000E+04  0.17760848728E+04  0.25500000920E-02 0.  1.
       -2    1    3    3    0  502 -0.10124785980E+04 -0.60429926401E+03  0.34887641279E+03  0.12296362321E+04  0.25500000920E-02 0. -1.
</event>
<event>
 5   0  0.1511126E-06  0.2870793E+04  0.7818609E-02  0.8281621E-01
        1   -1    0    0  501    0  0.00000000000E+00  0.00000000000E+00  0.89023849110E+03  0.89023849112E+03  0.50400001928E-02 0.  1.
       -1   -1    0    0    0  501  0.00000000000E+00  0.00000000000E+00 -0.23143950435E+04  0.23143950435E+04  0.50400001928E-02 0. -1.
    10030    2    1    2    0    0  0.00000000000E+00  0.00000000000E+00 -0.14241565524E+04  0.32046335347E+04  0.28707933060E+04 0.  0.
        5    1    3    3  502    0  0.11360159947E+04 -0.64094921623E+03 -0.43242380177E+02  0.13050824616E+04  0.46999998093E+01 0.  1.
       -5    1    3    3    0  502 -0.11360159947E+04  0.64094921623E+03 -0.13809141723E+04  0.18995510731E+04  0.46999998093E+01 0. -1.
</event>
<event>
 5   0  0.4224163E-06  0.2650316E+04  0.7818609E-02  0.8351308E-01
        2   -1    0    0  501    0  0.00000000000E+00  0.00000000000E+00  0.22453430321E+04  0.22453430321E+04  0.25500000920E-02 0.  1.
       -2   -1    0    0    0  501  0.00000000000E+00  0.00000000000E+00 -0.78208231033E+03  0.78208231034E+03  0.25500000920E-02 0. -1.
    10030    2    1    2    0    0  0.00000000000E+00  0.00000000000E+00  0.14632607218E+04  0.30274253424E+04  0.26503155028E+04 0.  0.
        4    1    3    3  502    0  0.48614692670E+03 -0.79050175717E+03  0.18121711865E+04  0.20359759047E+04  0.12699999809E+01 0.  1.
       -4    1    3    3    0  502 -0.48614692670E+03  0.79050175717E+03 -0.34891046469E+03  0.99144943779E+03  0.12699999809E+01 0. -1.
</event>
<event>
 5   0  0.1543678E-06  0.2923784E+04  0.7818609E-02  0.8265836E-01
       -1   -1    0    0    0  501  0.00000000000E+00  0.00000000000E+00  0.12323786616E+04  0.12323786616E+04  0.50400001928E-02 0.  1.
        1   -1    0    0  501    0  0.00000000000E+00  0.00000000000E+00 -0.17341488664E+04  0.17341488664E+04  0.50400001928E-02 0. -1.
    10030    2    1    2    0    0  0.00000000000E+00  0.00000000000E+00 -0.50177020477E+03  0.29665275280E+04  0.29237838901E+04 0.  0.
        3    1    3    3  502    0  0.10239606713E+04  0.11144004969E+03  0.80168825642E+03  0.13052273410E+04  0.10100000352E+00 0.  1.
       -3    1    3    3    0  502 -0.10239606713E+04 -0.11144004969E+03 -0.13034584612E+04  0.16613001870E+04  0.10100000352E+00 0. -1.
</event>
<event>
 5   0  0.1543678E-06  0.2893703E+04  0.7818609E-02  0.8274754E-01
        1   -1    0    0  501    0  0.00000000000E+00  0.00000000000E+00  0.13995450306E+04  0.13995450306E+04  0.50400001928E-02 0. -1.
       -1   -1    0    0    0  501  0.00000000000E+00  0.00000000000E+00 -0.14957565051E+04  0.14957565051E+04  0.50400001928E-02 0.  1.
    10030    2    1    2    0    0  0.00000000000E+00  0.00000000000E+00 -0.96211474504E+02  0.28953015358E+04  0.28937025306E+04 0.  0.
        3    1    3    3  502    0 -0.14136256283E+04 -0.28442315331E+03  0.70891166257E+02  0.14436964759E+04  0.10100000352E+00 0.  1.
       -3    1    3    3    0  502  0.14136256283E+04  0.28442315331E+03 -0.16710264076E+03  0.14516050598E+04  0.10100000352E+00 0. -1.
</event>
<event>
 5   0  0.4187518E-06  0.2906890E+04  0.7818609E-02  0.8270831E-01
       -2   -1    0    0    0  501  0.00000000000E+00  0.00000000000E+00  0.13116368790E+04  0.13116368790E+04  0.25500000920E-02 0.  1.
        2   -1    0    0  501    0  0.00000000000E+00  0.00000000000E+00 -0.16105845394E+04  0.16105845394E+04  0.25500000920E-02 0. -1.
    10030    2    1    2    0    0  0.00000000000E+00  0.00000000000E+00 -0.29894766039E+03  0.29222214184E+04  0.29068898008E+04 0.  0.
        3    1    3    3  502    0 -0.14335642043E+04 -0.79743467973E+02  0.77630768567E+02  0.14378775660E+04  0.10100000352E+00 0.  1.
       -3    1    3    3    0  502  0.14335642043E+04  0.79743467973E+02 -0.37657842896E+03  0.14843438523E+04  0.10100000352E+00 0. -1.
</event>
<event>
 5   0  0.1543678E-06  0.2913679E+04  0.7818609E-02  0.8268819E-01
       -1   -1    0    0    0  501  0.00000000000E+00  0.00000000000E+00  0.18749725033E+04  0.18749725033E+04  0.50400001928E-02 0. -1.
        1   -1    0    0  501    0  0.00000000000E+00  0.00000000000E+00 -0.11319530314E+04  0.11319530314E+04  0.50400001928E-02 0.  1.
    10030    2    1    2    0    0  0.00000000000E+00  0.00000000000E+00  0.74301947188E+03  0.30069255347E+04  0.29136786431E+04 0.  0.
        3    1    3    3  502    0 -0.13855739977E+04 -0.25616891173E+03  0.75341084195E+03  0.15978315686E+04  0.10100000352E+00 0. -1.
       -3    1    3    3    0  502  0.13855739977E+04  0.25616891173E+03 -0.10391370067E+02  0.14090939661E+04  0.10100000352E+00 0.  1.
</event>
<event>
 5   0  0.1580212E-06  0.2889983E+04  0.7818609E-02  0.8275864E-01
       -1   -1    0    0    0  501  0.00000000000E+00  0.00000000000E+00  0.10290758850E+04  0.10290758850E+04  0.50400001928E-02 0.  1.
        1   -1    0    0  501    0  0.00000000000E+00  0.00000000000E+00 -0.20290059656E+04  0.20290059656E+04  0.50400001928E-02 0. -1.
    10030    2    1    2    0    0  0.00000000000E+00  0.00000000000E+00 -0.99993008064E+03  0.30580818506E+04  0.28899834668E+04 0.  0.
        4    1    3    3  502    0  0.79743644591E+03 -0.32411042887E+03 -0.17280972688E+04  0.19306149898E+04  0.12699999809E+01 0. -1.
       -4    1    3    3    0  502 -0.79743644591E+03  0.32411042887E+03  0.72816718817E+03  0.11274668608E+04  0.12699999809E+01 0.  1.
</event>
<event>
 5   0  0.1511126E-06  0.2900116E+04  0.7818609E-02  0.8272843E-01
       -1   -1    0    0    0  501  0.00000000000E+00  0.00000000000E+00  0.94569653625E+03  0.94569653626E+03  0.50400001928E-02 0.  1.
        1   -1    0    0  501    0  0.00000000000E+00  0.00000000000E+00 -0.22234065681E+04  0.22234065682E+04  0.50400001928E-02 0. -1.
    10030    2    1    2    0    0  0.00000000000E+00  0.00000000000E+00 -0.12777100319E+04  0.31691031044E+04  0.29001157840E+04 0.  0.
        5    1    3    3  502    0 -0.75694482809E+03 -0.91696747108E+03 -0.15458057018E+04  0.19502133662E+04  0.46999998093E+01 0. -1.
       -5    1    3    3    0  502  0.75694482809E+03  0.91696747108E+03  0.26809566993E+03  0.12188897383E+04  0.46999998093E+01 0.  1.
</event>
<event>
 5   0  0.1580212E-06  0.2889459E+04  0.7818609E-02  0.8276021E-01
        1   -1    0    0  501    0  0.00000000000E+00  0.00000000000E+00  0.13414830052E+04  0.13414830052E+04  0.50400001928E-02 0. -1.
       -1   -1    0    0    0  501  0.00000000000E+00  0.00000000000E+00 -0.15559223717E+04  0.15559223717E+04  0.50400001928E-02 0.  1.
    10030    2    1    2    0    0  0.00000000000E+00  0.00000000000E+00 -0.21443936656E+03  0.28974053769E+04  0.28894590629E+04 0.  0.
        4    1    3    3  502    0  0.51986556168E+03  0.40975790427E+03  0.11804770281E+04  0.13533991906E+04  0.12699999809E+01 0. -1.
       -4    1    3    3    0  502 -0.51986556168E+03 -0.40975790427E+03 -0.13949163947E+04  0.15440061863E+04  0.12699999809E+01 0.  1.
</event>
<event>
 5   0  0.4187518E-06  0.2788504E+04  0.7818609E-02  0.8306846E-01
       -2   -1    0    0    0  501  0.00000000000E+00  0.00000000000E+00  0.12080817381E+04  0.12080817381E+04  0.25500000920E-02 0.  1.
        2   -1    0    0  501    0  0.00000000000E+00  0.00000000000E+00 -0.16091122485E+04  0.16091122485E+04  0.25500000920E-02 0. -1.
    10030    2    1    2    0    0  0.00000000000E+00  0.00000000000E+00 -0.40103051039E+03  0.28171939867E+04  0.27885043461E+04 0.  0.
        3    1    3    3  502    0  0.57660513806E+03  0.10351507154E+04 -0.94287361337E+03  0.15142724820E+04  0.10100000352E+00 0. -1.
       -3    1    3    3    0  502 -0.57660513806E+03 -0.10351507154E+04  0.54184310298E+03  0.13029215046E+04  0.10100000352E+00 0.  1.
</event>
<event>
 5   0  0.1602873E-06  0.2759952E+04  0.7818609E-02  0.8315811E-01
       -1   -1    0    0    0  501  0.00000000000E+00  0.00000000000E+00  0.11406943736E+04  0.11406943737E+04  0.50400001928E-02 0.  1.
        1   -1    0    0  501    0  0.00000000000E+00  0.00000000000E+00 -0.16694507774E+04  0.16694507774E+04  0.50400001928E-02 0. -1.
    10030    2    1    2    0    0  0.00000000000E+00  0.00000000000E+00 -0.52875640373E+03  0.28101451510E+04  0.27599515277E+04 0.  0.
        1    1    3    3  502    0 -0.30956118927E+03  0.12041937023E+04 -0.87395009575E+03  0.15197695129E+04  0.50400001928E-02 0. -1.
       -1    1    3    3    0  502  0.30956118927E+03 -0.12041937023E+04  0.34519369202E+03  0.12903756381E+04  0.50400001928E-02 0.  1.
</event>
<event>
 5   0  0.4187518E-06  0.2862707E+04  0.7818609E-02  0.8284061E-01
        2   -1    0    0  501    0  0.00000000000E+00  0.00000000000E+00  0.20383261412E+04  0.20383261412E+04  0.25500000920E-02 0. -1.
       -2   -1    0    0    0  501  0.00000000000E+00  0.00000000000E+00 -0.10051248922E+04  0.10051248922E+04  0.25500000920E-02 0.  1.
    10030    2    1    2    0    0  0.00000000000E+00  0.00000000000E+00  0.10332012491E+04  0.30434510334E+04  0.28627066514E+04 0.  0.
        3    1    3    3  502    0  0.24146287203E+03  0.12442555609E+04 -0.19044271112E+03  0.12816960076E+04  0.10100000352E+00 0.  1.
       -3    1    3    3    0  502 -0.24146287203E+03 -0.12442555609E+04  0.12236439602E+04  0.17617550258E+04  0.10100000352E+00 0. -1.
</event>
<event>
 5   0  0.4224163E-06  0.2890458E+04  0.7818609E-02  0.8275722E-01
        2   -1    0    0  501    0  0.00000000000E+00  0.00000000000E+00  0.26807915012E+04  0.26807915012E+04  0.25500000920E-02 0. -1.
       -2   -1    0    0    0  501  0.00000000000E+00  0.00000000000E+00 -0.77913071904E+03  0.77913071905E+03  0.25500000920E-02 0.  1.
    10030    2    1    2    0    0  0.00000000000E+00  0.00000000000E+00  0.19016607822E+04  0.34599222203E+04  0.28904581021E+04 0.  0.
        4    1    3    3  502    0  0.23141636088E+03  0.99553000758E+03 -0.27226602866E+03  0.10577163757E+04  0.12699999809E+01 0.  1.
       -4    1    3    3    0  502 -0.23141636088E+03 -0.99553000758E+03  0.21739268108E+04  0.24022058446E+04  0.12699999809E+01 0. -1.
</event>
<event>
 5   0  0.1602873E-06  0.2901338E+04  0.7818609E-02  0.8272480E-01
        1   -1    0    0  501    0  0.00000000000E+00  0.00000000000E+00  0.16057802334E+04  0.16057802334E+04  0.50400001928E-02 0.  1.
       -1   -1    0    0    0  501  0.00000000000E+00  0.00000000000E+00 -0.13105404774E+04  0.13105404774E+04  0.50400001928E-02 0. -1.
    10030    2    1    2    0    0  0.00000000000E+00  0.00000000000E+00  0.29523975596E+03  0.29163207108E+04  0.29013376182E+04 0.  0.
        1    1    3    3  502    0  0.11673012051E+04 -0.85203166897E+03  0.20913656399E+02  0.14453329891E+04  0.50400001928E-02 0.  1.
       -1    1    3    3    0  502 -0.11673012051E+04  0.85203166897E+03  0.27432609956E+03  0.14709877217E+04  0.50400001928E-02 0. -1.
</event>
<event>
 5   0  0.1543678E-06  0.2915267E+04  0.7818609E-02  0.8268350E-01
       -1   -1    0    0    0  501  0.00000000000E+00  0.00000000000E+00  0.89544579197E+03  0.89544579198E+03  0.50400001928E-02 0. -1.
        1   -1    0    0  501    0  0.00000000000E+00  0.00000000000E+00 -0.23727797175E+04  0.23727797175E+04  0.50400001928E-02 0.  1.
    10030    2    1    2    0    0  0.00000000000E+00  0.00000000000E+00 -0.14773339256E+04  0.32682255095E+04  0.29152671324E+04 0.  0.
        3    1    3    3  502    0  0.50830175885E+03  0.73015507137E+03 -0.20331044057E+04  0.22192364995E+04  0.10100000352E+00 0.  1.
       -3    1    3    3    0  502 -0.50830175885E+03 -0.73015507137E+03  0.55577048011E+03  0.10489890100E+04  0.10100000352E+00 0. -1.
</event>
<event>
 5   0  0.4162450E-06  0.2907156E+04  0.7818609E-02  0.8270751E-01
        2   -1    0    0  501    0  0.00000000000E+00  0.00000000000E+00  0.23831212420E+04  0.23831212420E+04  0.25500000920E-02 0. -1.
       -2   -1    0    0    0  501  0.00000000000E+00  0.00000000000E+00 -0.88660593766E+03  0.88660593766E+03  0.25500000920E-02 0.  1.
    10030    2    1    2    0    0  0.00000000000E+00  0.00000000000E+00  0.14965153044E+04  0.32697271797E+04  0.29071563036E+04 0.  0.
        2    1    3    3  502    0  0.10183699805E+04 -0.10334149562E+04  0.64850882276E+03  0.15892097351E+04  0.25500000920E-02 0.  1.
       -2    1    3    3    0  502 -0.10183699805E+04  0.10334149562E+04  0.84800648162E+03  0.16805174446E+04  0.25500000920E-02 0. -1.
</event>
<event>
 5   0  0.4187518E-06  0.2909781E+04  0.7818609E-02  0.8269973E-01
       -2   -1    0    0    0  501  0.00000000000E+00  0.00000000000E+00  0.16948035413E+04  0.16948035413E+04  0.25500000920E-02 0.  1.
        2   -1    0    0  501    0  0.00000000000E+00  0.00000000000E+00 -0.12489390209E+04  0.12489390209E+04  0.25500000920E-02 0. -1.
    10030    2    1    2    0    0  0.00000000000E+00  0.00000000000E+00  0.44586452042E+03  0.29437425622E+04  0.29097809371E+04 0.  0.
        3    1    3    3  502    0  0.93855277797E+03  0.12955617210E+03 -0.89405581592E+03  0.13026902667E+04  0.10100000352E+00 0. -1.
       -3    1    3    3    0  502 -0.93855277797E+03 -0.12955617210E+03  0.13399203363E+04  0.16410522955E+04  0.10100000352E+00 0.  1.
</event>
<event>
 5   0  0.1580212E-06  0.2899539E+04  0.7818609E-02  0.8273015E-01
       -1   -1    0    0    0  501  0.00000000000E+00  0.00000000000E+00  0.96294452234E+03  0.96294452235E+03  0.50400001928E-02 0.  1.
        1   -1    0    0  501    0  0.00000000000E+00  0.00000000000E+00 -0.21827130029E+04  0.21827130029E+04  0.50400001928E-02 0. -1.
    10030    2    1    2    0    0  0.00000000000E+00  0.00000000000E+00 -0.12197684806E+04  0.31456575253E+04  0.28995389496E+04 0.  0.
        4    1    3    3  502    0 -0.69874837095E+03  0.12702473146E+04 -0.61773678169E+03  0.15758736849E+04  0.12699999809E+01 0.  1.
       -4    1    3    3    0  502  0.69874837095E+03 -0.12702473146E+04 -0.60203169889E+03  0.15697838404E+04  0.12699999809E+01 0. -1.
</event>
<event>
 5   0  0.1550278E-06  0.2902609E+04  0.7818609E-02  0.8272102E-01
        1   -1    0    0  501    0  0.00000000000E+00  0.00000000000E+00  0.13250820103E+04  0.13250820103E+04  0.50400001928E-02 0.  1.
       -1   -1    0    0    0  501  0.00000000000E+00  0.00000000000E+00 -0.15895506360E+04  0.15895506360E+04  0.50400001928E-02 0. -1.
    10030    2    1    2    0    0  0.00000000000E+00  0.00000000000E+00 -0.26446862572E+03  0.29146326463E+04  0.29026091382E+04 0.  0.
        2    1    3    3  502    0  0.11755454990E+04 -0.24899969675E+03 -0.94947099220E+03  0.15314709381E+04  0.25500000920E-02 0. -1.
       -2    1    3    3    0  502 -0.11755454990E+04  0.24899969675E+03  0.68500236648E+03  0.13831617083E+04  0.25500000920E-02 0.  1.
</event>
<event>
 5   0  0.1602873E-06  0.2887607E+04  0.7818609E-02  0.8276574E-01
        1   -1    0    0  501    0  0.00000000000E+00  0.00000000000E+00  0.14478339301E+04  0.14478339301E+04  0.50400001928E-02 0. -1.
       -1   -1    0    0    0  501  0.00000000000E+00  0.00000000000E+00 -0.14397841939E+04  0.14397841939E+04  0.50400001928E-02 0.  1.
    10030    2    1    2    0    0  0.00000000000E+00  0.00000000000E+00  0.80497361627E+01  0.28876181240E+04  0.28876069040E+04 0.  0.
        1    1    3    3  502    0  0.10189457825E+04 -0.41144478175E+03 -0.93247815240E+03  0.14411983975E+04  0.50400001928E-02 0.  1.
       -1    1    3    3    0  502 -0.10189457825E+04  0.41144478175E+03  0.94052788856E+03  0.14464197266E+04  0.50400001928E-02 0. -1.
</event>
<event>
 5   0  0.4162450E-06  0.2894376E+04  0.7818609E-02  0.8274553E-01
       -2   -1    0    0    0  501  0.00000000000E+00  0.00000000000E+00  0.11704887928E+04  0.11704887928E+04  0.25500000920E-02 0.  1.
        2   -1    0    0  501    0  0.00000000000E+00  0.00000000000E+00 -0.17892977563E+04  0.17892977563E+04  0.25500000920E-02 0. -1.
    10030    2    1    2    0    0  0.00000000000E+00  0.00000000000E+00 -0.61880896352E+03  0.29597865490E+04  0.28943759055E+04 0.  0.
        2    1    3    3  502    0 -0.40118161066E+03 -0.31398199080E+03  0.10757632934E+04  0.11902932574E+04  0.25500000920E-02 0.  1.
       -2    1    3    3    0  502  0.40118161066E+03  0.31398199080E+03 -0.16945722569E+04  0.17694932916E+04  0.25500000920E-02 0. -1.
</event>
<event>
 5   0  0.1511126E-06  0.2840774E+04  0.7818609E-02  0.8290720E-01
        1   -1    0    0  501    0  0.00000000000E+00  0.00000000000E+00  0.23859020325E+04  0.23859020325E+04  0.50400001928E-02 0. -1.
       -1   -1    0    0    0  501  0.00000000000E+00  0.00000000000E+00 -0.84559161470E+03  0.84559161471E+03  0.50400001928E-02 0.  1.
    10030    2    1    2    0    0  0.00000000000E+00  0.00000000000E+00  0.15403104178E+04  0.32314936472E+04  0.28407736638E+04 0.  0.
        5    1    3    3  502    0 -0.70860827824E+03 -0.10336307027E+04  0.15306570916E+04  0.19782445106E+04  0.46999998093E+01 0. -1.
       -5    1    3    3    0  502  0.70860827824E+03  0.10336307027E+04  0.96533261167E+01  0.12532491366E+04  0.46999998093E+01 0.  1.
</event>
<event>
 5   0  0.1543678E-06  0.2873620E+04  0.7818609E-02  0.8280770E-01
        1   -1    0    0  501    0  0.00000000000E+00  0.00000000000E+00  0.17382267208E+04  0.17382267208E+04  0.50400001928E-02 0. -1.
       -1   -1    0    0    0  501  0.00000000000E+00  0.00000000000E+00 -0.11876603808E+04  0.11876603808E+04  0.50400001928E-02 0.  1.
    10030    2    1    2    0    0  0.00000000000E+00  0.00000000000E+00  0.55056633993E+03  0.29258871016E+04  0.28736200230E+04 0.  0.
        3    1    3    3  502    0 -0.86521215146E+03  0.49696944320E+03  0.13279406292E+04  0.16610228835E+04  0.10100000352E+00 0. -1.
       -3    1    3    3    0  502  0.86521215146E+03 -0.49696944320E+03 -0.77737428927E+03  0.12648642181E+04  0.10100000352E+00 0.  1.
</event>
<event>
 5   0  0.4187518E-06  0.2928907E+04  0.7818609E-02  0.8264328E-01
        2   -1    0    0  501    0  0.00000000000E+00  0.00000000000E+00  0.13094502144E+04  0.13094502144E+04  0.25500000920E-02 0. -1.
       -2   -1    0    0    0  501  0.00000000000E+00  0.00000000000E+00 -0.16378053400E+04  0.16378053400E+04  0.25500000920E-02 0.  1.
    10030    2    1    2    0    0  0.00000000000E+00  0.00000000000E+00 -0.32835512555E+03  0.29472555544E+04  0.29289073414E+04 0.  0.
        3    1    3    3  502    0 -0.78338974690E+03 -0.11546601983E+04 -0.61158055331E+03  0.15234731545E+04  0.10100000352E+00 0.  1.
       -3    1    3    3    0  502  0.78338974690E+03  0.11546601983E+04  0.28322542777E+03  0.14237823999E+04  0.10100000352E+00 0. -1.
</event>
<event>
 5   0  0.4187518E-06  0.2902949E+04  0.7818609E-02  0.8272001E-01
       -2   -1    0    0    0  501  0.00000000000E+00  0.00000000000E+00  0.12504854433E+04  0.12504854433E+04  0.25500000920E-02 0. -1.
        2   -1    0    0  501    0  0.00000000000E+00  0.00000000000E+00 -0.16847682899E+04  0.16847682899E+04  0.25500000920E-02 0.  1.
    10030    2    1    2    0    0  0.00000000000E+00  0.00000000000E+00 -0.43428284653E+03  0.29352537332E+04  0.29029489984E+04 0.  0.
        3    1    3    3  502    0  0.10721308206E+03 -0.13506590738E+04  0.30923181350E+03  0.13897477841E+04  0.10100000352E+00 0. -1.
       -3    1    3    3    0  502 -0.10721308206E+03  0.13506590738E+04 -0.74351466003E+03  0.15455059491E+04  0.10100000352E+00 0.  1.
</event>
<event>
 5   0  0.1602873E-06  0.2899547E+04  0.7818609E-02  0.8273012E-01
       -1   -1    0    0    0  501  0.00000000000E+00  0.00000000000E+00  0.12532150023E+04  0.12532150023E+04  0.50400001928E-02 0.  1.
        1   -1    0    0  501    0  0.00000000000E+00  0.00000000000E+00 -0.16771603878E+04  0.16771603878E+04  0.50400001928E-02 0. -1.
    10030    2    1    2    0    0  0.00000000000E+00  0.00000000000E+00 -0.42394538556E+03  0.29303753901E+04  0.28995465572E+04 0.  0.
        1    1    3    3  502    0 -0.16738268697E+03  0.14211519841E+04  0.23208702278E+02  0.14311633624E+04  0.50400001928E-02 0.  1.
       -1    1    3    3    0  502  0.16738268697E+03 -0.14211519841E+04 -0.44715408784E+03  0.14992120278E+04  0.50400001928E-02 0. -1.
</event>
<event>
 5   0  0.4115143E-06  0.2910266E+04  0.7818609E-02  0.8269830E-01
       -2   -1    0    0    0  501  0.00000000000E+00  0.00000000000E+00  0.12080290697E+04  0.12080290697E+04  0.25500000920E-02 0. -1.
        2   -1    0    0  501    0  0.00000000000E+00  0.00000000000E+00 -0.17527818205E+04  0.17527818205E+04  0.25500000920E-02 0.  1.
    10030    2    1    2    0    0  0.00000000000E+00  0.00000000000E+00 -0.54475275088E+03  0.29608108902E+04  0.29102655494E+04 0.  0.
        1    1    3    3  502    0  0.43779983291E+03  0.86709209135E+03  0.82990506024E+03  0.12775992320E+04  0.50400001928E-02 0. -1.
       -1    1    3    3    0  502 -0.43779983291E+03 -0.86709209135E+03 -0.13746578111E+04  0.16832116582E+04  0.50400001928E-02 0.  1.
</event>
<event>
 5   0  0.1580212E-06  0.2884258E+04  0.7818609E-02  0.8277577E-01
        1   -1    0    0  501    0  0.00000000000E+00  0.00000000000E+00  0.18078375491E+04  0.18078375491E+04  0.50400001928E-02 0.  1.
       -1   -1    0    0    0  501  0.00000000000E+00  0.00000000000E+00 -0.11503999892E+04  0.11503999892E+04  0.50400001928E-02 0. -1.
    10030    2    1    2    0    0  0.00000000000E+00  0.00000000000E+00  0.65743755990E+03  0.29582375383E+04  0.28842581694E+04 0.  0.
        4    1    3    3  502    0 -0.65473371418E+03  0.70798478193E+03 -0.77107962481E+03  0.12346999994E+04  0.12699999809E+01 0. -1.
       -4    1    3    3    0  502  0.65473371418E+03 -0.70798478193E+03  0.14285171847E+04  0.17235375389E+04  0.12699999809E+01 0.  1.
</event>
<event>
 5   0  0.1602873E-06  0.2921513E+04  0.7818609E-02  0.8266505E-01
        1   -1    0    0  501    0  0.00000000000E+00  0.00000000000E+00  0.12255206837E+04  0.12255206837E+04  0.50400001928E-02 0.  1.
       -1   -1    0    0    0  501  0.00000000000E+00  0.00000000000E+00 -0.17411454305E+04  0.17411454305E+04  0.50400001928E-02 0. -1.
    10030    2    1    2    0    0  0.00000000000E+00  0.00000000000E+00 -0.51562474680E+03  0.29666661141E+04  0.29215131273E+04 0.  0.
        1    1    3    3  502    0  0.90684289168E+03  0.37566941924E+02 -0.14200694104E+04  0.16853404510E+04  0.50400001928E-02 0. -1.
       -1    1    3    3    0  502 -0.90684289168E+03 -0.37566941924E+02  0.90444466365E+03  0.12813256631E+04  0.50400001928E-02 0.  1.
</event>
<event>
 5   0  0.1550278E-06  0.2872091E+04  0.7818609E-02  0.8281230E-01
       -1   -1    0    0    0  501  0.00000000000E+00  0.00000000000E+00  0.11667802034E+04  0.11667802034E+04  0.50400001928E-02 0. -1.
        1   -1    0    0  501    0  0.00000000000E+00  0.00000000000E+00 -0.17674512587E+04  0.17674512587E+04  0.50400001928E-02 0.  1.
    10030    2    1    2    0    0  0.00000000000E+00  0.00000000000E+00 -0.60067105523E+03  0.29342314621E+04  0.28720913211E+04 0.  0.
        2    1    3    3  502    0  0.49419457848E+03  0.12150620978E+04  0.29679551356E+03  0.13448761132E+04  0.25500000920E-02 0. -1.
       -2    1    3    3    0  502 -0.49419457848E+03 -0.12150620978E+04 -0.89746656879E+03  0.15893553489E+04  0.25500000920E-02 0.  1.
</event>
<event>
 5   0  0.4187518E-06  0.2980410E+04  0.7818609E-02  0.8249347E-01
        2   -1    0    0  501    0  0.00000000000E+00  0.00000000000E+00  0.16725442487E+04  0.16725442487E+04  0.25500000920E-02 0.  1.
       -2   -1    0    0    0  501  0.00000000000E+00  0.00000000000E+00 -0.13277444709E+04  0.13277444709E+04  0.25500000920E-02 0. -1.
    10030    2    1    2    0    0  0.00000000000E+00  0.00000000000E+00  0.34479977784E+03  0.30002887196E+04  0.29804102929E+04 0.  0.
        3    1    3    3  502    0  0.93139803701E+03  0.80659656595E+03 -0.67140974753E+03  0.14031719007E+04  0.10100000352E+00 0. -1.
       -3    1    3    3    0  502 -0.93139803701E+03 -0.80659656595E+03  0.10162095254E+04  0.15971168189E+04  0.10100000352E+00 0.  1.
</event>
<event>
 5   0  0.1580212E-06  0.2894555E+04  0.7818609E-02  0.8274499E-01
        1   -1    0    0  501    0  0.00000000000E+00  0.00000000000E+00  0.16175388565E+04  0.16175388565E+04  0.50400001928E-02 0. -1.
       -1   -1    0    0    0  501  0.00000000000E+00  0.00000000000E+00 -0.12949377435E+04  0.12949377436E+04  0.50400001928E-02 0.  1.
    10030    2    1    2    0    0  0.00000000000E+00  0.00000000000E+00  0.32260111291E+03  0.29124766000E+04  0.28945549688E+04 0.  0.
        4    1    3    3  502    0  0.39362954096E+03 -0.39249929405E+03  0.15058414640E+04  0.16051666702E+04  0.12699999809E+01 0. -1.
       -4    1    3    3    0  502 -0.39362954096E+03  0.39249929405E+03 -0.11832403511E+04  0.13073099299E+04  0.12699999809E+01 0.  1.
</event>
<event>
 5   0  0.1550278E-06  0.2884767E+04  0.7818609E-02  0.8277424E-01
        1   -1    0    0  501    0  0.00000000000E+00  0.00000000000E+00  0.15676014675E+04  0.15676014675E+04  0.50400001928E-02 0. -1.
       -1   -1    0    0    0  501  0.00000000000E+00  0.00000000000E+00 -0.13271682069E+04  0.13271682069E+04  0.50400001928E-02 0.  1.
    10030    2    1    2    0    0  0.00000000000E+00  0.00000000000E+00  0.24043326056E+03  0.28947696744E+04  0.28847674629E+04 0.  0.
        2    1    3    3  502    0  0.35930639928E+03  0.12787903588E+02 -0.12814824488E+04  0.13309627664E+04  0.25500000920E-02 0.  1.
       -2    1    3    3    0  502 -0.35930639928E+03 -0.12787903588E+02  0.15219157094E+04  0.15638069080E+04  0.25500000920E-02 0. -1.
</event>
<event>
 5   0  0.4162450E-06  0.2603605E+04  0.7818609E-02  0.8366978E-01
        2   -1    0    0  501    0  0.00000000000E+00  0.00000000000E+00  0.17534046876E+04  0.17534046876E+04  0.25500000920E-02 0.  1.
       -2   -1    0    0    0  501  0.00000000000E+00  0.00000000000E+00 -0.96651364749E+03  0.96651364750E+03  0.25500000920E-02 0. -1.
    10030    2    1    2    0    0  0.00000000000E+00  0.00000000000E+00  0.78689104008E+03  0.27199183351E+04  0.26036048549E+04 0.  0.
        2    1    3    3  502    0 -0.12865158493E+04 -0.31485462464E+02  0.18826559874E+03  0.13005992082E+04  0.25500000920E-02 0.  1.
       -2    1    3    3    0  502  0.12865158493E+04  0.31485462464E+02  0.59862544134E+03  0.14193191268E+04  0.25500000920E-02 0. -1.
</event>
<event>
 5   0  0.1543678E-06  0.2852316E+04  0.7818609E-02  0.8287208E-01
       -1   -1    0    0    0  501  0.00000000000E+00  0.00000000000E+00  0.11335482943E+04  0.11335482943E+04  0.50400001928E-02 0. -1.
        1   -1    0    0  501    0  0.00000000000E+00  0.00000000000E+00 -0.17943002358E+04  0.17943002358E+04  0.50400001928E-02 0.  1.
    10030    2    1    2    0    0  0.00000000000E+00  0.00000000000E+00 -0.66075194152E+03  0.29278485300E+04  0.28523155307E+04 0.  0.
        3    1    3    3  502    0  0.13357166756E+04  0.39308648682E+02  0.18105668414E+03  0.13485050020E+04  0.10100000352E+00 0. -1.
       -3    1    3    3    0  502 -0.13357166756E+04 -0.39308648682E+02 -0.84180862565E+03  0.15793435281E+04  0.10100000352E+00 0.  1.
</event>
<event>
 5   0  0.4148677E-06  0.2905226E+04  0.7818609E-02  0.8271324E-01
        2   -1    0    0  501    0  0.00000000000E+00  0.00000000000E+00  0.16006184419E+04  0.16006184419E+04  0.25500000920E-02 0.  1.
       -2   -1    0    0    0  501  0.00000000000E+00  0.00000000000E+00 -0.13182929302E+04  0.13182929302E+04  0.25500000920E-02 0. -1.
    10030    2    1    2    0    0  0.00000000000E+00  0.00000000000E+00  0.28232551170E+03  0.29189113720E+04  0.29052256200E+04 0.  0.
        5    1    3    3  502    0  0.14389764818E+04 -0.85273192415E+02 -0.38949833639E+02  0.14420346778E+04  0.46999998093E+01 0.  1.
       -5    1    3    3    0  502 -0.14389764818E+04  0.85273192415E+02  0.32127534534E+03  0.14768766942E+04  0.46999998093E+01 0. -1.
</event>
<event>
 5   0  0.1543678E-06  0.2859384E+04  0.7818609E-02  0.8285065E-01
       -1   -1    0    0    0  501  0.00000000000E+00  0.00000000000E+00  0.12950831322E+04  0.12950831322E+04  0.50400001928E-02 0.  1.
        1   -1    0    0  501    0  0.00000000000E+00  0.00000000000E+00 -0.15782920465E+04  0.15782920465E+04  0.50400001928E-02 0. -1.
    10030    2    1    2    0    0  0.00000000000E+00  0.00000000000E+00 -0.28320891427E+03  0.28733751787E+04  0.28593841345E+04 0.  0.
        3    1    3    3  502    0 -0.11065538824E+04  0.86389700975E+03 -0.41355728677E+03  0.14634921174E+04  0.10100000352E+00 0.  1.
       -3    1    3    3    0  502  0.11065538824E+04 -0.86389700975E+03  0.13034837250E+03  0.14098830613E+04  0.10100000352E+00 0. -1.
</event>
<event>
 5   0  0.4162450E-06  0.2899353E+04  0.7818609E-02  0.8273070E-01
        2   -1    0    0  501    0  0.00000000000E+00  0.00000000000E+00  0.66486068945E+03  0.66486068946E+03  0.25500000920E-02 0. -1.
       -2   -1    0    0    0  501  0.00000000000E+00  0.00000000000E+00 -0.31609056213E+04  0.31609056213E+04  0.25500000920E-02 0.  1.
    10030    2    1    2    0    0  0.00000000000E+00  0.00000000000E+00 -0.24960449319E+04  0.38257663108E+04  0.28993529559E+04 0.  0.
        2    1    3    3  502    0  0.36993076526E+03  0.51193156188E+03 -0.29698064513E+04  0.30362267789E+04  0.25500000920E-02 0.  1.
       -2    1    3    3    0  502 -0.36993076526E+03 -0.51193156188E+03  0.47376151937E+03  0.78953953187E+03  0.25500000920E-02 0. -1.
</event>
<event>
 5   0  0.4162450E-06  0.2901229E+04  0.7818609E-02  0.8272512E-01
        2   -1    0    0  501    0  0.00000000000E+00  0.00000000000E+00  0.16295159955E+04  0.16295159955E+04  0.25500000920E-02 0. -1.
       -2   -1    0    0    0  501  0.00000000000E+00  0.00000000000E+00 -0.12913543811E+04  0.12913543811E+04  0.25500000920E-02 0.  1.
    10030    2    1    2    0    0  0.00000000000E+00  0.00000000000E+00  0.33816161440E+03  0.29208703767E+04  0.29012291326E+04 0.  0.
        2    1    3    3  502    0  0.78901297310E+02  0.10665811096E+04  0.11557471975E+04  0.15746657622E+04  0.25500000920E-02 0. -1.
       -2    1    3    3    0  502 -0.78901297310E+02 -0.10665811096E+04 -0.81758558314E+03  0.13462046144E+04  0.25500000920E-02 0.  1.
</event>
<event>
 5   0  0.1602873E-06  0.2928971E+04  0.7818609E-02  0.8264310E-01
       -1   -1    0    0    0  501  0.00000000000E+00  0.00000000000E+00  0.11206829222E+04  0.11206829222E+04  0.50400001928E-02 0. -1.
        1   -1    0    0  501    0  0.00000000000E+00  0.00000000000E+00 -0.19137593768E+04  0.19137593768E+04  0.50400001928E-02 0.  1.
    10030    2    1    2    0    0  0.00000000000E+00  0.00000000000E+00 -0.79307645462E+03  0.30344422990E+04  0.29289707754E+04 0.  0.
        1    1    3    3  502    0  0.14388207365E+04 -0.26202428132E+03 -0.31726069999E+03  0.14965013156E+04  0.50400001928E-02 0.  1.
       -1    1    3    3    0  502 -0.14388207365E+04  0.26202428132E+03 -0.47581575462E+03  0.15379409834E+04  0.50400001928E-02 0. -1.
</event>
<event>
 5   0  0.4187518E-06  0.2905664E+04  0.7818609E-02  0.8271194E-01
        2   -1    0    0  501    0  0.00000000000E+00  0.00000000000E+00  0.18030516939E+04  0.18030516939E+04  0.25500000920E-02 0.  1.
       -2   -1    0    0    0  501  0.00000000000E+00  0.00000000000E+00 -0.11706382006E+04  0.11706382006E+04  0.25500000920E-02 0. -1.
    10030    2    1    2    0    0  0.00000000000E+00  0.00000000000E+00  0.63241349331E+03  0.29736898945E+04  0.29056642549E+04 0.  0.
        3    1    3    3  502    0  0.75197751658E+03 -0.12328642178E+04  0.15343344510E+03  0.14522280114E+04  0.10100000352E+00 0. -1.
       -3    1    3    3    0  502 -0.75197751658E+03  0.12328642178E+04  0.47898004821E+03  0.15214618831E+04  0.10100000352E+00 0.  1.
</event>
<event>
 5   0  0.4162450E-06  0.2794896E+04  0.7818609E-02  0.8304855E-01
       -2   -1    0    0    0  501  0.00000000000E+00  0.00000000000E+00  0.81107131040E+03  0.81107131040E+03  0.25500000920E-02 0.  1.
        2   -1    0    0  501    0  0.00000000000E+00  0.00000000000E+00 -0.24077545229E+04  0.24077545229E+04  0.25500000920E-02 0. -1.
    10030    2    1    2    0    0  0.00000000000E+00  0.00000000000E+00 -0.15966832125E+04  0.32188258333E+04  0.27948957877E+04 0.  0.
        2    1    3    3  502    0 -0.18604854346E+03  0.19280203003E+03 -0.23778967482E+04  0.23929437161E+04  0.25500000920E-02 0. -1.
       -2    1    3    3    0  502  0.18604854346E+03 -0.19280203003E+03  0.78121353565E+03  0.82588211725E+03  0.25500000920E-02 0.  1.
</event>
<event>
 5   0  0.1543678E-06  0.2899665E+04  0.7818609E-02  0.8272977E-01
        1   -1    0    0  501    0  0.00000000000E+00  0.00000000000E+00  0.20759486830E+04  0.20759486830E+04  0.50400001928E-02 0.  1.
       -1   -1    0    0    0  501  0.00000000000E+00  0.00000000000E+00 -0.10125560110E+04  0.10125560110E+04  0.50400001928E-02 0. -1.
    10030    2    1    2    0    0  0.00000000000E+00  0.00000000000E+00  0.10633926721E+04  0.30885046940E+04  0.28996650272E+04 0.  0.
        3    1    3    3  502    0  0.25314535880E+03 -0.87360010458E+03  0.17342756461E+04  0.19583083879E+04  0.10100000352E+00 0.  1.
       -3    1    3    3    0  502 -0.25314535880E+03  0.87360010458E+03 -0.67088297400E+03  0.11301963061E+04  0.10100000352E+00 0. -1.
</event>
<event>
 5   0  0.1511126E-06  0.2835697E+04  0.7818609E-02  0.8292271E-01
       -1   -1    0    0    0  501  0.00000000000E+00  0.00000000000E+00  0.10626189354E+04  0.10626189354E+04  0.50400001928E-02 0. -1.
        1   -1    0    0  501    0  0.00000000000E+00  0.00000000000E+00 -0.18918294595E+04  0.18918294595E+04  0.50400001928E-02 0.  1.
    10030    2    1    2    0    0  0.00000000000E+00  0.00000000000E+00 -0.82921052410E+03  0.29544483949E+04  0.28356966031E+04 0.  0.
        5    1    3    3  502    0 -0.16343291273E+03  0.52180859467E+02 -0.18809672234E+04  0.18887808090E+04  0.46999998093E+01 0.  1.
       -5    1    3    3    0  502  0.16343291273E+03 -0.52180859467E+02  0.10517566993E+04  0.10656675859E+04  0.46999998093E+01 0. -1.
</event>
<event>
 5   0  0.1580212E-06  0.2891143E+04  0.7818609E-02  0.8275518E-01
       -1   -1    0    0    0  501  0.00000000000E+00  0.00000000000E+00  0.11197519998E+04  0.11197519998E+04  0.50400001928E-02 0.  1.
        1   -1    0    0  501    0  0.00000000000E+00  0.00000000000E+00 -0.18661962218E+04  0.18661962218E+04  0.50400001928E-02 0. -1.
    10030    2    1    2    0    0  0.00000000000E+00  0.00000000000E+00 -0.74644422205E+03  0.29859482216E+04  0.28911429929E+04 0.  0.
        4    1    3    3  502    0  0.12071889882E+04  0.79409920838E+03 -0.32969104607E+03  0.14820919690E+04  0.12699999809E+01 0. -1.
       -4    1    3    3    0  502 -0.12071889882E+04 -0.79409920838E+03 -0.41675317599E+03  0.15038562526E+04  0.12699999809E+01 0.  1.
</event>
<event>
 5   0  0.4187518E-06  0.2892057E+04  0.7818609E-02  0.8275245E-01
        2   -1    0    0  501    0  0.00000000000E+00  0.00000000000E+00  0.27667725632E+04  0.27667725632E+04  0.25500000920E-02 0.  1.
       -2   -1    0    0    0  501  0.00000000000E+00  0.00000000000E+00 -0.75575364818E+03  0.75575364819E+03  0.25500000920E-02 0. -1.
    10030    2    1    2    0    0  0.00000000000E+00  0.00000000000E+00  0.20110189150E+04  0.35225262114E+04  0.28920570246E+04 0.  0.
        3    1    3    3  502    0  0.40640775775E+03 -0.10182364763E+04  0.21539394599E+04  0.24169046308E+04  0.10100000352E+00 0.  1.
       -3    1    3    3    0  502 -0.40640775775E+03  0.10182364763E+04 -0.14292054486E+03  0.11056215806E+04  0.10100000352E+00 0. -1.
</event>
<event>
 5   0  0.4162450E-06  0.2894199E+04  0.7818609E-02  0.8274605E-01
       -2   -1    0    0    0  501  0.00000000000E+00  0.00000000000E+00  0.21539545812E+04  0.21539545812E+04  0.25500000920E-02 0. -1.
        2   -1    0    0  501    0  0.00000000000E+00  0.00000000000E+00 -0.97221061676E+03  0.97221061676E+03  0.25500000920E-02 0.  1.
    10030    2    1    2    0    0  0.00000000000E+00  0.00000000000E+00  0.11817439645E+04  0.31261651980E+04  0.28941993794E+04 0.  0.
        2    1    3    3  502    0  0.65675012351E+03  0.80223197094E+03  0.16813409833E+04  0.19752985501E+04  0.25500000920E-02 0. -1.
       -2    1    3    3    0  502 -0.65675012351E+03 -0.80223197094E+03 -0.49959701884E+03  0.11508666479E+04  0.25500000920E-02 0.  1.
</event>
<event>
 5   0  0.4224163E-06  0.2914889E+04  0.7818609E-02  0.8268461E-01
       -2   -1    0    0    0  501  0.00000000000E+00  0.00000000000E+00  0.13111605073E+04  0.13111605074E+04  0.25500000920E-02 0. -1.
        2   -1    0    0  501    0  0.00000000000E+00  0.00000000000E+00 -0.16200489185E+04  0.16200489185E+04  0.25500000920E-02 0.  1.
    10030    2    1    2    0    0  0.00000000000E+00  0.00000000000E+00 -0.30888841119E+03  0.29312094259E+04  0.29148887883E+04 0.  0.
        4    1    3    3  502    0 -0.12586631533E+03  0.22237889223E+03 -0.15973467032E+04  0.16176565780E+04  0.12699999809E+01 0.  1.
       -4    1    3    3    0  502  0.12586631533E+03 -0.22237889223E+03  0.12884582920E+04  0.13135528479E+04  0.12699999809E+01 0. -1.
</event>
<event>
 5   0  0.1550278E-06  0.2887890E+04  0.7818609E-02  0.8276490E-01
        1   -1    0    0  501    0  0.00000000000E+00  0.00000000000E+00  0.12921091886E+04  0.12921091886E+04  0.50400001928E-02 0. -1.
       -1   -1    0    0    0  501  0.00000000000E+00  0.00000000000E+00 -0.16136228045E+04  0.16136228045E+04  0.50400001928E-02 0.  1.
    10030    2    1    2    0    0  0.00000000000E+00  0.00000000000E+00 -0.32151361590E+03  0.29057319930E+04  0.28878897850E+04 0.  0.
        2    1    3    3  502    0 -0.97931992876E+03 -0.94119253425E+03  0.33223558418E+03  0.13983173434E+04  0.25500000920E-02 0.  1.
       -2    1    3    3    0  502  0.97931992876E+03  0.94119253425E+03 -0.65374920009E+03  0.15074146497E+04  0.25500000920E-02 0. -1.
</event>
<event>
 5   0  0.4187518E-06  0.2906847E+04  0.7818609E-02  0.8270843E-01
       -2   -1    0    0    0  501  0.00000000000E+00  0.00000000000E+00  0.13404309651E+04  0.13404309651E+04  0.25500000920E-02 0.  1.
        2   -1    0    0  501    0  0.00000000000E+00  0.00000000000E+00 -0.15759406862E+04  0.15759406862E+04  0.25500000920E-02 0. -1.
    10030    2    1    2    0    0  0.00000000000E+00  0.00000000000E+00 -0.23550972109E+03  0.29163716513E+04  0.29068468794E+04 0.  0.
        3    1    3    3  502    0 -0.12783359846E+04 -0.47032004926E+03  0.39095275917E+03  0.14171054683E+04  0.10100000352E+00 0.  1.
       -3    1    3    3    0  502  0.12783359846E+04  0.47032004926E+03 -0.62646248026E+03  0.14992661830E+04  0.10100000352E+00 0. -1.
</event>
<event>
 5   0  0.4162450E-06  0.2915158E+04  0.7818609E-02  0.8268382E-01
       -2   -1    0    0    0  501  0.00000000000E+00  0.00000000000E+00  0.12048500953E+04  0.12048500953E+04  0.25500000920E-02 0. -1.
        2   -1    0    0  501    0  0.00000000000E+00  0.00000000000E+00 -0.17633206718E+04  0.17633206718E+04  0.25500000920E-02 0.  1.
    10030    2    1    2    0    0  0.00000000000E+00  0.00000000000E+00 -0.55847057653E+03  0.29681707671E+04  0.29151583693E+04 0.  0.
        2    1    3    3  502    0 -0.94910697654E+02 -0.52121481617E+03  0.11033476430E+04  0.12239480979E+04  0.25500000920E-02 0. -1.
       -2    1    3    3    0  502  0.94910697654E+02  0.52121481617E+03 -0.16618182195E+04  0.17442226692E+04  0.25500000920E-02 0.  1.
</event>
<event>
 5   0  0.1602873E-06  0.2907464E+04  0.7818609E-02  0.8270660E-01
       -1   -1    0    0    0  501  0.00000000000E+00  0.00000000000E+00  0.13796250667E+04  0.13796250667E+04  0.50400001928E-02 0.  1.
        1   -1    0    0  501    0  0.00000000000E+00  0.00000000000E+00 -0.15318190911E+04  0.15318190911E+04  0.50400001928E-02 0. -1.
    10030    2    1    2    0    0  0.00000000000E+00  0.00000000000E+00 -0.15219402442E+03  0.29114441578E+04  0.29074635102E+04 0.  0.
        1    1    3    3  502    0  0.11502342800E+04  0.41559241100E+03 -0.86303557196E+03  0.14968588275E+04  0.50400001928E-02 0.  1.
       -1    1    3    3    0  502 -0.11502342800E+04 -0.41559241100E+03  0.71084154755E+03  0.14145853303E+04  0.50400001928E-02 0. -1.
</event>
<event>
 5   0  0.1511126E-06  0.2720903E+04  0.7818609E-02  0.8328254E-01
        1   -1    0    0  501    0  0.00000000000E+00  0.00000000000E+00  0.21338651340E+04  0.21338651340E+04  0.50400001928E-02 0. -1.
       -1   -1    0    0    0  501  0.00000000000E+00  0.00000000000E+00 -0.86735950823E+03  0.86735950825E+03  0.50400001928E-02 0.  1.
    10030    2    1    2    0    0  0.00000000000E+00  0.00000000000E+00  0.12665056257E+04  0.30012246422E+04  0.27209029481E+04 0.  0.
        5    1    3    3  502    0  0.36670929609E+03  0.41290834617E+03 -0.73815720433E+03  0.92188239949E+03  0.46999998093E+01 0.  1.
       -5    1    3    3    0  502 -0.36670929609E+03 -0.41290834617E+03  0.20046628301E+04  0.20793422427E+04  0.46999998093E+01 0. -1.
</event>
<event>
 5   0  0.1580212E-06  0.2892253E+04  0.7818609E-02  0.8275186E-01
       -1   -1    0    0    0  501  0.00000000000E+00  0.00000000000E+00  0.10927424263E+04  0.10927424264E+04  0.50400001928E-02 0.  1.
        1   -1    0    0  501    0  0.00000000000E+00  0.00000000000E+00 -0.19137922770E+04  0.19137922770E+04  0.50400001928E-02 0. -1.
    10030    2    1    2    0    0  0.00000000000E+00  0.00000000000E+00 -0.82104985065E+03  0.30065347034E+04  0.28922531122E+04 0.  0.
        4    1    3    3  502    0 -0.21374084919E+03 -0.49249529963E+03  0.98530672702E+03  0.11220818731E+04  0.12699999809E+01 0.  1.
       -4    1    3    3    0  502  0.21374084919E+03  0.49249529963E+03 -0.18063565777E+04  0.18844528302E+04  0.12699999809E+01 0. -1.
</event>
<event>
 5   0  0.1543678E-06  0.2878561E+04  0.7818609E-02  0.8279285E-01
        1   -1    0    0  501    0  0.00000000000E+00  0.00000000000E+00  0.18498579321E+04  0.18498579321E+04  0.50400001928E-02 0. -1.
       -1   -1    0    0    0  501  0.00000000000E+00  0.00000000000E+00 -0.11198308641E+04  0.11198308641E+04  0.50400001928E-02 0.  1.
    10030    2    1    2    0    0  0.00000000000E+00  0.00000000000E+00  0.73002706800E+03  0.29696887961E+04  0.28785607560E+04 0.  0.
        3    1    3    3  502    0 -0.12888291515E+04 -0.49464789590E+03  0.78505257029E+03  0.15881009637E+04  0.10100000352E+00 0. -1.
       -3    1    3    3    0  502  0.12888291515E+04  0.49464789590E+03 -0.55025502298E+02  0.13815878324E+04  0.10100000352E+00 0.  1.
</event>
<event>
 5   0  0.4187518E-06  0.2908680E+04  0.7818609E-02  0.8270300E-01
       -2   -1    0    0    0  501  0.00000000000E+00  0.00000000000E+00  0.11714948983E+04  0.11714948983E+04  0.25500000920E-02 0. -1.
        2   -1    0    0  501    0  0.00000000000E+00  0.00000000000E+00 -0.18054748574E+04  0.18054748574E+04  0.25500000920E-02 0.  1.
    10030    2    1    2    0    0  0.00000000000E+00  0.00000000000E+00 -0.63397995910E+03  0.29769697558E+04  0.29086798274E+04 0.  0.
        3    1    3    3  502    0 -0.73546864013E+03 -0.10298669348E+04  0.41646932548E+03  0.13322862805E+04  0.10100000352E+00 0. -1.
       -3    1    3    3    0  502  0.73546864013E+03  0.10298669348E+04 -0.10504492846E+04  0.16446834752E+04  0.10100000352E+00 0.  1.
</event>
<event>
 5   0  0.1580212E-06  0.2720082E+04  0.7818609E-02  0.8328518E-01
        1   -1    0    0  501    0  0.00000000000E+00  0.00000000000E+00  0.16018315696E+04  0.16018315696E+04  0.50400001928E-02 0.  1.
       -1   -1    0    0    0  501  0.00000000000E+00  0.00000000000E+00 -0.11547475009E+04  0.11547475009E+04  0.50400001928E-02 0. -1.
    10030    2    1    2    0    0  0.00000000000E+00  0.00000000000E+00  0.44708406866E+03  0.27565790705E+04  0.27200816178E+04 0.  0.
        4    1    3    3  502    0  0.28389208069E+03 -0.73086457521E+03 -0.90265270920E+03  0.11956342531E+04  0.12699999809E+01 0. -1.
       -4    1    3    3    0  502 -0.28389208069E+03  0.73086457521E+03  0.13497367779E+04  0.15609448175E+04  0.12699999809E+01 0.  1.
</event>
<event>
 5   0  0.4115143E-06  0.2906470E+04  0.7818609E-02  0.8270955E-01
        2   -1    0    0  501    0  0.00000000000E+00  0.00000000000E+00  0.11708823483E+04  0.11708823483E+04  0.25500000920E-02 0.  1.
       -2   -1    0    0    0  501  0.00000000000E+00  0.00000000000E+00 -0.18036762428E+04  0.18036762428E+04  0.25500000920E-02 0. -1.
    10030    2    1    2    0    0  0.00000000000E+00  0.00000000000E+00 -0.63279389448E+03  0.29745585911E+04  0.29064704883E+04 0.  0.
        1    1    3    3  502    0  0.84821456265E+03 -0.11495383558E+04 -0.43722854326E+02  0.14292718649E+04  0.50400001928E-02 0.  1.
       -1    1    3    3    0  502 -0.84821456265E+03  0.11495383558E+04 -0.58907104016E+03  0.15452867262E+04  0.50400001928E-02 0. -1.
</event>
<event>
 5   0  0.1550278E-06  0.2923634E+04  0.7818609E-02  0.8265880E-01
        1   -1    0    0  501    0  0.00000000000E+00  0.00000000000E+00  0.15781761164E+04  0.15781761164E+04  0.50400001928E-02 0. -1.
       -1   -1    0    0    0  501  0.00000000000E+00  0.00000000000E+00 -0.13540372009E+04  0.13540372009E+04  0.50400001928E-02 0.  1.
    10030    2    1    2    0    0  0.00000000000E+00  0.00000000000E+00  0.22413891548E+03  0.29322133173E+04  0.29236341571E+04 0.  0.
        2    1    3    3  502    0 -0.13791559263E+04  0.48092746030E+03  0.52339008560E+02  0.14615408523E+04  0.25500000920E-02 0.  1.
       -2    1    3    3    0  502  0.13791559263E+04 -0.48092746030E+03  0.17179990692E+03  0.14706724650E+04  0.25500000920E-02 0. -1.
</event>
<event>
 5   0  0.1543678E-06  0.2882587E+04  0.7818609E-02  0.8278077E-01
       -1   -1    0    0    0  501  0.00000000000E+00  0.00000000000E+00  0.28430392201E+04  0.28430392201E+04  0.50400001928E-02 0. -1.
        1   -1    0    0  501    0  0.00000000000E+00  0.00000000000E+00 -0.73067131371E+03  0.73067131373E+03  0.50400001928E-02 0.  1.
    10030    2    1    2    0    0  0.00000000000E+00  0.00000000000E+00  0.21123679064E+04  0.35737105338E+04  0.28825871726E+04 0.  0.
        3    1    3    3  502    0 -0.78878228294E+03  0.67659135624E+03  0.22943129896E+04  0.25186951895E+04  0.10100000352E+00 0. -1.
       -3    1    3    3    0  502  0.78878228294E+03 -0.67659135624E+03 -0.18194508322E+03  0.10550153443E+04  0.10100000352E+00 0.  1.
</event>
<event>
 5   0  0.4115143E-06  0.2861996E+04  0.7818609E-02  0.8284275E-01
        2   -1    0    0  501    0  0.00000000000E+00  0.00000000000E+00  0.16572446656E+04  0.16572446656E+04  0.25500000920E-02 0.  1.
       -2   -1    0    0    0  501  0.00000000000E+00  0.00000000000E+00 -0.12356383841E+04  0.12356383841E+04  0.25500000920E-02 0. -1.
    10030    2    1    2    0    0  0.00000000000E+00  0.00000000000E+00  0.42160628158E+03  0.28928830497E+04  0.28619958914E+04 0.  0.
        1    1    3    3  502    0 -0.38063500083E+03  0.10892538912E+02  0.16050932035E+04  0.16496441565E+04  0.50400001928E-02 0.  1.
       -1    1    3    3    0  502  0.38063500083E+03 -0.10892538912E+02 -0.11834869219E+04  0.12432388932E+04  0.50400001928E-02 0. -1.
</event>
<event>
 5   0  0.1580212E-06  0.2918599E+04  0.7818609E-02  0.8267365E-01
       -1   -1    0    0    0  501  0.00000000000E+00  0.00000000000E+00  0.10447118344E+04  0.10447118344E+04  0.50400001928E-02 0.  1.
        1   -1    0    0  501    0  0.00000000000E+00  0.00000000000E+00 -0.20384142623E+04  0.20384142623E+04  0.50400001928E-02 0. -1.
    10030    2    1    2    0    0  0.00000000000E+00  0.00000000000E+00 -0.99370242786E+03  0.30831260967E+04  0.29185993238E+04 0.  0.
        4    1    3    3  502    0  0.10435289492E+04 -0.96525433806E+03 -0.84543036396E+03  0.16539113393E+04  0.12699999809E+01 0. -1.
       -4    1    3    3    0  502 -0.10435289492E+04  0.96525433806E+03 -0.14827206390E+03  0.14292147574E+04  0.12699999809E+01 0.  1.
</event>
<event>
 5   0  0.4162450E-06  0.2916879E+04  0.7818609E-02  0.8267873E-01
       -2   -1    0    0    0  501  0.00000000000E+00  0.00000000000E+00  0.14399215306E+04  0.14399215306E+04  0.25500000920E-02 0. -1.
        2   -1    0    0  501    0  0.00000000000E+00  0.00000000000E+00 -0.14771956434E+04  0.14771956435E+04  0.25500000920E-02 0.  1.
    10030    2    1    2    0    0  0.00000000000E+00  0.00000000000E+00 -0.37274112881E+02  0.29171171740E+04  0.29168790252E+04 0.  0.
        2    1    3    3  502    0  0.83760757035E+03 -0.40211421197E+03 -0.11429012154E+04  0.14729241221E+04  0.25500000920E-02 0.  1.
       -2    1    3    3    0  502 -0.83760757035E+03  0.40211421197E+03  0.11056271025E+04  0.14441930519E+04  0.25500000920E-02 0. -1.
</event>
<event>
 5   0  0.1511126E-06  0.2902764E+04  0.7818609E-02  0.8272055E-01
        1   -1    0    0  501    0  0.00000000000E+00  0.00000000000E+00  0.18788741166E+04  0.18788741166E+04  0.50400001928E-02 0.  1.
       -1   -1    0    0    0  501  0.00000000000E+00  0.00000000000E+00 -0.11211556567E+04  0.11211556567E+04  0.50400001928E-02 0. -1.
    10030    2    1    2    0    0  0.00000000000E+00  0.00000000000E+00  0.75771845993E+03  0.30000297733E+04  0.29027644369E+04 0.  0.
        5    1    3    3  502    0 -0.13485600711E+04 -0.53327138428E+03  0.43996410273E+03  0.15154481635E+04  0.46999998093E+01 0.  1.
       -5    1    3    3    0  502  0.13485600711E+04  0.53327138428E+03  0.31775435720E+03  0.14845816098E+04  0.46999998093E+01 0. -1.
</event>
<event>
 5   0  0.4187518E-06  0.2913012E+04  0.7818609E-02  0.8269016E-01
        2   -1    0    0  501    0  0.00000000000E+00  0.00000000000E+00  0.17131246797E+04  0.17131246797E+04  0.25500000920E-02 0.  1.
       -2   -1    0    0    0  501  0.00000000000E+00  0.00000000000E+00 -0.12383280391E+04  0.12383280391E+04  0.25500000920E-02 0. -1.
    10030    2    1    2    0    0  0.00000000000E+00  0.00000000000E+00  0.47479664068E+03  0.29514527188E+04  0.29130124101E+04 0.  0.
        3    1    3    3  502    0 -0.11012695542E+04 -0.29793747625E+03 -0.68000522992E+03  0.13281447563E+04  0.10100000352E+00 0. -1.
       -3    1    3    3    0  502  0.11012695542E+04  0.29793747625E+03  0.11548018706E+04  0.16233079625E+04  0.10100000352E+00 0.  1.
</event>
<event>
 5   0  0.1550278E-06  0.2901093E+04  0.7818609E-02  0.8272552E-01
       -1   -1    0    0    0  501  0.00000000000E+00  0.00000000000E+00  0.85181487877E+03  0.85181487879E+03  0.50400001928E-02 0. -1.
        1   -1    0    0  501    0  0.00000000000E+00  0.00000000000E+00 -0.24701195651E+04  0.24701195651E+04  0.50400001928E-02 0.  1.
    10030    2    1    2    0    0  0.00000000000E+00  0.00000000000E+00 -0.16183046864E+04  0.33219344439E+04  0.29010926203E+04 0.  0.
        2    1    3    3  502    0 -0.97931614819E+03  0.89176565956E+03 -0.13193821232E+03  0.13310573998E+04  0.25500000920E-02 0. -1.
       -2    1    3    3    0  502  0.97931614819E+03 -0.89176565956E+03 -0.14863664740E+04  0.19908770441E+04  0.25500000920E-02 0.  1.
</event>
<event>
 5   0  0.4162450E-06  0.2894103E+04  0.7818609E-02  0.8274634E-01
       -2   -1    0    0    0  501  0.00000000000E+00  0.00000000000E+00  0.76982510546E+03  0.76982510547E+03  0.25500000920E-02 0.  1.
        2   -1    0    0  501    0  0.00000000000E+00  0.00000000000E+00 -0.27200434147E+04  0.27200434147E+04  0.25500000920E-02 0. -1.
    10030    2    1    2    0    0  0.00000000000E+00  0.00000000000E+00 -0.19502183093E+04  0.34898685202E+04  0.28941027685E+04 0.  0.
        2    1    3    3  502    0 -0.34290092371E+03  0.96285586032E+03  0.26010398306E+03  0.10546689212E+04  0.25500000920E-02 0.  1.
       -2    1    3    3    0  502  0.34290092371E+03 -0.96285586032E+03 -0.22103222923E+04  0.24351995991E+04  0.25500000920E-02 0. -1.
</event>
<event>
 5   0  0.4115143E-06  0.2893682E+04  0.7818609E-02  0.8274760E-01
       -2   -1    0    0    0  501  0.00000000000E+00  0.00000000000E+00  0.10572596485E+04  0.10572596485E+04  0.25500000920E-02 0. -1.
        2   -1    0    0  501    0  0.00000000000E+00  0.00000000000E+00 -0.19799755319E+04  0.19799755319E+04  0.25500000920E-02 0.  1.
    10030    2    1    2    0    0  0.00000000000E+00  0.00000000000E+00 -0.92271588347E+03  0.30372351804E+04  0.28936815546E+04 0.  0.
        1    1    3    3  502    0 -0.75987395898E+03 -0.12292049923E+04 -0.53553858011E+03  0.15411537618E+04  0.50400001928E-02 0. -1.
       -1    1    3    3    0  502  0.75987395898E+03  0.12292049923E+04 -0.38717730337E+03  0.14960814186E+04  0.50400001928E-02 0.  1.
</event>
<event>
 5   0  0.1543678E-06  0.2868720E+04  0.7818609E-02  0.8282246E-01
        1   -1    0    0  501    0  0.00000000000E+00  0.00000000000E+00  0.18038405637E+04  0.18038405637E+04  0.50400001928E-02 0. -1.
       -1   -1    0    0    0  501  0.00000000000E+00  0.00000000000E+00 -0.11405599482E+04  0.11405599482E+04  0.50400001928E-02 0.  1.
    10030    2    1    2    0    0  0.00000000000E+00  0.00000000000E+00  0.66328061555E+03  0.29444005119E+04  0.28687197841E+04 0.  0.
        3    1    3    3  502    0  0.11846303240E+04  0.20615802225E+03 -0.47099920463E+03  0.12913908764E+04  0.10100000352E+00 0.  1.
       -3    1    3    3    0  502 -0.11846303240E+04 -0.20615802225E+03  0.11342798202E+04  0.16530096356E+04  0.10100000352E+00 0. -1.
</event>
<event>
 5   0  0.1580212E-06  0.2910275E+04  0.7818609E-02  0.8269827E-01
       -1   -1    0    0    0  501  0.00000000000E+00  0.00000000000E+00  0.11580247418E+04  0.11580247418E+04  0.50400001928E-02 0. -1.
        1   -1    0    0  501    0  0.00000000000E+00  0.00000000000E+00 -0.18284802245E+04  0.18284802245E+04  0.50400001928E-02 0.  1.
    10030    2    1    2    0    0  0.00000000000E+00  0.00000000000E+00 -0.67045548267E+03  0.29865049663E+04  0.29102751346E+04 0.  0.
        4    1    3    3  502    0 -0.29326078162E+03 -0.21217146933E+02  0.11272225915E+04  0.11649396710E+04  0.12699999809E+01 0. -1.
       -4    1    3    3    0  502  0.29326078162E+03  0.21217146933E+02 -0.17976780742E+04  0.18215652952E+04  0.12699999809E+01 0.  1.
</event>
<event>
 5   0  0.4162450E-06  0.2914379E+04  0.7818609E-02  0.8268612E-01
        2   -1    0    0  501    0  0.00000000000E+00  0.00000000000E+00  0.15610521286E+04  0.15610521286E+04  0.25500000920E-02 0.  1.
       -2   -1    0    0    0  501  0.00000000000E+00  0.00000000000E+00 -0.13602370592E+04  0.13602370592E+04  0.25500000920E-02 0. -1.
    10030    2    1    2    0    0  0.00000000000E+00  0.00000000000E+00  0.20081506943E+03  0.29212891879E+04  0.29143788064E+04 0.  0.
        2    1    3    3  502    0  0.61112432306E+03  0.36385507956E+03  0.13752476772E+04  0.15482795712E+04  0.25500000920E-02 0.  1.
       -2    1    3    3    0  502 -0.61112432306E+03 -0.36385507956E+03 -0.11744326077E+04  0.13730096166E+04  0.25500000920E-02 0. -1.
</event>
<event>
 5   0  0.4224163E-06  0.2902441E+04  0.7818609E-02  0.8272152E-01
        2   -1    0    0  501    0  0.00000000000E+00  0.00000000000E+00  0.20113996116E+04  0.20113996116E+04  0.25500000920E-02 0.  1.
       -2   -1    0    0    0  501  0.00000000000E+00  0.00000000000E+00 -0.10470525209E+04  0.10470525209E+04  0.25500000920E-02 0. -1.
    10030    2    1    2    0    0  0.00000000000E+00  0.00000000000E+00  0.96434709067E+03  0.30584521325E+04  0.29024410650E+04 0.  0.
        4    1    3    3  502    0 -0.53535902419E+03  0.12549101883E+04  0.10033606101E+04  0.16935592674E+04  0.12699999809E+01 0.  1.
       -4    1    3    3    0  502  0.53535902419E+03 -0.12549101883E+04 -0.39013519396E+02  0.13648928651E+04  0.12699999809E+01 0. -1.
</event>
<event>
 5   0  0.4187518E-06  0.2900667E+04  0.7818609E-02  0.8272679E-01
       -2   -1    0    0    0  501  0.00000000000E+00  0.00000000000E+00  0.73574959974E+03  0.73574959975E+03  0.25500000920E-02 0.  1.
        2   -1    0    0  501    0  0.00000000000E+00  0.00000000000E+00 -0.28589452472E+04  0.28589452472E+04  0.25500000920E-02 0. -1.
    10030    2    1    2    0    0  0.00000000000E+00  0.00000000000E+00 -0.21231956475E+04  0.35946948470E+04  0.29006673862E+04 0.  0.
        3    1    3    3  502    0  0.14136305492E+03  0.95997937613E+03  0.27423754709E+03  0.10083402989E+04  0.10100000352E+00 0.  1.
       -3    1    3    3    0  502 -0.14136305492E+03 -0.95997937613E+03 -0.23974331946E+04  0.25863545481E+04  0.10100000352E+00 0. -1.
</event>
<event>
 5   0  0.4148677E-06  0.2909198E+04  0.7818609E-02  0.8270146E-01
       -2   -1    0    0    0  501  0.00000000000E+00  0.00000000000E+00  0.16906562872E+04  0.16906562872E+04  0.25500000920E-02 0. -1.
        2   -1    0    0  501    0  0.00000000000E+00  0.00000000000E+00 -0.12515010487E+04  0.12515010487E+04  0.25500000920E-02 0.  1.
    10030    2    1    2    0    0  0.00000000000E+00  0.00000000000E+00  0.43915523851E+03  0.29421573360E+04  0.29091979077E+04 0.  0.
        5    1    3    3  502    0  0.26747819833E+03 -0.41729947938E+03 -0.11634509386E+04  0.12646436726E+04  0.46999998093E+01 0.  1.
       -5    1    3    3    0  502 -0.26747819833E+03  0.41729947938E+03  0.16026061771E+04  0.16775136634E+04  0.46999998093E+01 0. -1.
</event>
<event>
 5   0  0.1580212E-06  0.2892821E+04  0.7818609E-02  0.8275017E-01
       -1   -1    0    0    0  501  0.00000000000E+00  0.00000000000E+00  0.17335832063E+04  0.17335832063E+04  0.50400001928E-02 0. -1.
        1   -1    0    0  501    0  0.00000000000E+00  0.00000000000E+00 -0.12068088684E+04  0.12068088684E+04  0.50400001928E-02 0.  1.
    10030    2    1    2    0    0  0.00000000000E+00  0.00000000000E+00  0.52677433793E+03  0.29403920747E+04  0.28928211749E+04 0.  0.
        4    1    3    3  502    0  0.96929263639E+03  0.83991836737E+03 -0.41627216017E+03  0.13484343525E+04  0.12699999809E+01 0.  1.
       -4    1    3    3    0  502 -0.96929263639E+03 -0.83991836737E+03  0.94304649810E+03  0.15919577222E+04  0.12699999809E+01 0. -1.
</event>
<event>
 5   0  0.1511126E-06  0.2903581E+04  0.7818609E-02  0.8271813E-01
       -1   -1    0    0    0  501  0.00000000000E+00  0.00000000000E+00  0.12246510839E+04  0.12246510839E+04  0.50400001928E-02 0. -1.
        1   -1    0    0  501    0  0.00000000000E+00  0.00000000000E+00 -0.17210583717E+04  0.17210583717E+04  0.50400001928E-02 0.  1.
    10030    2    1    2    0    0  0.00000000000E+00  0.00000000000E+00 -0.49640728782E+03  0.29457094557E+04  0.29035812373E+04 0.  0.
        5    1    3    3  502    0  0.46539072010E+03  0.58218011234E+03 -0.15121336102E+04  0.16858506312E+04  0.46999998093E+01 0.  1.
       -5    1    3    3    0  502 -0.46539072010E+03 -0.58218011234E+03  0.10157263224E+04  0.12598588245E+04  0.46999998093E+01 0. -1.
</event>
<event>
 5   0  0.1602873E-06  0.2992064E+04  0.7818609E-02  0.8246001E-01
        1   -1    0    0  501    0  0.00000000000E+00  0.00000000000E+00  0.20705065953E+04  0.20705065953E+04  0.50400001928E-02 0.  1.
       -1   -1    0    0    0  501  0.00000000000E+00  0.00000000000E+00 -0.10809489630E+04  0.10809489630E+04  0.50400001928E-02 0. -1.
    10030    2    1    2    0    0  0.00000000000E+00  0.00000000000E+00  0.98955763227E+03  0.31514555583E+04  0.29920641417E+04 0.  0.
        1    1    3    3  502    0 -0.83162889037E+03  0.68040907374E+03  0.15911674714E+04  0.19199940211E+04  0.50400001928E-02 0.  1.
       -1    1    3    3    0  502  0.83162889037E+03 -0.68040907374E+03 -0.60160983917E+03  0.12314615372E+04  0.50400001928E-02 0. -1.
</event>
<event>
 5   0  0.4224163E-06  0.2903960E+04  0.7818609E-02  0.8271700E-01
        2   -1    0    0  501    0  0.00000000000E+00  0.00000000000E+00  0.21243106979E+04  0.21243106979E+04  0.25500000920E-02 0. -1.
       -2   -1    0    0    0  501  0.00000000000E+00  0.00000000000E+00 -0.99243740700E+03  0.99243740701E+03  0.25500000920E-02 0.  1.
    10030    2    1    2    0    0  0.00000000000E+00  0.00000000000E+00  0.11318732909E+04  0.31167481049E+04  0.29039596421E+04 0.  0.
        4    1    3    3  502    0 -0.30643986645E+03  0.20346550177E+03 -0.94160072616E+03  0.10108991753E+04  0.12699999809E+01 0.  1.
       -4    1    3    3    0  502  0.30643986645E+03 -0.20346550177E+03  0.20734740170E+04  0.21058489296E+04  0.12699999809E+01 0. -1.
</event>
<event>
 5   0  0.4224163E-06  0.2904581E+04  0.7818609E-02  0.8271516E-01
        2   -1    0    0  501    0  0.00000000000E+00  0.00000000000E+00  0.11341093684E+04  0.11341093684E+04  0.25500000920E-02 0.  1.
       -2   -1    0    0    0  501  0.00000000000E+00  0.00000000000E+00 -0.18597387057E+04  0.18597387057E+04  0.25500000920E-02 0. -1.
    10030    2    1    2    0    0  0.00000000000E+00  0.00000000000E+00 -0.72562933735E+03  0.29938480741E+04  0.29045805817E+04 0.  0.
        4    1    3    3  502    0  0.11994290078E+04  0.31995775449E+03 -0.11397323273E+04  0.16852282635E+04  0.12699999809E+01 0. -1.
       -4    1    3    3    0  502 -0.11994290078E+04 -0.31995775449E+03  0.41410298995E+03  0.13086198106E+04  0.12699999809E+01 0.  1.
</event>
<event>
 5   0  0.4162450E-06  0.2898773E+04  0.7818609E-02  0.8273243E-01
        2   -1    0    0  501    0  0.00000000000E+00  0.00000000000E+00  0.21210305968E+04  0.21210305968E+04  0.25500000920E-02 0. -1.
       -2   -1    0    0    0  501  0.00000000000E+00  0.00000000000E+00 -0.99042451531E+03  0.99042451531E+03  0.25500000920E-02 0.  1.
    10030    2    1    2    0    0  0.00000000000E+00  0.00000000000E+00  0.11306060815E+04  0.31114551121E+04  0.28987726374E+04 0.  0.
        2    1    3    3  502    0  0.29682806237E+03 -0.37183810749E+03 -0.90421444459E+03  0.10217505755E+04  0.25500000920E-02 0.  1.
       -2    1    3    3    0  502 -0.29682806237E+03  0.37183810749E+03  0.20348205261E+04  0.20897045366E+04  0.25500000920E-02 0. -1.
</event>
<event>
 5   0  0.1550278E-06  0.2989196E+04  0.7818609E-02  0.8246823E-01
        1   -1    0    0  501    0  0.00000000000E+00  0.00000000000E+00  0.14407299489E+04  0.14407299489E+04  0.50400001928E-02 0. -1.
       -1   -1    0    0    0  501  0.00000000000E+00  0.00000000000E+00 -0.15504797652E+04  0.15504797652E+04  0.50400001928E-02 0.  1.
    10030    2    1    2    0    0  0.00000000000E+00  0.00000000000E+00 -0.10974981625E+03  0.29912097141E+04  0.29891956329E+04 0.  0.
        2    1    3    3  502    0 -0.45271155010E+03  0.43223483035E+03 -0.14130100520E+04  0.15454358942E+04  0.25500000920E-02 0.  1.
       -2    1    3    3    0  502  0.45271155010E+03 -0.43223483035E+03  0.13032602357E+04  0.14457738199E+04  0.25500000920E-02 0. -1.
</event>
<event>
 5   0  0.1543678E-06  0.2891762E+04  0.7818609E-02  0.8275333E-01
        1   -1    0    0  501    0  0.00000000000E+00  0.00000000000E+00  0.21528365896E+04  0.21528365896E+04  0.50400001928E-02 0. -1.
       -1   -1    0    0    0  501  0.00000000000E+00  0.00000000000E+00 -0.97107793880E+03  0.97107793882E+03  0.50400001928E-02 0.  1.
    10030    2    1    2    0    0  0.00000000000E+00  0.00000000000E+00  0.11817586508E+04  0.31239145284E+04  0.28917621742E+04 0.  0.
        3    1    3    3  502    0 -0.32990291138E+03  0.13993070456E+04  0.42465657975E+03  0.14990761688E+04  0.10100000352E+00 0. -1.
       -3    1    3    3    0  502  0.32990291138E+03 -0.13993070456E+04  0.75710207106E+03  0.16248383597E+04  0.10100000352E+00 0.  1.
</event>
<event>
 5   0  0.4148677E-06  0.2894162E+04  0.7818609E-02  0.8274617E-01
        2   -1    0    0  501    0  0.00000000000E+00  0.00000000000E+00  0.20200608548E+04  0.20200608548E+04  0.25500000920E-02 0. -1.
       -2   -1    0    0    0  501  0.00000000000E+00  0.00000000000E+00 -0.10366236163E+04  0.10366236163E+04  0.25500000920E-02 0.  1.
    10030    2    1    2    0    0  0.00000000000E+00  0.00000000000E+00  0.98343723854E+03  0.30566844711E+04  0.28941615632E+04 0.  0.
        5    1    3    3  502    0 -0.37292662192E+02  0.92096573336E+03  0.16699129457E+04  0.19074066060E+04  0.46999998093E+01 0. -1.
       -5    1    3    3    0  502  0.37292662192E+02 -0.92096573336E+03 -0.68647570712E+03  0.11492778651E+04  0.46999998093E+01 0.  1.
</event>
<event>
 5   0  0.4115143E-06  0.2886387E+04  0.7818609E-02  0.8276939E-01
        2   -1    0    0  501    0  0.00000000000E+00  0.00000000000E+00  0.24204806704E+04  0.24204806704E+04  0.25500000920E-02 0.  1.
       -2   -1    0    0    0  501  0.00000000000E+00  0.00000000000E+00 -0.86049317958E+03  0.86049317959E+03  0.25500000920E-02 0. -1.
    10030    2    1    2    0    0  0.00000000000E+00  0.00000000000E+00  0.15599874908E+04  0.32809738500E+04  0.28863867435E+04 0.  0.
        1    1    3    3  502    0 -0.14546149222E+03 -0.11685941857E+04  0.17283336007E+04  0.20913891202E+04  0.50400001928E-02 0.  1.
       -1    1    3    3    0  502  0.14546149222E+03  0.11685941857E+04 -0.16834610988E+03  0.11895847298E+04  0.50400001928E-02 0. -1.
</event>
<event>
 5   0  0.1580212E-06  0.2644081E+04  0.7818609E-02  0.8353380E-01
        1   -1    0    0  501    0  0.00000000000E+00  0.00000000000E+00  0.21923219392E+04  0.21923219392E+04  0.50400001928E-02 0.  1.
       -1   -1    0    0    0  501  0.00000000000E+00  0.00000000000E+00 -0.79723274868E+03  0.79723274869E+03  0.50400001928E-02 0. -1.
    10030    2    1    2    0    0  0.00000000000E+00  0.00000000000E+00  0.13950891905E+04  0.29895546879E+04  0.26440808200E+04 0.  0.
        4    1    3    3  502    0 -0.44351633417E+03 -0.12136665274E+04  0.10135149390E+04  0.16422263312E+04  0.12699999809E+01 0.  1.
       -4    1    3    3    0  502  0.44351633417E+03  0.12136665274E+04  0.38157425151E+03  0.13473283567E+04  0.12699999809E+01 0. -1.
</event>
<event>
 5   0  0.1580212E-06  0.2901138E+04  0.7818609E-02  0.8272539E-01
       -1   -1    0    0    0  501  0.00000000000E+00  0.00000000000E+00  0.11852419481E+04  0.11852419482E+04  0.50400001928E-02 0.  1.
        1   -1    0    0  501    0  0.00000000000E+00  0.00000000000E+00 -0.17752918470E+04  0.17752918470E+04  0.50400001928E-02 0. -1.
    10030    2    1    2    0    0  0.00000000000E+00  0.00000000000E+00 -0.59004989885E+03  0.29605337952E+04  0.29011379611E+04 0.  0.
        4    1    3    3  502    0 -0.10685011826E+04  0.83950616479E+03 -0.81304293942E+03  0.15835105974E+04  0.12699999809E+01 0. -1.
       -4    1    3    3    0  502  0.10685011826E+04 -0.83950616479E+03  0.22299304057E+03  0.13770231977E+04  0.12699999809E+01 0.  1.
</event>
<event>
 5   0  0.1511126E-06  0.2881092E+04  0.7818609E-02  0.8278526E-01
        1   -1    0    0  501    0  0.00000000000E+00  0.00000000000E+00  0.15151047894E+04  0.15151047894E+04  0.50400001928E-02 0.  1.
       -1   -1    0    0    0  501  0.00000000000E+00  0.00000000000E+00 -0.13696558009E+04  0.13696558009E+04  0.50400001928E-02 0. -1.
    10030    2    1    2    0    0  0.00000000000E+00  0.00000000000E+00  0.14544898844E+03  0.28847605903E+04  0.28810915042E+04 0.  0.
        5    1    3    3  502    0  0.12229095031E+04  0.69895319258E+03  0.37494784449E+03  0.14576183294E+04  0.46999998093E+01 0. -1.
       -5    1    3    3    0  502 -0.12229095031E+04 -0.69895319258E+03 -0.22949885605E+03  0.14271422610E+04  0.46999998093E+01 0.  1.
</event>
<event>
 5   0  0.4224163E-06  0.2805288E+04  0.7818609E-02  0.8301629E-01
       -2   -1    0    0    0  501  0.00000000000E+00  0.00000000000E+00  0.87807642390E+03  0.87807642391E+03  0.25500000920E-02 0.  1.
        2   -1    0    0  501    0  0.00000000000E+00  0.00000000000E+00 -0.22405905824E+04  0.22405905824E+04  0.25500000920E-02 0. -1.
    10030    2    1    2    0    0  0.00000000000E+00  0.00000000000E+00 -0.13625141585E+04  0.31186670063E+04  0.28052876972E+04 0.  0.
        4    1    3    3  502    0  0.26218081220E+03  0.12823194555E+04 -0.12061312880E+03  0.13143938162E+04  0.12699999809E+01 0.  1.
       -4    1    3    3    0  502 -0.26218081220E+03 -0.12823194555E+04 -0.12419010297E+04  0.18042731902E+04  0.12699999809E+01 0. -1.
</event>
<event>
 5   0  0.1360125E-06  0.2940257E+04  0.7818609E-02  0.8261000E-01
        3   -1    0    0  501    0  0.00000000000E+00  0.00000000000E+00  0.11662051289E+04  0.11662051333E+04  0.10100000352E+00 0. -1.
       -3   -1    0    0    0  501  0.00000000000E+00  0.00000000000E+00 -0.18532574218E+04  0.18532574245E+04  0.10100000352E+00 0.  1.
    10030    2    1    2    0    0  0.00000000000E+00  0.00000000000E+00 -0.68705229285E+03  0.30194625579E+04  0.29402573502E+04 0.  0.
        2    1    3    3  502    0  0.36227722885E+03 -0.55096252165E+03 -0.16928751858E+04  0.18167638497E+04  0.25500000920E-02 0.  1.
       -2    1    3    3    0  502 -0.36227722885E+03  0.55096252165E+03  0.10058228929E+04  0.12026987082E+04  0.25500000920E-02 0. -1.
</event>
<event>
 5   0  0.4187518E-06  0.2649462E+04  0.7818609E-02  0.8351591E-01
       -2   -1    0    0    0  501  0.00000000000E+00  0.00000000000E+00  0.14126843815E+04  0.14126843815E+04  0.25500000920E-02 0. -1.
        2   -1    0    0  501    0  0.00000000000E+00  0.00000000000E+00 -0.12422538413E+04  0.12422538413E+04  0.25500000920E-02 0.  1.
    10030    2    1    2    0    0  0.00000000000E+00  0.00000000000E+00  0.17043054014E+03  0.26549382228E+04  0.26494622847E+04 0.  0.
        3    1    3    3  502    0 -0.25691830967E+03 -0.44364821735E+02  0.13867212062E+04  0.14110177069E+04  0.10100000352E+00 0. -1.
       -3    1    3    3    0  502  0.25691830967E+03  0.44364821735E+02 -0.12162906661E+04  0.12439205159E+04  0.10100000352E+00 0.  1.
</event>
<event>
 5   0  0.4187518E-06  0.2838217E+04  0.7818609E-02  0.8291501E-01
       -2   -1    0    0    0  501  0.00000000000E+00  0.00000000000E+00  0.10087006806E+04  0.10087006806E+04  0.25500000920E-02 0. -1.
        2   -1    0    0  501    0  0.00000000000E+00  0.00000000000E+00 -0.19964982349E+04  0.19964982350E+04  0.25500000920E-02 0.  1.
    10030    2    1    2    0    0  0.00000000000E+00  0.00000000000E+00 -0.98779755440E+03  0.30051989155E+04  0.28382171364E+04 0.  0.
        3    1    3    3  502    0 -0.10012405650E+04 -0.24177031343E+02 -0.15584354682E+04  0.18525086550E+04  0.10100000352E+00 0.  1.
       -3    1    3    3    0  502  0.10012405650E+04  0.24177031343E+02  0.57063791382E+03  0.11526902606E+04  0.10100000352E+00 0. -1.
</event>
<event>
 5   0  0.1511126E-06  0.2653486E+04  0.7818609E-02  0.8350257E-01
       -1   -1    0    0    0  501  0.00000000000E+00  0.00000000000E+00  0.13453027012E+04  0.13453027012E+04  0.50400001928E-02 0. -1.
        1   -1    0    0  501    0  0.00000000000E+00  0.00000000000E+00 -0.13084389750E+04  0.13084389750E+04  0.50400001928E-02 0.  1.
    10030    2    1    2    0    0  0.00000000000E+00  0.00000000000E+00  0.36863726138E+02  0.26537416762E+04  0.26534856227E+04 0.  0.
        5    1    3    3  502    0  0.63247509580E+03 -0.42915951138E+03  0.11029818807E+04  0.13419365678E+04  0.46999998093E+01 0. -1.
       -5    1    3    3    0  502 -0.63247509580E+03  0.42915951138E+03 -0.10661181545E+04  0.13118051084E+04  0.46999998093E+01 0.  1.
</event>
<event>
 5   0  0.4187518E-06  0.2894624E+04  0.7818609E-02  0.8274479E-01
        2   -1    0    0  501    0  0.00000000000E+00  0.00000000000E+00  0.11313483284E+04  0.11313483284E+04  0.25500000920E-02 0.  1.
       -2   -1    0    0    0  501  0.00000000000E+00  0.00000000000E+00 -0.18515184339E+04  0.18515184339E+04  0.25500000920E-02 0. -1.
    10030    2    1    2    0    0  0.00000000000E+00  0.00000000000E+00 -0.72017010549E+03  0.29828667622E+04  0.28946241795E+04 0.  0.
        3    1    3    3  502    0 -0.10265806928E+03 -0.14642649584E+03  0.11199198861E+04  0.11341075607E+04  0.10100000352E+00 0.  1.
       -3    1    3    3    0  502  0.10265806928E+03  0.14642649584E+03 -0.18400899916E+04  0.18487592015E+04  0.10100000352E+00 0. -1.
</event>
<event>
 5   0  0.4162450E-06  0.2913223E+04  0.7818609E-02  0.8268954E-01
        2   -1    0    0  501    0  0.00000000000E+00  0.00000000000E+00  0.24055746885E+04  0.24055746885E+04  0.25500000920E-02 0.  1.
       -2   -1    0    0    0  501  0.00000000000E+00  0.00000000000E+00 -0.88200030225E+03  0.88200030225E+03  0.25500000920E-02 0. -1.
    10030    2    1    2    0    0  0.00000000000E+00  0.00000000000E+00  0.15235743862E+04  0.32875749907E+04  0.29132233710E+04 0.  0.
        2    1    3    3  502    0 -0.12439915050E+04  0.27557505941E+03  0.15583690023E+04  0.20129506762E+04  0.25500000920E-02 0.  1.
       -2    1    3    3    0  502  0.12439915050E+04 -0.27557505941E+03 -0.34794616010E+02  0.12746243145E+04  0.25500000920E-02 0. -1.
</event>
<event>
 5   0  0.4115143E-06  0.2902840E+04  0.7818609E-02  0.8272033E-01
        2   -1    0    0  501    0  0.00000000000E+00  0.00000000000E+00  0.16861156094E+04  0.16861156094E+04  0.25500000920E-02 0.  1.
       -2   -1    0    0    0  501  0.00000000000E+00  0.00000000000E+00 -0.12493920014E+04  0.12493920014E+04  0.25500000920E-02 0. -1.
    10030    2    1    2    0    0  0.00000000000E+00  0.00000000000E+00  0.43672360794E+03  0.29355076108E+04  0.29028395449E+04 0.  0.
        1    1    3    3  502    0  0.56641822708E+03 -0.35377974467E+03 -0.10847946900E+04  0.12738795999E+04  0.50400001928E-02 0. -1.
       -1    1    3    3    0  502 -0.56641822708E+03  0.35377974467E+03  0.15215182979E+04  0.16616280109E+04  0.50400001928E-02 0.  1.
</event>
<event>
 5   0  0.1543678E-06  0.2876776E+04  0.7818609E-02  0.8279821E-01
        1   -1    0    0  501    0  0.00000000000E+00  0.00000000000E+00  0.21677163503E+04  0.21677163504E+04  0.50400001928E-02 0.  1.
       -1   -1    0    0    0  501  0.00000000000E+00  0.00000000000E+00 -0.95444249006E+03  0.95444249007E+03  0.50400001928E-02 0. -1.
    10030    2    1    2    0    0  0.00000000000E+00  0.00000000000E+00  0.12132738603E+04  0.31221588404E+04  0.28767763842E+04 0.  0.
        3    1    3    3  502    0 -0.12520112572E+03  0.31999550204E+03 -0.90924394305E+03  0.97200668793E+03  0.10100000352E+00 0. -1.
       -3    1    3    3    0  502  0.12520112572E+03 -0.31999550204E+03  0.21225178033E+04  0.21501521525E+04  0.10100000352E+00 0.  1.
</event>
<event>
 5   0  0.4224163E-06  0.2894735E+04  0.7818609E-02  0.8274446E-01
       -2   -1    0    0    0  501  0.00000000000E+00  0.00000000000E+00  0.96148477182E+03  0.96148477182E+03  0.25500000920E-02 0. -1.
        2   -1    0    0  501    0  0.00000000000E+00  0.00000000000E+00 -0.21787892531E+04  0.21787892531E+04  0.25500000920E-02 0.  1.
    10030    2    1    2    0    0  0.00000000000E+00  0.00000000000E+00 -0.12173044813E+04  0.31402740250E+04  0.28947350054E+04 0.  0.
        4    1    3    3  502    0  0.37836348231E+02 -0.74080755582E+03  0.73960538637E+03  0.10474947086E+04  0.12699999809E+01 0. -1.
       -4    1    3    3    0  502 -0.37836348231E+02  0.74080755582E+03 -0.19569098677E+04  0.20927793164E+04  0.12699999809E+01 0.  1.
</event>
<event>
 5   0  0.4224163E-06  0.2835634E+04  0.7818609E-02  0.8292290E-01
        2   -1    0    0  501    0  0.00000000000E+00  0.00000000000E+00  0.17163699995E+04  0.17163699995E+04  0.25500000920E-02 0. -1.
       -2   -1    0    0    0  501  0.00000000000E+00  0.00000000000E+00 -0.11711959594E+04  0.11711959594E+04  0.25500000920E-02 0.  1.
    10030    2    1    2    0    0  0.00000000000E+00  0.00000000000E+00  0.54517404013E+03  0.28875659589E+04  0.28356343969E+04 0.  0.
        4    1    3    3  502    0 -0.89856437395E+03 -0.57449051297E+03  0.12239051821E+04  0.16233923713E+04  0.12699999809E+01 0. -1.
       -4    1    3    3    0  502  0.89856437395E+03  0.57449051297E+03 -0.67873114197E+03  0.12641735876E+04  0.12699999809E+01 0.  1.
</event>
<event>
 5   0  0.4148677E-06  0.2898132E+04  0.7818609E-02  0.8273434E-01
       -2   -1    0    0    0  501  0.00000000000E+00  0.00000000000E+00  0.15685710367E+04  0.15685710367E+04  0.25500000920E-02 0. -1.
        2   -1    0    0  501    0  0.00000000000E+00  0.00000000000E+00 -0.13386653191E+04  0.13386653191E+04  0.25500000920E-02 0.  1.
    10030    2    1    2    0    0  0.00000000000E+00  0.00000000000E+00  0.22990571760E+03  0.29072363558E+04  0.28981315687E+04 0.  0.
        5    1    3    3  502    0 -0.11604592182E+04 -0.15341511535E+02 -0.75545305891E+03  0.13847860388E+04  0.46999998093E+01 0.  1.
       -5    1    3    3    0  502  0.11604592182E+04  0.15341511535E+02  0.98535877651E+03  0.15224503170E+04  0.46999998093E+01 0. -1.
</event>
<event>
 5   0  0.1580212E-06  0.2835937E+04  0.7818609E-02  0.8292197E-01
       -1   -1    0    0    0  501  0.00000000000E+00  0.00000000000E+00  0.17637469693E+04  0.17637469693E+04  0.50400001928E-02 0. -1.
        1   -1    0    0  501    0  0.00000000000E+00  0.00000000000E+00 -0.11399794580E+04  0.11399794581E+04  0.50400001928E-02 0.  1.
    10030    2    1    2    0    0  0.00000000000E+00  0.00000000000E+00  0.62376751124E+03  0.29037264274E+04  0.28359374564E+04 0.  0.
        4    1    3    3  502    0 -0.27729763295E+03  0.16406124124E+03 -0.11020019749E+04  0.11481376371E+04  0.12699999809E+01 0.  1.
       -4    1    3    3    0  502  0.27729763295E+03 -0.16406124124E+03  0.17257694862E+04  0.17555887902E+04  0.12699999809E+01 0. -1.
</event>
<event>
 5   0  0.1550278E-06  0.2847214E+04  0.7818609E-02  0.8288758E-01
       -1   -1    0    0    0  501  0.00000000000E+00  0.00000000000E+00  0.22727710714E+04  0.22727710714E+04  0.50400001928E-02 0. -1.
        1   -1    0    0  501    0  0.00000000000E+00  0.00000000000E+00 -0.89171183548E+03  0.89171183550E+03  0.50400001928E-02 0.  1.
    10030    2    1    2    0    0  0.00000000000E+00  0.00000000000E+00  0.13810592359E+04  0.31644829069E+04  0.28472139812E+04 0.  0.
        2    1    3    3  502    0  0.30168250091E+03  0.51730697056E+03 -0.74491228752E+03  0.95577881816E+03  0.25500000920E-02 0.  1.
       -2    1    3    3    0  502 -0.30168250091E+03 -0.51730697056E+03  0.21259715234E+04  0.22087040887E+04  0.25500000920E-02 0. -1.
</event>
<event>
 5   0  0.4187518E-06  0.2908189E+04  0.7818609E-02  0.8270445E-01
        2   -1    0    0  501    0  0.00000000000E+00  0.00000000000E+00  0.18417947367E+04  0.18417947367E+04  0.25500000920E-02 0.  1.
       -2   -1    0    0    0  501  0.00000000000E+00  0.00000000000E+00 -0.11480054575E+04  0.11480054575E+04  0.25500000920E-02 0. -1.
    10030    2    1    2    0    0  0.00000000000E+00  0.00000000000E+00  0.69378927921E+03  0.29898001942E+04  0.29081887210E+04 0.  0.
        3    1    3    3  502    0  0.49194188938E+03 -0.66382469581E+03 -0.88322875753E+03  0.12094474348E+04  0.10100000352E+00 0. -1.
       -3    1    3    3    0  502 -0.49194188938E+03  0.66382469581E+03  0.15770180367E+04  0.17803527593E+04  0.10100000352E+00 0.  1.
</event>
<event>
 5   0  0.4115143E-06  0.2918525E+04  0.7818609E-02  0.8267387E-01
        2   -1    0    0  501    0  0.00000000000E+00  0.00000000000E+00  0.91803387220E+03  0.91803387220E+03  0.25500000920E-02 0. -1.
       -2   -1    0    0    0  501  0.00000000000E+00  0.00000000000E+00 -0.23195728856E+04  0.23195728856E+04  0.25500000920E-02 0.  1.
    10030    2    1    2    0    0  0.00000000000E+00  0.00000000000E+00 -0.14015390134E+04  0.32376067578E+04  0.29185246122E+04 0.  0.
        1    1    3    3  502    0 -0.41156457432E+03  0.13913710059E+04 -0.87315453741E+03  0.16934277431E+04  0.50400001928E-02 0.  1.
       -1    1    3    3    0  502  0.41156457432E+03 -0.13913710059E+04 -0.52838447596E+03  0.15441790147E+04  0.50400001928E-02 0. -1.
</event>
<event>
 5   0  0.4224163E-06  0.2916906E+04  0.7818609E-02  0.8267865E-01
        2   -1    0    0  501    0  0.00000000000E+00  0.00000000000E+00  0.11920300698E+04  0.11920300698E+04  0.25500000920E-02 0. -1.
       -2   -1    0    0    0  501  0.00000000000E+00  0.00000000000E+00 -0.17844222727E+04  0.17844222727E+04  0.25500000920E-02 0.  1.
    10030    2    1    2    0    0  0.00000000000E+00  0.00000000000E+00 -0.59239220291E+03  0.29764523424E+04  0.29169058992E+04 0.  0.
        4    1    3    3  502    0  0.10601335360E+04  0.87264739410E+03 -0.79784860542E+03  0.15880681971E+04  0.12699999809E+01 0.  1.
       -4    1    3    3    0  502 -0.10601335360E+04 -0.87264739410E+03  0.20545640251E+03  0.13883841453E+04  0.12699999809E+01 0. -1.
</event>
<event>
 5   0  0.1543678E-06  0.2911214E+04  0.7818609E-02  0.8269549E-01
        1   -1    0    0  501    0  0.00000000000E+00  0.00000000000E+00  0.17330602673E+04  0.17330602673E+04  0.50400001928E-02 0. -1.
       -1   -1    0    0    0  501  0.00000000000E+00  0.00000000000E+00 -0.12225725553E+04  0.12225725554E+04  0.50400001928E-02 0.  1.
    10030    2    1    2    0    0  0.00000000000E+00  0.00000000000E+00  0.51048771195E+03  0.29556328227E+04  0.29112141244E+04 0.  0.
        3    1    3    3  502    0 -0.16136455455E+03 -0.35350784976E+03  0.16794249595E+04  0.17237965437E+04  0.10100000352E+00 0. -1.
       -3    1    3    3    0  502  0.16136455455E+03  0.35350784976E+03 -0.11689372475E+04  0.12318362790E+04  0.10100000352E+00 0.  1.
</event>
<event>
 5   0  0.1602873E-06  0.2895903E+04  0.7818609E-02  0.8274098E-01
        1   -1    0    0  501    0  0.00000000000E+00  0.00000000000E+00  0.20066724843E+04  0.20066724843E+04  0.50400001928E-02 0.  1.
       -1   -1    0    0    0  501  0.00000000000E+00  0.00000000000E+00 -0.10447958512E+04  0.10447958512E+04  0.50400001928E-02 0. -1.
    10030    2    1    2    0    0  0.00000000000E+00  0.00000000000E+00  0.96187663312E+03  0.30514683355E+04  0.28959026823E+04 0.  0.
        1    1    3    3  502    0 -0.11413328559E+04  0.20086754670E+03  0.13956580286E+04  0.18140699524E+04  0.50400001928E-02 0.  1.
       -1    1    3    3    0  502  0.11413328559E+04 -0.20086754670E+03 -0.43378139552E+03  0.12373983831E+04  0.50400001928E-02 0. -1.
</event>
<event>
 5   0  0.1580212E-06  0.2906348E+04  0.7818609E-02  0.8270991E-01
        1   -1    0    0  501    0  0.00000000000E+00  0.00000000000E+00  0.12137538141E+04  0.12137538141E+04  0.50400001928E-02 0.  1.
       -1   -1    0    0    0  501  0.00000000000E+00  0.00000000000E+00 -0.17398215619E+04  0.17398215619E+04  0.50400001928E-02 0. -1.
    10030    2    1    2    0    0  0.00000000000E+00  0.00000000000E+00 -0.52606774780E+03  0.29535753761E+04  0.29063482632E+04 0.  0.
        4    1    3    3  502    0  0.42400078377E+03 -0.13781676201E+04 -0.79571144957E+02  0.14441107415E+04  0.12699999809E+01 0. -1.
       -4    1    3    3    0  502 -0.42400078377E+03  0.13781676201E+04 -0.44649660285E+03  0.15094646346E+04  0.12699999809E+01 0.  1.
</event>
<event>
 5   0  0.4115143E-06  0.2889006E+04  0.7818609E-02  0.8276156E-01
        2   -1    0    0  501    0  0.00000000000E+00  0.00000000000E+00  0.13629916766E+04  0.13629916766E+04  0.25500000920E-02 0. -1.
       -2   -1    0    0    0  501  0.00000000000E+00  0.00000000000E+00 -0.15308887691E+04  0.15308887691E+04  0.25500000920E-02 0.  1.
    10030    2    1    2    0    0  0.00000000000E+00  0.00000000000E+00 -0.16789709252E+03  0.28938804458E+04  0.28890058153E+04 0.  0.
        1    1    3    3  502    0 -0.32660537595E+03 -0.11911249656E+04 -0.83430453906E+03  0.14904743605E+04  0.50400001928E-02 0.  1.
       -1    1    3    3    0  502  0.32660537595E+03  0.11911249656E+04  0.66640744653E+03  0.14034060853E+04  0.50400001928E-02 0. -1.
</event>
<event>
 5   0  0.4224163E-06  0.2915764E+04  0.7818609E-02  0.8268203E-01
       -2   -1    0    0    0  501  0.00000000000E+00  0.00000000000E+00  0.11492476627E+04  0.11492476627E+04  0.25500000920E-02 0.  1.
        2   -1    0    0  501    0  0.00000000000E+00  0.00000000000E+00 -0.18494016229E+04  0.18494016229E+04  0.25500000920E-02 0. -1.
    10030    2    1    2    0    0  0.00000000000E+00  0.00000000000E+00 -0.70015396014E+03  0.29986492856E+04  0.29157643887E+04 0.  0.
        4    1    3    3  502    0 -0.23327531118E+03 -0.35768589317E+03  0.10834854517E+04  0.11646024669E+04  0.12699999809E+01 0.  1.
       -4    1    3    3    0  502  0.23327531118E+03  0.35768589317E+03 -0.17836394118E+04  0.18340468187E+04  0.12699999809E+01 0. -1.
</event>
<event>
 5   0  0.1511126E-06  0.2920314E+04  0.7818609E-02  0.8266859E-01
        1   -1    0    0  501    0  0.00000000000E+00  0.00000000000E+00  0.23103825130E+04  0.23103825130E+04  0.50400001928E-02 0. -1.
       -1   -1    0    0    0  501  0.00000000000E+00  0.00000000000E+00 -0.92281592629E+03  0.92281592631E+03  0.50400001928E-02 0.  1.
    10030    2    1    2    0    0  0.00000000000E+00  0.00000000000E+00  0.13875665867E+04  0.32331984393E+04  0.29203135303E+04 0.  0.
        5    1    3    3  502    0  0.93551102160E+03  0.10953924686E+04  0.95804034688E+03  0.17300083607E+04  0.46999998093E+01 0. -1.
       -5    1    3    3    0  502 -0.93551102160E+03 -0.10953924686E+04  0.42952623980E+03  0.15031900786E+04  0.46999998093E+01 0.  1.
</event>
<event>
 5   0  0.4115143E-06  0.2872581E+04  0.7818609E-02  0.8281082E-01
       -2   -1    0    0    0  501  0.00000000000E+00  0.00000000000E+00  0.10582627812E+04  0.10582627812E+04  0.25500000920E-02 0. -1.
        2   -1    0    0  501    0  0.00000000000E+00  0.00000000000E+00 -0.19493559707E+04  0.19493559707E+04  0.25500000920E-02 0.  1.
    10030    2    1    2    0    0  0.00000000000E+00  0.00000000000E+00 -0.89109318951E+03  0.30076187520E+04  0.28725813278E+04 0.  0.
        1    1    3    3  502    0  0.82082844391E+03  0.41497805668E+03  0.70947326064E+03  0.11616016656E+04  0.50400001928E-02 0. -1.
       -1    1    3    3    0  502 -0.82082844391E+03 -0.41497805668E+03 -0.16005664502E+04  0.18460170864E+04  0.50400001928E-02 0.  1.
</event>
<event>
 5   0  0.1543678E-06  0.2910177E+04  0.7818609E-02  0.8269856E-01
       -1   -1    0    0    0  501  0.00000000000E+00  0.00000000000E+00  0.91919668475E+03  0.91919668476E+03  0.50400001928E-02 0. -1.
        1   -1    0    0  501    0  0.00000000000E+00  0.00000000000E+00 -0.23034054411E+04  0.23034054411E+04  0.50400001928E-02 0.  1.
    10030    2    1    2    0    0  0.00000000000E+00  0.00000000000E+00 -0.13842087564E+04  0.32226021259E+04  0.29101770703E+04 0.  0.
        3    1    3    3  502    0  0.23015376644E+03 -0.50978335412E+03 -0.21796066320E+04  0.22502299671E+04  0.10100000352E+00 0.  1.
       -3    1    3    3    0  502 -0.23015376644E+03  0.50978335412E+03  0.79539787565E+03  0.97237215876E+03  0.10100000352E+00 0. -1.
</event>
<event>
 5   0  0.1360125E-06  0.2699233E+04  0.7818609E-02  0.8335254E-01
       -3   -1    0    0    0  501  0.00000000000E+00  0.00000000000E+00  0.92707983941E+03  0.92707984492E+03  0.10100000352E+00 0. -1.
        3   -1    0    0  501    0  0.00000000000E+00  0.00000000000E+00 -0.19647337402E+04  0.19647337428E+04  0.10100000352E+00 0.  1.
    10030    2    1    2    0    0  0.00000000000E+00  0.00000000000E+00 -0.10376539008E+04  0.28918135877E+04  0.26992332631E+04 0.  0.
        3    1    3    3  502    0  0.13235590443E+04 -0.25815644996E+03 -0.46003213810E+03  0.14248097679E+04  0.10100000352E+00 0.  1.
       -3    1    3    3    0  502 -0.13235590443E+04  0.25815644996E+03 -0.57762176272E+03  0.14670038198E+04  0.10100000352E+00 0. -1.
</event>
<event>
 5   0  0.1511126E-06  0.2892324E+04  0.7818609E-02  0.8275165E-01
        1   -1    0    0  501    0  0.00000000000E+00  0.00000000000E+00  0.15346496442E+04  0.15346496442E+04  0.50400001928E-02 0. -1.
       -1   -1    0    0    0  501  0.00000000000E+00  0.00000000000E+00 -0.13627760767E+04  0.13627760767E+04  0.50400001928E-02 0.  1.
    10030    2    1    2    0    0  0.00000000000E+00  0.00000000000E+00  0.17187356743E+03  0.28974257209E+04  0.28923235097E+04 0.  0.
        5    1    3    3  502    0 -0.85233046496E+03  0.68774781606E+03 -0.86013241828E+03  0.13925925991E+04  0.46999998093E+01 0.  1.
       -5    1    3    3    0  502  0.85233046496E+03 -0.68774781606E+03  0.10320059857E+04  0.15048331218E+04  0.46999998093E+01 0. -1.
</event>
<event>
 5   0  0.1550278E-06  0.2900476E+04  0.7818609E-02  0.8272736E-01
       -1   -1    0    0    0  501  0.00000000000E+00  0.00000000000E+00  0.10086923816E+04  0.10086923816E+04  0.50400001928E-02 0. -1.
        1   -1    0    0  501    0  0.00000000000E+00  0.00000000000E+00 -0.20850664646E+04  0.20850664646E+04  0.50400001928E-02 0.  1.
    10030    2    1    2    0    0  0.00000000000E+00  0.00000000000E+00 -0.10763740830E+04  0.30937588462E+04  0.29004762767E+04 0.  0.
        2    1    3    3  502    0  0.92287630348E+02 -0.14472915425E+04 -0.53331748131E+03  0.15451852159E+04  0.25500000920E-02 0. -1.
       -2    1    3    3    0  502 -0.92287630348E+02  0.14472915425E+04 -0.54305660168E+03  0.15485736303E+04  0.25500000920E-02 0.  1.
</event>
<event>
 5   0  0.4148677E-06  0.2886381E+04  0.7818609E-02  0.8276941E-01
        2   -1    0    0  501    0  0.00000000000E+00  0.00000000000E+00  0.27256551519E+04  0.27256551519E+04  0.25500000920E-02 0. -1.
       -2   -1    0    0    0  501  0.00000000000E+00  0.00000000000E+00 -0.76414610504E+03  0.76414610504E+03  0.25500000920E-02 0.  1.
    10030    2    1    2    0    0  0.00000000000E+00  0.00000000000E+00  0.19615090469E+04  0.34898012569E+04  0.28863809645E+04 0.  0.
        5    1    3    3  502    0 -0.44914093178E+03 -0.64706569571E+03  0.24428423565E+04  0.25666948513E+04  0.46999998093E+01 0. -1.
       -5    1    3    3    0  502  0.44914093178E+03  0.64706569571E+03 -0.48133330962E+03  0.92310640562E+03  0.46999998093E+01 0.  1.
</event>
<event>
 5   0  0.4224163E-06  0.2900028E+04  0.7818609E-02  0.8272869E-01
       -2   -1    0    0    0  501  0.00000000000E+00  0.00000000000E+00  0.93864092241E+03  0.93864092242E+03  0.25500000920E-02 0. -1.
        2   -1    0    0  501    0  0.00000000000E+00  0.00000000000E+00 -0.22399836425E+04  0.22399836425E+04  0.25500000920E-02 0.  1.
    10030    2    1    2    0    0  0.00000000000E+00  0.00000000000E+00 -0.13013427201E+04  0.31786245649E+04  0.29000278015E+04 0.  0.
        4    1    3    3  502    0 -0.12756508634E+04 -0.45788854509E+03 -0.85806853863E+02  0.13580542971E+04  0.12699999809E+01 0. -1.
       -4    1    3    3    0  502  0.12756508634E+04  0.45788854509E+03 -0.12155358663E+04  0.18205702678E+04  0.12699999809E+01 0.  1.
</event>
<event>
 5   0  0.1602873E-06  0.2909651E+04  0.7818609E-02  0.8270012E-01
        1   -1    0    0  501    0  0.00000000000E+00  0.00000000000E+00  0.20422011178E+04  0.20422011178E+04  0.50400001928E-02 0.  1.
       -1   -1    0    0    0  501  0.00000000000E+00  0.00000000000E+00 -0.10363900140E+04  0.10363900140E+04  0.50400001928E-02 0. -1.
    10030    2    1    2    0    0  0.00000000000E+00  0.00000000000E+00  0.10058111038E+04  0.30785911318E+04  0.29096507317E+04 0.  0.
        1    1    3    3  502    0 -0.11580746405E+04 -0.75869157221E+03  0.97580967878E+03  0.16937987791E+04  0.50400001928E-02 0. -1.
       -1    1    3    3    0  502  0.11580746405E+04  0.75869157221E+03  0.30001425035E+02  0.13847923528E+04  0.50400001928E-02 0.  1.
</event>
<event>
 5   0  0.4148677E-06  0.2822487E+04  0.7818609E-02  0.8296321E-01
        2   -1    0    0  501    0  0.00000000000E+00  0.00000000000E+00  0.21382119161E+04  0.21382119161E+04  0.25500000920E-02 0.  1.
       -2   -1    0    0    0  501  0.00000000000E+00  0.00000000000E+00 -0.93143649853E+03  0.93143649853E+03  0.25500000920E-02 0. -1.
    10030    2    1    2    0    0  0.00000000000E+00  0.00000000000E+00  0.12067754176E+04  0.30696484147E+04  0.28224872863E+04 0.  0.
        5    1    3    3  502    0  0.11235189333E+04  0.82992228929E+02  0.15277595786E+04  0.18982238865E+04  0.46999998093E+01 0.  1.
       -5    1    3    3    0  502 -0.11235189333E+04 -0.82992228929E+02 -0.32098416098E+03  0.11714245281E+04  0.46999998093E+01 0. -1.
</event>
<event>
 5   0  0.1511126E-06  0.2912067E+04  0.7818609E-02  0.8269296E-01
       -1   -1    0    0    0  501  0.00000000000E+00  0.00000000000E+00  0.19210079088E+04  0.19210079088E+04  0.50400001928E-02 0.  1.
        1   -1    0    0  501    0  0.00000000000E+00  0.00000000000E+00 -0.11036044880E+04  0.11036044880E+04  0.50400001928E-02 0. -1.
    10030    2    1    2    0    0  0.00000000000E+00  0.00000000000E+00  0.81740342084E+03  0.30246123968E+04  0.29120665855E+04 0.  0.
        5    1    3    3  502    0  0.54651312568E+03  0.13375835560E+04  0.59509345188E+03  0.15626786849E+04  0.46999998093E+01 0. -1.
       -5    1    3    3    0  502 -0.54651312568E+03 -0.13375835560E+04  0.22230996896E+03  0.14619337119E+04  0.46999998093E+01 0.  1.
</event>
<event>
 5   0  0.4187518E-06  0.2902633E+04  0.7818609E-02  0.8272095E-01
       -2   -1    0    0    0  501  0.00000000000E+00  0.00000000000E+00  0.97518641317E+03  0.97518641318E+03  0.25500000920E-02 0. -1.
        2   -1    0    0  501    0  0.00000000000E+00  0.00000000000E+00 -0.21599144399E+04  0.21599144399E+04  0.25500000920E-02 0.  1.
    10030    2    1    2    0    0  0.00000000000E+00  0.00000000000E+00 -0.11847280267E+04  0.31351008531E+04  0.29026327466E+04 0.  0.
        3    1    3    3  502    0  0.29614441511E+03 -0.12928213888E+04  0.44091991097E+02  0.13270390996E+04  0.10100000352E+00 0. -1.
       -3    1    3    3    0  502 -0.29614441511E+03  0.12928213888E+04 -0.12288200178E+04  0.18080617535E+04  0.10100000352E+00 0.  1.
</event>
<event>
 5   0  0.4148677E-06  0.2876337E+04  0.7818609E-02  0.8279953E-01
        2   -1    0    0  501    0  0.00000000000E+00  0.00000000000E+00  0.23041394060E+04  0.23041394060E+04  0.25500000920E-02 0. -1.
       -2   -1    0    0    0  501  0.00000000000E+00  0.00000000000E+00 -0.89765770454E+03  0.89765770454E+03  0.25500000920E-02 0.  1.
    10030    2    1    2    0    0  0.00000000000E+00  0.00000000000E+00  0.14064817014E+04  0.32017971105E+04  0.28763368997E+04 0.  0.
        5    1    3    3  502    0  0.12874455374E+04 -0.53697783361E+03  0.31372518574E+03  0.14297925681E+04  0.46999998093E+01 0.  1.
       -5    1    3    3    0  502 -0.12874455374E+04  0.53697783361E+03  0.10927565157E+04  0.17720045424E+04  0.46999998093E+01 0. -1.
</event>
<event>
 5   0  0.1580212E-06  0.2894287E+04  0.7818609E-02  0.8274579E-01
       -1   -1    0    0    0  501  0.00000000000E+00  0.00000000000E+00  0.10058242580E+04  0.10058242580E+04  0.50400001928E-02 0.  1.
        1   -1    0    0  501    0  0.00000000000E+00  0.00000000000E+00 -0.20820975824E+04  0.20820975824E+04  0.50400001928E-02 0. -1.
    10030    2    1    2    0    0  0.00000000000E+00  0.00000000000E+00 -0.10762733245E+04  0.30879218404E+04  0.28942869629E+04 0.  0.
        4    1    3    3  502    0 -0.64321005450E+03  0.11077752413E+04 -0.12564857185E+04  0.17943364047E+04  0.12699999809E+01 0. -1.
       -4    1    3    3    0  502  0.64321005450E+03 -0.11077752413E+04  0.18021239407E+03  0.12935854357E+04  0.12699999809E+01 0.  1.
</event>
<event>
 5   0  0.4187518E-06  0.2915689E+04  0.7818609E-02  0.8268225E-01
       -2   -1    0    0    0  501  0.00000000000E+00  0.00000000000E+00  0.14284478376E+04  0.14284478376E+04  0.25500000920E-02 0. -1.
        2   -1    0    0  501    0  0.00000000000E+00  0.00000000000E+00 -0.14878462198E+04  0.14878462198E+04  0.25500000920E-02 0.  1.
    10030    2    1    2    0    0  0.00000000000E+00  0.00000000000E+00 -0.59398382234E+02  0.29162940574E+04  0.29156890886E+04 0.  0.
        3    1    3    3  502    0 -0.72536018707E+03 -0.12191122330E+04 -0.36581752584E+03  0.14649930068E+04  0.10100000352E+00 0.  1.
       -3    1    3    3    0  502  0.72536018707E+03  0.12191122330E+04  0.30641914361E+03  0.14513010506E+04  0.10100000352E+00 0. -1.
</event>
<event>
 5   0  0.4162450E-06  0.2906041E+04  0.7818609E-02  0.8271082E-01
        2   -1    0    0  501    0  0.00000000000E+00  0.00000000000E+00  0.82777043914E+03  0.82777043914E+03  0.25500000920E-02 0.  1.
       -2   -1    0    0    0  501  0.00000000000E+00  0.00000000000E+00 -0.25505490410E+04  0.25505490410E+04  0.25500000920E-02 0. -1.
    10030    2    1    2    0    0  0.00000000000E+00  0.00000000000E+00 -0.17227786019E+04  0.33783194802E+04  0.29060413622E+04 0.  0.
        2    1    3    3  502    0  0.14258475998E+04 -0.27388567577E+03 -0.92729850823E+03  0.17227702298E+04  0.25500000920E-02 0. -1.
       -2    1    3    3    0  502 -0.14258475998E+04  0.27388567577E+03 -0.79548009364E+03  0.16555492504E+04  0.25500000920E-02 0.  1.
</event>
<event>
 5   0  0.4224163E-06  0.2910517E+04  0.7818609E-02  0.8269755E-01
        2   -1    0    0  501    0  0.00000000000E+00  0.00000000000E+00  0.97962495216E+03  0.97962495217E+03  0.25500000920E-02 0.  1.
       -2   -1    0    0    0  501  0.00000000000E+00  0.00000000000E+00 -0.21618245586E+04  0.21618245586E+04  0.25500000920E-02 0. -1.
    10030    2    1    2    0    0  0.00000000000E+00  0.00000000000E+00 -0.11821996064E+04  0.31414495108E+04  0.29105169849E+04 0.  0.
        4    1    3    3  502    0 -0.55909412637E+03  0.38243410525E+03  0.79909110908E+03  0.10475639840E+04  0.12699999809E+01 0.  1.
       -4    1    3    3    0  502  0.55909412637E+03 -0.38243410525E+03 -0.19812907155E+04  0.20938855268E+04  0.12699999809E+01 0. -1.
</event>
<event>
 5   0  0.4148677E-06  0.2922213E+04  0.7818609E-02  0.8266299E-01
       -2   -1    0    0    0  501  0.00000000000E+00  0.00000000000E+00  0.12321348483E+04  0.12321348483E+04  0.25500000920E-02 0.  1.
        2   -1    0    0  501    0  0.00000000000E+00  0.00000000000E+00 -0.17326285020E+04  0.17326285020E+04  0.25500000920E-02 0. -1.
    10030    2    1    2    0    0  0.00000000000E+00  0.00000000000E+00 -0.50049365363E+03  0.29647633503E+04  0.29222128304E+04 0.  0.
        5    1    3    3  502    0  0.27408799868E+03 -0.11175518583E+04  0.66328835839E+03  0.13281641176E+04  0.46999998093E+01 0.  1.
       -5    1    3    3    0  502 -0.27408799868E+03  0.11175518583E+04 -0.11637820120E+04  0.16365992327E+04  0.46999998093E+01 0. -1.
</event>
<event>
 5   0  0.4115143E-06  0.2894600E+04  0.7818609E-02  0.8274486E-01
       -2   -1    0    0    0  501  0.00000000000E+00  0.00000000000E+00  0.13927374229E+04  0.13927374229E+04  0.25500000920E-02 0.  1.
        2   -1    0    0  501    0  0.00000000000E+00  0.00000000000E+00 -0.15040004643E+04  0.15040004643E+04  0.25500000920E-02 0. -1.
    10030    2    1    2    0    0  0.00000000000E+00  0.00000000000E+00 -0.11126304141E+03  0.28967378871E+04  0.28946003044E+04 0.  0.
        1    1    3    3  502    0 -0.15523281624E+03 -0.45776547762E+03 -0.14208351416E+04  0.15008061032E+04  0.50400001928E-02 0. -1.
       -1    1    3    3    0  502  0.15523281624E+03  0.45776547762E+03  0.13095721002E+04  0.13959317839E+04  0.50400001928E-02 0.  1.
</event>
<event>
 5   0  0.4115143E-06  0.2907711E+04  0.7818609E-02  0.8270587E-01
       -2   -1    0    0    0  501  0.00000000000E+00  0.00000000000E+00  0.14399270211E+04  0.14399270211E+04  0.25500000920E-02 0.  1.
        2   -1    0    0  501    0  0.00000000000E+00  0.00000000000E+00 -0.14679183837E+04  0.14679183837E+04  0.25500000920E-02 0. -1.
    10030    2    1    2    0    0  0.00000000000E+00  0.00000000000E+00 -0.27991362539E+02  0.29078454048E+04  0.29077106771E+04 0.  0.
        1    1    3    3  502    0  0.13565668757E+03 -0.93455235047E+03 -0.11194447974E+04  0.14645639239E+04  0.50400001928E-02 0. -1.
       -1    1    3    3    0  502 -0.13565668757E+03  0.93455235047E+03  0.10914534349E+04  0.14432814809E+04  0.50400001928E-02 0.  1.
</event>
<event>
 5   0  0.1602873E-06  0.2908712E+04  0.7818609E-02  0.8270290E-01
       -1   -1    0    0    0  501  0.00000000000E+00  0.00000000000E+00  0.10216804667E+04  0.10216804668E+04  0.50400001928E-02 0. -1.
        1   -1    0    0  501    0  0.00000000000E+00  0.00000000000E+00 -0.20702670582E+04  0.20702670582E+04  0.50400001928E-02 0.  1.
    10030    2    1    2    0    0  0.00000000000E+00  0.00000000000E+00 -0.10485865915E+04  0.30919475250E+04  0.29087120273E+04 0.  0.
        1    1    3    3  502    0  0.13675299273E+04 -0.29551433380E+03 -0.10218293148E+03  0.14028215051E+04  0.50400001928E-02 0. -1.
       -1    1    3    3    0  502 -0.13675299273E+04  0.29551433380E+03 -0.94640366003E+03  0.16891260199E+04  0.50400001928E-02 0.  1.
</event>
<event>
 5   0  0.1550278E-06  0.2897742E+04  0.7818609E-02  0.8273550E-01
        1   -1    0    0  501    0  0.00000000000E+00  0.00000000000E+00  0.16303245882E+04  0.16303245882E+04  0.50400001928E-02 0. -1.
       -1   -1    0    0    0  501  0.00000000000E+00  0.00000000000E+00 -0.12876128253E+04  0.12876128253E+04  0.50400001928E-02 0.  1.
    10030    2    1    2    0    0  0.00000000000E+00  0.00000000000E+00  0.34271176291E+03  0.29179374135E+04  0.28977417754E+04 0.  0.
        2    1    3    3  502    0 -0.75761743616E+03 -0.66509863199E+03  0.12192267245E+04  0.15820411422E+04  0.25500000920E-02 0. -1.
       -2    1    3    3    0  502  0.75761743616E+03  0.66509863199E+03 -0.87651496157E+03  0.13358962713E+04  0.25500000920E-02 0.  1.
</event>
<event>
 5   0  0.4115143E-06  0.2881312E+04  0.7818609E-02  0.8278460E-01
       -2   -1    0    0    0  501  0.00000000000E+00  0.00000000000E+00  0.88941024301E+03  0.88941024302E+03  0.25500000920E-02 0.  1.
        2   -1    0    0  501    0  0.00000000000E+00  0.00000000000E+00 -0.23335566233E+04  0.23335566233E+04  0.25500000920E-02 0. -1.
    10030    2    1    2    0    0  0.00000000000E+00  0.00000000000E+00 -0.14441463803E+04  0.32229668664E+04  0.28813116204E+04 0.  0.
        1    1    3    3  502    0  0.93843871424E+03  0.14150841740E+03 -0.19344764123E+04  0.21547368383E+04  0.50400001928E-02 0. -1.
       -1    1    3    3    0  502 -0.93843871424E+03 -0.14150841740E+03  0.49033003196E+03  0.10682300281E+04  0.50400001928E-02 0.  1.
</event>
<event>
 5   0  0.1511126E-06  0.2902098E+04  0.7818609E-02  0.8272254E-01
        1   -1    0    0  501    0  0.00000000000E+00  0.00000000000E+00  0.13082269032E+04  0.13082269032E+04  0.50400001928E-02 0. -1.
       -1   -1    0    0    0  501  0.00000000000E+00  0.00000000000E+00 -0.16094633617E+04  0.16094633617E+04  0.50400001928E-02 0.  1.
    10030    2    1    2    0    0  0.00000000000E+00  0.00000000000E+00 -0.30123645845E+03  0.29176902649E+04  0.29020980477E+04 0.  0.
        5    1    3    3  502    0 -0.97937904776E+03  0.10669165692E+04 -0.24069252766E+03  0.14681448388E+04  0.46999998093E+01 0.  1.
       -5    1    3    3    0  502  0.97937904776E+03 -0.10669165692E+04 -0.60543930787E+02  0.14495454261E+04  0.46999998093E+01 0. -1.
</event>
<event>
 5   0  0.4148677E-06  0.2862492E+04  0.7818609E-02  0.8284126E-01
        2   -1    0    0  501    0  0.00000000000E+00  0.00000000000E+00  0.19717296188E+04  0.19717296188E+04  0.25500000920E-02 0.  1.
       -2   -1    0    0    0  501  0.00000000000E+00  0.00000000000E+00 -0.10389176984E+04  0.10389176984E+04  0.25500000920E-02 0. -1.
    10030    2    1    2    0    0  0.00000000000E+00  0.00000000000E+00  0.93281192036E+03  0.30106473172E+04  0.28624917799E+04 0.  0.
        5    1    3    3  502    0 -0.53777332375E+03 -0.20367555133E+03 -0.91206216932E+03  0.10782223187E+04  0.46999998093E+01 0. -1.
       -5    1    3    3    0  502  0.53777332375E+03  0.20367555133E+03  0.18448740897E+04  0.19324249985E+04  0.46999998093E+01 0.  1.
</event>
<event>
 5   0  0.1543678E-06  0.2921296E+04  0.7818609E-02  0.8266569E-01
       -1   -1    0    0    0  501  0.00000000000E+00  0.00000000000E+00  0.12517213138E+04  0.12517213138E+04  0.50400001928E-02 0. -1.
        1   -1    0    0  501    0  0.00000000000E+00  0.00000000000E+00 -0.17044464198E+04  0.17044464199E+04  0.50400001928E-02 0.  1.
    10030    2    1    2    0    0  0.00000000000E+00  0.00000000000E+00 -0.45272510604E+03  0.29561677337E+04  0.29212955427E+04 0.  0.
        3    1    3    3  502    0  0.49634642188E+03 -0.13725218479E+04 -0.16809123594E+03  0.14691598508E+04  0.10100000352E+00 0.  1.
       -3    1    3    3    0  502 -0.49634642188E+03  0.13725218479E+04 -0.28463387010E+03  0.14870078829E+04  0.10100000352E+00 0. -1.
</event>
<event>
 5   0  0.4162450E-06  0.2889936E+04  0.7818609E-02  0.8275878E-01
        2   -1    0    0  501    0  0.00000000000E+00  0.00000000000E+00  0.21924759074E+04  0.21924759074E+04  0.25500000920E-02 0.  1.
       -2   -1    0    0    0  501  0.00000000000E+00  0.00000000000E+00 -0.95231719791E+03  0.95231719792E+03  0.25500000920E-02 0. -1.
    10030    2    1    2    0    0  0.00000000000E+00  0.00000000000E+00  0.12401587095E+04  0.31447931053E+04  0.28899359942E+04 0.  0.
        2    1    3    3  502    0  0.12510842262E+03  0.14136005491E+04  0.32403250175E+03  0.14556495773E+04  0.25500000920E-02 0. -1.
       -2    1    3    3    0  502 -0.12510842262E+03 -0.14136005491E+04  0.91612620773E+03  0.16891435280E+04  0.25500000920E-02 0.  1.
</event>
<event>
 5   0  0.1580212E-06  0.2625372E+04  0.7818609E-02  0.8359634E-01
       -1   -1    0    0    0  501  0.00000000000E+00  0.00000000000E+00  0.21248096592E+04  0.21248096592E+04  0.50400001928E-02 0.  1.
        1   -1    0    0  501    0  0.00000000000E+00  0.00000000000E+00 -0.81096392104E+03  0.81096392106E+03  0.50400001928E-02 0. -1.
    10030    2    1    2    0    0  0.00000000000E+00  0.00000000000E+00  0.13138457381E+04  0.29357735802E+04  0.26253715720E+04 0.  0.
        4    1    3    3  502    0 -0.10490374161E+04 -0.77786888507E+03  0.80520079502E+03  0.15342455592E+04  0.12699999809E+01 0. -1.
       -4    1    3    3    0  502  0.10490374161E+04  0.77786888507E+03  0.50864494311E+03  0.14015280210E+04  0.12699999809E+01 0.  1.
</event>
<event>
 5   0  0.1511126E-06  0.2915665E+04  0.7818609E-02  0.8268232E-01
        1   -1    0    0  501    0  0.00000000000E+00  0.00000000000E+00  0.19701755802E+04  0.19701755802E+04  0.50400001928E-02 0.  1.
       -1   -1    0    0    0  501  0.00000000000E+00  0.00000000000E+00 -0.10787239870E+04  0.10787239870E+04  0.50400001928E-02 0. -1.
    10030    2    1    2    0    0  0.00000000000E+00  0.00000000000E+00  0.89145159314E+03  0.30488995672E+04  0.29156650404E+04 0.  0.
        5    1    3    3  502    0 -0.30862816574E+03 -0.27446779101E+02 -0.10438861557E+04  0.10889100360E+04  0.46999998093E+01 0. -1.
       -5    1    3    3    0  502  0.30862816574E+03  0.27446779101E+02  0.19353377488E+04  0.19599895312E+04  0.46999998093E+01 0.  1.
</event>
<event>
 5   0  0.1543678E-06  0.2894795E+04  0.7818609E-02  0.8274428E-01
       -1   -1    0    0    0  501  0.00000000000E+00  0.00000000000E+00  0.18265887112E+04  0.18265887112E+04  0.50400001928E-02 0.  1.
        1   -1    0    0  501    0  0.00000000000E+00  0.00000000000E+00 -0.11469243139E+04  0.11469243139E+04  0.50400001928E-02 0. -1.
    10030    2    1    2    0    0  0.00000000000E+00  0.00000000000E+00  0.67966439730E+03  0.29735130252E+04  0.28947946417E+04 0.  0.
        3    1    3    3  502    0  0.11732826663E+04  0.70837364743E+03  0.81786180779E+03  0.15960211109E+04  0.10100000352E+00 0.  1.
       -3    1    3    3    0  502 -0.11732826663E+04 -0.70837364743E+03 -0.13819741049E+03  0.13774919143E+04  0.10100000352E+00 0. -1.
</event>
<event>
 5   0  0.1550278E-06  0.2898481E+04  0.7818609E-02  0.8273330E-01
        1   -1    0    0  501    0  0.00000000000E+00  0.00000000000E+00  0.15323728865E+04  0.15323728865E+04  0.50400001928E-02 0.  1.
       -1   -1    0    0    0  501  0.00000000000E+00  0.00000000000E+00 -0.13706183011E+04  0.13706183011E+04  0.50400001928E-02 0. -1.
    10030    2    1    2    0    0  0.00000000000E+00  0.00000000000E+00  0.16175458534E+03  0.29029911876E+04  0.28984812039E+04 0.  0.
        2    1    3    3  502    0  0.55468490997E+03  0.23038186200E+03 -0.12400938612E+04  0.13778911192E+04  0.25500000920E-02 0. -1.
       -2    1    3    3    0  502 -0.55468490997E+03 -0.23038186200E+03  0.14018484465E+04  0.15251000684E+04  0.25500000920E-02 0.  1.
</event>
<event>
 5   0  0.4187518E-06  0.2909828E+04  0.7818609E-02  0.8269959E-01
       -2   -1    0    0    0  501  0.00000000000E+00  0.00000000000E+00  0.18758408106E+04  0.18758408106E+04  0.25500000920E-02 0. -1.
        2   -1    0    0  501    0  0.00000000000E+00  0.00000000000E+00 -0.11284402994E+04  0.11284402994E+04  0.25500000920E-02 0.  1.
    10030    2    1    2    0    0  0.00000000000E+00  0.00000000000E+00  0.74740051124E+03  0.30042811100E+04  0.29098277378E+04 0.  0.
        3    1    3    3  502    0 -0.51911177401E+03 -0.92967122903E+03 -0.64995088456E+03  0.12474781724E+04  0.10100000352E+00 0.  1.
       -3    1    3    3    0  502  0.51911177401E+03  0.92967122903E+03  0.13973513958E+04  0.17568029376E+04  0.10100000352E+00 0. -1.
</event>
<event>
 5   0  0.4115143E-06  0.2908054E+04  0.7818609E-02  0.8270485E-01
        2   -1    0    0  501    0  0.00000000000E+00  0.00000000000E+00  0.21845578970E+04  0.21845578970E+04  0.25500000920E-02 0.  1.
       -2   -1    0    0    0  501  0.00000000000E+00  0.00000000000E+00 -0.96779035803E+03  0.96779035803E+03  0.25500000920E-02 0. -1.
    10030    2    1    2    0    0  0.00000000000E+00  0.00000000000E+00  0.12167675390E+04  0.31523482550E+04  0.29080536923E+04 0.  0.
        1    1    3    3  502    0  0.98913964774E+03 -0.15766589993E+03 -0.53417023603E+03  0.11351623760E+04  0.50400001928E-02 0. -1.
       -1    1    3    3    0  502 -0.98913964774E+03  0.15766589993E+03  0.17509377750E+04  0.20171858791E+04  0.50400001928E-02 0.  1.
</event>
<event>
 5   0  0.1550278E-06  0.2904114E+04  0.7818609E-02  0.8271655E-01
       -1   -1    0    0    0  501  0.00000000000E+00  0.00000000000E+00  0.21772100523E+04  0.21772100523E+04  0.50400001928E-02 0.  1.
        1   -1    0    0  501    0  0.00000000000E+00  0.00000000000E+00 -0.96842691461E+03  0.96842691462E+03  0.50400001928E-02 0. -1.
    10030    2    1    2    0    0  0.00000000000E+00  0.00000000000E+00  0.12087831377E+04  0.31456369669E+04  0.29041135056E+04 0.  0.
        2    1    3    3  502    0 -0.51131594912E+03  0.20229121975E+03 -0.85128965257E+03  0.10134395937E+04  0.25500000920E-02 0. -1.
       -2    1    3    3    0  502  0.51131594912E+03 -0.20229121975E+03  0.20600727902E+04  0.21321973732E+04  0.25500000920E-02 0.  1.
</event>
<event>
 5   0  0.1580212E-06  0.2909537E+04  0.7818609E-02  0.8270046E-01
       -1   -1    0    0    0  501  0.00000000000E+00  0.00000000000E+00  0.12643933291E+04  0.12643933291E+04  0.50400001928E-02 0.  1.
        1   -1    0    0  501    0  0.00000000000E+00  0.00000000000E+00 -0.16738081127E+04  0.16738081127E+04  0.50400001928E-02 0. -1.
    10030    2    1    2    0    0  0.00000000000E+00  0.00000000000E+00 -0.40941478359E+03  0.29382014419E+04  0.29095372910E+04 0.  0.
        4    1    3    3  502    0  0.31333080893E+03  0.87506225446E+03 -0.13348574554E+04  0.16265780597E+04  0.12699999809E+01 0. -1.
       -4    1    3    3    0  502 -0.31333080893E+03 -0.87506225446E+03  0.92544267182E+03  0.13116233822E+04  0.12699999809E+01 0.  1.
</event>
<event>
 5   0  0.1543678E-06  0.2910813E+04  0.7818609E-02  0.8269668E-01
        1   -1    0    0  501    0  0.00000000000E+00  0.00000000000E+00  0.15553921932E+04  0.15553921932E+04  0.50400001928E-02 0. -1.
       -1   -1    0    0    0  501  0.00000000000E+00  0.00000000000E+00 -0.13618483434E+04  0.13618483434E+04  0.50400001928E-02 0.  1.
    10030    2    1    2    0    0  0.00000000000E+00  0.00000000000E+00  0.19354384980E+03  0.29172405366E+04  0.29108131384E+04 0.  0.
        3    1    3    3  502    0  0.40225653026E+03 -0.13154549602E+04 -0.37964728754E+03  0.14270123130E+04  0.10100000352E+00 0. -1.
       -3    1    3    3    0  502 -0.40225653026E+03  0.13154549602E+04  0.57319113734E+03  0.14902282236E+04  0.10100000352E+00 0.  1.
</event>
<event>
 5   0  0.1580212E-06  0.2904055E+04  0.7818609E-02  0.8271672E-01
        1   -1    0    0  501    0  0.00000000000E+00  0.00000000000E+00  0.20871328425E+04  0.20871328425E+04  0.50400001928E-02 0.  1.
       -1   -1    0    0    0  501  0.00000000000E+00  0.00000000000E+00 -0.10101816864E+04  0.10101816864E+04  0.50400001928E-02 0. -1.
    10030    2    1    2    0    0  0.00000000000E+00  0.00000000000E+00  0.10769511561E+04  0.30973145289E+04  0.29040546652E+04 0.  0.
        4    1    3    3  502    0 -0.45026639988E+03 -0.13530672551E+04  0.83027144418E+03  0.16501160903E+04  0.12699999809E+01 0.  1.
       -4    1    3    3    0  502  0.45026639988E+03  0.13530672551E+04  0.24667971188E+03  0.14471984386E+04  0.12699999809E+01 0. -1.
</event>
<event>
 5   0  0.4162450E-06  0.2898690E+04  0.7818609E-02  0.8273267E-01
       -2   -1    0    0    0  501  0.00000000000E+00  0.00000000000E+00  0.72505824332E+03  0.72505824332E+03  0.25500000920E-02 0. -1.
        2   -1    0    0  501    0  0.00000000000E+00  0.00000000000E+00 -0.28971474561E+04  0.28971474561E+04  0.25500000920E-02 0.  1.
    10030    2    1    2    0    0  0.00000000000E+00  0.00000000000E+00 -0.21720892128E+04  0.36222056994E+04  0.28986898041E+04 0.  0.
        2    1    3    3  502    0  0.10202348087E+04 -0.10020486221E+04 -0.79133967523E+03  0.16343803069E+04  0.25500000920E-02 0. -1.
       -2    1    3    3    0  502 -0.10202348087E+04  0.10020486221E+04 -0.13807495375E+04  0.19878253925E+04  0.25500000920E-02 0.  1.
</event>
<event>
 5   0  0.4115143E-06  0.2871144E+04  0.7818609E-02  0.8281515E-01
        2   -1    0    0  501    0  0.00000000000E+00  0.00000000000E+00  0.15676243062E+04  0.15676243062E+04  0.25500000920E-02 0.  1.
       -2   -1    0    0    0  501  0.00000000000E+00  0.00000000000E+00 -0.13146432686E+04  0.13146432686E+04  0.25500000920E-02 0. -1.
    10030    2    1    2    0    0  0.00000000000E+00  0.00000000000E+00  0.25298103761E+03  0.28822675748E+04  0.28711438430E+04 0.  0.
        1    1    3    3  502    0 -0.89640530101E+03  0.51825737387E+03  0.11246937824E+04  0.15287476160E+04  0.50400001928E-02 0.  1.
       -1    1    3    3    0  502  0.89640530101E+03 -0.51825737387E+03 -0.87171274481E+03  0.13535199588E+04  0.50400001928E-02 0. -1.
</event>
<event>
 5   0  0.1602873E-06  0.2903734E+04  0.7818609E-02  0.8271767E-01
       -1   -1    0    0    0  501  0.00000000000E+00  0.00000000000E+00  0.11852337228E+04  0.11852337229E+04  0.50400001928E-02 0.  1.
        1   -1    0    0  501    0  0.00000000000E+00  0.00000000000E+00 -0.17784832412E+04  0.17784832412E+04  0.50400001928E-02 0. -1.
    10030    2    1    2    0    0  0.00000000000E+00  0.00000000000E+00 -0.59324951832E+03  0.29637169640E+04  0.29037343632E+04 0.  0.
        1    1    3    3  502    0  0.10361127468E+04  0.16730146903E+03  0.72729263360E+03  0.12769001451E+04  0.50400001928E-02 0.  1.
       -1    1    3    3    0  502 -0.10361127468E+04 -0.16730146903E+03 -0.13205421519E+04  0.16868168189E+04  0.50400001928E-02 0. -1.
</event>
<event>
 5   0  0.4162450E-06  0.2914999E+04  0.7818609E-02  0.8268429E-01
       -2   -1    0    0    0  501  0.00000000000E+00  0.00000000000E+00  0.18482717121E+04  0.18482717121E+04  0.25500000920E-02 0. -1.
        2   -1    0    0  501    0  0.00000000000E+00  0.00000000000E+00 -0.11493467375E+04  0.11493467375E+04  0.25500000920E-02 0.  1.
    10030    2    1    2    0    0  0.00000000000E+00  0.00000000000E+00  0.69892497458E+03  0.29976184496E+04  0.29149991851E+04 0.  0.
        2    1    3    3  502    0 -0.65507231668E+03  0.93879578404E+02  0.16848724130E+04  0.18101735175E+04  0.25500000920E-02 0. -1.
       -2    1    3    3    0  502  0.65507231668E+03 -0.93879578404E+02 -0.98594743844E+03  0.11874449321E+04  0.25500000920E-02 0.  1.
</event>
<event>
 5   0  0.1543678E-06  0.2907190E+04  0.7818609E-02  0.8270741E-01
        1   -1    0    0  501    0  0.00000000000E+00  0.00000000000E+00  0.19967616981E+04  0.19967616982E+04  0.50400001928E-02 0. -1.
       -1   -1    0    0    0  501  0.00000000000E+00  0.00000000000E+00 -0.10581826261E+04  0.10581826261E+04  0.50400001928E-02 0.  1.
    10030    2    1    2    0    0  0.00000000000E+00  0.00000000000E+00  0.93857907207E+03  0.30549443242E+04  0.29071900780E+04 0.  0.
        3    1    3    3  502    0 -0.13870438975E+04 -0.43147457507E+03  0.41292144093E+03  0.15101540349E+04  0.10100000352E+00 0. -1.
       -3    1    3    3    0  502  0.13870438975E+04  0.43147457507E+03  0.52565763114E+03  0.15447902893E+04  0.10100000352E+00 0.  1.
</event>
<event>
 5   0  0.4115143E-06  0.2915056E+04  0.7818609E-02  0.8268412E-01
       -2   -1    0    0    0  501  0.00000000000E+00  0.00000000000E+00  0.14298944017E+04  0.14298944017E+04  0.25500000920E-02 0. -1.
        2   -1    0    0  501    0  0.00000000000E+00  0.00000000000E+00 -0.14856952793E+04  0.14856952793E+04  0.25500000920E-02 0.  1.
    10030    2    1    2    0    0  0.00000000000E+00  0.00000000000E+00 -0.55800877569E+02  0.29155896810E+04  0.29150556512E+04 0.  0.
        1    1    3    3  502    0 -0.10008140115E+04  0.10563819353E+04 -0.11047392827E+03  0.14593751977E+04  0.50400001928E-02 0.  1.
       -1    1    3    3    0  502  0.10008140115E+04 -0.10563819353E+04  0.54673050704E+02  0.14562144833E+04  0.50400001928E-02 0. -1.
</event>
<event>
 5   0  0.1543678E-06  0.2871268E+04  0.7818609E-02  0.8281478E-01
       -1   -1    0    0    0  501  0.00000000000E+00  0.00000000000E+00  0.13358868471E+04  0.13358868472E+04  0.50400001928E-02 0. -1.
        1   -1    0    0  501    0  0.00000000000E+00  0.00000000000E+00 -0.15428292461E+04  0.15428292461E+04  0.50400001928E-02 0.  1.
    10030    2    1    2    0    0  0.00000000000E+00  0.00000000000E+00 -0.20694239893E+03  0.28787160932E+04  0.28712682196E+04 0.  0.
        3    1    3    3  502    0 -0.12973407618E+04  0.45723020288E+02  0.51119463494E+03  0.13951715349E+04  0.10100000352E+00 0. -1.
       -3    1    3    3    0  502  0.12973407618E+04 -0.45723020288E+02 -0.71813703386E+03  0.14835445583E+04  0.10100000352E+00 0.  1.
</event>
<event>
 5   0  0.4148677E-06  0.2909952E+04  0.7818609E-02  0.8269923E-01
       -2   -1    0    0    0  501  0.00000000000E+00  0.00000000000E+00  0.29321806860E+04  0.29321806860E+04  0.25500000920E-02 0. -1.
        2   -1    0    0  501    0  0.00000000000E+00  0.00000000000E+00 -0.72197293324E+03  0.72197293324E+03  0.25500000920E-02 0.  1.
    10030    2    1    2    0    0  0.00000000000E+00  0.00000000000E+00  0.22102077527E+04  0.36541536192E+04  0.29099519519E+04 0.  0.
        5    1    3    3  502    0  0.37829068179E+03 -0.12143156472E+03 -0.65252613797E+03  0.76397769311E+03  0.46999998093E+01 0.  1.
       -5    1    3    3    0  502 -0.37829068179E+03  0.12143156472E+03  0.28627338907E+04  0.28901759261E+04  0.46999998093E+01 0. -1.
</event>
<event>
 5   0  0.4115143E-06  0.2883151E+04  0.7818609E-02  0.8277908E-01
        2   -1    0    0  501    0  0.00000000000E+00  0.00000000000E+00  0.25962486090E+04  0.25962486090E+04  0.25500000920E-02 0.  1.
       -2   -1    0    0    0  501  0.00000000000E+00  0.00000000000E+00 -0.80043955016E+03  0.80043955017E+03  0.25500000920E-02 0. -1.
    10030    2    1    2    0    0  0.00000000000E+00  0.00000000000E+00  0.17958090588E+04  0.33966881592E+04  0.28831511016E+04 0.  0.
        1    1    3    3  502    0  0.82941777500E+03  0.11780178893E+04  0.83923390031E+03  0.16673252629E+04  0.50400001928E-02 0.  1.
       -1    1    3    3    0  502 -0.82941777500E+03 -0.11780178893E+04  0.95657515853E+03  0.17293628962E+04  0.50400001928E-02 0. -1.
</event>
<event>
 5   0  0.1550278E-06  0.2907520E+04  0.7818609E-02  0.8270643E-01
        1   -1    0    0  501    0  0.00000000000E+00  0.00000000000E+00  0.29141253034E+04  0.29141253035E+04  0.50400001928E-02 0.  1.
       -1   -1    0    0    0  501  0.00000000000E+00  0.00000000000E+00 -0.72523266160E+03  0.72523266161E+03  0.50400001928E-02 0. -1.
    10030    2    1    2    0    0  0.00000000000E+00  0.00000000000E+00  0.21888926419E+04  0.36393579651E+04  0.29075204901E+04 0.  0.
        2    1    3    3  502    0 -0.22526299918E+03 -0.72452922472E+03  0.26466275761E+04  0.27532387370E+04  0.25500000920E-02 0.  1.
       -2    1    3    3    0  502  0.22526299918E+03  0.72452922472E+03 -0.45773493427E+03  0.88611922806E+03  0.25500000920E-02 0. -1.
</event>
<event>
 5   0  0.4162450E-06  0.2904150E+04  0.7818609E-02  0.8271644E-01
       -2   -1    0    0    0  501  0.00000000000E+00  0.00000000000E+00  0.13002188239E+04  0.13002188239E+04  0.25500000920E-02 0.  1.
        2   -1    0    0  501    0  0.00000000000E+00  0.00000000000E+00 -0.16216670218E+04  0.16216670218E+04  0.25500000920E-02 0. -1.
    10030    2    1    2    0    0  0.00000000000E+00  0.00000000000E+00 -0.32144819796E+03  0.29218858457E+04  0.29041501255E+04 0.  0.
        2    1    3    3  502    0 -0.68465256774E+03 -0.45843670508E+03 -0.13636884664E+04  0.15932857824E+04  0.25500000920E-02 0. -1.
       -2    1    3    3    0  502  0.68465256774E+03  0.45843670508E+03  0.10422402684E+04  0.13286000633E+04  0.25500000920E-02 0.  1.
</event>
<event>
 5   0  0.4115143E-06  0.2920282E+04  0.7818609E-02  0.8266868E-01
        2   -1    0    0  501    0  0.00000000000E+00  0.00000000000E+00  0.15907443827E+04  0.15907443827E+04  0.25500000920E-02 0.  1.
       -2   -1    0    0    0  501  0.00000000000E+00  0.00000000000E+00 -0.13402607618E+04  0.13402607618E+04  0.25500000920E-02 0. -1.
    10030    2    1    2    0    0  0.00000000000E+00  0.00000000000E+00  0.25048362089E+03  0.29310051446E+04  0.29202823687E+04 0.  0.
        1    1    3    3  502    0 -0.11939188671E+04 -0.81408811843E+03  0.33536801053E+03  0.14834599517E+04  0.50400001928E-02 0.  1.
       -1    1    3    3    0  502  0.11939188671E+04  0.81408811843E+03 -0.84884389637E+02  0.14475451929E+04  0.50400001928E-02 0. -1.
</event>
<event>
 5   0  0.1550278E-06  0.2887922E+04  0.7818609E-02  0.8276480E-01
        1   -1    0    0  501    0  0.00000000000E+00  0.00000000000E+00  0.12055344359E+04  0.12055344359E+04  0.50400001928E-02 0.  1.
       -1   -1    0    0    0  501  0.00000000000E+00  0.00000000000E+00 -0.17295428519E+04  0.17295428519E+04  0.50400001928E-02 0. -1.
    10030    2    1    2    0    0  0.00000000000E+00  0.00000000000E+00 -0.52400841595E+03  0.29350772878E+04  0.28879220671E+04 0.  0.
        2    1    3    3  502    0  0.11891148185E+04 -0.41437572007E+03  0.45616122941E+03  0.13393223497E+04  0.25500000920E-02 0.  1.
       -2    1    3    3    0  502 -0.11891148185E+04  0.41437572007E+03 -0.98016964537E+03  0.15957549382E+04  0.25500000920E-02 0. -1.
</event>
<event>
 5   0  0.1580212E-06  0.2909974E+04  0.7818609E-02  0.8269916E-01
        1   -1    0    0  501    0  0.00000000000E+00  0.00000000000E+00  0.15108750025E+04  0.15108750025E+04  0.50400001928E-02 0.  1.
       -1   -1    0    0    0  501  0.00000000000E+00  0.00000000000E+00 -0.14011665646E+04  0.14011665646E+04  0.50400001928E-02 0. -1.
    10030    2    1    2    0    0  0.00000000000E+00  0.00000000000E+00  0.10970843789E+03  0.29120415672E+04  0.29099742521E+04 0.  0.
        4    1    3    3  502    0  0.47927306999E+03  0.13241416059E+04 -0.31137333447E+03  0.14422235036E+04  0.12699999809E+01 0. -1.
       -4    1    3    3    0  502 -0.47927306999E+03 -0.13241416059E+04  0.42108177236E+03  0.14698180636E+04  0.12699999809E+01 0.  1.
</event>
<event>
 5   0  0.4148677E-06  0.2902955E+04  0.7818609E-02  0.8271999E-01
        2   -1    0    0  501    0  0.00000000000E+00  0.00000000000E+00  0.10477268640E+04  0.10477268640E+04  0.25500000920E-02 0. -1.
       -2   -1    0    0    0  501  0.00000000000E+00  0.00000000000E+00 -0.20108164402E+04  0.20108164402E+04  0.25500000920E-02 0.  1.
    10030    2    1    2    0    0  0.00000000000E+00  0.00000000000E+00 -0.96308957627E+03  0.30585433042E+04  0.29029546348E+04 0.  0.
        5    1    3    3  502    0 -0.12618308811E+04  0.19290853542E+03  0.24637799705E+03  0.13000596459E+04  0.46999998093E+01 0. -1.
       -5    1    3    3    0  502  0.12618308811E+04 -0.19290853542E+03 -0.12094675733E+04  0.17584836583E+04  0.46999998093E+01 0.  1.
</event>
<event>
 5   0  0.1511126E-06  0.2913602E+04  0.7818609E-02  0.8268842E-01
        1   -1    0    0  501    0  0.00000000000E+00  0.00000000000E+00  0.18916461003E+04  0.18916461003E+04  0.50400001928E-02 0. -1.
       -1   -1    0    0    0  501  0.00000000000E+00  0.00000000000E+00 -0.11219167710E+04  0.11219167710E+04  0.50400001928E-02 0.  1.
    10030    2    1    2    0    0  0.00000000000E+00  0.00000000000E+00  0.76972932928E+03  0.30135628713E+04  0.29136022273E+04 0.  0.
        5    1    3    3  502    0 -0.80202892899E+03 -0.12123099889E+04  0.28511163676E+03  0.14813023484E+04  0.46999998093E+01 0.  1.
       -5    1    3    3    0  502  0.80202892899E+03  0.12123099889E+04  0.48461769252E+03  0.15322605229E+04  0.46999998093E+01 0. -1.
</event>
<event>
 5   0  0.1543678E-06  0.2869838E+04  0.7818609E-02  0.8281909E-01
        1   -1    0    0  501    0  0.00000000000E+00  0.00000000000E+00  0.25320957651E+04  0.25320957652E+04  0.50400001928E-02 0. -1.
       -1   -1    0    0    0  501  0.00000000000E+00  0.00000000000E+00 -0.81315744287E+03  0.81315744289E+03  0.50400001928E-02 0.  1.
    10030    2    1    2    0    0  0.00000000000E+00  0.00000000000E+00  0.17189383223E+04  0.33452532080E+04  0.28698379867E+04 0.  0.
        3    1    3    3  502    0  0.13805531352E+04  0.38899699476E+03  0.81074953699E+03  0.16475923170E+04  0.10100000352E+00 0.  1.
       -3    1    3    3    0  502 -0.13805531352E+04 -0.38899699476E+03  0.90818878529E+03  0.16976608910E+04  0.10100000352E+00 0. -1.
</event>
<event>
 5   0  0.4187518E-06  0.2895405E+04  0.7818609E-02  0.8274246E-01
       -2   -1    0    0    0  501  0.00000000000E+00  0.00000000000E+00  0.10873423365E+04  0.10873423365E+04  0.25500000920E-02 0. -1.
        2   -1    0    0  501    0  0.00000000000E+00  0.00000000000E+00 -0.19274914188E+04  0.19274914188E+04  0.25500000920E-02 0.  1.
    10030    2    1    2    0    0  0.00000000000E+00  0.00000000000E+00 -0.84014908223E+03  0.30148337553E+04  0.28954053415E+04 0.  0.
        3    1    3    3  502    0  0.34958213501E+03 -0.11051301160E+04  0.48306758766E+03  0.12557366550E+04  0.10100000352E+00 0. -1.
       -3    1    3    3    0  502 -0.34958213501E+03  0.11051301160E+04 -0.13232166699E+04  0.17590971002E+04  0.10100000352E+00 0.  1.
</event>
<event>
 5   0  0.4148677E-06  0.2887452E+04  0.7818609E-02  0.8276621E-01
        2   -1    0    0  501    0  0.00000000000E+00  0.00000000000E+00  0.22996859980E+04  0.22996859980E+04  0.25500000920E-02 0. -1.
       -2   -1    0    0    0  501  0.00000000000E+00  0.00000000000E+00 -0.90636033007E+03  0.90636033007E+03  0.25500000920E-02 0.  1.
    10030    2    1    2    0    0  0.00000000000E+00  0.00000000000E+00  0.13933256680E+04  0.32060463281E+04  0.28874515824E+04 0.  0.
        5    1    3    3  502    0 -0.87779397000E+03  0.64146279068E+03  0.17513815473E+04  0.20613966576E+04  0.46999998093E+01 0. -1.
       -5    1    3    3    0  502  0.87779397000E+03 -0.64146279068E+03 -0.35805587933E+03  0.11446496706E+04  0.46999998093E+01 0.  1.
</event>
<event>
 5   0  0.1511126E-06  0.2908389E+04  0.7818609E-02  0.8270386E-01
       -1   -1    0    0    0  501  0.00000000000E+00  0.00000000000E+00  0.32865252056E+04  0.32865252056E+04  0.50400001928E-02 0.  1.
        1   -1    0    0  501    0  0.00000000000E+00  0.00000000000E+00 -0.64343984678E+03  0.64343984680E+03  0.50400001928E-02 0. -1.
    10030    2    1    2    0    0  0.00000000000E+00  0.00000000000E+00  0.26430853588E+04  0.39299650524E+04  0.29083887462E+04 0.  0.
        5    1    3    3  502    0 -0.56307695818E+03  0.34455244557E+03  0.30723847903E+04  0.31425057579E+04  0.46999998093E+01 0.  1.
       -5    1    3    3    0  502  0.56307695818E+03 -0.34455244557E+03 -0.42929943152E+03  0.78745929450E+03  0.46999998093E+01 0. -1.
</event>
<event>
 5   0  0.1550278E-06  0.2924295E+04  0.7818609E-02  0.8265686E-01
       -1   -1    0    0    0  501  0.00000000000E+00  0.00000000000E+00  0.85774792756E+03  0.85774792757E+03  0.50400001928E-02 0.  1.
        1   -1    0    0  501    0  0.00000000000E+00  0.00000000000E+00 -0.24924276010E+04  0.24924276010E+04  0.50400001928E-02 0. -1.
    10030    2    1    2    0    0  0.00000000000E+00  0.00000000000E+00 -0.16346796735E+04  0.33501755286E+04  0.29242945196E+04 0.  0.
        2    1    3    3  502    0 -0.64474721919E+03 -0.39811106560E+02  0.68540497868E+03  0.94184069017E+03  0.25500000920E-02 0.  1.
       -2    1    3    3    0  502  0.64474721919E+03  0.39811106560E+02 -0.23200846521E+04  0.24083348384E+04  0.25500000920E-02 0. -1.
</event>
<event>
 5   0  0.4224163E-06  0.2894157E+04  0.7818609E-02  0.8274618E-01
       -2   -1    0    0    0  501  0.00000000000E+00  0.00000000000E+00  0.11924661085E+04  0.11924661085E+04  0.25500000920E-02 0. -1.
        2   -1    0    0  501    0  0.00000000000E+00  0.00000000000E+00 -0.17560548775E+04  0.17560548775E+04  0.25500000920E-02 0.  1.
    10030    2    1    2    0    0  0.00000000000E+00  0.00000000000E+00 -0.56358876898E+03  0.29485209860E+04  0.28941568210E+04 0.  0.
        4    1    3    3  502    0  0.35107369310E+03 -0.32096422160E+03  0.11105385961E+04  0.12081259685E+04  0.12699999809E+01 0. -1.
       -4    1    3    3    0  502 -0.35107369310E+03  0.32096422160E+03 -0.16741273651E+04  0.17403950175E+04  0.12699999809E+01 0.  1.
</event>
<event>
 5   0  0.4148677E-06  0.2918890E+04  0.7818609E-02  0.8267279E-01
       -2   -1    0    0    0  501  0.00000000000E+00  0.00000000000E+00  0.10041082763E+04  0.10041082763E+04  0.25500000920E-02 0. -1.
        2   -1    0    0  501    0  0.00000000000E+00  0.00000000000E+00 -0.21212646400E+04  0.21212646400E+04  0.25500000920E-02 0.  1.
    10030    2    1    2    0    0  0.00000000000E+00  0.00000000000E+00 -0.11171563637E+04  0.31253729163E+04  0.29188897761E+04 0.  0.
        5    1    3    3  502    0  0.10978964243E+04 -0.67508776394E+02  0.46845283947E+03  0.11955769094E+04  0.46999998093E+01 0. -1.
       -5    1    3    3    0  502 -0.10978964243E+04  0.67508776394E+02 -0.15856092032E+04  0.19297960070E+04  0.46999998093E+01 0.  1.
</event>
<event>
 5   0  0.1602873E-06  0.2901751E+04  0.7818609E-02  0.8272357E-01
        1   -1    0    0  501    0  0.00000000000E+00  0.00000000000E+00  0.14207153731E+04  0.14207153731E+04  0.50400001928E-02 0. -1.
       -1   -1    0    0    0  501  0.00000000000E+00  0.00000000000E+00 -0.14816754668E+04  0.14816754668E+04  0.50400001928E-02 0.  1.
    10030    2    1    2    0    0  0.00000000000E+00  0.00000000000E+00 -0.60960093672E+02  0.29023908399E+04  0.29017505845E+04 0.  0.
        1    1    3    3  502    0  0.10913337670E+04 -0.48714311798E+03  0.79233218442E+03  0.14339135605E+04  0.50400001928E-02 0. -1.
       -1    1    3    3    0  502 -0.10913337670E+04  0.48714311798E+03 -0.85329227809E+03  0.14684772795E+04  0.50400001928E-02 0.  1.
</event>
<event>
 5   0  0.4162450E-06  0.2914685E+04  0.7818609E-02  0.8268522E-01
        2   -1    0    0  501    0  0.00000000000E+00  0.00000000000E+00  0.21093408591E+04  0.21093408591E+04  0.25500000920E-02 0. -1.
       -2   -1    0    0    0  501  0.00000000000E+00  0.00000000000E+00 -0.10068769036E+04  0.10068769036E+04  0.25500000920E-02 0.  1.
    10030    2    1    2    0    0  0.00000000000E+00  0.00000000000E+00  0.11024639554E+04  0.31162177627E+04  0.29146846093E+04 0.  0.
        2    1    3    3  502    0  0.11480679137E+04 -0.82641113151E+03  0.92593807111E+03  0.16906734174E+04  0.25500000920E-02 0.  1.
       -2    1    3    3    0  502 -0.11480679137E+04  0.82641113151E+03  0.17652588433E+03  0.14255443453E+04  0.25500000920E-02 0. -1.
</event>
<event>
 5   0  0.1550278E-06  0.2897907E+04  0.7818609E-02  0.8273500E-01
        1   -1    0    0  501    0  0.00000000000E+00  0.00000000000E+00  0.18920054758E+04  0.18920054758E+04  0.50400001928E-02 0. -1.
       -1   -1    0    0    0  501  0.00000000000E+00  0.00000000000E+00 -0.11096515148E+04  0.11096515148E+04  0.50400001928E-02 0.  1.
    10030    2    1    2    0    0  0.00000000000E+00  0.00000000000E+00  0.78235396094E+03  0.30016569906E+04  0.28979073431E+04 0.  0.
        2    1    3    3  502    0  0.35016256964E+02 -0.10735075090E+04 -0.61617518927E+03  0.12382715268E+04  0.25500000920E-02 0.  1.
       -2    1    3    3    0  502 -0.35016256964E+02  0.10735075090E+04  0.13985291502E+04  0.17633854639E+04  0.25500000920E-02 0. -1.
</event>
<event>
 5   0  0.4115143E-06  0.2779028E+04  0.7818609E-02  0.8309809E-01
        2   -1    0    0  501    0  0.00000000000E+00  0.00000000000E+00  0.74721323577E+03  0.74721323577E+03  0.25500000920E-02 0. -1.
       -2   -1    0    0    0  501  0.00000000000E+00  0.00000000000E+00 -0.25839337532E+04  0.25839337532E+04  0.25500000920E-02 0.  1.
    10030    2    1    2    0    0  0.00000000000E+00  0.00000000000E+00 -0.18367205175E+04  0.33311469890E+04  0.27790282480E+04 0.  0.
        1    1    3    3  502    0  0.12079965324E+04 -0.34477897706E+02 -0.96324511006E+02  0.12123212277E+04  0.50400001928E-02 0. -1.
       -1    1    3    3    0  502 -0.12079965324E+04  0.34477897706E+02 -0.17403960065E+04  0.21188257614E+04  0.50400001928E-02 0.  1.
</event>
<event>
 5   0  0.1543678E-06  0.2881991E+04  0.7818609E-02  0.8278256E-01
       -1   -1    0    0    0  501  0.00000000000E+00  0.00000000000E+00  0.12757646650E+04  0.12757646650E+04  0.50400001928E-02 0.  1.
        1   -1    0    0  501    0  0.00000000000E+00  0.00000000000E+00 -0.16276260114E+04  0.16276260114E+04  0.50400001928E-02 0. -1.
    10030    2    1    2    0    0  0.00000000000E+00  0.00000000000E+00 -0.35186134641E+03  0.29033906765E+04  0.28819908072E+04 0.  0.
        3    1    3    3  502    0  0.13789356551E+04  0.28725290818E+03 -0.48231052610E+03  0.14888254525E+04  0.10100000352E+00 0. -1.
       -3    1    3    3    0  502 -0.13789356551E+04 -0.28725290818E+03  0.13044917969E+03  0.14145652240E+04  0.10100000352E+00 0.  1.
</event>
<event>
 5   0  0.1543678E-06  0.2914954E+04  0.7818609E-02  0.8268442E-01
       -1   -1    0    0    0  501  0.00000000000E+00  0.00000000000E+00  0.89547569964E+03  0.89547569965E+03  0.50400001928E-02 0. -1.
        1   -1    0    0  501    0  0.00000000000E+00  0.00000000000E+00 -0.23721904798E+04  0.23721904798E+04  0.50400001928E-02 0.  1.
    10030    2    1    2    0    0  0.00000000000E+00  0.00000000000E+00 -0.14767147801E+04  0.32676661794E+04  0.29149538107E+04 0.  0.
        3    1    3    3  502    0  0.83495528390E+03 -0.17361609853E+03 -0.20632962003E+04  0.22325958202E+04  0.10100000352E+00 0.  1.
       -3    1    3    3    0  502 -0.83495528390E+03  0.17361609853E+03  0.58658142023E+03  0.10350703592E+04  0.10100000352E+00 0. -1.
</event>
<event>
 5   0  0.4224163E-06  0.2904338E+04  0.7818609E-02  0.8271588E-01
        2   -1    0    0  501    0  0.00000000000E+00  0.00000000000E+00  0.18709191805E+04  0.18709191805E+04  0.25500000920E-02 0.  1.
       -2   -1    0    0    0  501  0.00000000000E+00  0.00000000000E+00 -0.11271435979E+04  0.11271435979E+04  0.25500000920E-02 0. -1.
    10030    2    1    2    0    0  0.00000000000E+00  0.00000000000E+00  0.74377558267E+03  0.29980627784E+04  0.29043378429E+04 0.  0.
        4    1    3    3  502    0 -0.29502755479E+03 -0.24778917398E+01 -0.10958782602E+04  0.11349000714E+04  0.12699999809E+01 0. -1.
       -4    1    3    3    0  502  0.29502755479E+03  0.24778917398E+01  0.18396538429E+04  0.18631627070E+04  0.12699999809E+01 0.  1.
</event>
<event>
 5   0  0.4115143E-06  0.2905648E+04  0.7818609E-02  0.8271199E-01
       -2   -1    0    0    0  501  0.00000000000E+00  0.00000000000E+00  0.96758182695E+03  0.96758182695E+03  0.25500000920E-02 0.  1.
        2   -1    0    0  501    0  0.00000000000E+00  0.00000000000E+00 -0.21814150929E+04  0.21814150930E+04  0.25500000920E-02 0. -1.
    10030    2    1    2    0    0  0.00000000000E+00  0.00000000000E+00 -0.12138332660E+04  0.31489969199E+04  0.29056480179E+04 0.  0.
        1    1    3    3  502    0 -0.13199098298E+04  0.84660613199E+01 -0.12647664289E+04  0.18280776112E+04  0.50400001928E-02 0.  1.
       -1    1    3    3    0  502  0.13199098298E+04 -0.84660613199E+01  0.50933162940E+02  0.13209193087E+04  0.50400001928E-02 0. -1.
</event>
<event>
 5   0  0.1550278E-06  0.2891488E+04  0.7818609E-02  0.8275414E-01
        1   -1    0    0  501    0  0.00000000000E+00  0.00000000000E+00  0.13191650584E+04  0.13191650584E+04  0.50400001928E-02 0.  1.
       -1   -1    0    0    0  501  0.00000000000E+00  0.00000000000E+00 -0.15844689667E+04  0.15844689667E+04  0.50400001928E-02 0. -1.
    10030    2    1    2    0    0  0.00000000000E+00  0.00000000000E+00 -0.26530390827E+03  0.29036340251E+04  0.28914882652E+04 0.  0.
        2    1    3    3  502    0  0.31718863967E+03 -0.49782582716E+03  0.11926404852E+04  0.13307255593E+04  0.25500000920E-02 0.  1.
       -2    1    3    3    0  502 -0.31718863967E+03  0.49782582716E+03 -0.14579443934E+04  0.15729084658E+04  0.25500000920E-02 0. -1.
</event>
<event>
 5   0  0.1580212E-06  0.2907185E+04  0.7818609E-02  0.8270743E-01
        1   -1    0    0  501    0  0.00000000000E+00  0.00000000000E+00  0.14368806830E+04  0.14368806830E+04  0.50400001928E-02 0.  1.
       -1   -1    0    0    0  501  0.00000000000E+00  0.00000000000E+00 -0.14704990880E+04  0.14704990880E+04  0.50400001928E-02 0. -1.
    10030    2    1    2    0    0  0.00000000000E+00  0.00000000000E+00 -0.33618404998E+02  0.29073797710E+04  0.29071853975E+04 0.  0.
        4    1    3    3  502    0  0.12027974943E+04  0.81592660125E+03 -0.38538287623E+02  0.14539411417E+04  0.12699999809E+01 0. -1.
       -4    1    3    3    0  502 -0.12027974943E+04 -0.81592660125E+03  0.49198826250E+01  0.14534386293E+04  0.12699999809E+01 0.  1.
</event>
<event>
 5   0  0.1511126E-06  0.2899010E+04  0.7818609E-02  0.8273172E-01
       -1   -1    0    0    0  501  0.00000000000E+00  0.00000000000E+00  0.19641040416E+04  0.19641040416E+04  0.50400001928E-02 0.  1.
        1   -1    0    0  501    0  0.00000000000E+00  0.00000000000E+00 -0.10697320542E+04  0.10697320542E+04  0.50400001928E-02 0. -1.
    10030    2    1    2    0    0  0.00000000000E+00  0.00000000000E+00  0.89437198746E+03  0.30338360958E+04  0.28990102112E+04 0.  0.
        5    1    3    3  502    0  0.12780231556E+04  0.67829542396E+03  0.53850895031E+03  0.15438399684E+04  0.46999998093E+01 0. -1.
       -5    1    3    3    0  502 -0.12780231556E+04 -0.67829542396E+03  0.35586303715E+03  0.14899961274E+04  0.46999998093E+01 0.  1.
</event>
<event>
 5   0  0.4162450E-06  0.2904642E+04  0.7818609E-02  0.8271498E-01
       -2   -1    0    0    0  501  0.00000000000E+00  0.00000000000E+00  0.13781929900E+04  0.13781929900E+04  0.25500000920E-02 0. -1.
        2   -1    0    0  501    0  0.00000000000E+00  0.00000000000E+00 -0.15304357453E+04  0.15304357453E+04  0.25500000920E-02 0.  1.
    10030    2    1    2    0    0  0.00000000000E+00  0.00000000000E+00 -0.15224275527E+03  0.29086287353E+04  0.29046416755E+04 0.  0.
        2    1    3    3  502    0  0.50799795237E+03 -0.92053059773E+02  0.12832028557E+04  0.13831649411E+04  0.25500000920E-02 0. -1.
       -2    1    3    3    0  502 -0.50799795237E+03  0.92053059773E+02 -0.14354456109E+04  0.15254637942E+04  0.25500000920E-02 0.  1.
</event>
<event>
 5   0  0.1580212E-06  0.2895941E+04  0.7818609E-02  0.8274086E-01
       -1   -1    0    0    0  501  0.00000000000E+00  0.00000000000E+00  0.11029552177E+04  0.11029552177E+04  0.50400001928E-02 0. -1.
        1   -1    0    0  501    0  0.00000000000E+00  0.00000000000E+00 -0.19009100573E+04  0.19009100573E+04  0.50400001928E-02 0.  1.
    10030    2    1    2    0    0  0.00000000000E+00  0.00000000000E+00 -0.79795483961E+03  0.30038652750E+04  0.28959410671E+04 0.  0.
        4    1    3    3  502    0  0.14824780634E+03  0.78346551691E+03 -0.16526649196E+04  0.18349655522E+04  0.12699999809E+01 0.  1.
       -4    1    3    3    0  502 -0.14824780634E+03 -0.78346551691E+03  0.85471007999E+03  0.11688997228E+04  0.12699999809E+01 0. -1.
</event>
<event>
 5   0  0.4148677E-06  0.2898654E+04  0.7818609E-02  0.8273278E-01
        2   -1    0    0  501    0  0.00000000000E+00  0.00000000000E+00  0.16297703079E+04  0.16297703079E+04  0.25500000920E-02 0.  1.
       -2   -1    0    0    0  501  0.00000000000E+00  0.00000000000E+00 -0.12888619040E+04  0.12888619040E+04  0.25500000920E-02 0. -1.
    10030    2    1    2    0    0  0.00000000000E+00  0.00000000000E+00  0.34090840388E+03  0.29186322119E+04  0.28986540753E+04 0.  0.
        5    1    3    3  502    0 -0.33966643002E+02 -0.69800093482E+03 -0.11080085929E+04  0.13099863243E+04  0.46999998093E+01 0. -1.
       -5    1    3    3    0  502  0.33966643002E+02  0.69800093482E+03  0.14489169968E+04  0.16086458876E+04  0.46999998093E+01 0.  1.
</event>
<event>
 5   0  0.1511126E-06  0.2891670E+04  0.7818609E-02  0.8275360E-01
        1   -1    0    0  501    0  0.00000000000E+00  0.00000000000E+00  0.24808646798E+04  0.24808646798E+04  0.50400001928E-02 0. -1.
       -1   -1    0    0    0  501  0.00000000000E+00  0.00000000000E+00 -0.84262489635E+03  0.84262489637E+03  0.50400001928E-02 0.  1.
    10030    2    1    2    0    0  0.00000000000E+00  0.00000000000E+00  0.16382397834E+04  0.33234895762E+04  0.28916696517E+04 0.  0.
        5    1    3    3  502    0 -0.71327697766E+03 -0.12546811629E+04  0.72006780081E+03  0.16129192774E+04  0.46999998093E+01 0. -1.
       -5    1    3    3    0  502  0.71327697766E+03  0.12546811629E+04  0.91817198263E+03  0.17105702988E+04  0.46999998093E+01 0.  1.
</event>
<event>
 5   0  0.1602873E-06  0.2907050E+04  0.7818609E-02  0.8270783E-01
       -1   -1    0    0    0  501  0.00000000000E+00  0.00000000000E+00  0.12093207605E+04  0.12093207605E+04  0.50400001928E-02 0.  1.
        1   -1    0    0  501    0  0.00000000000E+00  0.00000000000E+00 -0.17470423331E+04  0.17470423331E+04  0.50400001928E-02 0. -1.
    10030    2    1    2    0    0  0.00000000000E+00  0.00000000000E+00 -0.53772157262E+03  0.29563630936E+04  0.29070497505E+04 0.  0.
        1    1    3    3  502    0  0.10853579455E+03 -0.10803309628E+04 -0.12516071388E+04  0.16569295211E+04  0.50400001928E-02 0. -1.
       -1    1    3    3    0  502 -0.10853579455E+03  0.10803309628E+04  0.71388556620E+03  0.12994335726E+04  0.50400001928E-02 0.  1.
</event>
<event>
 5   0  0.4162450E-06  0.2887303E+04  0.7818609E-02  0.8276665E-01
        2   -1    0    0  501    0  0.00000000000E+00  0.00000000000E+00  0.21875791438E+04  0.21875791438E+04  0.25500000920E-02 0. -1.
       -2   -1    0    0    0  501  0.00000000000E+00  0.00000000000E+00 -0.95271025934E+03  0.95271025934E+03  0.25500000920E-02 0.  1.
    10030    2    1    2    0    0  0.00000000000E+00  0.00000000000E+00  0.12348688845E+04  0.31402894032E+04  0.28873026121E+04 0.  0.
        2    1    3    3  502    0  0.12827373729E+03 -0.44074894207E+03  0.21060906153E+04  0.21555350755E+04  0.25500000920E-02 0. -1.
       -2    1    3    3    0  502 -0.12827373729E+03  0.44074894207E+03 -0.87122173085E+03  0.98475432770E+03  0.25500000920E-02 0.  1.
</event>
<event>
 5   0  0.1511126E-06  0.2886417E+04  0.7818609E-02  0.8276930E-01
       -1   -1    0    0    0  501  0.00000000000E+00  0.00000000000E+00  0.12741684713E+04  0.12741684713E+04  0.50400001928E-02 0. -1.
        1   -1    0    0  501    0  0.00000000000E+00  0.00000000000E+00 -0.16346741707E+04  0.16346741708E+04  0.50400001928E-02 0.  1.
    10030    2    1    2    0    0  0.00000000000E+00  0.00000000000E+00 -0.36050569943E+03  0.29088426421E+04  0.28864166638E+04 0.  0.
        5    1    3    3  502    0 -0.10575158227E+04  0.18883715351E+03  0.79099281075E+03  0.13340505622E+04  0.46999998093E+01 0. -1.
       -5    1    3    3    0  502  0.10575158227E+04 -0.18883715351E+03 -0.11514985102E+04  0.15747920799E+04  0.46999998093E+01 0.  1.
</event>
<event>
 5   0  0.4115143E-06  0.2911528E+04  0.7818609E-02  0.8269456E-01
        2   -1    0    0  501    0  0.00000000000E+00  0.00000000000E+00  0.21272768303E+04  0.21272768303E+04  0.25500000920E-02 0.  1.
       -2   -1    0    0    0  501  0.00000000000E+00  0.00000000000E+00 -0.99622605892E+03  0.99622605892E+03  0.25500000920E-02 0. -1.
    10030    2    1    2    0    0  0.00000000000E+00  0.00000000000E+00  0.11310507714E+04  0.31235028892E+04  0.29115278552E+04 0.  0.
        1    1    3    3  502    0  0.92567709231E+03  0.74085369348E+03  0.14717166689E+04  0.18898921207E+04  0.50400001928E-02 0.  1.
       -1    1    3    3    0  502 -0.92567709231E+03 -0.74085369348E+03 -0.34066589755E+03  0.12336107685E+04  0.50400001928E-02 0. -1.
</event>
<event>
 5   0  0.1602873E-06  0.2927850E+04  0.7818609E-02  0.8264639E-01
        1   -1    0    0  501    0  0.00000000000E+00  0.00000000000E+00  0.12596536676E+04  0.12596536676E+04  0.50400001928E-02 0.  1.
       -1   -1    0    0    0  501  0.00000000000E+00  0.00000000000E+00 -0.17013220431E+04  0.17013220431E+04  0.50400001928E-02 0. -1.
    10030    2    1    2    0    0  0.00000000000E+00  0.00000000000E+00 -0.44166837550E+03  0.29609757108E+04  0.29278500996E+04 0.  0.
        1    1    3    3  502    0 -0.13685913544E+04  0.45874017806E+03  0.26041835607E+02  0.14436630575E+04  0.50400001928E-02 0. -1.
       -1    1    3    3    0  502  0.13685913544E+04 -0.45874017806E+03 -0.46771021111E+03  0.15173126533E+04  0.50400001928E-02 0.  1.
</event>
<event>
 5   0  0.1550278E-06  0.2926996E+04  0.7818609E-02  0.8264890E-01
       -1   -1    0    0    0  501  0.00000000000E+00  0.00000000000E+00  0.10620830152E+04  0.10620830152E+04  0.50400001928E-02 0.  1.
        1   -1    0    0  501    0  0.00000000000E+00  0.00000000000E+00 -0.20166278505E+04  0.20166278505E+04  0.50400001928E-02 0. -1.
    10030    2    1    2    0    0  0.00000000000E+00  0.00000000000E+00 -0.95454483525E+03  0.30787108657E+04  0.29269958579E+04 0.  0.
        2    1    3    3  502    0  0.90762465043E+03  0.10904660098E+04 -0.99596159944E+02  0.14222580707E+04  0.25500000920E-02 0.  1.
       -2    1    3    3    0  502 -0.90762465043E+03 -0.10904660098E+04 -0.85494867531E+03  0.16564527950E+04  0.25500000920E-02 0. -1.
</event>
<event>
 5   0  0.4224163E-06  0.2884868E+04  0.7818609E-02  0.8277394E-01
        2   -1    0    0  501    0  0.00000000000E+00  0.00000000000E+00  0.16322416249E+04  0.16322416249E+04  0.25500000920E-02 0.  1.
       -2   -1    0    0    0  501  0.00000000000E+00  0.00000000000E+00 -0.12746984153E+04  0.12746984153E+04  0.25500000920E-02 0. -1.
    10030    2    1    2    0    0  0.00000000000E+00  0.00000000000E+00  0.35754320964E+03  0.29069400403E+04  0.28848679781E+04 0.  0.
        4    1    3    3  502    0 -0.14896036135E+03 -0.14261243448E+04  0.33679737882E+03  0.14729066241E+04  0.12699999809E+01 0.  1.
       -4    1    3    3    0  502  0.14896036135E+03  0.14261243448E+04  0.20745830813E+02  0.14340334161E+04  0.12699999809E+01 0. -1.
</event>
<event>
 5   0  0.4162450E-06  0.2914320E+04  0.7818609E-02  0.8268630E-01
       -2   -1    0    0    0  501  0.00000000000E+00  0.00000000000E+00  0.10470093812E+04  0.10470093813E+04  0.25500000920E-02 0. -1.
        2   -1    0    0  501    0  0.00000000000E+00  0.00000000000E+00 -0.20279811415E+04  0.20279811415E+04  0.25500000920E-02 0.  1.
    10030    2    1    2    0    0  0.00000000000E+00  0.00000000000E+00 -0.98097176023E+03  0.30749905227E+04  0.29143200100E+04 0.  0.
        2    1    3    3  502    0  0.11440061668E+04 -0.40938244867E+03  0.35820397580E+03  0.12667494572E+04  0.25500000920E-02 0. -1.
       -2    1    3    3    0  502 -0.11440061668E+04  0.40938244867E+03 -0.13391757360E+04  0.18082410655E+04  0.25500000920E-02 0.  1.
</event>
<event>
 5   0  0.4224163E-06  0.2881566E+04  0.7818609E-02  0.8278383E-01
       -2   -1    0    0    0  501  0.00000000000E+00  0.00000000000E+00  0.12784931364E+04  0.12784931364E+04  0.25500000920E-02 0.  1.
        2   -1    0    0  501    0  0.00000000000E+00  0.00000000000E+00 -0.16236733341E+04  0.16236733341E+04  0.25500000920E-02 0. -1.
    10030    2    1    2    0    0  0.00000000000E+00  0.00000000000E+00 -0.34518019775E+03  0.29021664705E+04  0.28815656948E+04 0.  0.
        4    1    3    3  502    0  0.39823312137E+03  0.13032658389E+04  0.29847385324E+03  0.13950554540E+04  0.12699999809E+01 0.  1.
       -4    1    3    3    0  502 -0.39823312137E+03 -0.13032658389E+04 -0.64365405099E+03  0.15071110165E+04  0.12699999809E+01 0. -1.
</event>
<event>
 5   0  0.1550278E-06  0.2878637E+04  0.7818609E-02  0.8279262E-01
        1   -1    0    0  501    0  0.00000000000E+00  0.00000000000E+00  0.20668031006E+04  0.20668031006E+04  0.50400001928E-02 0.  1.
       -1   -1    0    0    0  501  0.00000000000E+00  0.00000000000E+00 -0.10023394073E+04  0.10023394073E+04  0.50400001928E-02 0. -1.
    10030    2    1    2    0    0  0.00000000000E+00  0.00000000000E+00  0.10644636933E+04  0.30691425080E+04  0.28786373130E+04 0.  0.
        2    1    3    3  502    0 -0.10401059429E+04 -0.71631901726E+03  0.12683625064E+04  0.17898817711E+04  0.25500000920E-02 0.  1.
       -2    1    3    3    0  502  0.10401059429E+04  0.71631901726E+03 -0.20389881306E+03  0.12792607369E+04  0.25500000920E-02 0. -1.
</event>
<event>
 5   0  0.4115143E-06  0.2901653E+04  0.7818609E-02  0.8272386E-01
       -2   -1    0    0    0  501  0.00000000000E+00  0.00000000000E+00  0.84450569212E+03  0.84450569212E+03  0.25500000920E-02 0. -1.
        2   -1    0    0  501    0  0.00000000000E+00  0.00000000000E+00 -0.24924614878E+04  0.24924614878E+04  0.25500000920E-02 0.  1.
    10030    2    1    2    0    0  0.00000000000E+00  0.00000000000E+00 -0.16479557957E+04  0.33369671799E+04  0.29016532624E+04 0.  0.
        1    1    3    3  502    0  0.84780020054E+03  0.10053270192E+04 -0.11931296590E+03  0.13204859634E+04  0.50400001928E-02 0. -1.
       -1    1    3    3    0  502 -0.84780020054E+03 -0.10053270192E+04 -0.15286428298E+04  0.20164812166E+04  0.50400001928E-02 0.  1.
</event>
<event>
 5   0  0.1580212E-06  0.2900894E+04  0.7818609E-02  0.8272612E-01
       -1   -1    0    0    0  501  0.00000000000E+00  0.00000000000E+00  0.11765305398E+04  0.11765305398E+04  0.50400001928E-02 0. -1.
        1   -1    0    0  501    0  0.00000000000E+00  0.00000000000E+00 -0.17881356444E+04  0.17881356444E+04  0.50400001928E-02 0.  1.
    10030    2    1    2    0    0  0.00000000000E+00  0.00000000000E+00 -0.61160510460E+03  0.29646661842E+04  0.29008937898E+04 0.  0.
        4    1    3    3  502    0  0.11785126582E+04 -0.51847638863E+03  0.37677601958E+03  0.13415184058E+04  0.12699999809E+01 0. -1.
       -4    1    3    3    0  502 -0.11785126582E+04  0.51847638863E+03 -0.98838112418E+03  0.16231477785E+04  0.12699999809E+01 0.  1.
</event>
<event>
 5   0  0.1550278E-06  0.2867822E+04  0.7818609E-02  0.8282516E-01
       -1   -1    0    0    0  501  0.00000000000E+00  0.00000000000E+00  0.18313110741E+04  0.18313110741E+04  0.50400001928E-02 0.  1.
        1   -1    0    0  501    0  0.00000000000E+00  0.00000000000E+00 -0.11227481694E+04  0.11227481694E+04  0.50400001928E-02 0. -1.
    10030    2    1    2    0    0  0.00000000000E+00  0.00000000000E+00  0.70856290478E+03  0.29540592435E+04  0.28678222790E+04 0.  0.
        2    1    3    3  502    0 -0.29263029081E+03 -0.13593697118E+04 -0.63648462922E+01  0.13905247253E+04  0.25500000920E-02 0. -1.
       -2    1    3    3    0  502  0.29263029081E+03  0.13593697118E+04  0.71492775107E+03  0.15635345182E+04  0.25500000920E-02 0.  1.
</event>
<event>
 5   0  0.1602873E-06  0.2908491E+04  0.7818609E-02  0.8270356E-01
       -1   -1    0    0    0  501  0.00000000000E+00  0.00000000000E+00  0.13099909553E+04  0.13099909553E+04  0.50400001928E-02 0. -1.
        1   -1    0    0  501    0  0.00000000000E+00  0.00000000000E+00 -0.16143856061E+04  0.16143856061E+04  0.50400001928E-02 0.  1.
    10030    2    1    2    0    0  0.00000000000E+00  0.00000000000E+00 -0.30439465081E+03  0.29243765614E+04  0.29084913907E+04 0.  0.
        1    1    3    3  502    0 -0.10909703641E+04 -0.81335420643E+03  0.36350663423E+03  0.14085093090E+04  0.50400001928E-02 0. -1.
       -1    1    3    3    0  502  0.10909703641E+04  0.81335420643E+03 -0.66790128504E+03  0.15158672524E+04  0.50400001928E-02 0.  1.
</event>
<event>
 5   0  0.4115143E-06  0.2879909E+04  0.7818609E-02  0.8278880E-01
        2   -1    0    0  501    0  0.00000000000E+00  0.00000000000E+00  0.23657397670E+04  0.23657397670E+04  0.25500000920E-02 0.  1.
       -2   -1    0    0    0  501  0.00000000000E+00  0.00000000000E+00 -0.87645706087E+03  0.87645706087E+03  0.25500000920E-02 0. -1.
    10030    2    1    2    0    0  0.00000000000E+00  0.00000000000E+00  0.14892827061E+04  0.32421968279E+04  0.28799092506E+04 0.  0.
        1    1    3    3  502    0  0.86994789765E+03 -0.11323738967E+04  0.95341345837E+03  0.17169965665E+04  0.50400001928E-02 0.  1.
       -1    1    3    3    0  502 -0.86994789765E+03  0.11323738967E+04  0.53586924777E+03  0.15252002614E+04  0.50400001928E-02 0. -1.
</event>
<event>
 5   0  0.1543678E-06  0.2818461E+04  0.7818609E-02  0.8297560E-01
       -1   -1    0    0    0  501  0.00000000000E+00  0.00000000000E+00  0.10656578715E+04  0.10656578715E+04  0.50400001928E-02 0. -1.
        1   -1    0    0  501    0  0.00000000000E+00  0.00000000000E+00 -0.18635721754E+04  0.18635721754E+04  0.50400001928E-02 0.  1.
    10030    2    1    2    0    0  0.00000000000E+00  0.00000000000E+00 -0.79791430390E+03  0.29292300469E+04  0.28184608266E+04 0.  0.
        3    1    3    3  502    0 -0.83569960521E+02 -0.55332275084E+03 -0.17431480040E+04  0.18307689584E+04  0.10100000352E+00 0.  1.
       -3    1    3    3    0  502  0.83569960521E+02  0.55332275084E+03  0.94523370012E+03  0.10984610885E+04  0.10100000352E+00 0. -1.
</event>
<event>
 5   0  0.1511126E-06  0.2893425E+04  0.7818609E-02  0.8274836E-01
        1   -1    0    0  501    0  0.00000000000E+00  0.00000000000E+00  0.19814571879E+04  0.19814571879E+04  0.50400001928E-02 0. -1.
       -1   -1    0    0    0  501  0.00000000000E+00  0.00000000000E+00 -0.10562818777E+04  0.10562818778E+04  0.50400001928E-02 0.  1.
    10030    2    1    2    0    0  0.00000000000E+00  0.00000000000E+00  0.92517531013E+03  0.30377390656E+04  0.28934251807E+04 0.  0.
        5    1    3    3  502    0  0.12096305061E+04 -0.65373456329E+03 -0.97172134773E+01  0.13750241288E+04  0.46999998093E+01 0.  1.
       -5    1    3    3    0  502 -0.12096305061E+04  0.65373456329E+03  0.93489252361E+03  0.16627149368E+04  0.46999998093E+01 0. -1.
</event>
<event>
 5   0  0.1543678E-06  0.2864271E+04  0.7818609E-02  0.8283588E-01
        1   -1    0    0  501    0  0.00000000000E+00  0.00000000000E+00  0.16396808345E+04  0.16396808345E+04  0.50400001928E-02 0.  1.
       -1   -1    0    0    0  501  0.00000000000E+00  0.00000000000E+00 -0.12508603564E+04  0.12508603564E+04  0.50400001928E-02 0. -1.
    10030    2    1    2    0    0  0.00000000000E+00  0.00000000000E+00  0.38882047814E+03  0.28905411909E+04  0.28642707644E+04 0.  0.
        3    1    3    3  502    0 -0.68687113893E+02  0.63590385468E+02  0.16365905226E+04  0.16392651419E+04  0.10100000352E+00 0.  1.
       -3    1    3    3    0  502  0.68687113893E+02 -0.63590385468E+02 -0.12477700444E+04  0.12512760490E+04  0.10100000352E+00 0. -1.
</event>
<event>
 5   0  0.4162450E-06  0.2856771E+04  0.7818609E-02  0.8285857E-01
       -2   -1    0    0    0  501  0.00000000000E+00  0.00000000000E+00  0.19789428336E+04  0.19789428336E+04  0.25500000920E-02 0.  1.
        2   -1    0    0  501    0  0.00000000000E+00  0.00000000000E+00 -0.10309972190E+04  0.10309972190E+04  0.25500000920E-02 0. -1.
    10030    2    1    2    0    0  0.00000000000E+00  0.00000000000E+00  0.94794561466E+03  0.30099400526E+04  0.28567705949E+04 0.  0.
        2    1    3    3  502    0  0.84789188860E+03  0.84013997087E+03  0.13005942073E+04  0.17653048228E+04  0.25500000920E-02 0.  1.
       -2    1    3    3    0  502 -0.84789188860E+03 -0.84013997087E+03 -0.35264859260E+03  0.12446352298E+04  0.25500000920E-02 0. -1.
</event>
<event>
 5   0  0.4162450E-06  0.2891194E+04  0.7818609E-02  0.8275502E-01
       -2   -1    0    0    0  501  0.00000000000E+00  0.00000000000E+00  0.10671328812E+04  0.10671328812E+04  0.25500000920E-02 0. -1.
        2   -1    0    0  501    0  0.00000000000E+00  0.00000000000E+00 -0.19582847585E+04  0.19582847585E+04  0.25500000920E-02 0.  1.
    10030    2    1    2    0    0  0.00000000000E+00  0.00000000000E+00 -0.89115187730E+03  0.30254176397E+04  0.28911935643E+04 0.  0.
        2    1    3    3  502    0 -0.12240682044E+03 -0.69789715891E+03 -0.17641157105E+04  0.19010912956E+04  0.25500000920E-02 0.  1.
       -2    1    3    3    0  502  0.12240682044E+03  0.69789715891E+03  0.87296383316E+03  0.11243263441E+04  0.25500000920E-02 0. -1.
</event>
<event>
 5   0  0.4224163E-06  0.2952681E+04  0.7818609E-02  0.8257374E-01
       -2   -1    0    0    0  501  0.00000000000E+00  0.00000000000E+00  0.10976822927E+04  0.10976822927E+04  0.25500000920E-02 0. -1.
        2   -1    0    0  501    0  0.00000000000E+00  0.00000000000E+00 -0.19856215222E+04  0.19856215222E+04  0.25500000920E-02 0.  1.
    10030    2    1    2    0    0  0.00000000000E+00  0.00000000000E+00 -0.88793922952E+03  0.30833038148E+04  0.29526812119E+04 0.  0.
        4    1    3    3  502    0  0.14245173533E+04 -0.38027460850E+03 -0.52295647839E+03  0.15643987851E+04  0.12699999809E+01 0.  1.
       -4    1    3    3    0  502 -0.14245173533E+04  0.38027460850E+03 -0.36498275113E+03  0.15189050297E+04  0.12699999809E+01 0. -1.
</event>
<event>
 5   0  0.1543678E-06  0.2929994E+04  0.7818609E-02  0.8264009E-01
        1   -1    0    0  501    0  0.00000000000E+00  0.00000000000E+00  0.99404742027E+03  0.99404742029E+03  0.50400001928E-02 0.  1.
       -1   -1    0    0    0  501  0.00000000000E+00  0.00000000000E+00 -0.21590689690E+04  0.21590689690E+04  0.50400001928E-02 0. -1.
    10030    2    1    2    0    0  0.00000000000E+00  0.00000000000E+00 -0.11650215488E+04  0.31531163893E+04  0.29299944975E+04 0.  0.
        3    1    3    3  502    0  0.62770982403E+03  0.96704595899E+03  0.39021267743E+03  0.12171538333E+04  0.10100000352E+00 0.  1.
       -3    1    3    3    0  502 -0.62770982403E+03 -0.96704595899E+03 -0.15552342262E+04  0.19359625561E+04  0.10100000352E+00 0. -1.
</event>
<event>
 5   0  0.1580212E-06  0.2885090E+04  0.7818609E-02  0.8277328E-01
        1   -1    0    0  501    0  0.00000000000E+00  0.00000000000E+00  0.30416809952E+04  0.30416809952E+04  0.50400001928E-02 0. -1.
       -1   -1    0    0    0  501  0.00000000000E+00  0.00000000000E+00 -0.68413991096E+03  0.68413991098E+03  0.50400001928E-02 0.  1.
    10030    2    1    2    0    0  0.00000000000E+00  0.00000000000E+00  0.23575410842E+04  0.37258209062E+04  0.28850895066E+04 0.  0.
        4    1    3    3  502    0 -0.84107743389E+02 -0.14172101184E+04  0.84857672703E+03  0.16539778435E+04  0.12699999809E+01 0.  1.
       -4    1    3    3    0  502  0.84107743389E+02  0.14172101184E+04  0.15089643572E+04  0.20718430627E+04  0.12699999809E+01 0. -1.
</event>
<event>
 5   0  0.4148677E-06  0.2903815E+04  0.7818609E-02  0.8271743E-01
        2   -1    0    0  501    0  0.00000000000E+00  0.00000000000E+00  0.22900253499E+04  0.22900253499E+04  0.25500000920E-02 0.  1.
       -2   -1    0    0    0  501  0.00000000000E+00  0.00000000000E+00 -0.92052938807E+03  0.92052938807E+03  0.25500000920E-02 0. -1.
    10030    2    1    2    0    0  0.00000000000E+00  0.00000000000E+00  0.13694959618E+04  0.32105547380E+04  0.29038151691E+04 0.  0.
        5    1    3    3  502    0 -0.78932401199E+03  0.32771981198E+03 -0.61293814445E+03  0.10517356750E+04  0.46999998093E+01 0. -1.
       -5    1    3    3    0  502  0.78932401199E+03 -0.32771981198E+03  0.19824341063E+04  0.21588190630E+04  0.46999998093E+01 0.  1.
</event>
<event>
 5   0  0.1511126E-06  0.2924596E+04  0.7818609E-02  0.8265597E-01
       -1   -1    0    0    0  501  0.00000000000E+00  0.00000000000E+00  0.90834233057E+03  0.90834233058E+03  0.50400001928E-02 0. -1.
        1   -1    0    0  501    0  0.00000000000E+00  0.00000000000E+00 -0.23540855520E+04  0.23540855520E+04  0.50400001928E-02 0.  1.
    10030    2    1    2    0    0  0.00000000000E+00  0.00000000000E+00 -0.14457432214E+04  0.32624278826E+04  0.29245960793E+04 0.  0.
        5    1    3    3  502    0 -0.10244179836E+04  0.45123086597E+01  0.44113980562E+03  0.11153828868E+04  0.46999998093E+01 0. -1.
       -5    1    3    3    0  502  0.10244179836E+04 -0.45123086597E+01 -0.18868830271E+04  0.21470449958E+04  0.46999998093E+01 0.  1.
</event>
<event>
 5   0  0.1550278E-06  0.2908002E+04  0.7818609E-02  0.8270500E-01
        1   -1    0    0  501    0  0.00000000000E+00  0.00000000000E+00  0.23326874521E+04  0.23326874521E+04  0.50400001928E-02 0.  1.
       -1   -1    0    0    0  501  0.00000000000E+00  0.00000000000E+00 -0.90630213290E+03  0.90630213292E+03  0.50400001928E-02 0. -1.
    10030    2    1    2    0    0  0.00000000000E+00  0.00000000000E+00  0.14263853192E+04  0.32389895850E+04  0.29080024850E+04 0.  0.
        2    1    3    3  502    0 -0.59454976289E+03  0.60729260782E+03  0.20272285648E+04  0.21981695536E+04  0.25500000920E-02 0.  1.
       -2    1    3    3    0  502  0.59454976289E+03 -0.60729260782E+03 -0.60084324564E+03  0.10408200315E+04  0.25500000920E-02 0. -1.
</event>
<event>
 5   0  0.4187518E-06  0.2891131E+04  0.7818609E-02  0.8275521E-01
       -2   -1    0    0    0  501  0.00000000000E+00  0.00000000000E+00  0.93797338927E+03  0.93797338927E+03  0.25500000920E-02 0.  1.
        2   -1    0    0  501    0  0.00000000000E+00  0.00000000000E+00 -0.22278453974E+04  0.22278453974E+04  0.25500000920E-02 0. -1.
    10030    2    1    2    0    0  0.00000000000E+00  0.00000000000E+00 -0.12898720082E+04  0.31658187867E+04  0.28911310577E+04 0.  0.
        3    1    3    3  502    0  0.55545709313E+03 -0.61371411592E+03  0.65277018392E+03  0.10541757546E+04  0.10100000352E+00 0.  1.
       -3    1    3    3    0  502 -0.55545709313E+03  0.61371411592E+03 -0.19426421921E+04  0.21116430321E+04  0.10100000352E+00 0. -1.
</event>
<event>
 5   0  0.1543678E-06  0.2918732E+04  0.7818609E-02  0.8267326E-01
       -1   -1    0    0    0  501  0.00000000000E+00  0.00000000000E+00  0.22109677803E+04  0.22109677803E+04  0.50400001928E-02 0.  1.
        1   -1    0    0  501    0  0.00000000000E+00  0.00000000000E+00 -0.96326559341E+03  0.96326559343E+03  0.50400001928E-02 0. -1.
    10030    2    1    2    0    0  0.00000000000E+00  0.00000000000E+00  0.12477021869E+04  0.31742333737E+04  0.29187320473E+04 0.  0.
        3    1    3    3  502    0 -0.83988805796E+03  0.81424610850E+03 -0.32507872754E+03  0.12141189663E+04  0.10100000352E+00 0. -1.
       -3    1    3    3    0  502  0.83988805796E+03 -0.81424610850E+03  0.15727809144E+04  0.19601144074E+04  0.10100000352E+00 0.  1.
</event>
<event>
 5   0  0.1543678E-06  0.2895861E+04  0.7818609E-02  0.8274110E-01
        1   -1    0    0  501    0  0.00000000000E+00  0.00000000000E+00  0.17082434901E+04  0.17082434901E+04  0.50400001928E-02 0. -1.
       -1   -1    0    0    0  501  0.00000000000E+00  0.00000000000E+00 -0.12272857386E+04  0.12272857386E+04  0.50400001928E-02 0.  1.
    10030    2    1    2    0    0  0.00000000000E+00  0.00000000000E+00  0.48095775150E+03  0.29355292287E+04  0.28958610971E+04 0.  0.
        3    1    3    3  502    0  0.60462155440E+03  0.36987972495E+03  0.15203605419E+04  0.16774607067E+04  0.10100000352E+00 0. -1.
       -3    1    3    3    0  502 -0.60462155440E+03 -0.36987972495E+03 -0.10394027904E+04  0.12580685219E+04  0.10100000352E+00 0.  1.
</event>
<event>
 5   0  0.1543678E-06  0.2876188E+04  0.7818609E-02  0.8279998E-01
       -1   -1    0    0    0  501  0.00000000000E+00  0.00000000000E+00  0.10638788255E+04  0.10638788255E+04  0.50400001928E-02 0.  1.
        1   -1    0    0  501    0  0.00000000000E+00  0.00000000000E+00 -0.19439383449E+04  0.19439383449E+04  0.50400001928E-02 0. -1.
    10030    2    1    2    0    0  0.00000000000E+00  0.00000000000E+00 -0.88005951943E+03  0.30078171704E+04  0.28761883410E+04 0.  0.
        3    1    3    3  502    0  0.13572390047E+04 -0.36154123829E+03 -0.11718624235E+03  0.14094475543E+04  0.10100000352E+00 0. -1.
       -3    1    3    3    0  502 -0.13572390047E+04  0.36154123829E+03 -0.76287327708E+03  0.15983696161E+04  0.10100000352E+00 0.  1.
</event>
<event>
 5   0  0.1550278E-06  0.2902654E+04  0.7818609E-02  0.8272088E-01
       -1   -1    0    0    0  501  0.00000000000E+00  0.00000000000E+00  0.99714444086E+03  0.99714444087E+03  0.50400001928E-02 0. -1.
        1   -1    0    0  501    0  0.00000000000E+00  0.00000000000E+00 -0.21123814718E+04  0.21123814718E+04  0.50400001928E-02 0.  1.
    10030    2    1    2    0    0  0.00000000000E+00  0.00000000000E+00 -0.11152370309E+04  0.31095259127E+04  0.29026535733E+04 0.  0.
        2    1    3    3  502    0  0.93099546914E+03  0.81653556346E+03 -0.13684408563E+04  0.18455658393E+04  0.25500000920E-02 0.  1.
       -2    1    3    3    0  502 -0.93099546914E+03 -0.81653556346E+03  0.25320382535E+03  0.12639600734E+04  0.25500000920E-02 0. -1.
</event>
<event>
 5   0  0.1580212E-06  0.2535549E+04  0.7818609E-02  0.8390429E-01
        1   -1    0    0  501    0  0.00000000000E+00  0.00000000000E+00  0.17474828146E+04  0.17474828146E+04  0.50400001928E-02 0. -1.
       -1   -1    0    0    0  501  0.00000000000E+00  0.00000000000E+00 -0.91975270907E+03  0.91975270908E+03  0.50400001928E-02 0.  1.
    10030    2    1    2    0    0  0.00000000000E+00  0.00000000000E+00  0.82773010552E+03  0.26672355237E+04  0.25355488974E+04 0.  0.
        4    1    3    3  502    0 -0.32155755096E+03 -0.75846167890E+03  0.14275446162E+04  0.16481955652E+04  0.12699999809E+01 0. -1.
       -4    1    3    3    0  502  0.32155755096E+03  0.75846167890E+03 -0.59981451066E+03  0.10190399585E+04  0.12699999809E+01 0.  1.
</event>
<event>
 5   0  0.1580212E-06  0.2884667E+04  0.7818609E-02  0.8277454E-01
        1   -1    0    0  501    0  0.00000000000E+00  0.00000000000E+00  0.15951522463E+04  0.15951522463E+04  0.50400001928E-02 0.  1.
       -1   -1    0    0    0  501  0.00000000000E+00  0.00000000000E+00 -0.13041555302E+04  0.13041555302E+04  0.50400001928E-02 0. -1.
    10030    2    1    2    0    0  0.00000000000E+00  0.00000000000E+00  0.29099671610E+03  0.28993077765E+04  0.28846674841E+04 0.  0.
        4    1    3    3  502    0  0.11709139850E+03 -0.93346194119E+03 -0.95333130645E+03  0.13393669340E+04  0.12699999809E+01 0. -1.
       -4    1    3    3    0  502 -0.11709139850E+03  0.93346194119E+03  0.12443280226E+04  0.15599408424E+04  0.12699999809E+01 0.  1.
</event>
<event>
 5   0  0.4187518E-06  0.3003457E+04  0.7818609E-02  0.8242744E-01
       -2   -1    0    0    0  501  0.00000000000E+00  0.00000000000E+00  0.11806834986E+04  0.11806834986E+04  0.25500000920E-02 0. -1.
        2   -1    0    0  501    0  0.00000000000E+00  0.00000000000E+00 -0.19100705408E+04  0.19100705408E+04  0.25500000920E-02 0.  1.
    10030    2    1    2    0    0  0.00000000000E+00  0.00000000000E+00 -0.72938704229E+03  0.30907540394E+04  0.30034571871E+04 0.  0.
        3    1    3    3  502    0 -0.12524752649E+04 -0.68486355886E+02 -0.12144075732E+04  0.17459010379E+04  0.10100000352E+00 0.  1.
       -3    1    3    3    0  502  0.12524752649E+04  0.68486355886E+02  0.48502053089E+03  0.13448530015E+04  0.10100000352E+00 0. -1.
</event>
<event>
 5   0  0.4224163E-06  0.2920171E+04  0.7818609E-02  0.8266901E-01
       -2   -1    0    0    0  501  0.00000000000E+00  0.00000000000E+00  0.10842135676E+04  0.10842135676E+04  0.25500000920E-02 0. -1.
        2   -1    0    0  501    0  0.00000000000E+00  0.00000000000E+00 -0.19662636006E+04  0.19662636006E+04  0.25500000920E-02 0.  1.
    10030    2    1    2    0    0  0.00000000000E+00  0.00000000000E+00 -0.88205003309E+03  0.30504771682E+04  0.29201710040E+04 0.  0.
        4    1    3    3  502    0  0.73512270794E+03  0.70404791183E+03 -0.15345206617E+04  0.18414244845E+04  0.12699999809E+01 0.  1.
       -4    1    3    3    0  502 -0.73512270794E+03 -0.70404791183E+03  0.65247062864E+03  0.12090526837E+04  0.12699999809E+01 0. -1.
</event>
<event>
 5   0  0.4224163E-06  0.2896931E+04  0.7818609E-02  0.8273791E-01
       -2   -1    0    0    0  501  0.00000000000E+00  0.00000000000E+00  0.20020221763E+04  0.20020221763E+04  0.25500000920E-02 0. -1.
        2   -1    0    0  501    0  0.00000000000E+00  0.00000000000E+00 -0.10479664346E+04  0.10479664346E+04  0.25500000920E-02 0.  1.
    10030    2    1    2    0    0  0.00000000000E+00  0.00000000000E+00  0.95405574175E+03  0.30499886109E+04  0.28969308187E+04 0.  0.
        4    1    3    3  502    0  0.80199984864E+03 -0.28341913910E+03  0.17113703266E+04  0.19111044381E+04  0.12699999809E+01 0. -1.
       -4    1    3    3    0  502 -0.80199984864E+03  0.28341913910E+03 -0.75731458486E+03  0.11388841728E+04  0.12699999809E+01 0.  1.
</event>
<event>
 5   0  0.1511126E-06  0.3002108E+04  0.7818609E-02  0.8243129E-01
        1   -1    0    0  501    0  0.00000000000E+00  0.00000000000E+00  0.13209751399E+04  0.13209751399E+04  0.50400001928E-02 0. -1.
       -1   -1    0    0    0  501  0.00000000000E+00  0.00000000000E+00 -0.17056815882E+04  0.17056815883E+04  0.50400001928E-02 0.  1.
    10030    2    1    2    0    0  0.00000000000E+00  0.00000000000E+00 -0.38470644837E+03  0.30266567281E+04  0.30021079092E+04 0.  0.
        5    1    3    3  502    0 -0.10894661912E+04 -0.85370781941E+03  0.39324696713E+03  0.14388950239E+04  0.46999998093E+01 0. -1.
       -5    1    3    3    0  502  0.10894661912E+04  0.85370781941E+03 -0.77795341551E+03  0.15877617042E+04  0.46999998093E+01 0.  1.
</event>
<event>
 5   0  0.1543678E-06  0.2674841E+04  0.7818609E-02  0.8343215E-01
        1   -1    0    0  501    0  0.00000000000E+00  0.00000000000E+00  0.98792257489E+03  0.98792257490E+03  0.50400001928E-02 0.  1.
       -1   -1    0    0    0  501  0.00000000000E+00  0.00000000000E+00 -0.18105602937E+04  0.18105602937E+04  0.50400001928E-02 0. -1.
    10030    2    1    2    0    0  0.00000000000E+00  0.00000000000E+00 -0.82263771880E+03  0.27984828686E+04  0.26748408456E+04 0.  0.
        3    1    3    3  502    0  0.12773712878E+04  0.15149638726E+03 -0.79439236192E+03  0.15118491318E+04  0.10100000352E+00 0. -1.
       -3    1    3    3    0  502 -0.12773712878E+04 -0.15149638726E+03 -0.28245356883E+02  0.12866337368E+04  0.10100000352E+00 0.  1.
</event>
<event>
 5   0  0.4224163E-06  0.2876458E+04  0.7818609E-02  0.8279916E-01
        2   -1    0    0  501    0  0.00000000000E+00  0.00000000000E+00  0.19611877036E+04  0.19611877036E+04  0.25500000920E-02 0.  1.
       -2   -1    0    0    0  501  0.00000000000E+00  0.00000000000E+00 -0.10547194994E+04  0.10547194994E+04  0.25500000920E-02 0. -1.
    10030    2    1    2    0    0  0.00000000000E+00  0.00000000000E+00  0.90646820419E+03  0.30159072030E+04  0.28764581784E+04 0.  0.
        4    1    3    3  502    0 -0.17539839153E+03  0.75587567865E+03  0.17228853901E+04  0.18895629965E+04  0.12699999809E+01 0.  1.
       -4    1    3    3    0  502  0.17539839153E+03 -0.75587567865E+03 -0.81641718589E+03  0.11263442066E+04  0.12699999809E+01 0. -1.
</event>
<event>
 5   0  0.4148677E-06  0.2824931E+04  0.7818609E-02  0.8295570E-01
        2   -1    0    0  501    0  0.00000000000E+00  0.00000000000E+00  0.25450959005E+04  0.25450959005E+04  0.25500000920E-02 0. -1.
       -2   -1    0    0    0  501  0.00000000000E+00  0.00000000000E+00 -0.78388342672E+03  0.78388342673E+03  0.25500000920E-02 0.  1.
    10030    2    1    2    0    0  0.00000000000E+00  0.00000000000E+00  0.17612124737E+04  0.33289793272E+04  0.28249307926E+04 0.  0.
        5    1    3    3  502    0 -0.12801109984E+04 -0.41755059055E+02  0.15823491106E+04  0.20357500954E+04  0.46999998093E+01 0. -1.
       -5    1    3    3    0  502  0.12801109984E+04  0.41755059055E+02  0.17886336312E+03  0.12932292318E+04  0.46999998093E+01 0.  1.
</event>
<event>
 5   0  0.1511126E-06  0.3002392E+04  0.7818609E-02  0.8243048E-01
        1   -1    0    0  501    0  0.00000000000E+00  0.00000000000E+00  0.15896517229E+04  0.15896517229E+04  0.50400001928E-02 0.  1.
       -1   -1    0    0    0  501  0.00000000000E+00  0.00000000000E+00 -0.14176625828E+04  0.14176625828E+04  0.50400001928E-02 0. -1.
    10030    2    1    2    0    0  0.00000000000E+00  0.00000000000E+00  0.17198914013E+03  0.30073143057E+04  0.30023922243E+04 0.  0.
        5    1    3    3  502    0 -0.24248576385E+03  0.49658512325E+03  0.14840519348E+04  0.15836124417E+04  0.46999998093E+01 0.  1.
       -5    1    3    3    0  502  0.24248576385E+03 -0.49658512325E+03 -0.13120627947E+04  0.14237018640E+04  0.46999998093E+01 0. -1.
</event>
<event>
 5   0  0.1543678E-06  0.2903664E+04  0.7818609E-02  0.8271788E-01
        1   -1    0    0  501    0  0.00000000000E+00  0.00000000000E+00  0.10697020771E+04  0.10697020772E+04  0.50400001928E-02 0. -1.
       -1   -1    0    0    0  501  0.00000000000E+00  0.00000000000E+00 -0.19704709125E+04  0.19704709125E+04  0.50400001928E-02 0.  1.
    10030    2    1    2    0    0  0.00000000000E+00  0.00000000000E+00 -0.90076883539E+03  0.30401729897E+04  0.29036644628E+04 0.  0.
        3    1    3    3  502    0  0.60060110508E+03 -0.12442119649E+04  0.16718963925E+02  0.13816890515E+04  0.10100000352E+00 0. -1.
       -3    1    3    3    0  502 -0.60060110508E+03  0.12442119649E+04 -0.91748779932E+03  0.16584839382E+04  0.10100000352E+00 0.  1.
</event>
<event>
 5   0  0.4162450E-06  0.2900758E+04  0.7818609E-02  0.8272652E-01
       -2   -1    0    0    0  501  0.00000000000E+00  0.00000000000E+00  0.99083435493E+03  0.99083435493E+03  0.25500000920E-02 0. -1.
        2   -1    0    0  501    0  0.00000000000E+00  0.00000000000E+00 -0.21230587926E+04  0.21230587927E+04  0.25500000920E-02 0.  1.
    10030    2    1    2    0    0  0.00000000000E+00  0.00000000000E+00 -0.11322244377E+04  0.31138931476E+04  0.29007582383E+04 0.  0.
        2    1    3    3  502    0 -0.94351552801E+03  0.75264420536E+03 -0.14295128015E+04  0.18708825995E+04  0.25500000920E-02 0.  1.
       -2    1    3    3    0  502  0.94351552801E+03 -0.75264420536E+03  0.29728836375E+03  0.12430105481E+04  0.25500000920E-02 0. -1.
</event>
<event>
 5   0  0.4148677E-06  0.2907408E+04  0.7818609E-02  0.8270677E-01
        2   -1    0    0  501    0  0.00000000000E+00  0.00000000000E+00  0.16233679625E+04  0.16233679625E+04  0.25500000920E-02 0.  1.
       -2   -1    0    0    0  501  0.00000000000E+00  0.00000000000E+00 -0.13017724119E+04  0.13017724119E+04  0.25500000920E-02 0. -1.
    10030    2    1    2    0    0  0.00000000000E+00  0.00000000000E+00  0.32159555060E+03  0.29251403745E+04  0.29074082122E+04 0.  0.
        5    1    3    3  502    0 -0.86466138332E+03  0.38259934895E+02 -0.10142854981E+04  0.13333792754E+04  0.46999998093E+01 0. -1.
       -5    1    3    3    0  502  0.86466138332E+03 -0.38259934895E+02  0.13358810486E+04  0.15917610991E+04  0.46999998093E+01 0.  1.
</event>
<event>
 5   0  0.4115143E-06  0.2919601E+04  0.7818609E-02  0.8267069E-01
       -2   -1    0    0    0  501  0.00000000000E+00  0.00000000000E+00  0.11103530615E+04  0.11103530615E+04  0.25500000920E-02 0.  1.
        2   -1    0    0  501    0  0.00000000000E+00  0.00000000000E+00 -0.19192252190E+04  0.19192252190E+04  0.25500000920E-02 0. -1.
    10030    2    1    2    0    0  0.00000000000E+00  0.00000000000E+00 -0.80887215748E+03  0.30295782805E+04  0.29196010670E+04 0.  0.
        1    1    3    3  502    0 -0.44651761132E+02  0.14385034881E+04 -0.65804264509E+03  0.15824999803E+04  0.50400001928E-02 0. -1.
       -1    1    3    3    0  502  0.44651761132E+02 -0.14385034881E+04 -0.15082951239E+03  0.14470783002E+04  0.50400001928E-02 0.  1.
</event>
<event>
 5   0  0.4224163E-06  0.2891702E+04  0.7818609E-02  0.8275351E-01
        2   -1    0    0  501    0  0.00000000000E+00  0.00000000000E+00  0.80861530438E+03  0.80861530438E+03  0.25500000920E-02 0. -1.
       -2   -1    0    0    0  501  0.00000000000E+00  0.00000000000E+00 -0.25852651887E+04  0.25852651887E+04  0.25500000920E-02 0.  1.
    10030    2    1    2    0    0  0.00000000000E+00  0.00000000000E+00 -0.17766498843E+04  0.33938804931E+04  0.28917019193E+04 0.  0.
        4    1    3    3  502    0  0.98271538043E+03  0.66002634564E+03  0.85969359446E+02  0.11869105440E+04  0.12699999809E+01 0. -1.
       -4    1    3    3    0  502 -0.98271538043E+03 -0.66002634564E+03 -0.18626192438E+04  0.22069699491E+04  0.12699999809E+01 0.  1.
</event>
<event>
 5   0  0.4148677E-06  0.2912745E+04  0.7818609E-02  0.8269096E-01
       -2   -1    0    0    0  501  0.00000000000E+00  0.00000000000E+00  0.10758151197E+04  0.10758151197E+04  0.25500000920E-02 0. -1.
        2   -1    0    0  501    0  0.00000000000E+00  0.00000000000E+00 -0.19715475134E+04  0.19715475134E+04  0.25500000920E-02 0.  1.
    10030    2    1    2    0    0  0.00000000000E+00  0.00000000000E+00 -0.89573239373E+03  0.30473626331E+04  0.29127448389E+04 0.  0.
        5    1    3    3  502    0  0.58128889053E+03  0.42890211125E+02 -0.18441883271E+04  0.19341119461E+04  0.46999998093E+01 0.  1.
       -5    1    3    3    0  502 -0.58128889053E+03 -0.42890211125E+02  0.94845593335E+03  0.11132506869E+04  0.46999998093E+01 0. -1.
</event>
<event>
 5   0  0.4187518E-06  0.3079948E+04  0.7818609E-02  0.8221263E-01
        2   -1    0    0  501    0  0.00000000000E+00  0.00000000000E+00  0.13712498598E+04  0.13712498598E+04  0.25500000920E-02 0.  1.
       -2   -1    0    0    0  501  0.00000000000E+00  0.00000000000E+00 -0.17294587163E+04  0.17294587163E+04  0.25500000920E-02 0. -1.
    10030    2    1    2    0    0  0.00000000000E+00  0.00000000000E+00 -0.35820885648E+03  0.31007085761E+04  0.30799480660E+04 0.  0.
        3    1    3    3  502    0  0.12555820614E+04  0.46993008953E+03 -0.94197160274E+03  0.16384843949E+04  0.10100000352E+00 0.  1.
       -3    1    3    3    0  502 -0.12555820614E+04 -0.46993008953E+03  0.58376274626E+03  0.14622241812E+04  0.10100000352E+00 0. -1.
</event>
<event>
 5   0  0.1580212E-06  0.2911719E+04  0.7818609E-02  0.8269399E-01
       -1   -1    0    0    0  501  0.00000000000E+00  0.00000000000E+00  0.18055917602E+04  0.18055917602E+04  0.50400001928E-02 0.  1.
        1   -1    0    0  501    0  0.00000000000E+00  0.00000000000E+00 -0.11738682550E+04  0.11738682551E+04  0.50400001928E-02 0. -1.
    10030    2    1    2    0    0  0.00000000000E+00  0.00000000000E+00  0.63172350513E+03  0.29794600152E+04  0.29117189761E+04 0.  0.
        4    1    3    3  502    0 -0.57053293343E+03 -0.68244846659E+03  0.14951858329E+04  0.17397775793E+04  0.12699999809E+01 0.  1.
       -4    1    3    3    0  502  0.57053293343E+03  0.68244846659E+03 -0.86346232774E+03  0.12396824360E+04  0.12699999809E+01 0. -1.
</event>
<event>
 5   0  0.4148677E-06  0.2900807E+04  0.7818609E-02  0.8272637E-01
        2   -1    0    0  501    0  0.00000000000E+00  0.00000000000E+00  0.26766708206E+04  0.26766708206E+04  0.25500000920E-02 0.  1.
       -2   -1    0    0    0  501  0.00000000000E+00  0.00000000000E+00 -0.78592809001E+03  0.78592809002E+03  0.25500000920E-02 0. -1.
    10030    2    1    2    0    0  0.00000000000E+00  0.00000000000E+00  0.18907427305E+04  0.34625989106E+04  0.29008073260E+04 0.  0.
        5    1    3    3  502    0  0.10883582732E+03 -0.50322328551E+03  0.25639110923E+04  0.26150986772E+04  0.46999998093E+01 0.  1.
       -5    1    3    3    0  502 -0.10883582732E+03  0.50322328551E+03 -0.67316836172E+03  0.84750023339E+03  0.46999998093E+01 0. -1.
</event>
<event>
 5   0  0.1511126E-06  0.2871616E+04  0.7818609E-02  0.8281373E-01
       -1   -1    0    0    0  501  0.00000000000E+00  0.00000000000E+00  0.17796069658E+04  0.17796069659E+04  0.50400001928E-02 0. -1.
        1   -1    0    0  501    0  0.00000000000E+00  0.00000000000E+00 -0.11584270588E+04  0.11584270588E+04  0.50400001928E-02 0.  1.
    10030    2    1    2    0    0  0.00000000000E+00  0.00000000000E+00  0.62117990707E+03  0.29380340246E+04  0.28716161744E+04 0.  0.
        5    1    3    3  502    0 -0.50097822750E+03 -0.13274499209E+04  0.85454364966E+02  0.14214172559E+04  0.46999998093E+01 0.  1.
       -5    1    3    3    0  502  0.50097822750E+03  0.13274499209E+04  0.53572554210E+03  0.15166167688E+04  0.46999998093E+01 0. -1.
</event>
<event>
 5   0  0.1511126E-06  0.2865389E+04  0.7818609E-02  0.8283250E-01
        1   -1    0    0  501    0  0.00000000000E+00  0.00000000000E+00  0.12908637453E+04  0.12908637453E+04  0.50400001928E-02 0.  1.
       -1   -1    0    0    0  501  0.00000000000E+00  0.00000000000E+00 -0.15901083500E+04  0.15901083500E+04  0.50400001928E-02 0. -1.
    10030    2    1    2    0    0  0.00000000000E+00  0.00000000000E+00 -0.29924460467E+03  0.28809720953E+04  0.28653887835E+04 0.  0.
        5    1    3    3  502    0 -0.32291304271E+03  0.11705152344E+04 -0.91416050174E+03  0.15198981085E+04  0.46999998093E+01 0. -1.
       -5    1    3    3    0  502  0.32291304271E+03 -0.11705152344E+04  0.61491589707E+03  0.13610739869E+04  0.46999998093E+01 0.  1.
</event>
<event>
 5   0  0.1511126E-06  0.2902431E+04  0.7818609E-02  0.8272154E-01
        1   -1    0    0  501    0  0.00000000000E+00  0.00000000000E+00  0.11385342085E+04  0.11385342086E+04  0.50400001928E-02 0.  1.
       -1   -1    0    0    0  501  0.00000000000E+00  0.00000000000E+00 -0.18497704947E+04  0.18497704947E+04  0.50400001928E-02 0. -1.
    10030    2    1    2    0    0  0.00000000000E+00  0.00000000000E+00 -0.71123628614E+03  0.29883047033E+04  0.29024313850E+04 0.  0.
        5    1    3    3  502    0 -0.32872164863E+03 -0.82926488286E+03  0.82291764002E+03  0.12136530396E+04  0.46999998093E+01 0.  1.
       -5    1    3    3    0  502  0.32872164863E+03  0.82926488286E+03 -0.15341539262E+04  0.17746516637E+04  0.46999998093E+01 0. -1.
</event>
<event>
 5   0  0.1602873E-06  0.2900710E+04  0.7818609E-02  0.8272666E-01
       -1   -1    0    0    0  501  0.00000000000E+00  0.00000000000E+00  0.12832596376E+04  0.12832596376E+04  0.50400001928E-02 0.  1.
        1   -1    0    0  501    0  0.00000000000E+00  0.00000000000E+00 -0.16392080179E+04  0.16392080180E+04  0.50400001928E-02 0. -1.
    10030    2    1    2    0    0  0.00000000000E+00  0.00000000000E+00 -0.35594838036E+03  0.29224676556E+04  0.29007099042E+04 0.  0.
        1    1    3    3  502    0 -0.13617219954E+04 -0.40511013839E+03  0.11598214864E+03  0.14254307685E+04  0.50400001928E-02 0.  1.
       -1    1    3    3    0  502  0.13617219954E+04  0.40511013839E+03 -0.47193052900E+03  0.14970368871E+04  0.50400001928E-02 0. -1.
</event>
<event>
 5   0  0.4187518E-06  0.2893591E+04  0.7818609E-02  0.8274787E-01
       -2   -1    0    0    0  501  0.00000000000E+00  0.00000000000E+00  0.14192453598E+04  0.14192453598E+04  0.25500000920E-02 0. -1.
        2   -1    0    0  501    0  0.00000000000E+00  0.00000000000E+00 -0.14748806516E+04  0.14748806516E+04  0.25500000920E-02 0.  1.
    10030    2    1    2    0    0  0.00000000000E+00  0.00000000000E+00 -0.55635291815E+02  0.28941260115E+04  0.28935912090E+04 0.  0.
        3    1    3    3  502    0  0.47234587837E+03  0.43252122915E+03  0.12697394636E+04  0.14221193895E+04  0.10100000352E+00 0. -1.
       -3    1    3    3    0  502 -0.47234587837E+03 -0.43252122915E+03 -0.13253747554E+04  0.14720066219E+04  0.10100000352E+00 0.  1.
</event>
<event>
 5   0  0.1550278E-06  0.2886527E+04  0.7818609E-02  0.8276897E-01
        1   -1    0    0  501    0  0.00000000000E+00  0.00000000000E+00  0.17101315955E+04  0.17101315955E+04  0.50400001928E-02 0.  1.
       -1   -1    0    0    0  501  0.00000000000E+00  0.00000000000E+00 -0.12180406630E+04  0.12180406631E+04  0.50400001928E-02 0. -1.
    10030    2    1    2    0    0  0.00000000000E+00  0.00000000000E+00  0.49209093243E+03  0.29281722585E+04  0.28865272023E+04 0.  0.
        2    1    3    3  502    0 -0.84774069289E+01  0.14316713742E+04  0.61054868727E+02  0.14329977275E+04  0.25500000920E-02 0. -1.
       -2    1    3    3    0  502  0.84774069289E+01 -0.14316713742E+04  0.43103606370E+03  0.14951745310E+04  0.25500000920E-02 0.  1.
</event>
<event>
 5   0  0.1580212E-06  0.2926366E+04  0.7818609E-02  0.8265076E-01
        1   -1    0    0  501    0  0.00000000000E+00  0.00000000000E+00  0.19786535081E+04  0.19786535081E+04  0.50400001928E-02 0. -1.
       -1   -1    0    0    0  501  0.00000000000E+00  0.00000000000E+00 -0.10820010012E+04  0.10820010012E+04  0.50400001928E-02 0.  1.
    10030    2    1    2    0    0  0.00000000000E+00  0.00000000000E+00  0.89665250695E+03  0.30606545093E+04  0.29263664000E+04 0.  0.
        4    1    3    3  502    0  0.73282012120E+03  0.10355830336E+04 -0.31413037318E+03  0.13069571736E+04  0.12699999809E+01 0.  1.
       -4    1    3    3    0  502 -0.73282012120E+03 -0.10355830336E+04  0.12107828801E+04  0.17536973357E+04  0.12699999809E+01 0. -1.
</event>
<event>
 5   0  0.4224163E-06  0.2895576E+04  0.7818609E-02  0.8274195E-01
       -2   -1    0    0    0  501  0.00000000000E+00  0.00000000000E+00  0.72997037154E+03  0.72997037154E+03  0.25500000920E-02 0. -1.
        2   -1    0    0  501    0  0.00000000000E+00  0.00000000000E+00 -0.28714731049E+04  0.28714731049E+04  0.25500000920E-02 0.  1.
    10030    2    1    2    0    0  0.00000000000E+00  0.00000000000E+00 -0.21415027334E+04  0.36014434765E+04  0.28955761356E+04 0.  0.
        4    1    3    3  502    0 -0.67849377871E+03 -0.12402932678E+04 -0.68256724662E+03  0.15698983588E+04  0.12699999809E+01 0.  1.
       -4    1    3    3    0  502  0.67849377871E+03  0.12402932678E+04 -0.14589354868E+04  0.20315451177E+04  0.12699999809E+01 0. -1.
</event>
<event>
 5   0  0.4162450E-06  0.2892919E+04  0.7818609E-02  0.8274987E-01
        2   -1    0    0  501    0  0.00000000000E+00  0.00000000000E+00  0.21845026715E+04  0.21845026715E+04  0.25500000920E-02 0. -1.
       -2   -1    0    0    0  501  0.00000000000E+00  0.00000000000E+00 -0.95776731950E+03  0.95776731951E+03  0.25500000920E-02 0.  1.
    10030    2    1    2    0    0  0.00000000000E+00  0.00000000000E+00  0.12267353520E+04  0.31422699910E+04  0.28929191265E+04 0.  0.
        2    1    3    3  502    0  0.92186471257E+03 -0.46278999625E+03 -0.48805404524E+03  0.11411423575E+04  0.25500000920E-02 0.  1.
       -2    1    3    3    0  502 -0.92186471257E+03  0.46278999625E+03  0.17147893973E+04  0.20011276336E+04  0.25500000920E-02 0. -1.
</event>
<event>
 5   0  0.1602873E-06  0.2902118E+04  0.7818609E-02  0.8272247E-01
       -1   -1    0    0    0  501  0.00000000000E+00  0.00000000000E+00  0.90428536936E+03  0.90428536937E+03  0.50400001928E-02 0.  1.
        1   -1    0    0  501    0  0.00000000000E+00  0.00000000000E+00 -0.23284383910E+04  0.23284383910E+04  0.50400001928E-02 0. -1.
    10030    2    1    2    0    0  0.00000000000E+00  0.00000000000E+00 -0.14241530217E+04  0.32327237604E+04  0.29021183783E+04 0.  0.
        1    1    3    3  502    0 -0.10444166791E+02 -0.10359863505E+04 -0.18437849427E+04  0.21149278272E+04  0.50400001928E-02 0. -1.
       -1    1    3    3    0  502  0.10444166791E+02  0.10359863505E+04  0.41963192106E+03  0.11177959332E+04  0.50400001928E-02 0.  1.
</event>
<event>
 5   0  0.4148677E-06  0.2831409E+04  0.7818609E-02  0.8293583E-01
        2   -1    0    0  501    0  0.00000000000E+00  0.00000000000E+00  0.16730908470E+04  0.16730908470E+04  0.25500000920E-02 0. -1.
       -2   -1    0    0    0  501  0.00000000000E+00  0.00000000000E+00 -0.11979137836E+04  0.11979137836E+04  0.25500000920E-02 0.  1.
    10030    2    1    2    0    0  0.00000000000E+00  0.00000000000E+00  0.47517706341E+03  0.28710046306E+04  0.28314085447E+04 0.  0.
        5    1    3    3  502    0 -0.41693635176E+03  0.82368953137E+03  0.13258619325E+04  0.16156213417E+04  0.46999998093E+01 0. -1.
       -5    1    3    3    0  502  0.41693635176E+03 -0.82368953137E+03 -0.85068486911E+03  0.12553832889E+04  0.46999998093E+01 0.  1.
</event>
<event>
 5   0  0.1543678E-06  0.2899478E+04  0.7818609E-02  0.8273033E-01
        1   -1    0    0  501    0  0.00000000000E+00  0.00000000000E+00  0.10867120754E+04  0.10867120754E+04  0.50400001928E-02 0.  1.
       -1   -1    0    0    0  501  0.00000000000E+00  0.00000000000E+00 -0.19340384070E+04  0.19340384070E+04  0.50400001928E-02 0. -1.
    10030    2    1    2    0    0  0.00000000000E+00  0.00000000000E+00 -0.84732633160E+03  0.30207504823E+04  0.28994778089E+04 0.  0.
        3    1    3    3  502    0  0.49222840599E+03 -0.25703926089E+03 -0.18188482291E+04  0.19017273401E+04  0.10100000352E+00 0. -1.
       -3    1    3    3    0  502 -0.49222840599E+03  0.25703926089E+03  0.97152189752E+03  0.11190231422E+04  0.10100000352E+00 0.  1.
</event>
<event>
 5   0  0.4224163E-06  0.2893187E+04  0.7818609E-02  0.8274907E-01
       -2   -1    0    0    0  501  0.00000000000E+00  0.00000000000E+00  0.98755279301E+03  0.98755279301E+03  0.25500000920E-02 0.  1.
        2   -1    0    0  501    0  0.00000000000E+00  0.00000000000E+00 -0.21190088727E+04  0.21190088727E+04  0.25500000920E-02 0. -1.
    10030    2    1    2    0    0  0.00000000000E+00  0.00000000000E+00 -0.11314560797E+04  0.31065616657E+04  0.28931872602E+04 0.  0.
        4    1    3    3  502    0  0.67766255178E+03 -0.11885425036E+03  0.80062909768E+03  0.10556331900E+04  0.12699999809E+01 0.  1.
       -4    1    3    3    0  502 -0.67766255178E+03  0.11885425036E+03 -0.19320851773E+04  0.20509284757E+04  0.12699999809E+01 0. -1.
</event>
<event>
 5   0  0.1550278E-06  0.2900205E+04  0.7818609E-02  0.8272816E-01
       -1   -1    0    0    0  501  0.00000000000E+00  0.00000000000E+00  0.14063644193E+04  0.14063644193E+04  0.50400001928E-02 0. -1.
        1   -1    0    0  501    0  0.00000000000E+00  0.00000000000E+00 -0.14952013362E+04  0.14952013362E+04  0.50400001928E-02 0.  1.
    10030    2    1    2    0    0  0.00000000000E+00  0.00000000000E+00 -0.88836916885E+02  0.29015657555E+04  0.29002054816E+04 0.  0.
        2    1    3    3  502    0 -0.72419936194E+02  0.13537005966E+04  0.47065114283E+03  0.14350130489E+04  0.25500000920E-02 0. -1.
       -2    1    3    3    0  502  0.72419936194E+02 -0.13537005966E+04 -0.55948805972E+03  0.14665527066E+04  0.25500000920E-02 0.  1.
</event>
<event>
 5   0  0.1543678E-06  0.2880581E+04  0.7818609E-02  0.8278679E-01
       -1   -1    0    0    0  501  0.00000000000E+00  0.00000000000E+00  0.14496671767E+04  0.14496671767E+04  0.50400001928E-02 0. -1.
        1   -1    0    0  501    0  0.00000000000E+00  0.00000000000E+00 -0.14309746879E+04  0.14309746879E+04  0.50400001928E-02 0.  1.
    10030    2    1    2    0    0  0.00000000000E+00  0.00000000000E+00  0.18692488770E+02  0.28806418646E+04  0.28805812161E+04 0.  0.
        3    1    3    3  502    0  0.13185582073E+04 -0.21490051465E+03 -0.52886490890E+03  0.14368284794E+04  0.10100000352E+00 0.  1.
       -3    1    3    3    0  502 -0.13185582073E+04  0.21490051465E+03  0.54755739767E+03  0.14438133852E+04  0.10100000352E+00 0. -1.
</event>
<event>
 5   0  0.1602873E-06  0.2896849E+04  0.7818609E-02  0.8273816E-01
        1   -1    0    0  501    0  0.00000000000E+00  0.00000000000E+00  0.16442011469E+04  0.16442011469E+04  0.50400001928E-02 0.  1.
       -1   -1    0    0    0  501  0.00000000000E+00  0.00000000000E+00 -0.12759588683E+04  0.12759588683E+04  0.50400001928E-02 0. -1.
    10030    2    1    2    0    0  0.00000000000E+00  0.00000000000E+00  0.36824227860E+03  0.29201600152E+04  0.28968486565E+04 0.  0.
        1    1    3    3  502    0 -0.73592120873E+03 -0.43012281319E+03 -0.99634785159E+03  0.13112187847E+04  0.50400001928E-02 0. -1.
       -1    1    3    3    0  502  0.73592120873E+03  0.43012281319E+03  0.13645901302E+04  0.16089412305E+04  0.50400001928E-02 0.  1.
</event>
<event>
 5   0  0.1543678E-06  0.2958837E+04  0.7818609E-02  0.8255584E-01
       -1   -1    0    0    0  501  0.00000000000E+00  0.00000000000E+00  0.18982542590E+04  0.18982542590E+04  0.50400001928E-02 0.  1.
        1   -1    0    0  501    0  0.00000000000E+00  0.00000000000E+00 -0.11529957491E+04  0.11529957492E+04  0.50400001928E-02 0. -1.
    10030    2    1    2    0    0  0.00000000000E+00  0.00000000000E+00  0.74525850986E+03  0.30512500082E+04  0.29588369955E+04 0.  0.
        3    1    3    3  502    0  0.36490751053E+03 -0.13004165678E+04  0.99517143667E+03  0.16776790336E+04  0.10100000352E+00 0.  1.
       -3    1    3    3    0  502 -0.36490751053E+03  0.13004165678E+04 -0.24991292681E+03  0.13735709746E+04  0.10100000352E+00 0. -1.
</event>
<event>
 5   0  0.4224163E-06  0.2881934E+04  0.7818609E-02  0.8278273E-01
       -2   -1    0    0    0  501  0.00000000000E+00  0.00000000000E+00  0.10872341795E+04  0.10872341795E+04  0.25500000920E-02 0. -1.
        2   -1    0    0  501    0  0.00000000000E+00  0.00000000000E+00 -0.19097869529E+04  0.19097869529E+04  0.25500000920E-02 0.  1.
    10030    2    1    2    0    0  0.00000000000E+00  0.00000000000E+00 -0.82255277337E+03  0.29970211324E+04  0.28819338305E+04 0.  0.
        4    1    3    3  502    0  0.51216171668E+03 -0.12298195047E+04  0.15985327478E+03  0.13417601576E+04  0.12699999809E+01 0. -1.
       -4    1    3    3    0  502 -0.51216171668E+03  0.12298195047E+04 -0.98240604815E+03  0.16552609748E+04  0.12699999809E+01 0.  1.
</event>
<event>
 5   0  0.4115143E-06  0.2902893E+04  0.7818609E-02  0.8272017E-01
        2   -1    0    0  501    0  0.00000000000E+00  0.00000000000E+00  0.18803619225E+04  0.18803619225E+04  0.25500000920E-02 0. -1.
       -2   -1    0    0    0  501  0.00000000000E+00  0.00000000000E+00 -0.11203678442E+04  0.11203678442E+04  0.25500000920E-02 0.  1.
    10030    2    1    2    0    0  0.00000000000E+00  0.00000000000E+00  0.75999407830E+03  0.30007297666E+04  0.29028930627E+04 0.  0.
        1    1    3    3  502    0 -0.92399184133E+03  0.14594361525E+03 -0.76719767428E+03  0.12098151649E+04  0.50400001928E-02 0.  1.
       -1    1    3    3    0  502  0.92399184133E+03 -0.14594361525E+03  0.15271917526E+04  0.17909146018E+04  0.50400001928E-02 0. -1.
</event>
<event>
 5   0  0.1550278E-06  0.2887153E+04  0.7818609E-02  0.8276710E-01
       -1   -1    0    0    0  501  0.00000000000E+00  0.00000000000E+00  0.10395453789E+04  0.10395453789E+04  0.50400001928E-02 0.  1.
        1   -1    0    0  501    0  0.00000000000E+00  0.00000000000E+00 -0.20046385620E+04  0.20046385620E+04  0.50400001928E-02 0. -1.
    10030    2    1    2    0    0  0.00000000000E+00  0.00000000000E+00 -0.96509318307E+03  0.30441839409E+04  0.28871527521E+04 0.  0.
        2    1    3    3  502    0 -0.37255785326E+03 -0.13921542783E+04 -0.39420494233E+03  0.14940851466E+04  0.25500000920E-02 0.  1.
       -2    1    3    3    0  502  0.37255785326E+03  0.13921542783E+04 -0.57088824074E+03  0.15500987943E+04  0.25500000920E-02 0. -1.
</event>
<event>
 5   0  0.1550278E-06  0.2909969E+04  0.7818609E-02  0.8269918E-01
        1   -1    0    0  501    0  0.00000000000E+00  0.00000000000E+00  0.21946111490E+04  0.21946111490E+04  0.50400001928E-02 0.  1.
       -1   -1    0    0    0  501  0.00000000000E+00  0.00000000000E+00 -0.96462658671E+03  0.96462658672E+03  0.50400001928E-02 0. -1.
    10030    2    1    2    0    0  0.00000000000E+00  0.00000000000E+00  0.12299845623E+04  0.31592377357E+04  0.29099692519E+04 0.  0.
        2    1    3    3  502    0  0.66734211654E+03  0.10100174189E+04 -0.26130401587E+03  0.12384508370E+04  0.25500000920E-02 0. -1.
       -2    1    3    3    0  502 -0.66734211654E+03 -0.10100174189E+04  0.14912885781E+04  0.19207868987E+04  0.25500000920E-02 0.  1.
</event>
<event>
 5   0  0.1360125E-06  0.2891135E+04  0.7818609E-02  0.8275520E-01
        3   -1    0    0  501    0  0.00000000000E+00  0.00000000000E+00  0.14526432314E+04  0.14526432349E+04  0.10100000352E+00 0. -1.
       -3   -1    0    0    0  501  0.00000000000E+00  0.00000000000E+00 -0.14385261862E+04  0.14385261897E+04  0.10100000352E+00 0.  1.
    10030    2    1    2    0    0  0.00000000000E+00  0.00000000000E+00  0.14117045220E+02  0.28911694247E+04  0.28911349590E+04 0.  0.
        5    1    3    3  502    0 -0.93234600741E+03  0.10831083450E+04 -0.21031583137E+03  0.14445233136E+04  0.46999998093E+01 0.  1.
       -5    1    3    3    0  502  0.93234600741E+03 -0.10831083450E+04  0.22443287659E+03  0.14466461111E+04  0.46999998093E+01 0. -1.
</event>
<event>
 5   0  0.4224163E-06  0.2895988E+04  0.7818609E-02  0.8274072E-01
        2   -1    0    0  501    0  0.00000000000E+00  0.00000000000E+00  0.18942596914E+04  0.18942596914E+04  0.25500000920E-02 0.  1.
       -2   -1    0    0    0  501  0.00000000000E+00  0.00000000000E+00 -0.11068636685E+04  0.11068636685E+04  0.25500000920E-02 0. -1.
    10030    2    1    2    0    0  0.00000000000E+00  0.00000000000E+00  0.78739602292E+03  0.30011233599E+04  0.28959884193E+04 0.  0.
        4    1    3    3  502    0  0.11972810602E+04  0.58807619545E+03 -0.19010994555E+03  0.13473896812E+04  0.12699999809E+01 0. -1.
       -4    1    3    3    0  502 -0.11972810602E+04 -0.58807619545E+03  0.97750596847E+03  0.16537336787E+04  0.12699999809E+01 0.  1.
</event>
<event>
 5   0  0.1543678E-06  0.2902237E+04  0.7818609E-02  0.8272212E-01
        1   -1    0    0  501    0  0.00000000000E+00  0.00000000000E+00  0.16899209825E+04  0.16899209825E+04  0.50400001928E-02 0. -1.
       -1   -1    0    0    0  501  0.00000000000E+00  0.00000000000E+00 -0.12460613406E+04  0.12460613406E+04  0.50400001928E-02 0.  1.
    10030    2    1    2    0    0  0.00000000000E+00  0.00000000000E+00  0.44385964192E+03  0.29359823231E+04  0.29022372095E+04 0.  0.
        3    1    3    3  502    0 -0.12341245726E+04 -0.51263447021E+03 -0.35023250276E+03  0.13814920835E+04  0.10100000352E+00 0.  1.
       -3    1    3    3    0  502  0.12341245726E+04  0.51263447021E+03  0.79409214468E+03  0.15544902396E+04  0.10100000352E+00 0. -1.
</event>
<event>
 5   0  0.4224163E-06  0.2897468E+04  0.7818609E-02  0.8273631E-01
       -2   -1    0    0    0  501  0.00000000000E+00  0.00000000000E+00  0.30154779910E+04  0.30154779910E+04  0.25500000920E-02 0. -1.
        2   -1    0    0  501    0  0.00000000000E+00  0.00000000000E+00 -0.69601910314E+03  0.69601910315E+03  0.25500000920E-02 0.  1.
    10030    2    1    2    0    0  0.00000000000E+00  0.00000000000E+00  0.23194588879E+04  0.37114970942E+04  0.28974680581E+04 0.  0.
        4    1    3    3  502    0 -0.82652562480E+03  0.11100766222E+04  0.61114099379E+03  0.15129142880E+04  0.12699999809E+01 0.  1.
       -4    1    3    3    0  502  0.82652562480E+03 -0.11100766222E+04  0.17083178941E+04  0.21985828062E+04  0.12699999809E+01 0. -1.
</event>
<event>
 5   0  0.1543678E-06  0.2897670E+04  0.7818609E-02  0.8273571E-01
        1   -1    0    0  501    0  0.00000000000E+00  0.00000000000E+00  0.16925705680E+04  0.16925705680E+04  0.50400001928E-02 0.  1.
       -1   -1    0    0    0  501  0.00000000000E+00  0.00000000000E+00 -0.12401977200E+04  0.12401977200E+04  0.50400001928E-02 0. -1.
    10030    2    1    2    0    0  0.00000000000E+00  0.00000000000E+00  0.45237284802E+03  0.29327682880E+04  0.28976695184E+04 0.  0.
        3    1    3    3  502    0 -0.67513012213E+03  0.60415797504E+03  0.13705071800E+04  0.16428930218E+04  0.10100000352E+00 0.  1.
       -3    1    3    3    0  502  0.67513012213E+03 -0.60415797504E+03 -0.91813433196E+03  0.12898752662E+04  0.10100000352E+00 0. -1.
</event>
<event>
 5   0  0.1543678E-06  0.2916608E+04  0.7818609E-02  0.8267953E-01
        1   -1    0    0  501    0  0.00000000000E+00  0.00000000000E+00  0.18007779969E+04  0.18007779969E+04  0.50400001928E-02 0. -1.
       -1   -1    0    0    0  501  0.00000000000E+00  0.00000000000E+00 -0.11809624545E+04  0.11809624545E+04  0.50400001928E-02 0.  1.
    10030    2    1    2    0    0  0.00000000000E+00  0.00000000000E+00  0.61981554240E+03  0.29817404513E+04  0.29166084435E+04 0.  0.
        3    1    3    3  502    0  0.47592301733E+03 -0.26971665441E+03  0.16919098146E+04  0.17781475257E+04  0.10100000352E+00 0. -1.
       -3    1    3    3    0  502 -0.47592301733E+03  0.26971665441E+03 -0.10720942722E+04  0.12035929257E+04  0.10100000352E+00 0.  1.
</event>
<event>
 5   0  0.4115143E-06  0.2910326E+04  0.7818609E-02  0.8269812E-01
       -2   -1    0    0    0  501  0.00000000000E+00  0.00000000000E+00  0.13574496134E+04  0.13574496134E+04  0.25500000920E-02 0. -1.
        2   -1    0    0  501    0  0.00000000000E+00  0.00000000000E+00 -0.15599105370E+04  0.15599105370E+04  0.25500000920E-02 0.  1.
    10030    2    1    2    0    0  0.00000000000E+00  0.00000000000E+00 -0.20246092365E+03  0.29173601504E+04  0.29103264115E+04 0.  0.
        1    1    3    3  502    0 -0.30524045415E+03  0.53431937669E+03  0.12206038956E+04  0.13669465246E+04  0.50400001928E-02 0. -1.
       -1    1    3    3    0  502  0.30524045415E+03 -0.53431937669E+03 -0.14230648193E+04  0.15504136258E+04  0.50400001928E-02 0.  1.
</event>
<event>
 5   0  0.4115143E-06  0.2901637E+04  0.7818609E-02  0.8272391E-01
       -2   -1    0    0    0  501  0.00000000000E+00  0.00000000000E+00  0.13399953389E+04  0.13399953389E+04  0.25500000920E-02 0.  1.
        2   -1    0    0  501    0  0.00000000000E+00  0.00000000000E+00 -0.15708068904E+04  0.15708068904E+04  0.25500000920E-02 0. -1.
    10030    2    1    2    0    0  0.00000000000E+00  0.00000000000E+00 -0.23081155153E+03  0.29108022293E+04  0.29016367184E+04 0.  0.
        1    1    3    3  502    0 -0.46208785399E+03  0.98411998352E+03 -0.10790944793E+04  0.15318166411E+04  0.50400001928E-02 0. -1.
       -1    1    3    3    0  502  0.46208785399E+03 -0.98411998352E+03  0.84828292775E+03  0.13789855881E+04  0.50400001928E-02 0.  1.
</event>
<event>
 5   0  0.4224163E-06  0.2896165E+04  0.7818609E-02  0.8274019E-01
        2   -1    0    0  501    0  0.00000000000E+00  0.00000000000E+00  0.15250717305E+04  0.15250717305E+04  0.25500000920E-02 0. -1.
       -2   -1    0    0    0  501  0.00000000000E+00  0.00000000000E+00 -0.13749796631E+04  0.13749796631E+04  0.25500000920E-02 0.  1.
    10030    2    1    2    0    0  0.00000000000E+00  0.00000000000E+00  0.15009206743E+03  0.29000513935E+04  0.28961647841E+04 0.  0.
        4    1    3    3  502    0 -0.56103246894E+03 -0.48616048760E+03  0.13200292864E+04  0.15144597653E+04  0.12699999809E+01 0. -1.
       -4    1    3    3    0  502  0.56103246894E+03  0.48616048760E+03 -0.11699372190E+04  0.13855916282E+04  0.12699999809E+01 0.  1.
</event>
<event>
 5   0  0.4224163E-06  0.2894298E+04  0.7818609E-02  0.8274576E-01
        2   -1    0    0  501    0  0.00000000000E+00  0.00000000000E+00  0.97038254048E+03  0.97038254048E+03  0.25500000920E-02 0.  1.
       -2   -1    0    0    0  501  0.00000000000E+00  0.00000000000E+00 -0.21581591374E+04  0.21581591374E+04  0.25500000920E-02 0. -1.
    10030    2    1    2    0    0  0.00000000000E+00  0.00000000000E+00 -0.11877765969E+04  0.31285416779E+04  0.28942978053E+04 0.  0.
        4    1    3    3  502    0 -0.52811379501E+03  0.83311408794E+03  0.55070431653E+03  0.11297168323E+04  0.12699999809E+01 0.  1.
       -4    1    3    3    0  502  0.52811379501E+03 -0.83311408794E+03 -0.17384809134E+04  0.19988248456E+04  0.12699999809E+01 0. -1.
</event>
<event>
 5   0  0.1602873E-06  0.2904013E+04  0.7818609E-02  0.8271685E-01
       -1   -1    0    0    0  501  0.00000000000E+00  0.00000000000E+00  0.91777385479E+03  0.91777385480E+03  0.50400001928E-02 0.  1.
        1   -1    0    0  501    0  0.00000000000E+00  0.00000000000E+00 -0.22972138896E+04  0.22972138896E+04  0.50400001928E-02 0. -1.
    10030    2    1    2    0    0  0.00000000000E+00  0.00000000000E+00 -0.13794400348E+04  0.32149877444E+04  0.29040129799E+04 0.  0.
        1    1    3    3  502    0  0.12515638895E+04  0.56746652900E+03 -0.12088616921E+04  0.18302396077E+04  0.50400001928E-02 0. -1.
       -1    1    3    3    0  502 -0.12515638895E+04 -0.56746652900E+03 -0.17057834278E+03  0.13847481367E+04  0.50400001928E-02 0.  1.
</event>
<event>
 5   0  0.1543678E-06  0.2904060E+04  0.7818609E-02  0.8271671E-01
       -1   -1    0    0    0  501  0.00000000000E+00  0.00000000000E+00  0.70789234120E+03  0.70789234122E+03  0.50400001928E-02 0.  1.
        1   -1    0    0  501    0  0.00000000000E+00  0.00000000000E+00 -0.29784062214E+04  0.29784062214E+04  0.50400001928E-02 0. -1.
    10030    2    1    2    0    0  0.00000000000E+00  0.00000000000E+00 -0.22705138802E+04  0.36862985626E+04  0.29040598845E+04 0.  0.
        3    1    3    3  502    0 -0.13370114015E+04 -0.58370172258E+02 -0.18503749448E+04  0.22836142431E+04  0.10100000352E+00 0. -1.
       -3    1    3    3    0  502  0.13370114015E+04  0.58370172258E+02 -0.42013893537E+03  0.14026843195E+04  0.10100000352E+00 0.  1.
</event>
<event>
 5   0  0.4162450E-06  0.2861366E+04  0.7818609E-02  0.8284466E-01
       -2   -1    0    0    0  501  0.00000000000E+00  0.00000000000E+00  0.92600128722E+03  0.92600128723E+03  0.25500000920E-02 0. -1.
        2   -1    0    0  501    0  0.00000000000E+00  0.00000000000E+00 -0.22104218885E+04  0.22104218885E+04  0.25500000920E-02 0.  1.
    10030    2    1    2    0    0  0.00000000000E+00  0.00000000000E+00 -0.12844206013E+04  0.31364231758E+04  0.28613657677E+04 0.  0.
        2    1    3    3  502    0  0.76451828798E+03  0.72124306173E+03  0.42175331499E+03  0.11324997243E+04  0.25500000920E-02 0. -1.
       -2    1    3    3    0  502 -0.76451828798E+03 -0.72124306173E+03 -0.17061739163E+04  0.20039234515E+04  0.25500000920E-02 0.  1.
</event>
<event>
 5   0  0.1550278E-06  0.2951518E+04  0.7818609E-02  0.8257712E-01
       -1   -1    0    0    0  501  0.00000000000E+00  0.00000000000E+00  0.13286580213E+04  0.13286580213E+04  0.50400001928E-02 0.  1.
        1   -1    0    0  501    0  0.00000000000E+00  0.00000000000E+00 -0.16391462710E+04  0.16391462710E+04  0.50400001928E-02 0. -1.
    10030    2    1    2    0    0  0.00000000000E+00  0.00000000000E+00 -0.31048824962E+03  0.29678042923E+04  0.29515181457E+04 0.  0.
        2    1    3    3  502    0 -0.47361978777E+03  0.41610702095E+03  0.11864363266E+04  0.13435370904E+04  0.25500000920E-02 0.  1.
       -2    1    3    3    0  502  0.47361978777E+03 -0.41610702095E+03 -0.14969245762E+04  0.16242672019E+04  0.25500000920E-02 0. -1.
</event>
<event>
 5   0  0.1580212E-06  0.2897828E+04  0.7818609E-02  0.8273524E-01
        1   -1    0    0  501    0  0.00000000000E+00  0.00000000000E+00  0.21112946535E+04  0.21112946535E+04  0.50400001928E-02 0. -1.
       -1   -1    0    0    0  501  0.00000000000E+00  0.00000000000E+00 -0.99434345711E+03  0.99434345712E+03  0.50400001928E-02 0.  1.
    10030    2    1    2    0    0  0.00000000000E+00  0.00000000000E+00  0.11169511964E+04  0.31056381106E+04  0.28978281694E+04 0.  0.
        4    1    3    3  502    0  0.11401732440E+04  0.89289071031E+03  0.60760592155E+03  0.15704889098E+04  0.12699999809E+01 0. -1.
       -4    1    3    3    0  502 -0.11401732440E+04 -0.89289071031E+03  0.50934527486E+03  0.15351492009E+04  0.12699999809E+01 0.  1.
</event>
<event>
 5   0  0.1580212E-06  0.2911882E+04  0.7818609E-02  0.8269351E-01
        1   -1    0    0  501    0  0.00000000000E+00  0.00000000000E+00  0.17112132338E+04  0.17112132338E+04  0.50400001928E-02 0. -1.
       -1   -1    0    0    0  501  0.00000000000E+00  0.00000000000E+00 -0.12387496574E+04  0.12387496574E+04  0.50400001928E-02 0.  1.
    10030    2    1    2    0    0  0.00000000000E+00  0.00000000000E+00  0.47246357640E+03  0.29499628912E+04  0.29118824201E+04 0.  0.
        4    1    3    3  502    0  0.53498401384E+03  0.11464502305E+04 -0.49375173607E+03  0.13580678981E+04  0.12699999809E+01 0.  1.
       -4    1    3    3    0  502 -0.53498401384E+03 -0.11464502305E+04  0.96621531247E+03  0.15918949931E+04  0.12699999809E+01 0. -1.
</event>
<event>
 5   0  0.4162450E-06  0.2903159E+04  0.7818609E-02  0.8271938E-01
        2   -1    0    0  501    0  0.00000000000E+00  0.00000000000E+00  0.16098929691E+04  0.16098929691E+04  0.25500000920E-02 0. -1.
       -2   -1    0    0    0  501  0.00000000000E+00  0.00000000000E+00 -0.13088346431E+04  0.13088346431E+04  0.25500000920E-02 0.  1.
    10030    2    1    2    0    0  0.00000000000E+00  0.00000000000E+00  0.30105832605E+03  0.29187276122E+04  0.29031594442E+04 0.  0.
        2    1    3    3  502    0  0.19136357788E+03 -0.77383978253E+03  0.13701443679E+04  0.15851635931E+04  0.25500000920E-02 0. -1.
       -2    1    3    3    0  502 -0.19136357788E+03  0.77383978253E+03 -0.10690860419E+04  0.13335640191E+04  0.25500000920E-02 0.  1.
</event>
<event>
 5   0  0.1602873E-06  0.2898175E+04  0.7818609E-02  0.8273421E-01
       -1   -1    0    0    0  501  0.00000000000E+00  0.00000000000E+00  0.21841173010E+04  0.21841173010E+04  0.50400001928E-02 0. -1.
        1   -1    0    0  501    0  0.00000000000E+00  0.00000000000E+00 -0.96142056281E+03  0.96142056282E+03  0.50400001928E-02 0.  1.
    10030    2    1    2    0    0  0.00000000000E+00  0.00000000000E+00  0.12226967381E+04  0.31455378638E+04  0.28981754845E+04 0.  0.
        1    1    3    3  502    0 -0.38806442744E+03 -0.12732974094E+04  0.12329191689E+04  0.18143786732E+04  0.50400001928E-02 0. -1.
       -1    1    3    3    0  502  0.38806442744E+03  0.12732974094E+04 -0.10222430779E+02  0.13311591906E+04  0.50400001928E-02 0.  1.
</event>
<event>
 5   0  0.4162450E-06  0.2901833E+04  0.7818609E-02  0.8272332E-01
        2   -1    0    0  501    0  0.00000000000E+00  0.00000000000E+00  0.11795780542E+04  0.11795780542E+04  0.25500000920E-02 0.  1.
       -2   -1    0    0    0  501  0.00000000000E+00  0.00000000000E+00 -0.17846708265E+04  0.17846708265E+04  0.25500000920E-02 0. -1.
    10030    2    1    2    0    0  0.00000000000E+00  0.00000000000E+00 -0.60509277224E+03  0.29642488807E+04  0.29018328972E+04 0.  0.
        2    1    3    3  502    0 -0.10883797460E+04  0.13436670859E+03 -0.12729981817E+04  0.16802229776E+04  0.25500000920E-02 0. -1.
       -2    1    3    3    0  502  0.10883797460E+04 -0.13436670859E+03  0.66790540942E+03  0.12840259031E+04  0.25500000920E-02 0.  1.
</event>
<event>
 5   0  0.4162450E-06  0.2902668E+04  0.7818609E-02  0.8272084E-01
       -2   -1    0    0    0  501  0.00000000000E+00  0.00000000000E+00  0.75526424728E+03  0.75526424729E+03  0.25500000920E-02 0.  1.
        2   -1    0    0  501    0  0.00000000000E+00  0.00000000000E+00 -0.27889187948E+04  0.27889187948E+04  0.25500000920E-02 0. -1.
    10030    2    1    2    0    0  0.00000000000E+00  0.00000000000E+00 -0.20336545475E+04  0.35441830421E+04  0.29026681893E+04 0.  0.
        2    1    3    3  502    0 -0.18797755879E+03 -0.10822200375E+04  0.14141700082E+03  0.11074901988E+04  0.25500000920E-02 0.  1.
       -2    1    3    3    0  502  0.18797755879E+03  0.10822200375E+04 -0.21750715483E+04  0.24366928433E+04  0.25500000920E-02 0. -1.
</event>
<event>
 5   0  0.4162450E-06  0.2910007E+04  0.7818609E-02  0.8269906E-01
       -2   -1    0    0    0  501  0.00000000000E+00  0.00000000000E+00  0.13808229252E+04  0.13808229252E+04  0.25500000920E-02 0. -1.
        2   -1    0    0  501    0  0.00000000000E+00  0.00000000000E+00 -0.15331692723E+04  0.15331692723E+04  0.25500000920E-02 0.  1.
    10030    2    1    2    0    0  0.00000000000E+00  0.00000000000E+00 -0.15234634702E+03  0.29139921975E+04  0.29100070649E+04 0.  0.
        2    1    3    3  502    0 -0.19495619333E+03 -0.35648462344E+03  0.13228607620E+04  0.13838532435E+04  0.25500000920E-02 0. -1.
       -2    1    3    3    0  502  0.19495619333E+03  0.35648462344E+03 -0.14752071090E+04  0.15301389540E+04  0.25500000920E-02 0.  1.
</event>
<event>
 5   0  0.4115143E-06  0.3173862E+04  0.7818609E-02  0.8195755E-01
       -2   -1    0    0    0  501  0.00000000000E+00  0.00000000000E+00  0.14032528747E+04  0.14032528747E+04  0.25500000920E-02 0. -1.
        2   -1    0    0  501    0  0.00000000000E+00  0.00000000000E+00 -0.17946511251E+04  0.17946511251E+04  0.25500000920E-02 0.  1.
    10030    2    1    2    0    0  0.00000000000E+00  0.00000000000E+00 -0.39139825046E+03  0.31979039998E+04  0.31738615914E+04 0.  0.
        1    1    3    3  502    0 -0.19742650509E+03 -0.55779953302E+02 -0.17812333573E+04  0.17930088961E+04  0.50400001928E-02 0.  1.
       -1    1    3    3    0  502  0.19742650509E+03  0.55779953302E+02  0.13898351069E+04  0.14048951037E+04  0.50400001928E-02 0. -1.
</event>
<event>
 5   0  0.1550278E-06  0.2893154E+04  0.7818609E-02  0.8274917E-01
       -1   -1    0    0    0  501  0.00000000000E+00  0.00000000000E+00  0.10323329017E+04  0.10323329017E+04  0.50400001928E-02 0. -1.
        1   -1    0    0  501    0  0.00000000000E+00  0.00000000000E+00 -0.20270450253E+04  0.20270450253E+04  0.50400001928E-02 0.  1.
    10030    2    1    2    0    0  0.00000000000E+00  0.00000000000E+00 -0.99471212354E+03  0.30593779270E+04  0.28931541769E+04 0.  0.
        2    1    3    3  502    0  0.53271439518E+03 -0.91932460124E+03  0.54069715677E+03  0.11921810956E+04  0.25500000920E-02 0. -1.
       -2    1    3    3    0  502 -0.53271439518E+03  0.91932460124E+03 -0.15354092803E+04  0.18671968314E+04  0.25500000920E-02 0.  1.
</event>
<event>
 5   0  0.4224163E-06  0.2834567E+04  0.7818609E-02  0.8292616E-01
        2   -1    0    0  501    0  0.00000000000E+00  0.00000000000E+00  0.18737146735E+04  0.18737146735E+04  0.25500000920E-02 0. -1.
       -2   -1    0    0    0  501  0.00000000000E+00  0.00000000000E+00 -0.10720375983E+04  0.10720375983E+04  0.25500000920E-02 0.  1.
    10030    2    1    2    0    0  0.00000000000E+00  0.00000000000E+00  0.80167707518E+03  0.29457522718E+04  0.28345670417E+04 0.  0.
        4    1    3    3  502    0 -0.27756004171E+03 -0.59281817777E+03  0.17072139262E+04  0.18284020268E+04  0.12699999809E+01 0. -1.
       -4    1    3    3    0  502  0.27756004171E+03  0.59281817777E+03 -0.90553685104E+03  0.11173502451E+04  0.12699999809E+01 0.  1.
</event>
<event>
 5   0  0.4148677E-06  0.2906647E+04  0.7818609E-02  0.8270902E-01
        2   -1    0    0  501    0  0.00000000000E+00  0.00000000000E+00  0.19493439585E+04  0.19493439585E+04  0.25500000920E-02 0. -1.
       -2   -1    0    0    0  501  0.00000000000E+00  0.00000000000E+00 -0.10835183069E+04  0.10835183069E+04  0.25500000920E-02 0.  1.
    10030    2    1    2    0    0  0.00000000000E+00  0.00000000000E+00  0.86582565166E+03  0.30328622654E+04  0.29066474609E+04 0.  0.
        5    1    3    3  502    0 -0.86594512681E+02 -0.84054408427E+03 -0.80085018290E+03  0.11642147880E+04  0.46999998093E+01 0.  1.
       -5    1    3    3    0  502  0.86594512681E+02  0.84054408427E+03  0.16666758346E+04  0.18686474774E+04  0.46999998093E+01 0. -1.
</event>
<event>
 5   0  0.1511126E-06  0.2900565E+04  0.7818609E-02  0.8272709E-01
        1   -1    0    0  501    0  0.00000000000E+00  0.00000000000E+00  0.20491134082E+04  0.20491134082E+04  0.50400001928E-02 0.  1.
       -1   -1    0    0    0  501  0.00000000000E+00  0.00000000000E+00 -0.10264531797E+04  0.10264531797E+04  0.50400001928E-02 0. -1.
    10030    2    1    2    0    0  0.00000000000E+00  0.00000000000E+00  0.10226602286E+04  0.30755665879E+04  0.29005647543E+04 0.  0.
        5    1    3    3  502    0  0.80414820863E+03  0.85637144852E+03 -0.39043398220E+03  0.12379366639E+04  0.46999998093E+01 0. -1.
       -5    1    3    3    0  502 -0.80414820863E+03 -0.85637144852E+03  0.14130942108E+04  0.18376299241E+04  0.46999998093E+01 0.  1.
</event>
<event>
 5   0  0.4148677E-06  0.2908367E+04  0.7818609E-02  0.8270392E-01
       -2   -1    0    0    0  501  0.00000000000E+00  0.00000000000E+00  0.13354932394E+04  0.13354932394E+04  0.25500000920E-02 0. -1.
        2   -1    0    0  501    0  0.00000000000E+00  0.00000000000E+00 -0.15834226084E+04  0.15834226084E+04  0.25500000920E-02 0.  1.
    10030    2    1    2    0    0  0.00000000000E+00  0.00000000000E+00 -0.24792936898E+03  0.29189158478E+04  0.29083673692E+04 0.  0.
        5    1    3    3  502    0 -0.77578649953E+03  0.40067528252E+02 -0.13577230833E+04  0.15642519492E+04  0.46999998093E+01 0.  1.
       -5    1    3    3    0  502  0.77578649953E+03 -0.40067528252E+02  0.11097937143E+04  0.13546638986E+04  0.46999998093E+01 0. -1.
</event>
<event>
 5   0  0.1511126E-06  0.2889508E+04  0.7818609E-02  0.8276006E-01
        1   -1    0    0  501    0  0.00000000000E+00  0.00000000000E+00  0.90743173682E+03  0.90743173684E+03  0.50400001928E-02 0. -1.
       -1   -1    0    0    0  501  0.00000000000E+00  0.00000000000E+00 -0.23002437997E+04  0.23002437997E+04  0.50400001928E-02 0.  1.
    10030    2    1    2    0    0  0.00000000000E+00  0.00000000000E+00 -0.13928120629E+04  0.32076755365E+04  0.28895080732E+04 0.  0.
        5    1    3    3  502    0 -0.52192866472E+03  0.83919121439E+03 -0.18663183506E+04  0.21118280472E+04  0.46999998093E+01 0.  1.
       -5    1    3    3    0  502  0.52192866472E+03 -0.83919121439E+03  0.47350628769E+03  0.10958474893E+04  0.46999998093E+01 0. -1.
</event>
<event>
 5   0  0.4148677E-06  0.2894303E+04  0.7818609E-02  0.8274575E-01
        2   -1    0    0  501    0  0.00000000000E+00  0.00000000000E+00  0.13676756446E+04  0.13676756446E+04  0.25500000920E-02 0.  1.
       -2   -1    0    0    0  501  0.00000000000E+00  0.00000000000E+00 -0.15312456752E+04  0.15312456752E+04  0.25500000920E-02 0. -1.
    10030    2    1    2    0    0  0.00000000000E+00  0.00000000000E+00 -0.16357003052E+03  0.28989213198E+04  0.28943029668E+04 0.  0.
        5    1    3    3  502    0  0.60173086323E+03  0.13127278251E+04  0.12657285282E+02  0.14441318054E+04  0.46999998093E+01 0.  1.
       -5    1    3    3    0  502 -0.60173086323E+03 -0.13127278251E+04 -0.17622731580E+03  0.14547895144E+04  0.46999998093E+01 0. -1.
</event>
<event>
 5   0  0.4162450E-06  0.2882062E+04  0.7818609E-02  0.8278235E-01
        2   -1    0    0  501    0  0.00000000000E+00  0.00000000000E+00  0.19204606850E+04  0.19204606850E+04  0.25500000920E-02 0. -1.
       -2   -1    0    0    0  501  0.00000000000E+00  0.00000000000E+00 -0.10812872563E+04  0.10812872563E+04  0.25500000920E-02 0.  1.
    10030    2    1    2    0    0  0.00000000000E+00  0.00000000000E+00  0.83917342872E+03  0.30017479413E+04  0.28820615294E+04 0.  0.
        2    1    3    3  502    0  0.63674553630E+03 -0.12335477026E+04  0.16897899726E+02  0.13882976451E+04  0.25500000920E-02 0.  1.
       -2    1    3    3    0  502 -0.63674553630E+03  0.12335477026E+04  0.82227552900E+03  0.16134502961E+04  0.25500000920E-02 0. -1.
</event>
<event>
 5   0  0.1602873E-06  0.2908282E+04  0.7818609E-02  0.8270418E-01
        1   -1    0    0  501    0  0.00000000000E+00  0.00000000000E+00  0.15267061882E+04  0.15267061882E+04  0.50400001928E-02 0. -1.
       -1   -1    0    0    0  501  0.00000000000E+00  0.00000000000E+00 -0.13850250542E+04  0.13850250542E+04  0.50400001928E-02 0.  1.
    10030    2    1    2    0    0  0.00000000000E+00  0.00000000000E+00  0.14168113394E+03  0.29117312424E+04  0.29082821879E+04 0.  0.
        1    1    3    3  502    0 -0.54324327127E+03 -0.21321203667E+03 -0.12626375186E+04  0.13909802759E+04  0.50400001928E-02 0.  1.
       -1    1    3    3    0  502  0.54324327127E+03  0.21321203667E+03  0.14043186526E+04  0.15207509666E+04  0.50400001928E-02 0. -1.
</event>
<event>
 5   0  0.1543678E-06  0.2905230E+04  0.7818609E-02  0.8271323E-01
       -1   -1    0    0    0  501  0.00000000000E+00  0.00000000000E+00  0.14694446822E+04  0.14694446822E+04  0.50400001928E-02 0.  1.
        1   -1    0    0  501    0  0.00000000000E+00  0.00000000000E+00 -0.14359783438E+04  0.14359783438E+04  0.50400001928E-02 0. -1.
    10030    2    1    2    0    0  0.00000000000E+00  0.00000000000E+00  0.33466338336E+02  0.29054230260E+04  0.29052302773E+04 0.  0.
        3    1    3    3  502    0 -0.48794314244E+02  0.12252403231E+04  0.79556336601E+03  0.14616825285E+04  0.10100000352E+00 0.  1.
       -3    1    3    3    0  502  0.48794314244E+02 -0.12252403231E+04 -0.76209702768E+03  0.14437404975E+04  0.10100000352E+00 0. -1.
</event>
<event>
 5   0  0.4224163E-06  0.2857659E+04  0.7818609E-02  0.8285588E-01
       -2   -1    0    0    0  501  0.00000000000E+00  0.00000000000E+00  0.12399021616E+04  0.12399021616E+04  0.25500000920E-02 0. -1.
        2   -1    0    0  501    0  0.00000000000E+00  0.00000000000E+00 -0.16465444459E+04  0.16465444459E+04  0.25500000920E-02 0.  1.
    10030    2    1    2    0    0  0.00000000000E+00  0.00000000000E+00 -0.40664228426E+03  0.28864466075E+04  0.28576591943E+04 0.  0.
        4    1    3    3  502    0  0.75618901873E+01  0.30259350231E+03  0.12071456717E+04  0.12445168924E+04  0.12699999809E+01 0. -1.
       -4    1    3    3    0  502 -0.75618901873E+01 -0.30259350231E+03 -0.16137879560E+04  0.16419297152E+04  0.12699999809E+01 0.  1.
</event>
<event>
 5   0  0.4224163E-06  0.2916484E+04  0.7818609E-02  0.8267990E-01
        2   -1    0    0  501    0  0.00000000000E+00  0.00000000000E+00  0.19455638083E+04  0.19455638083E+04  0.25500000920E-02 0.  1.
       -2   -1    0    0    0  501  0.00000000000E+00  0.00000000000E+00 -0.10929837137E+04  0.10929837137E+04  0.25500000920E-02 0. -1.
    10030    2    1    2    0    0  0.00000000000E+00  0.00000000000E+00  0.85258009461E+03  0.30385475219E+04  0.29164838805E+04 0.  0.
        4    1    3    3  502    0 -0.58347814259E+03  0.52450131620E+03 -0.85435013875E+03  0.11599414408E+04  0.12699999809E+01 0. -1.
       -4    1    3    3    0  502  0.58347814259E+03 -0.52450131620E+03  0.17069302334E+04  0.18786060811E+04  0.12699999809E+01 0.  1.
</event>
<event>
 5   0  0.4115143E-06  0.2886391E+04  0.7818609E-02  0.8276938E-01
        2   -1    0    0  501    0  0.00000000000E+00  0.00000000000E+00  0.11992623111E+04  0.11992623111E+04  0.25500000920E-02 0. -1.
       -2   -1    0    0    0  501  0.00000000000E+00  0.00000000000E+00 -0.17367448835E+04  0.17367448835E+04  0.25500000920E-02 0.  1.
    10030    2    1    2    0    0  0.00000000000E+00  0.00000000000E+00 -0.53748257244E+03  0.29360071946E+04  0.28863906061E+04 0.  0.
        1    1    3    3  502    0  0.87939276156E+03  0.93844566058E+03  0.39734394505E+03  0.13460661565E+04  0.50400001928E-02 0. -1.
       -1    1    3    3    0  502 -0.87939276156E+03 -0.93844566058E+03 -0.93482651749E+03  0.15899410381E+04  0.50400001928E-02 0.  1.
</event>
<event>
 5   0  0.1360125E-06  0.2906072E+04  0.7818609E-02  0.8271073E-01
       -4   -1    0    0    0  501  0.00000000000E+00  0.00000000000E+00  0.12905370696E+04  0.12905376945E+04  0.12699999809E+01 0.  1.
        4   -1    0    0  501    0  0.00000000000E+00  0.00000000000E+00 -0.16359952376E+04  0.16359957305E+04  0.12699999809E+01 0. -1.
    10030    2    1    2    0    0  0.00000000000E+00  0.00000000000E+00 -0.34545816799E+03  0.29265334250E+04  0.29060723566E+04 0.  0.
        3    1    3    3  502    0 -0.39444068544E+03 -0.13370146786E+04 -0.58564334441E+03  0.15120085457E+04  0.10100000352E+00 0.  1.
       -3    1    3    3    0  502  0.39444068544E+03  0.13370146786E+04  0.24018517643E+03  0.14145248793E+04  0.10100000352E+00 0. -1.
</event>
<event>
 5   0  0.1543678E-06  0.2890100E+04  0.7818609E-02  0.8275829E-01
        1   -1    0    0  501    0  0.00000000000E+00  0.00000000000E+00  0.14251507577E+04  0.14251507578E+04  0.50400001928E-02 0. -1.
       -1   -1    0    0    0  501  0.00000000000E+00  0.00000000000E+00 -0.14652266190E+04  0.14652266190E+04  0.50400001928E-02 0.  1.
    10030    2    1    2    0    0  0.00000000000E+00  0.00000000000E+00 -0.40075861255E+02  0.28903773768E+04  0.28900995321E+04 0.  0.
        3    1    3    3  502    0  0.93565753927E+03 -0.51766108979E+03  0.95203328012E+03  0.14317106591E+04  0.10100000352E+00 0. -1.
       -3    1    3    3    0  502 -0.93565753927E+03  0.51766108979E+03 -0.99210914138E+03  0.14586667177E+04  0.10100000352E+00 0.  1.
</event>
<event>
 5   0  0.1602873E-06  0.2852972E+04  0.7818609E-02  0.8287009E-01
        1   -1    0    0  501    0  0.00000000000E+00  0.00000000000E+00  0.18399344426E+04  0.18399344426E+04  0.50400001928E-02 0. -1.
       -1   -1    0    0    0  501  0.00000000000E+00  0.00000000000E+00 -0.11059427267E+04  0.11059427267E+04  0.50400001928E-02 0.  1.
    10030    2    1    2    0    0  0.00000000000E+00  0.00000000000E+00  0.73399171588E+03  0.29458771694E+04  0.28529718642E+04 0.  0.
        1    1    3    3  502    0 -0.22822018706E+03 -0.71656788642E+03  0.16186190043E+04  0.17847917164E+04  0.50400001928E-02 0. -1.
       -1    1    3    3    0  502  0.22822018706E+03  0.71656788642E+03 -0.88462728846E+03  0.11610854530E+04  0.50400001928E-02 0.  1.
</event>
<event>
 5   0  0.4162450E-06  0.2904898E+04  0.7818609E-02  0.8271422E-01
        2   -1    0    0  501    0  0.00000000000E+00  0.00000000000E+00  0.14758729590E+04  0.14758729590E+04  0.25500000920E-02 0. -1.
       -2   -1    0    0    0  501  0.00000000000E+00  0.00000000000E+00 -0.14293972656E+04  0.14293972657E+04  0.25500000920E-02 0.  1.
    10030    2    1    2    0    0  0.00000000000E+00  0.00000000000E+00  0.46475693356E+02  0.29052702247E+04  0.29048984644E+04 0.  0.
        2    1    3    3  502    0  0.65721328450E+03 -0.89788986488E+03  0.95688463892E+03  0.14675706876E+04  0.25500000920E-02 0. -1.
       -2    1    3    3    0  502 -0.65721328450E+03  0.89788986488E+03 -0.91040894556E+03  0.14376995371E+04  0.25500000920E-02 0.  1.
</event>
<event>
 5   0  0.1511126E-06  0.2845649E+04  0.7818609E-02  0.8289235E-01
        1   -1    0    0  501    0  0.00000000000E+00  0.00000000000E+00  0.19496882863E+04  0.19496882863E+04  0.50400001928E-02 0.  1.
       -1   -1    0    0    0  501  0.00000000000E+00  0.00000000000E+00 -0.10383350315E+04  0.10383350315E+04  0.50400001928E-02 0. -1.
    10030    2    1    2    0    0  0.00000000000E+00  0.00000000000E+00  0.91135325476E+03  0.29880233178E+04  0.28456490635E+04 0.  0.
        5    1    3    3  502    0  0.45849552521E+03  0.13191676872E+04  0.74128930977E+03  0.15811241142E+04  0.46999998093E+01 0. -1.
       -5    1    3    3    0  502 -0.45849552521E+03 -0.13191676872E+04  0.17006394499E+03  0.14068992036E+04  0.46999998093E+01 0.  1.
</event>
<event>
 5   0  0.1543678E-06  0.2873576E+04  0.7818609E-02  0.8280783E-01
       -1   -1    0    0    0  501  0.00000000000E+00  0.00000000000E+00  0.10901705865E+04  0.10901705865E+04  0.50400001928E-02 0.  1.
        1   -1    0    0  501    0  0.00000000000E+00  0.00000000000E+00 -0.18936111246E+04  0.18936111246E+04  0.50400001928E-02 0. -1.
    10030    2    1    2    0    0  0.00000000000E+00  0.00000000000E+00 -0.80344053804E+03  0.29837817111E+04  0.28735755778E+04 0.  0.
        3    1    3    3  502    0  0.35622836295E+03  0.10632461240E+04 -0.13344860963E+04  0.17430559711E+04  0.10100000352E+00 0. -1.
       -3    1    3    3    0  502 -0.35622836295E+03 -0.10632461240E+04  0.53104555830E+03  0.12407257400E+04  0.10100000352E+00 0.  1.
</event>
<event>
 5   0  0.1550278E-06  0.2907169E+04  0.7818609E-02  0.8270748E-01
       -1   -1    0    0    0  501  0.00000000000E+00  0.00000000000E+00  0.14552943802E+04  0.14552943802E+04  0.50400001928E-02 0. -1.
        1   -1    0    0  501    0  0.00000000000E+00  0.00000000000E+00 -0.14518762304E+04  0.14518762304E+04  0.50400001928E-02 0.  1.
    10030    2    1    2    0    0  0.00000000000E+00  0.00000000000E+00  0.34181498200E+01  0.29071706106E+04  0.29071686011E+04 0.  0.
        2    1    3    3  502    0 -0.76487822561E+03  0.16864683868E+03 -0.12228026381E+04  0.14521455671E+04  0.25500000920E-02 0.  1.
       -2    1    3    3    0  502  0.76487822561E+03 -0.16864683868E+03  0.12262207880E+04  0.14550250434E+04  0.25500000920E-02 0. -1.
</event>
<event>
 5   0  0.4162450E-06  0.2892739E+04  0.7818609E-02  0.8275041E-01
        2   -1    0    0  501    0  0.00000000000E+00  0.00000000000E+00  0.20723779740E+04  0.20723779740E+04  0.25500000920E-02 0. -1.
       -2   -1    0    0    0  501  0.00000000000E+00  0.00000000000E+00 -0.10094611853E+04  0.10094611853E+04  0.25500000920E-02 0.  1.
    10030    2    1    2    0    0  0.00000000000E+00  0.00000000000E+00  0.10629167887E+04  0.30818391592E+04  0.28927392734E+04 0.  0.
        2    1    3    3  502    0 -0.11346429882E+03  0.14098032192E+04  0.20907885451E+03  0.14297318740E+04  0.25500000920E-02 0. -1.
       -2    1    3    3    0  502  0.11346429882E+03 -0.14098032192E+04  0.85383793420E+03  0.16521072852E+04  0.25500000920E-02 0.  1.
</event>
<event>
 5   0  0.4187518E-06  0.2896665E+04  0.7818609E-02  0.8273870E-01
        2   -1    0    0  501    0  0.00000000000E+00  0.00000000000E+00  0.20249234111E+04  0.20249234111E+04  0.25500000920E-02 0. -1.
       -2   -1    0    0    0  501  0.00000000000E+00  0.00000000000E+00 -0.10359240968E+04  0.10359240968E+04  0.25500000920E-02 0.  1.
    10030    2    1    2    0    0  0.00000000000E+00  0.00000000000E+00  0.98899931433E+03  0.30608475079E+04  0.28966649483E+04 0.  0.
        3    1    3    3  502    0  0.76855002494E+03  0.99391817284E+03  0.12558405900E+04  0.17764228306E+04  0.10100000352E+00 0. -1.
       -3    1    3    3    0  502 -0.76855002494E+03 -0.99391817284E+03 -0.26684127570E+03  0.12844246773E+04  0.10100000352E+00 0.  1.
</event>
<event>
 5   0  0.1511126E-06  0.2939021E+04  0.7818609E-02  0.8261361E-01
        1   -1    0    0  501    0  0.00000000000E+00  0.00000000000E+00  0.12189312083E+04  0.12189312084E+04  0.50400001928E-02 0.  1.
       -1   -1    0    0    0  501  0.00000000000E+00  0.00000000000E+00 -0.17716024444E+04  0.17716024444E+04  0.50400001928E-02 0. -1.
    10030    2    1    2    0    0  0.00000000000E+00  0.00000000000E+00 -0.55267123608E+03  0.29905336528E+04  0.29390212713E+04 0.  0.
        5    1    3    3  502    0 -0.44938405244E+03  0.11395566435E+04  0.54962064838E+03  0.13426244141E+04  0.46999998093E+01 0.  1.
       -5    1    3    3    0  502  0.44938405244E+03 -0.11395566435E+04 -0.11022918845E+04  0.16479092387E+04  0.46999998093E+01 0. -1.
</event>
<event>
 5   0  0.1602873E-06  0.2922608E+04  0.7818609E-02  0.8266183E-01
       -1   -1    0    0    0  501  0.00000000000E+00  0.00000000000E+00  0.14697340682E+04  0.14697340682E+04  0.50400001928E-02 0.  1.
        1   -1    0    0  501    0  0.00000000000E+00  0.00000000000E+00 -0.14529220882E+04  0.14529220882E+04  0.50400001928E-02 0. -1.
    10030    2    1    2    0    0  0.00000000000E+00  0.00000000000E+00  0.16811979978E+02  0.29226561565E+04  0.29226078023E+04 0.  0.
        1    1    3    3  502    0  0.12500001082E+04 -0.40938386724E+03 -0.62824704126E+03  0.14576658623E+04  0.50400001928E-02 0. -1.
       -1    1    3    3    0  502 -0.12500001082E+04  0.40938386724E+03  0.64505902124E+03  0.14649902942E+04  0.50400001928E-02 0.  1.
</event>
<event>
 5   0  0.1511126E-06  0.2891014E+04  0.7818609E-02  0.8275556E-01
        1   -1    0    0  501    0  0.00000000000E+00  0.00000000000E+00  0.14509058355E+04  0.14509058355E+04  0.50400001928E-02 0. -1.
       -1   -1    0    0    0  501  0.00000000000E+00  0.00000000000E+00 -0.14401284902E+04  0.14401284902E+04  0.50400001928E-02 0.  1.
    10030    2    1    2    0    0  0.00000000000E+00  0.00000000000E+00  0.10777345327E+02  0.28910343257E+04  0.28910142374E+04 0.  0.
        5    1    3    3  502    0  0.86384009980E+03  0.13312329220E+00 -0.11536055774E+04  0.14411966049E+04  0.46999998093E+01 0.  1.
       -5    1    3    3    0  502 -0.86384009980E+03 -0.13312329220E+00  0.11643829227E+04  0.14498377208E+04  0.46999998093E+01 0. -1.
</event>
<event>
 5   0  0.4148677E-06  0.2907784E+04  0.7818609E-02  0.8270565E-01
        2   -1    0    0  501    0  0.00000000000E+00  0.00000000000E+00  0.22987412178E+04  0.22987412178E+04  0.25500000920E-02 0. -1.
       -2   -1    0    0    0  501  0.00000000000E+00  0.00000000000E+00 -0.91954784886E+03  0.91954784886E+03  0.25500000920E-02 0.  1.
    10030    2    1    2    0    0  0.00000000000E+00  0.00000000000E+00  0.13791933690E+04  0.32182890667E+04  0.29077844088E+04 0.  0.
        5    1    3    3  502    0  0.12764841153E+04 -0.64397100816E+03  0.39746003053E+03  0.14839497707E+04  0.46999998093E+01 0.  1.
       -5    1    3    3    0  502 -0.12764841153E+04  0.64397100816E+03  0.98173333845E+03  0.17343392960E+04  0.46999998093E+01 0. -1.
</event>
<event>
 5   0  0.4162450E-06  0.2886048E+04  0.7818609E-02  0.8277041E-01
       -2   -1    0    0    0  501  0.00000000000E+00  0.00000000000E+00  0.13792157131E+04  0.13792157131E+04  0.25500000920E-02 0.  1.
        2   -1    0    0  501    0  0.00000000000E+00  0.00000000000E+00 -0.15097848432E+04  0.15097848432E+04  0.25500000920E-02 0. -1.
    10030    2    1    2    0    0  0.00000000000E+00  0.00000000000E+00 -0.13056913016E+03  0.28890005563E+04  0.28860484952E+04 0.  0.
        2    1    3    3  502    0 -0.63796146157E+03  0.88505264337E+03 -0.10107113058E+04  0.14872290851E+04  0.25500000920E-02 0. -1.
       -2    1    3    3    0  502  0.63796146157E+03 -0.88505264337E+03  0.88014217564E+03  0.14017714711E+04  0.25500000920E-02 0.  1.
</event>
<event>
 5   0  0.4162450E-06  0.2912047E+04  0.7818609E-02  0.8269302E-01
       -2   -1    0    0    0  501  0.00000000000E+00  0.00000000000E+00  0.14797620579E+04  0.14797620579E+04  0.25500000920E-02 0. -1.
        2   -1    0    0  501    0  0.00000000000E+00  0.00000000000E+00 -0.14326661304E+04  0.14326661304E+04  0.25500000920E-02 0.  1.
    10030    2    1    2    0    0  0.00000000000E+00  0.00000000000E+00  0.47095927535E+02  0.29124281883E+04  0.29120473770E+04 0.  0.
        2    1    3    3  502    0  0.82132262874E+03  0.66391309633E+03 -0.97890717124E+03  0.14400037187E+04  0.25500000920E-02 0.  1.
       -2    1    3    3    0  502 -0.82132262874E+03 -0.66391309633E+03  0.10260030988E+04  0.14724244696E+04  0.25500000920E-02 0. -1.
</event>
<event>
 5   0  0.4148677E-06  0.2896818E+04  0.7818609E-02  0.8273825E-01
       -2   -1    0    0    0  501  0.00000000000E+00  0.00000000000E+00  0.96807702905E+03  0.96807702906E+03  0.25500000920E-02 0.  1.
        2   -1    0    0  501    0  0.00000000000E+00  0.00000000000E+00 -0.21670672374E+04  0.21670672374E+04  0.25500000920E-02 0. -1.
    10030    2    1    2    0    0  0.00000000000E+00  0.00000000000E+00 -0.11989902084E+04  0.31351442665E+04  0.28968175731E+04 0.  0.
        5    1    3    3  502    0 -0.13426147983E+04 -0.53112454700E+03 -0.72364137163E+03  0.16150500629E+04  0.46999998093E+01 0.  1.
       -5    1    3    3    0  502  0.13426147983E+04  0.53112454700E+03 -0.47534883676E+03  0.15200942036E+04  0.46999998093E+01 0. -1.
</event>
<event>
 5   0  0.4115143E-06  0.2902803E+04  0.7818609E-02  0.8272044E-01
       -2   -1    0    0    0  501  0.00000000000E+00  0.00000000000E+00  0.17024271190E+04  0.17024271190E+04  0.25500000920E-02 0.  1.
        2   -1    0    0  501    0  0.00000000000E+00  0.00000000000E+00 -0.12373898609E+04  0.12373898609E+04  0.25500000920E-02 0. -1.
    10030    2    1    2    0    0  0.00000000000E+00  0.00000000000E+00  0.46503725813E+03  0.29398169799E+04  0.29028028220E+04 0.  0.
        1    1    3    3  502    0 -0.98781443425E+03  0.18817533055E+03  0.12924674888E+04  0.16375773329E+04  0.50400001928E-02 0.  1.
       -1    1    3    3    0  502  0.98781443425E+03 -0.18817533055E+03 -0.82743023066E+03  0.13022396470E+04  0.50400001928E-02 0. -1.
</event>
<event>
 5   0  0.4162450E-06  0.2844265E+04  0.7818609E-02  0.8289656E-01
        2   -1    0    0  501    0  0.00000000000E+00  0.00000000000E+00  0.20079409343E+04  0.20079409343E+04  0.25500000920E-02 0.  1.
       -2   -1    0    0    0  501  0.00000000000E+00  0.00000000000E+00 -0.10072313086E+04  0.10072313086E+04  0.25500000920E-02 0. -1.
    10030    2    1    2    0    0  0.00000000000E+00  0.00000000000E+00  0.10007096257E+04  0.30151722429E+04  0.28442650896E+04 0.  0.
        2    1    3    3  502    0 -0.24255639298E+03 -0.12129854657E+04  0.12441513709E+04  0.17544457750E+04  0.25500000920E-02 0.  1.
       -2    1    3    3    0  502  0.24255639298E+03  0.12129854657E+04 -0.24344174523E+03  0.12607264680E+04  0.25500000920E-02 0. -1.
</event>
<event>
 5   0  0.4115143E-06  0.2903670E+04  0.7818609E-02  0.8271786E-01
        2   -1    0    0  501    0  0.00000000000E+00  0.00000000000E+00  0.26873373415E+04  0.26873373415E+04  0.25500000920E-02 0. -1.
       -2   -1    0    0    0  501  0.00000000000E+00  0.00000000000E+00 -0.78435426180E+03  0.78435426180E+03  0.25500000920E-02 0.  1.
    10030    2    1    2    0    0  0.00000000000E+00  0.00000000000E+00  0.19029830797E+04  0.34716916033E+04  0.29036697448E+04 0.  0.
        1    1    3    3  502    0  0.12832117795E+04 -0.83971510884E+02  0.17572208925E+04  0.21775006202E+04  0.50400001928E-02 0. -1.
       -1    1    3    3    0  502 -0.12832117795E+04  0.83971510884E+02  0.14576218716E+03  0.12941909831E+04  0.50400001928E-02 0.  1.
</event>
<event>
 5   0  0.1580212E-06  0.2829505E+04  0.7818609E-02  0.8294166E-01
       -1   -1    0    0    0  501  0.00000000000E+00  0.00000000000E+00  0.21989360544E+04  0.21989360544E+04  0.50400001928E-02 0. -1.
        1   -1    0    0  501    0  0.00000000000E+00  0.00000000000E+00 -0.91022438615E+03  0.91022438616E+03  0.50400001928E-02 0.  1.
    10030    2    1    2    0    0  0.00000000000E+00  0.00000000000E+00  0.12887116683E+04  0.31091604406E+04  0.28295054129E+04 0.  0.
        4    1    3    3  502    0  0.13920173035E+03  0.52343642417E+03 -0.79178482965E+03  0.95931623631E+03  0.12699999809E+01 0.  1.
       -4    1    3    3    0  502 -0.13920173035E+03 -0.52343642417E+03  0.20804964979E+04  0.21498442043E+04  0.12699999809E+01 0. -1.
</event>
<event>
 5   0  0.1602873E-06  0.2601355E+04  0.7818609E-02  0.8367741E-01
        1   -1    0    0  501    0  0.00000000000E+00  0.00000000000E+00  0.25613344280E+04  0.25613344280E+04  0.50400001928E-02 0. -1.
       -1   -1    0    0    0  501  0.00000000000E+00  0.00000000000E+00 -0.66050023046E+03  0.66050023048E+03  0.50400001928E-02 0.  1.
    10030    2    1    2    0    0  0.00000000000E+00  0.00000000000E+00  0.19008341975E+04  0.32218346585E+04  0.26013550161E+04 0.  0.
        1    1    3    3  502    0  0.55338250413E+03 -0.10988837041E+04  0.42790713170E+03  0.13026442739E+04  0.50400001928E-02 0.  1.
       -1    1    3    3    0  502 -0.55338250413E+03  0.10988837041E+04  0.14729270658E+04  0.19191903846E+04  0.50400001928E-02 0. -1.
</event>
<event>
 5   0  0.1602873E-06  0.2888918E+04  0.7818609E-02  0.8276182E-01
        1   -1    0    0  501    0  0.00000000000E+00  0.00000000000E+00  0.13423577814E+04  0.13423577814E+04  0.50400001928E-02 0. -1.
       -1   -1    0    0    0  501  0.00000000000E+00  0.00000000000E+00 -0.15543266311E+04  0.15543266311E+04  0.50400001928E-02 0.  1.
    10030    2    1    2    0    0  0.00000000000E+00  0.00000000000E+00 -0.21196884968E+03  0.28966844126E+04  0.28889184469E+04 0.  0.
        1    1    3    3  502    0  0.47260687056E+03  0.25979970497E+03 -0.14495900835E+04  0.15466623908E+04  0.50400001928E-02 0.  1.
       -1    1    3    3    0  502 -0.47260687056E+03 -0.25979970497E+03  0.12376212338E+04  0.13500220218E+04  0.50400001928E-02 0. -1.
</event>
<event>
 5   0  0.4224163E-06  0.2870627E+04  0.7818609E-02  0.8281671E-01
       -2   -1    0    0    0  501  0.00000000000E+00  0.00000000000E+00  0.13410748345E+04  0.13410748345E+04  0.25500000920E-02 0. -1.
        2   -1    0    0  501    0  0.00000000000E+00  0.00000000000E+00 -0.15361740613E+04  0.15361740613E+04  0.25500000920E-02 0.  1.
    10030    2    1    2    0    0  0.00000000000E+00  0.00000000000E+00 -0.19509922680E+03  0.28772488957E+04  0.28706266737E+04 0.  0.
        4    1    3    3  502    0 -0.12116383642E+03  0.12565174761E+04  0.58711177723E+03  0.13921992296E+04  0.12699999809E+01 0. -1.
       -4    1    3    3    0  502  0.12116383642E+03 -0.12565174761E+04 -0.78221100403E+03  0.14850496661E+04  0.12699999809E+01 0.  1.
</event>
<event>
 5   0  0.1511126E-06  0.2881986E+04  0.7818609E-02  0.8278257E-01
       -1   -1    0    0    0  501  0.00000000000E+00  0.00000000000E+00  0.12253560750E+04  0.12253560750E+04  0.50400001928E-02 0. -1.
        1   -1    0    0  501    0  0.00000000000E+00  0.00000000000E+00 -0.16945772527E+04  0.16945772527E+04  0.50400001928E-02 0.  1.
    10030    2    1    2    0    0  0.00000000000E+00  0.00000000000E+00 -0.46922117771E+03  0.29199333277E+04  0.28819857953E+04 0.  0.
        5    1    3    3  502    0  0.99939315494E+02  0.12707066462E+04 -0.91558795323E+03  0.15693969025E+04  0.46999998093E+01 0.  1.
       -5    1    3    3    0  502 -0.99939315494E+02 -0.12707066462E+04  0.44636677552E+03  0.13505364252E+04  0.46999998093E+01 0. -1.
</event>
<event>
 5   0  0.1550278E-06  0.2901492E+04  0.7818609E-02  0.8272434E-01
        1   -1    0    0  501    0  0.00000000000E+00  0.00000000000E+00  0.19294075568E+04  0.19294075568E+04  0.50400001928E-02 0.  1.
       -1   -1    0    0    0  501  0.00000000000E+00  0.00000000000E+00 -0.10908339473E+04  0.10908339474E+04  0.50400001928E-02 0. -1.
    10030    2    1    2    0    0  0.00000000000E+00  0.00000000000E+00  0.83857360948E+03  0.30202415042E+04  0.29014915208E+04 0.  0.
        2    1    3    3  502    0 -0.10197558052E+04  0.77214677245E+03 -0.29323583923E+03  0.13122880011E+04  0.25500000920E-02 0. -1.
       -2    1    3    3    0  502  0.10197558052E+04 -0.77214677245E+03  0.11318094487E+04  0.17079535031E+04  0.25500000920E-02 0.  1.
</event>
<event>
 5   0  0.1580212E-06  0.2903579E+04  0.7818609E-02  0.8271813E-01
        1   -1    0    0  501    0  0.00000000000E+00  0.00000000000E+00  0.24213176895E+04  0.24213176895E+04  0.50400001928E-02 0. -1.
       -1   -1    0    0    0  501  0.00000000000E+00  0.00000000000E+00 -0.87047353085E+03  0.87047353087E+03  0.50400001928E-02 0.  1.
    10030    2    1    2    0    0  0.00000000000E+00  0.00000000000E+00  0.15508441587E+04  0.32917912204E+04  0.29035791421E+04 0.  0.
        4    1    3    3  502    0  0.45790471420E+03  0.55941533767E+03 -0.65190240008E+03  0.97344778978E+03  0.12699999809E+01 0.  1.
       -4    1    3    3    0  502 -0.45790471420E+03 -0.55941533767E+03  0.22027465588E+04  0.23183434306E+04  0.12699999809E+01 0. -1.
</event>
<event>
 5   0  0.1602873E-06  0.2924576E+04  0.7818609E-02  0.8265603E-01
       -1   -1    0    0    0  501  0.00000000000E+00  0.00000000000E+00  0.84538859558E+03  0.84538859559E+03  0.50400001928E-02 0.  1.
        1   -1    0    0  501    0  0.00000000000E+00  0.00000000000E+00 -0.25293534071E+04  0.25293534071E+04  0.50400001928E-02 0. -1.
    10030    2    1    2    0    0  0.00000000000E+00  0.00000000000E+00 -0.16839648115E+04  0.33747420027E+04  0.29245762254E+04 0.  0.
        1    1    3    3  502    0  0.76654488110E+03 -0.10618960314E+04 -0.91423259873E+02  0.13128489817E+04  0.50400001928E-02 0.  1.
       -1    1    3    3    0  502 -0.76654488110E+03  0.10618960314E+04 -0.15925415516E+04  0.20618930210E+04  0.50400001928E-02 0. -1.
</event>
<event>
 5   0  0.4187518E-06  0.2902249E+04  0.7818609E-02  0.8272208E-01
       -2   -1    0    0    0  501  0.00000000000E+00  0.00000000000E+00  0.14787274453E+04  0.14787274453E+04  0.25500000920E-02 0.  1.
        2   -1    0    0  501    0  0.00000000000E+00  0.00000000000E+00 -0.14240373008E+04  0.14240373008E+04  0.25500000920E-02 0. -1.
    10030    2    1    2    0    0  0.00000000000E+00  0.00000000000E+00  0.54690144542E+02  0.29027647461E+04  0.29022494998E+04 0.  0.
        3    1    3    3  502    0 -0.45652411876E+03 -0.60246970216E+03 -0.12115753739E+04  0.14280402340E+04  0.10100000352E+00 0. -1.
       -3    1    3    3    0  502  0.45652411876E+03  0.60246970216E+03  0.12662655185E+04  0.14747245121E+04  0.10100000352E+00 0.  1.
</event>
<event>
 5   0  0.1550278E-06  0.2903858E+04  0.7818609E-02  0.8271731E-01
        1   -1    0    0  501    0  0.00000000000E+00  0.00000000000E+00  0.20400554147E+04  0.20400554147E+04  0.50400001928E-02 0. -1.
       -1   -1    0    0    0  501  0.00000000000E+00  0.00000000000E+00 -0.10333530170E+04  0.10333530170E+04  0.50400001928E-02 0.  1.
    10030    2    1    2    0    0  0.00000000000E+00  0.00000000000E+00  0.10067023977E+04  0.30734084317E+04  0.29038577221E+04 0.  0.
        2    1    3    3  502    0  0.26243765073E+03  0.69935445239E+03  0.18210878323E+04  0.19683320512E+04  0.25500000920E-02 0. -1.
       -2    1    3    3    0  502 -0.26243765073E+03 -0.69935445239E+03 -0.81438543461E+03  0.11050763805E+04  0.25500000920E-02 0.  1.
</event>
<event>
 5   0  0.4187518E-06  0.2932532E+04  0.7818609E-02  0.8263264E-01
       -2   -1    0    0    0  501  0.00000000000E+00  0.00000000000E+00  0.10432483539E+04  0.10432483539E+04  0.25500000920E-02 0.  1.
        2   -1    0    0  501    0  0.00000000000E+00  0.00000000000E+00 -0.20608090169E+04  0.20608090169E+04  0.25500000920E-02 0. -1.
    10030    2    1    2    0    0  0.00000000000E+00  0.00000000000E+00 -0.10175606630E+04  0.31040573708E+04  0.29325317489E+04 0.  0.
        3    1    3    3  502    0  0.60409280463E+03 -0.87316471035E+03  0.56159963872E+03  0.12011406630E+04  0.10100000352E+00 0.  1.
       -3    1    3    3    0  502 -0.60409280463E+03  0.87316471035E+03 -0.15791603017E+04  0.19029167078E+04  0.10100000352E+00 0. -1.
</event>
<event>
 5   0  0.1360125E-06  0.2906076E+04  0.7818609E-02  0.8271072E-01
        3   -1    0    0  501    0  0.00000000000E+00  0.00000000000E+00  0.11330101057E+04  0.11330101102E+04  0.10100000352E+00 0. -1.
       -3   -1    0    0    0  501  0.00000000000E+00  0.00000000000E+00 -0.18634598397E+04  0.18634598425E+04  0.10100000352E+00 0.  1.
    10030    2    1    2    0    0  0.00000000000E+00  0.00000000000E+00 -0.73044973399E+03  0.29964699527E+04  0.29060755949E+04 0.  0.
        4    1    3    3  502    0  0.24251309059E+03 -0.74285063766E+03 -0.16283509812E+04  0.18061473361E+04  0.12699999809E+01 0.  1.
       -4    1    3    3    0  502 -0.24251309059E+03  0.74285063766E+03  0.89790124718E+03  0.11903226166E+04  0.12699999809E+01 0. -1.
</event>
<event>
 5   0  0.4187518E-06  0.2907720E+04  0.7818609E-02  0.8270584E-01
        2   -1    0    0  501    0  0.00000000000E+00  0.00000000000E+00  0.11373811512E+04  0.11373811512E+04  0.25500000920E-02 0. -1.
       -2   -1    0    0    0  501  0.00000000000E+00  0.00000000000E+00 -0.18583995679E+04  0.18583995679E+04  0.25500000920E-02 0.  1.
    10030    2    1    2    0    0  0.00000000000E+00  0.00000000000E+00 -0.72101841674E+03  0.29957807191E+04  0.29077198213E+04 0.  0.
        3    1    3    3  502    0  0.50929737090E+03  0.19620449970E+03 -0.17488461886E+04  0.18320324832E+04  0.10100000352E+00 0.  1.
       -3    1    3    3    0  502 -0.50929737090E+03 -0.19620449970E+03  0.10278277719E+04  0.11637482359E+04  0.10100000352E+00 0. -1.
</event>
<event>
 5   0  0.1543678E-06  0.2896993E+04  0.7818609E-02  0.8273773E-01
        1   -1    0    0  501    0  0.00000000000E+00  0.00000000000E+00  0.11442472985E+04  0.11442472985E+04  0.50400001928E-02 0. -1.
       -1   -1    0    0    0  501  0.00000000000E+00  0.00000000000E+00 -0.18336435489E+04  0.18336435489E+04  0.50400001928E-02 0.  1.
    10030    2    1    2    0    0  0.00000000000E+00  0.00000000000E+00 -0.68939625045E+03  0.29778908474E+04  0.28969927009E+04 0.  0.
        3    1    3    3  502    0 -0.13524092244E+04 -0.47718175569E+02 -0.87570259586E+03  0.16118755477E+04  0.10100000352E+00 0.  1.
       -3    1    3    3    0  502  0.13524092244E+04  0.47718175569E+02  0.18630634541E+03  0.13660152997E+04  0.10100000352E+00 0. -1.
</event>
<event>
 5   0  0.1511126E-06  0.2765498E+04  0.7818609E-02  0.8314061E-01
        1   -1    0    0  501    0  0.00000000000E+00  0.00000000000E+00  0.14950930975E+04  0.14950930975E+04  0.50400001928E-02 0.  1.
       -1   -1    0    0    0  501  0.00000000000E+00  0.00000000000E+00 -0.12788462339E+04  0.12788462339E+04  0.50400001928E-02 0. -1.
    10030    2    1    2    0    0  0.00000000000E+00  0.00000000000E+00  0.21624686357E+03  0.27739393314E+04  0.27654975517E+04 0.  0.
        5    1    3    3  502    0 -0.13256437599E+04  0.33437519336E+03  0.31571881357E+03  0.14031530947E+04  0.46999998093E+01 0.  1.
       -5    1    3    3    0  502  0.13256437599E+04 -0.33437519336E+03 -0.99471950005E+02  0.13707862367E+04  0.46999998093E+01 0. -1.
</event>
<event>
 5   0  0.4148677E-06  0.2895697E+04  0.7818609E-02  0.8274159E-01
        2   -1    0    0  501    0  0.00000000000E+00  0.00000000000E+00  0.23326232150E+04  0.23326232150E+04  0.25500000920E-02 0. -1.
       -2   -1    0    0    0  501  0.00000000000E+00  0.00000000000E+00 -0.89867269412E+03  0.89867269412E+03  0.25500000920E-02 0.  1.
    10030    2    1    2    0    0  0.00000000000E+00  0.00000000000E+00  0.14339505209E+04  0.32312959092E+04  0.28956966616E+04 0.  0.
        5    1    3    3  502    0  0.12831264459E+04 -0.18472965761E+02 -0.31164442684E+02  0.12836463839E+04  0.46999998093E+01 0.  1.
       -5    1    3    3    0  502 -0.12831264459E+04  0.18472965761E+02  0.14651149636E+04  0.19476495252E+04  0.46999998093E+01 0. -1.
</event>
<event>
 5   0  0.1543678E-06  0.2763740E+04  0.7818609E-02  0.8314615E-01
        1   -1    0    0  501    0  0.00000000000E+00  0.00000000000E+00  0.21271502474E+04  0.21271502474E+04  0.50400001928E-02 0. -1.
       -1   -1    0    0    0  501  0.00000000000E+00  0.00000000000E+00 -0.89771061211E+03  0.89771061213E+03  0.50400001928E-02 0.  1.
    10030    2    1    2    0    0  0.00000000000E+00  0.00000000000E+00  0.12294396353E+04  0.30248608596E+04  0.27637404731E+04 0.  0.
        3    1    3    3  502    0 -0.11366090619E+04 -0.77824564137E+03  0.49473106142E+03  0.14636615972E+04  0.10100000352E+00 0.  1.
       -3    1    3    3    0  502  0.11366090619E+04  0.77824564137E+03  0.73470857389E+03  0.15611992623E+04  0.10100000352E+00 0. -1.
</event>
<event>
 5   0  0.1550278E-06  0.2881501E+04  0.7818609E-02  0.8278403E-01
        1   -1    0    0  501    0  0.00000000000E+00  0.00000000000E+00  0.22673932521E+04  0.22673932521E+04  0.50400001928E-02 0. -1.
       -1   -1    0    0    0  501  0.00000000000E+00  0.00000000000E+00 -0.91548402147E+03  0.91548402149E+03  0.50400001928E-02 0.  1.
    10030    2    1    2    0    0  0.00000000000E+00  0.00000000000E+00  0.13519092306E+04  0.31828772736E+04  0.28815012009E+04 0.  0.
        2    1    3    3  502    0  0.43961271178E+03 -0.94010032318E+03  0.17798342748E+04  0.20603053171E+04  0.25500000920E-02 0. -1.
       -2    1    3    3    0  502 -0.43961271178E+03  0.94010032318E+03 -0.42792504417E+03  0.11225719565E+04  0.25500000920E-02 0.  1.
</event>
<event>
 5   0  0.4162450E-06  0.2908442E+04  0.7818609E-02  0.8270370E-01
       -2   -1    0    0    0  501  0.00000000000E+00  0.00000000000E+00  0.16405511244E+04  0.16405511244E+04  0.25500000920E-02 0.  1.
        2   -1    0    0  501    0  0.00000000000E+00  0.00000000000E+00 -0.12890539472E+04  0.12890539472E+04  0.25500000920E-02 0. -1.
    10030    2    1    2    0    0  0.00000000000E+00  0.00000000000E+00  0.35149717723E+03  0.29296050716E+04  0.29084421277E+04 0.  0.
        2    1    3    3  502    0  0.69166442262E+03 -0.12786906313E+04  0.13929828673E+03  0.14604291893E+04  0.25500000920E-02 0. -1.
       -2    1    3    3    0  502 -0.69166442262E+03  0.12786906313E+04  0.21219889050E+03  0.14691758824E+04  0.25500000920E-02 0.  1.
</event>
<event>
 5   0  0.4162450E-06  0.2907407E+04  0.7818609E-02  0.8270677E-01
        2   -1    0    0  501    0  0.00000000000E+00  0.00000000000E+00  0.15478229013E+04  0.15478229013E+04  0.25500000920E-02 0. -1.
       -2   -1    0    0    0  501  0.00000000000E+00  0.00000000000E+00 -0.13653068154E+04  0.13653068154E+04  0.25500000920E-02 0.  1.
    10030    2    1    2    0    0  0.00000000000E+00  0.00000000000E+00  0.18251608591E+03  0.29131297167E+04  0.29074065117E+04 0.  0.
        2    1    3    3  502    0  0.10226454780E+03  0.59800079343E+03  0.14149149909E+04  0.15394958325E+04  0.25500000920E-02 0. -1.
       -2    1    3    3    0  502 -0.10226454780E+03 -0.59800079343E+03 -0.12323989050E+04  0.13736338842E+04  0.25500000920E-02 0.  1.
</event>
<event>
 5   0  0.4224163E-06  0.2859087E+04  0.7818609E-02  0.8285155E-01
        2   -1    0    0  501    0  0.00000000000E+00  0.00000000000E+00  0.13539591645E+04  0.13539591645E+04  0.25500000920E-02 0.  1.
       -2   -1    0    0    0  501  0.00000000000E+00  0.00000000000E+00 -0.15093475256E+04  0.15093475256E+04  0.25500000920E-02 0. -1.
    10030    2    1    2    0    0  0.00000000000E+00  0.00000000000E+00 -0.15538836111E+03  0.28633066901E+04  0.28590872072E+04 0.  0.
        4    1    3    3  502    0  0.97937639597E+02  0.27069549904E+03  0.13246314138E+04  0.13555507478E+04  0.12699999809E+01 0.  1.
       -4    1    3    3    0  502 -0.97937639597E+02 -0.27069549904E+03 -0.14800197749E+04  0.15077559423E+04  0.12699999809E+01 0. -1.
</event>
<event>
 5   0  0.4115143E-06  0.2856743E+04  0.7818609E-02  0.8285865E-01
        2   -1    0    0  501    0  0.00000000000E+00  0.00000000000E+00  0.20481450063E+04  0.20481450063E+04  0.25500000920E-02 0.  1.
       -2   -1    0    0    0  501  0.00000000000E+00  0.00000000000E+00 -0.99614295717E+03  0.99614295717E+03  0.25500000920E-02 0. -1.
    10030    2    1    2    0    0  0.00000000000E+00  0.00000000000E+00  0.10520020491E+04  0.30442879635E+04  0.28567430569E+04 0.  0.
        1    1    3    3  502    0  0.10949157308E+04 -0.88683466565E+03  0.27624523738E+03  0.14358369033E+04  0.50400001928E-02 0. -1.
       -1    1    3    3    0  502 -0.10949157308E+04  0.88683466565E+03  0.77575681176E+03  0.16084510601E+04  0.50400001928E-02 0.  1.
</event>
<event>
 5   0  0.1550278E-06  0.2889582E+04  0.7818609E-02  0.8275984E-01
       -1   -1    0    0    0  501  0.00000000000E+00  0.00000000000E+00  0.14802680231E+04  0.14802680231E+04  0.50400001928E-02 0. -1.
        1   -1    0    0  501    0  0.00000000000E+00  0.00000000000E+00 -0.14101640695E+04  0.14101640695E+04  0.50400001928E-02 0.  1.
    10030    2    1    2    0    0  0.00000000000E+00  0.00000000000E+00  0.70103953647E+02  0.28904320926E+04  0.28895818240E+04 0.  0.
        2    1    3    3  502    0 -0.97554963103E+03  0.61284337622E+03 -0.83706849078E+03  0.14240638134E+04  0.25500000920E-02 0.  1.
       -2    1    3    3    0  502  0.97554963103E+03 -0.61284337622E+03  0.90717244442E+03  0.14663682792E+04  0.25500000920E-02 0. -1.
</event>
<event>
 5   0  0.4224163E-06  0.2901332E+04  0.7818609E-02  0.8272481E-01
       -2   -1    0    0    0  501  0.00000000000E+00  0.00000000000E+00  0.86382310314E+03  0.86382310315E+03  0.25500000920E-02 0.  1.
        2   -1    0    0  501    0  0.00000000000E+00  0.00000000000E+00 -0.24361840153E+04  0.24361840153E+04  0.25500000920E-02 0. -1.
    10030    2    1    2    0    0  0.00000000000E+00  0.00000000000E+00 -0.15723609122E+04  0.33000071185E+04  0.29013321326E+04 0.  0.
        4    1    3    3  502    0 -0.14053241891E+04  0.35337610269E+03 -0.70887267272E+03  0.16131685669E+04  0.12699999809E+01 0. -1.
       -4    1    3    3    0  502  0.14053241891E+04 -0.35337610269E+03 -0.86348823947E+03  0.16868385515E+04  0.12699999809E+01 0.  1.
</event>
<event>
 5   0  0.4187518E-06  0.2873866E+04  0.7818609E-02  0.8280696E-01
        2   -1    0    0  501    0  0.00000000000E+00  0.00000000000E+00  0.12447596206E+04  0.12447596206E+04  0.25500000920E-02 0.  1.
       -2   -1    0    0    0  501  0.00000000000E+00  0.00000000000E+00 -0.16587755422E+04  0.16587755422E+04  0.25500000920E-02 0. -1.
    10030    2    1    2    0    0  0.00000000000E+00  0.00000000000E+00 -0.41401592161E+03  0.29035351628E+04  0.28738662562E+04 0.  0.
        3    1    3    3  502    0 -0.66947359169E+03 -0.95930809218E+03  0.63605851734E+03  0.13315544876E+04  0.10100000352E+00 0.  1.
       -3    1    3    3    0  502  0.66947359169E+03  0.95930809218E+03 -0.10500744390E+04  0.15719806752E+04  0.10100000352E+00 0. -1.
</event>
<event>
 5   0  0.1543678E-06  0.2936835E+04  0.7818609E-02  0.8262001E-01
       -1   -1    0    0    0  501  0.00000000000E+00  0.00000000000E+00  0.30656303816E+04  0.30656303816E+04  0.50400001928E-02 0.  1.
        1   -1    0    0  501    0  0.00000000000E+00  0.00000000000E+00 -0.70336287023E+03  0.70336287025E+03  0.50400001928E-02 0. -1.
    10030    2    1    2    0    0  0.00000000000E+00  0.00000000000E+00  0.23622675114E+04  0.37689932519E+04  0.29368354291E+04 0.  0.
        3    1    3    3  502    0 -0.14151862026E+04 -0.21358417124E+03  0.16026526039E+04  0.21486892668E+04  0.10100000352E+00 0.  1.
       -3    1    3    3    0  502  0.14151862026E+04  0.21358417124E+03  0.75961490752E+03  0.16203039851E+04  0.10100000352E+00 0. -1.
</event>
<event>
 5   0  0.4148677E-06  0.2910823E+04  0.7818609E-02  0.8269665E-01
        2   -1    0    0  501    0  0.00000000000E+00  0.00000000000E+00  0.17873493295E+04  0.17873493295E+04  0.25500000920E-02 0. -1.
       -2   -1    0    0    0  501  0.00000000000E+00  0.00000000000E+00 -0.11851195816E+04  0.11851195816E+04  0.25500000920E-02 0.  1.
    10030    2    1    2    0    0  0.00000000000E+00  0.00000000000E+00  0.60222974783E+03  0.29724689111E+04  0.29108230380E+04 0.  0.
        5    1    3    3  502    0 -0.68409754396E+03  0.24763253203E+03  0.15883217020E+04  0.17470258269E+04  0.46999998093E+01 0. -1.
       -5    1    3    3    0  502  0.68409754396E+03 -0.24763253203E+03 -0.98609195421E+03  0.12254430843E+04  0.46999998093E+01 0.  1.
</event>
<event>
 5   0  0.1580212E-06  0.2851857E+04  0.7818609E-02  0.8287347E-01
       -1   -1    0    0    0  501  0.00000000000E+00  0.00000000000E+00  0.11420311357E+04  0.11420311357E+04  0.50400001928E-02 0. -1.
        1   -1    0    0  501    0  0.00000000000E+00  0.00000000000E+00 -0.17804003838E+04  0.17804003838E+04  0.50400001928E-02 0.  1.
    10030    2    1    2    0    0  0.00000000000E+00  0.00000000000E+00 -0.63836924811E+03  0.29224315195E+04  0.28518574104E+04 0.  0.
        4    1    3    3  502    0 -0.13016896916E+02 -0.12348264962E+04 -0.10497831441E+04  0.16208060272E+04  0.12699999809E+01 0.  1.
       -4    1    3    3    0  502  0.13016896916E+02  0.12348264962E+04  0.41141389599E+03  0.13016254923E+04  0.12699999809E+01 0. -1.
</event>
<event>
 5   0  0.4115143E-06  0.2944895E+04  0.7818609E-02  0.8259644E-01
        2   -1    0    0  501    0  0.00000000000E+00  0.00000000000E+00  0.24170581754E+04  0.24170581754E+04  0.25500000920E-02 0.  1.
       -2   -1    0    0    0  501  0.00000000000E+00  0.00000000000E+00 -0.89700024546E+03  0.89700024546E+03  0.25500000920E-02 0. -1.
    10030    2    1    2    0    0  0.00000000000E+00  0.00000000000E+00  0.15200579299E+04  0.33140584208E+04  0.29448950926E+04 0.  0.
        1    1    3    3  502    0  0.83602897233E+03 -0.11894764285E+04  0.49778658176E+03  0.15367465951E+04  0.50400001928E-02 0. -1.
       -1    1    3    3    0  502 -0.83602897233E+03  0.11894764285E+04  0.10222713481E+04  0.17773118257E+04  0.50400001928E-02 0.  1.
</event>
<event>
 5   0  0.4162450E-06  0.2886514E+04  0.7818609E-02  0.8276901E-01
        2   -1    0    0  501    0  0.00000000000E+00  0.00000000000E+00  0.21681255456E+04  0.21681255456E+04  0.25500000920E-02 0. -1.
       -2   -1    0    0    0  501  0.00000000000E+00  0.00000000000E+00 -0.96073342384E+03  0.96073342384E+03  0.25500000920E-02 0.  1.
    10030    2    1    2    0    0  0.00000000000E+00  0.00000000000E+00  0.12073921218E+04  0.31288589694E+04  0.28865139381E+04 0.  0.
        2    1    3    3  502    0  0.11601496490E+04  0.33038410232E+03 -0.25522657585E+03  0.12329807250E+04  0.25500000920E-02 0.  1.
       -2    1    3    3    0  502 -0.11601496490E+04 -0.33038410232E+03  0.14626186976E+04  0.18958782444E+04  0.25500000920E-02 0. -1.
</event>
<event>
 5   0  0.1511126E-06  0.2717271E+04  0.7818609E-02  0.8329423E-01
       -1   -1    0    0    0  501  0.00000000000E+00  0.00000000000E+00  0.14470818634E+04  0.14470818634E+04  0.50400001928E-02 0. -1.
        1   -1    0    0  501    0  0.00000000000E+00  0.00000000000E+00 -0.12755945854E+04  0.12755945854E+04  0.50400001928E-02 0.  1.
    10030    2    1    2    0    0  0.00000000000E+00  0.00000000000E+00  0.17148727796E+03  0.27226764488E+04  0.27172705346E+04 0.  0.
        5    1    3    3  502    0 -0.30221673091E+03  0.11635440017E+04  0.72001017514E+03  0.14012873861E+04  0.46999998093E+01 0. -1.
       -5    1    3    3    0  502  0.30221673091E+03 -0.11635440017E+04 -0.54852289717E+03  0.13213890627E+04  0.46999998093E+01 0.  1.
</event>
<event>
 5   0  0.4224163E-06  0.2926916E+04  0.7818609E-02  0.8264914E-01
        2   -1    0    0  501    0  0.00000000000E+00  0.00000000000E+00  0.15894038021E+04  0.15894038021E+04  0.25500000920E-02 0. -1.
       -2   -1    0    0    0  501  0.00000000000E+00  0.00000000000E+00 -0.13474919670E+04  0.13474919670E+04  0.25500000920E-02 0.  1.
    10030    2    1    2    0    0  0.00000000000E+00  0.00000000000E+00  0.24191183509E+03  0.29368957691E+04  0.29269156843E+04 0.  0.
        4    1    3    3  502    0  0.74116776751E+03 -0.12608478206E+04  0.17251552545E+03  0.14726948447E+04  0.12699999809E+01 0. -1.
       -4    1    3    3    0  502 -0.74116776751E+03  0.12608478206E+04  0.69396309631E+02  0.14642009244E+04  0.12699999809E+01 0.  1.
</event>
<event>
 5   0  0.4148677E-06  0.2898896E+04  0.7818609E-02  0.8273206E-01
        2   -1    0    0  501    0  0.00000000000E+00  0.00000000000E+00  0.12356470262E+04  0.12356470263E+04  0.25500000920E-02 0. -1.
       -2   -1    0    0    0  501  0.00000000000E+00  0.00000000000E+00 -0.17002418808E+04  0.17002418808E+04  0.25500000920E-02 0.  1.
    10030    2    1    2    0    0  0.00000000000E+00  0.00000000000E+00 -0.46459485453E+03  0.29358889070E+04  0.28988955303E+04 0.  0.
        5    1    3    3  502    0  0.66846741291E+02 -0.23706961453E+03 -0.16788828676E+04  0.16968618865E+04  0.46999998093E+01 0.  1.
       -5    1    3    3    0  502 -0.66846741291E+02  0.23706961453E+03  0.12142880130E+04  0.12390270205E+04  0.46999998093E+01 0. -1.
</event>
<event>
 5   0  0.1580212E-06  0.2597133E+04  0.7818609E-02  0.8369176E-01
        1   -1    0    0  501    0  0.00000000000E+00  0.00000000000E+00  0.23747342788E+04  0.23747342788E+04  0.50400001928E-02 0.  1.
       -1   -1    0    0    0  501  0.00000000000E+00  0.00000000000E+00 -0.71009012445E+03  0.71009012447E+03  0.50400001928E-02 0. -1.
    10030    2    1    2    0    0  0.00000000000E+00  0.00000000000E+00  0.16646441543E+04  0.30848244033E+04  0.25971333116E+04 0.  0.
        4    1    3    3  502    0  0.23288536129E+03  0.12742924204E+04  0.93999149992E+03  0.16005131668E+04  0.12699999809E+01 0.  1.
       -4    1    3    3    0  502 -0.23288536129E+03 -0.12742924204E+04  0.72465265441E+03  0.14843112365E+04  0.12699999809E+01 0. -1.
</event>
<event>
 5   0  0.4187518E-06  0.2896501E+04  0.7818609E-02  0.8273919E-01
       -2   -1    0    0    0  501  0.00000000000E+00  0.00000000000E+00  0.10212040048E+04  0.10212040048E+04  0.25500000920E-02 0.  1.
        2   -1    0    0  501    0  0.00000000000E+00  0.00000000000E+00 -0.20538794959E+04  0.20538794959E+04  0.25500000920E-02 0. -1.
    10030    2    1    2    0    0  0.00000000000E+00  0.00000000000E+00 -0.10326754911E+04  0.30750835008E+04  0.28965013148E+04 0.  0.
        3    1    3    3  502    0 -0.69931556989E+03  0.12497054304E+04 -0.28709897219E+03  0.14605587147E+04  0.10100000352E+00 0.  1.
       -3    1    3    3    0  502  0.69931556989E+03 -0.12497054304E+04 -0.74557651891E+03  0.16145247861E+04  0.10100000352E+00 0. -1.
</event>
<event>
 5   0  0.1360125E-06  0.2899379E+04  0.7818609E-02  0.8273062E-01
        3   -1    0    0  501    0  0.00000000000E+00  0.00000000000E+00  0.88232892563E+03  0.88232893141E+03  0.10100000352E+00 0. -1.
       -3   -1    0    0    0  501  0.00000000000E+00  0.00000000000E+00 -0.23818780756E+04  0.23818780777E+04  0.10100000352E+00 0.  1.
    10030    2    1    2    0    0  0.00000000000E+00  0.00000000000E+00 -0.14995491499E+04  0.32642070091E+04  0.28993792000E+04 0.  0.
        3    1    3    3  502    0  0.57059036836E+03 -0.29108618178E+03  0.71436475500E+03  0.95949025377E+03  0.10100000352E+00 0. -1.
       -3    1    3    3    0  502 -0.57059036836E+03  0.29108618178E+03 -0.22139139049E+04  0.23047167553E+04  0.10100000352E+00 0.  1.
</event>
<event>
 5   0  0.1543678E-06  0.2807326E+04  0.7818609E-02  0.8300997E-01
       -1   -1    0    0    0  501  0.00000000000E+00  0.00000000000E+00  0.11053774165E+04  0.11053774165E+04  0.50400001928E-02 0. -1.
        1   -1    0    0  501    0  0.00000000000E+00  0.00000000000E+00 -0.17824410466E+04  0.17824410466E+04  0.50400001928E-02 0.  1.
    10030    2    1    2    0    0  0.00000000000E+00  0.00000000000E+00 -0.67706363002E+03  0.28878184631E+04  0.28073261864E+04 0.  0.
        3    1    3    3  502    0 -0.93419726608E+03 -0.88329138781E+03  0.24095117762E+03  0.13080465160E+04  0.10100000352E+00 0. -1.
       -3    1    3    3    0  502  0.93419726608E+03  0.88329138781E+03 -0.91801480763E+03  0.15797719471E+04  0.10100000352E+00 0.  1.
</event>
<event>
 5   0  0.1543678E-06  0.2882757E+04  0.7818609E-02  0.8278026E-01
        1   -1    0    0  501    0  0.00000000000E+00  0.00000000000E+00  0.15767959009E+04  0.15767959009E+04  0.50400001928E-02 0.  1.
       -1   -1    0    0    0  501  0.00000000000E+00  0.00000000000E+00 -0.13175905908E+04  0.13175905908E+04  0.50400001928E-02 0. -1.
    10030    2    1    2    0    0  0.00000000000E+00  0.00000000000E+00  0.25920531005E+03  0.28943864917E+04  0.28827566270E+04 0.  0.
        3    1    3    3  502    0  0.64245149150E+03 -0.11709805874E+04  0.67366694085E+03  0.14959166462E+04  0.10100000352E+00 0.  1.
       -3    1    3    3    0  502 -0.64245149150E+03  0.11709805874E+04 -0.41446163080E+03  0.13984698455E+04  0.10100000352E+00 0. -1.
</event>
<event>
 5   0  0.1602873E-06  0.3144089E+04  0.7818609E-02  0.8203741E-01
        1   -1    0    0  501    0  0.00000000000E+00  0.00000000000E+00  0.14103000679E+04  0.14103000680E+04  0.50400001928E-02 0.  1.
       -1   -1    0    0    0  501  0.00000000000E+00  0.00000000000E+00 -0.17523393626E+04  0.17523393626E+04  0.50400001928E-02 0. -1.
    10030    2    1    2    0    0  0.00000000000E+00  0.00000000000E+00 -0.34203929462E+03  0.31626394305E+04  0.31440892622E+04 0.  0.
        1    1    3    3  502    0  0.24037393115E+03 -0.17747235407E+03 -0.17235142241E+04  0.17492219253E+04  0.50400001928E-02 0. -1.
       -1    1    3    3    0  502 -0.24037393115E+03  0.17747235407E+03  0.13814749295E+04  0.14134175052E+04  0.50400001928E-02 0.  1.
</event>
<event>
 5   0  0.4187518E-06  0.2673551E+04  0.7818609E-02  0.8343638E-01
        2   -1    0    0  501    0  0.00000000000E+00  0.00000000000E+00  0.89412132455E+03  0.89412132456E+03  0.25500000920E-02 0.  1.
       -2   -1    0    0    0  501  0.00000000000E+00  0.00000000000E+00 -0.19985755236E+04  0.19985755236E+04  0.25500000920E-02 0. -1.
    10030    2    1    2    0    0  0.00000000000E+00  0.00000000000E+00 -0.11044541990E+04  0.28926968482E+04  0.26735511922E+04 0.  0.
        3    1    3    3  502    0  0.75424388109E+03  0.17623423910E+03 -0.17310393811E+04  0.18964281395E+04  0.10100000352E+00 0. -1.
       -3    1    3    3    0  502 -0.75424388109E+03 -0.17623423910E+03  0.62658518207E+03  0.99626870863E+03  0.10100000352E+00 0.  1.
</event>
<event>
 5   0  0.4187518E-06  0.2888544E+04  0.7818609E-02  0.8276294E-01
       -2   -1    0    0    0  501  0.00000000000E+00  0.00000000000E+00  0.12785714543E+04  0.12785714543E+04  0.25500000920E-02 0. -1.
        2   -1    0    0  501    0  0.00000000000E+00  0.00000000000E+00 -0.16314473897E+04  0.16314473897E+04  0.25500000920E-02 0.  1.
    10030    2    1    2    0    0  0.00000000000E+00  0.00000000000E+00 -0.35287593544E+03  0.29100188440E+04  0.28885443127E+04 0.  0.
        3    1    3    3  502    0  0.67499748114E+03 -0.12000516567E+04 -0.61577231862E+03  0.15082841698E+04  0.10100000352E+00 0. -1.
       -3    1    3    3    0  502 -0.67499748114E+03  0.12000516567E+04  0.26289638317E+03  0.14017346742E+04  0.10100000352E+00 0.  1.
</event>
<event>
 5   0  0.4148677E-06  0.2892470E+04  0.7818609E-02  0.8275121E-01
       -2   -1    0    0    0  501  0.00000000000E+00  0.00000000000E+00  0.11867717045E+04  0.11867717045E+04  0.25500000920E-02 0. -1.
        2   -1    0    0  501    0  0.00000000000E+00  0.00000000000E+00 -0.17624246001E+04  0.17624246001E+04  0.25500000920E-02 0.  1.
    10030    2    1    2    0    0  0.00000000000E+00  0.00000000000E+00 -0.57565289557E+03  0.29491963045E+04  0.28924699802E+04 0.  0.
        5    1    3    3  502    0  0.43831841873E+03 -0.70698220914E+03 -0.14940864471E+04  0.17100477425E+04  0.46999998093E+01 0.  1.
       -5    1    3    3    0  502 -0.43831841873E+03  0.70698220914E+03  0.91843355153E+03  0.12391485620E+04  0.46999998093E+01 0. -1.
</event>
<event>
 5   0  0.1580212E-06  0.2908458E+04  0.7818609E-02  0.8270365E-01
       -1   -1    0    0    0  501  0.00000000000E+00  0.00000000000E+00  0.15489474004E+04  0.15489474004E+04  0.50400001928E-02 0. -1.
        1   -1    0    0  501    0  0.00000000000E+00  0.00000000000E+00 -0.13653027431E+04  0.13653027431E+04  0.50400001928E-02 0.  1.
    10030    2    1    2    0    0  0.00000000000E+00  0.00000000000E+00  0.18364465722E+03  0.29142501435E+04  0.29084581033E+04 0.  0.
        4    1    3    3  502    0 -0.47855006426E+03 -0.13387736061E+04  0.39813619323E+03  0.14764277746E+04  0.12699999809E+01 0. -1.
       -4    1    3    3    0  502  0.47855006426E+03  0.13387736061E+04 -0.21449153601E+03  0.14378223689E+04  0.12699999809E+01 0.  1.
</event>
<event>
 5   0  0.1602873E-06  0.2880396E+04  0.7818609E-02  0.8278734E-01
        1   -1    0    0  501    0  0.00000000000E+00  0.00000000000E+00  0.22707882156E+04  0.22707882156E+04  0.50400001928E-02 0.  1.
       -1   -1    0    0    0  501  0.00000000000E+00  0.00000000000E+00 -0.91341412273E+03  0.91341412274E+03  0.50400001928E-02 0. -1.
    10030    2    1    2    0    0  0.00000000000E+00  0.00000000000E+00  0.13573740929E+04  0.31842023384E+04  0.28803958241E+04 0.  0.
        1    1    3    3  502    0 -0.35754268303E+03  0.11792406280E+04  0.15027841206E+04  0.19434004585E+04  0.50400001928E-02 0.  1.
       -1    1    3    3    0  502  0.35754268303E+03 -0.11792406280E+04 -0.14541002769E+03  0.12408018799E+04  0.50400001928E-02 0. -1.
</event>
<event>
 5   0  0.4162450E-06  0.2897778E+04  0.7818609E-02  0.8273539E-01
        2   -1    0    0  501    0  0.00000000000E+00  0.00000000000E+00  0.22208684801E+04  0.22208684801E+04  0.25500000920E-02 0. -1.
       -2   -1    0    0    0  501  0.00000000000E+00  0.00000000000E+00 -0.94525151378E+03  0.94525151378E+03  0.25500000920E-02 0.  1.
    10030    2    1    2    0    0  0.00000000000E+00  0.00000000000E+00  0.12756169664E+04  0.31661199939E+04  0.28977779713E+04 0.  0.
        2    1    3    3  502    0 -0.55067897497E+03  0.13283941239E+03  0.20948611038E+04  0.21701006168E+04  0.25500000920E-02 0. -1.
       -2    1    3    3    0  502  0.55067897497E+03 -0.13283941239E+03 -0.81924413739E+03  0.99601937713E+03  0.25500000920E-02 0.  1.
</event>
<event>
 5   0  0.4187518E-06  0.2874884E+04  0.7818609E-02  0.8280390E-01
       -2   -1    0    0    0  501  0.00000000000E+00  0.00000000000E+00  0.88862515273E+03  0.88862515274E+03  0.25500000920E-02 0.  1.
        2   -1    0    0  501    0  0.00000000000E+00  0.00000000000E+00 -0.23252098073E+04  0.23252098073E+04  0.25500000920E-02 0. -1.
    10030    2    1    2    0    0  0.00000000000E+00  0.00000000000E+00 -0.14365846546E+04  0.32138349600E+04  0.28748842900E+04 0.  0.
        3    1    3    3  502    0 -0.13815207574E+04  0.32257777011E+03 -0.97706613496E+03  0.17225894065E+04  0.10100000352E+00 0.  1.
       -3    1    3    3    0  502  0.13815207574E+04 -0.32257777011E+03 -0.45951851962E+03  0.14912455536E+04  0.10100000352E+00 0. -1.
</event>
<event>
 5   0  0.1602873E-06  0.2889970E+04  0.7818609E-02  0.8275868E-01
        1   -1    0    0  501    0  0.00000000000E+00  0.00000000000E+00  0.11717623769E+04  0.11717623769E+04  0.50400001928E-02 0. -1.
       -1   -1    0    0    0  501  0.00000000000E+00  0.00000000000E+00 -0.17819159428E+04  0.17819159428E+04  0.50400001928E-02 0.  1.
    10030    2    1    2    0    0  0.00000000000E+00  0.00000000000E+00 -0.61015356587E+03  0.29536783198E+04  0.28899702840E+04 0.  0.
        1    1    3    3  502    0  0.12507689102E+04  0.63032163754E+03 -0.66823183821E+03  0.15518576040E+04  0.50400001928E-02 0.  1.
       -1    1    3    3    0  502 -0.12507689102E+04 -0.63032163754E+03  0.58078272333E+02  0.14018207158E+04  0.50400001928E-02 0. -1.
</event>
<event>
 5   0  0.4148677E-06  0.2902970E+04  0.7818609E-02  0.8271994E-01
        2   -1    0    0  501    0  0.00000000000E+00  0.00000000000E+00  0.17389997937E+04  0.17389997937E+04  0.25500000920E-02 0.  1.
       -2   -1    0    0    0  501  0.00000000000E+00  0.00000000000E+00 -0.12115064275E+04  0.12115064275E+04  0.25500000920E-02 0. -1.
    10030    2    1    2    0    0  0.00000000000E+00  0.00000000000E+00  0.52749336621E+03  0.29505062212E+04  0.29029704976E+04 0.  0.
        5    1    3    3  502    0  0.51536112773E+03  0.12524036695E+04  0.79448055767E+03  0.15701380480E+04  0.46999998093E+01 0. -1.
       -5    1    3    3    0  502 -0.51536112773E+03 -0.12524036695E+04 -0.26698719146E+03  0.13803681732E+04  0.46999998093E+01 0.  1.
</event>
<event>
 5   0  0.1602873E-06  0.2904056E+04  0.7818609E-02  0.8271672E-01
        1   -1    0    0  501    0  0.00000000000E+00  0.00000000000E+00  0.22014584396E+04  0.22014584396E+04  0.50400001928E-02 0.  1.
       -1   -1    0    0    0  501  0.00000000000E+00  0.00000000000E+00 -0.95772210064E+03  0.95772210065E+03  0.50400001928E-02 0. -1.
    10030    2    1    2    0    0  0.00000000000E+00  0.00000000000E+00  0.12437363390E+04  0.31591805403E+04  0.29040560609E+04 0.  0.
        1    1    3    3  502    0 -0.67395873419E+03 -0.12517019596E+04  0.94348822956E+03  0.17062087242E+04  0.50400001928E-02 0. -1.
       -1    1    3    3    0  502  0.67395873419E+03  0.12517019596E+04  0.30024810942E+03  0.14529718161E+04  0.50400001928E-02 0.  1.
</event>
<event>
 5   0  0.1511126E-06  0.2913487E+04  0.7818609E-02  0.8268876E-01
        1   -1    0    0  501    0  0.00000000000E+00  0.00000000000E+00  0.24879623912E+04  0.24879623912E+04  0.50400001928E-02 0.  1.
       -1   -1    0    0    0  501  0.00000000000E+00  0.00000000000E+00 -0.85294748465E+03  0.85294748467E+03  0.50400001928E-02 0. -1.
    10030    2    1    2    0    0  0.00000000000E+00  0.00000000000E+00  0.16350149065E+04  0.33409098758E+04  0.29134867520E+04 0.  0.
        5    1    3    3  502    0  0.12205058612E+04  0.70959490178E+03  0.40577856290E+03  0.14689580708E+04  0.46999998093E+01 0. -1.
       -5    1    3    3    0  502 -0.12205058612E+04 -0.70959490178E+03  0.12292363436E+04  0.18719518050E+04  0.46999998093E+01 0.  1.
</event>
<event>
 5   0  0.4162450E-06  0.2902520E+04  0.7818609E-02  0.8272128E-01
        2   -1    0    0  501    0  0.00000000000E+00  0.00000000000E+00  0.27172406891E+04  0.27172406891E+04  0.25500000920E-02 0. -1.
       -2   -1    0    0    0  501  0.00000000000E+00  0.00000000000E+00 -0.77510808165E+03  0.77510808166E+03  0.25500000920E-02 0.  1.
    10030    2    1    2    0    0  0.00000000000E+00  0.00000000000E+00  0.19421326074E+04  0.34923487707E+04  0.29025197453E+04 0.  0.
        2    1    3    3  502    0  0.93523776958E+03  0.89793057709E+03  0.18647728400E+03  0.13098560167E+04  0.25500000920E-02 0. -1.
       -2    1    3    3    0  502 -0.93523776958E+03 -0.89793057709E+03  0.17556553234E+04  0.21824927541E+04  0.25500000920E-02 0.  1.
</event>
<event>
 5   0  0.1602873E-06  0.2760359E+04  0.7818609E-02  0.8315682E-01
        1   -1    0    0  501    0  0.00000000000E+00  0.00000000000E+00  0.20332944574E+04  0.20332944574E+04  0.50400001928E-02 0. -1.
       -1   -1    0    0    0  501  0.00000000000E+00  0.00000000000E+00 -0.93685180429E+03  0.93685180431E+03  0.50400001928E-02 0.  1.
    10030    2    1    2    0    0  0.00000000000E+00  0.00000000000E+00  0.10964426531E+04  0.29701462617E+04  0.27603590934E+04 0.  0.
        1    1    3    3  502    0  0.27392877572E+03 -0.10445578568E+04 -0.37661142684E+03  0.11436670220E+04  0.50400001928E-02 0.  1.
       -1    1    3    3    0  502 -0.27392877572E+03  0.10445578568E+04  0.14730540800E+04  0.18264792397E+04  0.50400001928E-02 0. -1.
</event>
<event>
 5   0  0.1550278E-06  0.2919819E+04  0.7818609E-02  0.8267005E-01
        1   -1    0    0  501    0  0.00000000000E+00  0.00000000000E+00  0.17893187781E+04  0.17893187781E+04  0.50400001928E-02 0. -1.
       -1   -1    0    0    0  501  0.00000000000E+00  0.00000000000E+00 -0.11911434066E+04  0.11911434067E+04  0.50400001928E-02 0.  1.
    10030    2    1    2    0    0  0.00000000000E+00  0.00000000000E+00  0.59817537149E+03  0.29804621848E+04  0.29198186690E+04 0.  0.
        2    1    3    3  502    0 -0.85298389356E+03 -0.54510862125E+03 -0.77471650749E+03  0.12747198118E+04  0.25500000920E-02 0. -1.
       -2    1    3    3    0  502  0.85298389356E+03  0.54510862125E+03  0.13728918790E+04  0.17057423730E+04  0.25500000920E-02 0.  1.
</event>
<event>
 5   0  0.4148677E-06  0.2991738E+04  0.7818609E-02  0.8246094E-01
       -2   -1    0    0    0  501  0.00000000000E+00  0.00000000000E+00  0.97276891201E+03  0.97276891201E+03  0.25500000920E-02 0. -1.
        2   -1    0    0  501    0  0.00000000000E+00  0.00000000000E+00 -0.23002621338E+04  0.23002621338E+04  0.25500000920E-02 0.  1.
    10030    2    1    2    0    0  0.00000000000E+00  0.00000000000E+00 -0.13274932217E+04  0.32730310458E+04  0.29917376176E+04 0.  0.
        5    1    3    3  502    0  0.77230926532E+03 -0.52095654826E+03 -0.19441485938E+04  0.21558277230E+04  0.46999998093E+01 0.  1.
       -5    1    3    3    0  502 -0.77230926532E+03  0.52095654826E+03  0.61665537207E+03  0.11172033228E+04  0.46999998093E+01 0. -1.
</event>
<event>
 5   0  0.4224163E-06  0.2868041E+04  0.7818609E-02  0.8282450E-01
       -2   -1    0    0    0  501  0.00000000000E+00  0.00000000000E+00  0.16421299267E+04  0.16421299267E+04  0.25500000920E-02 0.  1.
        2   -1    0    0  501    0  0.00000000000E+00  0.00000000000E+00 -0.12522854161E+04  0.12522854161E+04  0.25500000920E-02 0. -1.
    10030    2    1    2    0    0  0.00000000000E+00  0.00000000000E+00  0.38984451065E+03  0.28944153428E+04  0.28680413933E+04 0.  0.
        4    1    3    3  502    0 -0.21962630830E+01  0.13919403356E+04 -0.15308355599E+03  0.14003352847E+04  0.12699999809E+01 0. -1.
       -4    1    3    3    0  502  0.21962630830E+01 -0.13919403356E+04  0.54292806664E+03  0.14940800581E+04  0.12699999809E+01 0.  1.
</event>
<event>
 5   0  0.1550278E-06  0.2887555E+04  0.7818609E-02  0.8276590E-01
        1   -1    0    0  501    0  0.00000000000E+00  0.00000000000E+00  0.67551182508E+03  0.67551182510E+03  0.50400001928E-02 0.  1.
       -1   -1    0    0    0  501  0.00000000000E+00  0.00000000000E+00 -0.30857977715E+04  0.30857977715E+04  0.50400001928E-02 0. -1.
    10030    2    1    2    0    0  0.00000000000E+00  0.00000000000E+00 -0.24102859464E+04  0.37613095966E+04  0.28875545948E+04 0.  0.
        2    1    3    3  502    0  0.14280384089E+04  0.45871769821E+02 -0.14755526059E+04  0.20539360773E+04  0.25500000920E-02 0. -1.
       -2    1    3    3    0  502 -0.14280384089E+04 -0.45871769821E+02 -0.93473334049E+03  0.17073735193E+04  0.25500000920E-02 0.  1.
</event>
<event>
 5   0  0.1511126E-06  0.2894904E+04  0.7818609E-02  0.8274395E-01
        1   -1    0    0  501    0  0.00000000000E+00  0.00000000000E+00  0.15337420594E+04  0.15337420594E+04  0.50400001928E-02 0. -1.
       -1   -1    0    0    0  501  0.00000000000E+00  0.00000000000E+00 -0.13660168660E+04  0.13660168660E+04  0.50400001928E-02 0.  1.
    10030    2    1    2    0    0  0.00000000000E+00  0.00000000000E+00  0.16772519348E+03  0.28997589254E+04  0.28949041582E+04 0.  0.
        5    1    3    3  502    0  0.98132838978E+03 -0.71811548040E+03  0.87029080372E+03  0.14953673210E+04  0.46999998093E+01 0. -1.
       -5    1    3    3    0  502 -0.98132838978E+03  0.71811548040E+03 -0.70256561024E+03  0.14043916044E+04  0.46999998093E+01 0.  1.
</event>
<event>
 5   0  0.1550278E-06  0.2899107E+04  0.7818609E-02  0.8273143E-01
       -1   -1    0    0    0  501  0.00000000000E+00  0.00000000000E+00  0.24335800037E+04  0.24335800037E+04  0.50400001928E-02 0.  1.
        1   -1    0    0  501    0  0.00000000000E+00  0.00000000000E+00 -0.86342136425E+03  0.86342136427E+03  0.50400001928E-02 0. -1.
    10030    2    1    2    0    0  0.00000000000E+00  0.00000000000E+00  0.15701586395E+04  0.32970013680E+04  0.28991067361E+04 0.  0.
        2    1    3    3  502    0  0.13895571956E+04  0.12193602575E+03  0.33667008116E+03  0.14349509880E+04  0.25500000920E-02 0. -1.
       -2    1    3    3    0  502 -0.13895571956E+04 -0.12193602575E+03  0.12334885583E+04  0.18620503800E+04  0.25500000920E-02 0.  1.
</event>
<event>
 5   0  0.4187518E-06  0.2899312E+04  0.7818609E-02  0.8273082E-01
        2   -1    0    0  501    0  0.00000000000E+00  0.00000000000E+00  0.10036130649E+04  0.10036130649E+04  0.25500000920E-02 0. -1.
       -2   -1    0    0    0  501  0.00000000000E+00  0.00000000000E+00 -0.20939362932E+04  0.20939362932E+04  0.25500000920E-02 0.  1.
    10030    2    1    2    0    0  0.00000000000E+00  0.00000000000E+00 -0.10903232283E+04  0.30975493582E+04  0.28993115190E+04 0.  0.
        3    1    3    3  502    0  0.33904106401E+02  0.49393395527E+03  0.91048843203E+03  0.10363925104E+04  0.10100000352E+00 0. -1.
       -3    1    3    3    0  502 -0.33904106401E+02 -0.49393395527E+03 -0.20008116603E+04  0.20611568477E+04  0.10100000352E+00 0.  1.
</event>
<event>
 5   0  0.1360125E-06  0.2878671E+04  0.7818609E-02  0.8279252E-01
       -3   -1    0    0    0  501  0.00000000000E+00  0.00000000000E+00  0.16053716861E+04  0.16053716893E+04  0.10100000352E+00 0. -1.
        3   -1    0    0  501    0  0.00000000000E+00  0.00000000000E+00 -0.12904717356E+04  0.12904717396E+04  0.10100000352E+00 0.  1.
    10030    2    1    2    0    0  0.00000000000E+00  0.00000000000E+00  0.31489995050E+03  0.28958434289E+04  0.28786710798E+04 0.  0.
        5    1    3    3  502    0  0.85083957324E+02  0.76985550053E+03 -0.10629431423E+04  0.13152136652E+04  0.46999998093E+01 0.  1.
       -5    1    3    3    0  502 -0.85083957324E+02 -0.76985550053E+03  0.13778430928E+04  0.15806297637E+04  0.46999998093E+01 0. -1.
</event>
<event>
 5   0  0.1580212E-06  0.2899967E+04  0.7818609E-02  0.8272887E-01
       -1   -1    0    0    0  501  0.00000000000E+00  0.00000000000E+00  0.87549933854E+03  0.87549933856E+03  0.50400001928E-02 0.  1.
        1   -1    0    0  501    0  0.00000000000E+00  0.00000000000E+00 -0.24014322782E+04  0.24014322782E+04  0.50400001928E-02 0. -1.
    10030    2    1    2    0    0  0.00000000000E+00  0.00000000000E+00 -0.15259329397E+04  0.32769316168E+04  0.28999671523E+04 0.  0.
        4    1    3    3  502    0 -0.47235881695E+02 -0.11986074766E+04 -0.16834463148E+04  0.20670955999E+04  0.12699999809E+01 0. -1.
       -4    1    3    3    0  502  0.47235881695E+02  0.11986074766E+04  0.15751337512E+03  0.12098360169E+04  0.12699999809E+01 0.  1.
</event>
<event>
 5   0  0.1543678E-06  0.2901528E+04  0.7818609E-02  0.8272423E-01
        1   -1    0    0  501    0  0.00000000000E+00  0.00000000000E+00  0.11850806049E+04  0.11850806049E+04  0.50400001928E-02 0.  1.
       -1   -1    0    0    0  501  0.00000000000E+00  0.00000000000E+00 -0.17760104566E+04  0.17760104566E+04  0.50400001928E-02 0. -1.
    10030    2    1    2    0    0  0.00000000000E+00  0.00000000000E+00 -0.59092985168E+03  0.29610910615E+04  0.29015275606E+04 0.  0.
        3    1    3    3  502    0  0.72238108635E+03 -0.55877490100E+03  0.85490713695E+03  0.12509716411E+04  0.10100000352E+00 0.  1.
       -3    1    3    3    0  502 -0.72238108635E+03  0.55877490100E+03 -0.14458369886E+04  0.17101194203E+04  0.10100000352E+00 0. -1.
</event>
<event>
 5   0  0.4115143E-06  0.2871511E+04  0.7818609E-02  0.8281405E-01
       -2   -1    0    0    0  501  0.00000000000E+00  0.00000000000E+00  0.88441619981E+03  0.88441619981E+03  0.25500000920E-02 0. -1.
        2   -1    0    0  501    0  0.00000000000E+00  0.00000000000E+00 -0.23307963560E+04  0.23307963560E+04  0.25500000920E-02 0.  1.
    10030    2    1    2    0    0  0.00000000000E+00  0.00000000000E+00 -0.14463801562E+04  0.32152125558E+04  0.28715111392E+04 0.  0.
        1    1    3    3  502    0  0.34369887181E+03  0.13485222026E+04 -0.32770991848E+03  0.14296974631E+04  0.50400001928E-02 0. -1.
       -1    1    3    3    0  502 -0.34369887181E+03 -0.13485222026E+04 -0.11186702377E+04  0.17855150927E+04  0.50400001928E-02 0.  1.
</event>
<event>
 5   0  0.1602873E-06  0.2906498E+04  0.7818609E-02  0.8270947E-01
       -1   -1    0    0    0  501  0.00000000000E+00  0.00000000000E+00  0.25357423878E+04  0.25357423878E+04  0.50400001928E-02 0.  1.
        1   -1    0    0  501    0  0.00000000000E+00  0.00000000000E+00 -0.83286560063E+03  0.83286560064E+03  0.50400001928E-02 0. -1.
    10030    2    1    2    0    0  0.00000000000E+00  0.00000000000E+00  0.17028767872E+04  0.33686079885E+04  0.29064979662E+04 0.  0.
        1    1    3    3  502    0 -0.12381632276E+03  0.13136228691E+04  0.15573749925E+04  0.20411644694E+04  0.50400001928E-02 0.  1.
       -1    1    3    3    0  502  0.12381632276E+03 -0.13136228691E+04  0.14550179470E+03  0.13274435190E+04  0.50400001928E-02 0. -1.
</event>
<event>
 5   0  0.4187518E-06  0.2891140E+04  0.7818609E-02  0.8275518E-01
        2   -1    0    0  501    0  0.00000000000E+00  0.00000000000E+00  0.96024584799E+03  0.96024584800E+03  0.25500000920E-02 0.  1.
       -2   -1    0    0    0  501  0.00000000000E+00  0.00000000000E+00 -0.21761856559E+04  0.21761856559E+04  0.25500000920E-02 0. -1.
    10030    2    1    2    0    0  0.00000000000E+00  0.00000000000E+00 -0.12159398079E+04  0.31364315039E+04  0.28911404259E+04 0.  0.
        3    1    3    3  502    0  0.22871103796E+03 -0.23464145979E+03 -0.21353677523E+04  0.21603612664E+04  0.10100000352E+00 0. -1.
       -3    1    3    3    0  502 -0.22871103796E+03  0.23464145979E+03  0.91942794436E+03  0.97607023754E+03  0.10100000352E+00 0.  1.
</event>
<event>
 5   0  0.4187518E-06  0.2891648E+04  0.7818609E-02  0.8275367E-01
       -2   -1    0    0    0  501  0.00000000000E+00  0.00000000000E+00  0.81729163412E+03  0.81729163412E+03  0.25500000920E-02 0.  1.
        2   -1    0    0  501    0  0.00000000000E+00  0.00000000000E+00 -0.25577246689E+04  0.25577246689E+04  0.25500000920E-02 0. -1.
    10030    2    1    2    0    0  0.00000000000E+00  0.00000000000E+00 -0.17404330348E+04  0.33750163030E+04  0.28916479552E+04 0.  0.
        3    1    3    3  502    0  0.78295983942E+03 -0.11913755851E+04 -0.58911484383E+03  0.15425492551E+04  0.10100000352E+00 0.  1.
       -3    1    3    3    0  502 -0.78295983942E+03  0.11913755851E+04 -0.11513181909E+04  0.18324670480E+04  0.10100000352E+00 0. -1.
</event>
<event>
 5   0  0.4224163E-06  0.2987554E+04  0.7818609E-02  0.8247294E-01
        2   -1    0    0  501    0  0.00000000000E+00  0.00000000000E+00  0.16763077910E+04  0.16763077910E+04  0.25500000920E-02 0. -1.
       -2   -1    0    0    0  501  0.00000000000E+00  0.00000000000E+00 -0.13311215671E+04  0.13311215671E+04  0.25500000920E-02 0.  1.
    10030    2    1    2    0    0  0.00000000000E+00  0.00000000000E+00  0.34518622382E+03  0.30074293581E+04  0.29875538179E+04 0.  0.
        4    1    3    3  502    0 -0.16755171366E+03  0.83090188560E+03 -0.10655883026E+04  0.13615988998E+04  0.12699999809E+01 0.  1.
       -4    1    3    3    0  502  0.16755171366E+03 -0.83090188560E+03  0.14107745264E+04  0.16458304583E+04  0.12699999809E+01 0. -1.
</event>
<event>
 5   0  0.1511126E-06  0.2900502E+04  0.7818609E-02  0.8272728E-01
       -1   -1    0    0    0  501  0.00000000000E+00  0.00000000000E+00  0.26820112335E+04  0.26820112335E+04  0.50400001928E-02 0.  1.
        1   -1    0    0  501    0  0.00000000000E+00  0.00000000000E+00 -0.78419798423E+03  0.78419798425E+03  0.50400001928E-02 0. -1.
    10030    2    1    2    0    0  0.00000000000E+00  0.00000000000E+00  0.18978132493E+04  0.34662092178E+04  0.29005018897E+04 0.  0.
        5    1    3    3  502    0 -0.72255722348E+03 -0.11131666595E+04  0.16477501031E+04  0.21157342568E+04  0.46999998093E+01 0.  1.
       -5    1    3    3    0  502  0.72255722348E+03  0.11131666595E+04  0.25006314617E+03  0.13504749610E+04  0.46999998093E+01 0. -1.
</event>
<event>
 5   0  0.4224163E-06  0.2727722E+04  0.7818609E-02  0.8326066E-01
        2   -1    0    0  501    0  0.00000000000E+00  0.00000000000E+00  0.11529960008E+04  0.11529960008E+04  0.25500000920E-02 0. -1.
       -2   -1    0    0    0  501  0.00000000000E+00  0.00000000000E+00 -0.16132897030E+04  0.16132897030E+04  0.25500000920E-02 0.  1.
    10030    2    1    2    0    0  0.00000000000E+00  0.00000000000E+00 -0.46029370228E+03  0.27662857038E+04  0.27277218155E+04 0.  0.
        4    1    3    3  502    0  0.66646131213E+03  0.11900804050E+03  0.97056029920E+03  0.11833522306E+04  0.12699999809E+01 0. -1.
       -4    1    3    3    0  502 -0.66646131213E+03 -0.11900804050E+03 -0.14308540015E+04  0.15829334732E+04  0.12699999809E+01 0.  1.
</event>
<event>
 5   0  0.1511126E-06  0.2924180E+04  0.7818609E-02  0.8265719E-01
        1   -1    0    0  501    0  0.00000000000E+00  0.00000000000E+00  0.24696334980E+04  0.24696334980E+04  0.50400001928E-02 0.  1.
       -1   -1    0    0    0  501  0.00000000000E+00  0.00000000000E+00 -0.86559713654E+03  0.86559713656E+03  0.50400001928E-02 0. -1.
    10030    2    1    2    0    0  0.00000000000E+00  0.00000000000E+00  0.16040363614E+04  0.33352306346E+04  0.29241803530E+04 0.  0.
        5    1    3    3  502    0  0.11759119457E+04 -0.55942068176E+03  0.43762366254E+02  0.13029419166E+04  0.46999998093E+01 0. -1.
       -5    1    3    3    0  502 -0.11759119457E+04  0.55942068176E+03  0.15602739952E+04  0.20322887180E+04  0.46999998093E+01 0.  1.
</event>
<event>
 5   0  0.4115143E-06  0.2883099E+04  0.7818609E-02  0.8277924E-01
        2   -1    0    0  501    0  0.00000000000E+00  0.00000000000E+00  0.12317931142E+04  0.12317931142E+04  0.25500000920E-02 0.  1.
       -2   -1    0    0    0  501  0.00000000000E+00  0.00000000000E+00 -0.16870241962E+04  0.16870241962E+04  0.25500000920E-02 0. -1.
    10030    2    1    2    0    0  0.00000000000E+00  0.00000000000E+00 -0.45523108199E+03  0.29188173104E+04  0.28830988802E+04 0.  0.
        1    1    3    3  502    0  0.84253500683E+03  0.50111264448E+03 -0.12976323886E+04  0.16262930044E+04  0.50400001928E-02 0. -1.
       -1    1    3    3    0  502 -0.84253500683E+03 -0.50111264448E+03  0.84240130658E+03  0.12925243060E+04  0.50400001928E-02 0.  1.
</event>
<event>
 5   0  0.1550278E-06  0.2904463E+04  0.7818609E-02  0.8271551E-01
       -1   -1    0    0    0  501  0.00000000000E+00  0.00000000000E+00  0.17317458806E+04  0.17317458806E+04  0.50400001928E-02 0. -1.
        1   -1    0    0  501    0  0.00000000000E+00  0.00000000000E+00 -0.12178321261E+04  0.12178321261E+04  0.50400001928E-02 0.  1.
    10030    2    1    2    0    0  0.00000000000E+00  0.00000000000E+00  0.51391375443E+03  0.29495780067E+04  0.29044626131E+04 0.  0.
        2    1    3    3  502    0  0.89566939569E+03  0.44904920963E+03  0.13245265864E+04  0.16607948510E+04  0.25500000920E-02 0. -1.
       -2    1    3    3    0  502 -0.89566939569E+03 -0.44904920963E+03 -0.81061283198E+03  0.12887831557E+04  0.25500000920E-02 0.  1.
</event>
<event>
 5   0  0.4148677E-06  0.2932942E+04  0.7818609E-02  0.8263143E-01
        2   -1    0    0  501    0  0.00000000000E+00  0.00000000000E+00  0.71790306296E+03  0.71790306296E+03  0.25500000920E-02 0.  1.
       -2   -1    0    0    0  501  0.00000000000E+00  0.00000000000E+00 -0.29955814056E+04  0.29955814056E+04  0.25500000920E-02 0. -1.
    10030    2    1    2    0    0  0.00000000000E+00  0.00000000000E+00 -0.22776783426E+04  0.37134844685E+04  0.29329419131E+04 0.  0.
        5    1    3    3  502    0  0.94218343436E+03 -0.64230399264E+03  0.28646902027E+02  0.11406606761E+04  0.46999998093E+01 0.  1.
       -5    1    3    3    0  502 -0.94218343436E+03  0.64230399264E+03 -0.23063252447E+04  0.25728237925E+04  0.46999998093E+01 0. -1.
</event>
<event>
 5   0  0.1543678E-06  0.2892695E+04  0.7818609E-02  0.8275054E-01
       -1   -1    0    0    0  501  0.00000000000E+00  0.00000000000E+00  0.94314751139E+03  0.94314751140E+03  0.50400001928E-02 0. -1.
        1   -1    0    0  501    0  0.00000000000E+00  0.00000000000E+00 -0.22180207793E+04  0.22180207793E+04  0.50400001928E-02 0.  1.
    10030    2    1    2    0    0  0.00000000000E+00  0.00000000000E+00 -0.12748732679E+04  0.31611682907E+04  0.28926947839E+04 0.  0.
        3    1    3    3  502    0  0.78398955916E+03 -0.29312369091E+03  0.65159835351E+03  0.10607268977E+04  0.10100000352E+00 0. -1.
       -3    1    3    3    0  502 -0.78398955916E+03  0.29312369091E+03 -0.19264716214E+04  0.21004413929E+04  0.10100000352E+00 0.  1.
</event>
<event>
 5   0  0.1543678E-06  0.2865561E+04  0.7818609E-02  0.8283199E-01
        1   -1    0    0  501    0  0.00000000000E+00  0.00000000000E+00  0.14713979096E+04  0.14713979096E+04  0.50400001928E-02 0.  1.
       -1   -1    0    0    0  501  0.00000000000E+00  0.00000000000E+00 -0.13951761715E+04  0.13951761715E+04  0.50400001928E-02 0. -1.
    10030    2    1    2    0    0  0.00000000000E+00  0.00000000000E+00  0.76221738119E+02  0.28665740811E+04  0.28655605401E+04 0.  0.
        3    1    3    3  502    0  0.66248595583E+03 -0.95400356840E+03  0.87736460229E+03  0.14556026607E+04  0.10100000352E+00 0.  1.
       -3    1    3    3    0  502 -0.66248595583E+03  0.95400356840E+03 -0.80114286417E+03  0.14109714204E+04  0.10100000352E+00 0. -1.
</event>
<event>
 5   0  0.1543678E-06  0.2762809E+04  0.7818609E-02  0.8314909E-01
        1   -1    0    0  501    0  0.00000000000E+00  0.00000000000E+00  0.25393726328E+04  0.25393726328E+04  0.50400001928E-02 0. -1.
       -1   -1    0    0    0  501  0.00000000000E+00  0.00000000000E+00 -0.75147620405E+03  0.75147620407E+03  0.50400001928E-02 0.  1.
    10030    2    1    2    0    0  0.00000000000E+00  0.00000000000E+00  0.17878964288E+04  0.32908488369E+04  0.27628087931E+04 0.  0.
        3    1    3    3  502    0  0.15305320297E+03 -0.11146912101E+04 -0.60674101451E+02  0.11267844219E+04  0.10100000352E+00 0.  1.
       -3    1    3    3    0  502 -0.15305320297E+03  0.11146912101E+04  0.18485705302E+04  0.21640644150E+04  0.10100000352E+00 0. -1.
</event>
<event>
 5   0  0.1580212E-06  0.2896443E+04  0.7818609E-02  0.8273937E-01
       -1   -1    0    0    0  501  0.00000000000E+00  0.00000000000E+00  0.14513676906E+04  0.14513676906E+04  0.50400001928E-02 0. -1.
        1   -1    0    0  501    0  0.00000000000E+00  0.00000000000E+00 -0.14450817756E+04  0.14450817756E+04  0.50400001928E-02 0.  1.
    10030    2    1    2    0    0  0.00000000000E+00  0.00000000000E+00  0.62859149988E+01  0.28964494662E+04  0.28964426453E+04 0.  0.
        4    1    3    3  502    0  0.62286029940E+02  0.13728666226E+04 -0.45369624460E+03  0.14472332943E+04  0.12699999809E+01 0.  1.
       -4    1    3    3    0  502 -0.62286029940E+02 -0.13728666226E+04  0.45998215960E+03  0.14492161719E+04  0.12699999809E+01 0. -1.
</event>
<event>
 5   0  0.1511126E-06  0.2903545E+04  0.7818609E-02  0.8271823E-01
        1   -1    0    0  501    0  0.00000000000E+00  0.00000000000E+00  0.14301211786E+04  0.14301211786E+04  0.50400001928E-02 0.  1.
       -1   -1    0    0    0  501  0.00000000000E+00  0.00000000000E+00 -0.14737520711E+04  0.14737520711E+04  0.50400001928E-02 0. -1.
    10030    2    1    2    0    0  0.00000000000E+00  0.00000000000E+00 -0.43630892520E+02  0.29038732497E+04  0.29035454526E+04 0.  0.
        5    1    3    3  502    0 -0.63893443807E+03 -0.11901082817E+04 -0.55387834580E+03  0.14599309060E+04  0.46999998093E+01 0. -1.
       -5    1    3    3    0  502  0.63893443807E+03  0.11901082817E+04  0.51024745328E+03  0.14439423437E+04  0.46999998093E+01 0.  1.
</event>
<event>
 5   0  0.4148677E-06  0.2884288E+04  0.7818609E-02  0.8277567E-01
        2   -1    0    0  501    0  0.00000000000E+00  0.00000000000E+00  0.16419672944E+04  0.16419672944E+04  0.25500000920E-02 0. -1.
       -2   -1    0    0    0  501  0.00000000000E+00  0.00000000000E+00 -0.12666391178E+04  0.12666391178E+04  0.25500000920E-02 0.  1.
    10030    2    1    2    0    0  0.00000000000E+00  0.00000000000E+00  0.37532817668E+03  0.29086064122E+04  0.28842884774E+04 0.  0.
        5    1    3    3  502    0  0.98241813329E+03 -0.45818273690E+03 -0.77150245652E+03  0.13305318258E+04  0.46999998093E+01 0.  1.
       -5    1    3    3    0  502 -0.98241813329E+03  0.45818273690E+03  0.11468306332E+04  0.15780745864E+04  0.46999998093E+01 0. -1.
</event>
<event>
 5   0  0.1360125E-06  0.2826245E+04  0.7818609E-02  0.8295167E-01
        3   -1    0    0  501    0  0.00000000000E+00  0.00000000000E+00  0.19461756595E+04  0.19461756621E+04  0.10100000352E+00 0.  1.
       -3   -1    0    0    0  501  0.00000000000E+00  0.00000000000E+00 -0.10260710527E+04  0.10260710577E+04  0.10100000352E+00 0. -1.
    10030    2    1    2    0    0  0.00000000000E+00  0.00000000000E+00  0.92010460678E+03  0.29722467198E+04  0.28262445181E+04 0.  0.
        3    1    3    3  502    0 -0.11173144974E+04 -0.55658556369E+03 -0.23653640287E+03  0.12704836307E+04  0.10100000352E+00 0. -1.
       -3    1    3    3    0  502  0.11173144974E+04  0.55658556369E+03  0.11566410097E+04  0.17017630891E+04  0.10100000352E+00 0.  1.
</event>
<event>
 5   0  0.4115143E-06  0.2891038E+04  0.7818609E-02  0.8275549E-01
       -2   -1    0    0    0  501  0.00000000000E+00  0.00000000000E+00  0.14223622616E+04  0.14223622616E+04  0.25500000920E-02 0. -1.
        2   -1    0    0  501    0  0.00000000000E+00  0.00000000000E+00 -0.14690532189E+04  0.14690532189E+04  0.25500000920E-02 0.  1.
    10030    2    1    2    0    0  0.00000000000E+00  0.00000000000E+00 -0.46690957306E+02  0.28914154805E+04  0.28910384700E+04 0.  0.
        1    1    3    3  502    0 -0.19207116059E+03 -0.12338449264E+04  0.70493985954E+03  0.14339472928E+04  0.50400001928E-02 0. -1.
       -1    1    3    3    0  502  0.19207116059E+03  0.12338449264E+04 -0.75163081685E+03  0.14574681876E+04  0.50400001928E-02 0.  1.
</event>
<event>
 5   0  0.1602873E-06  0.2939317E+04  0.7818609E-02  0.8261275E-01
        1   -1    0    0  501    0  0.00000000000E+00  0.00000000000E+00  0.19495181739E+04  0.19495181739E+04  0.50400001928E-02 0.  1.
       -1   -1    0    0    0  501  0.00000000000E+00  0.00000000000E+00 -0.11079130355E+04  0.11079130355E+04  0.50400001928E-02 0. -1.
    10030    2    1    2    0    0  0.00000000000E+00  0.00000000000E+00  0.84160513836E+03  0.30574312094E+04  0.29393173342E+04 0.  0.
        1    1    3    3  502    0  0.92080856074E+03 -0.91857945859E+03  0.11325652040E+04  0.17246392575E+04  0.50400001928E-02 0.  1.
       -1    1    3    3    0  502 -0.92080856074E+03  0.91857945859E+03 -0.29096006560E+03  0.13327919519E+04  0.50400001928E-02 0. -1.
</event>
<event>
 5   0  0.4224163E-06  0.2911417E+04  0.7818609E-02  0.8269489E-01
       -2   -1    0    0    0  501  0.00000000000E+00  0.00000000000E+00  0.10727747526E+04  0.10727747526E+04  0.25500000920E-02 0. -1.
        2   -1    0    0  501    0  0.00000000000E+00  0.00000000000E+00 -0.19753325976E+04  0.19753325976E+04  0.25500000920E-02 0.  1.
    10030    2    1    2    0    0  0.00000000000E+00  0.00000000000E+00 -0.90255784497E+03  0.30481073502E+04  0.29114167951E+04 0.  0.
        4    1    3    3  502    0 -0.68076406981E+03 -0.44965626303E+03  0.81091663784E+03  0.11503120794E+04  0.12699999809E+01 0. -1.
       -4    1    3    3    0  502  0.68076406981E+03  0.44965626303E+03 -0.17134744828E+04  0.18977952708E+04  0.12699999809E+01 0.  1.
</event>
<event>
 5   0  0.4187518E-06  0.2905979E+04  0.7818609E-02  0.8271101E-01
        2   -1    0    0  501    0  0.00000000000E+00  0.00000000000E+00  0.18675848466E+04  0.18675848466E+04  0.25500000920E-02 0. -1.
       -2   -1    0    0    0  501  0.00000000000E+00  0.00000000000E+00 -0.11304321250E+04  0.11304321250E+04  0.25500000920E-02 0.  1.
    10030    2    1    2    0    0  0.00000000000E+00  0.00000000000E+00  0.73715272162E+03  0.29980169716E+04  0.29059786006E+04 0.  0.
        3    1    3    3  502    0 -0.64241381170E+03 -0.11693411390E+04  0.96223501460E+03  0.16449773367E+04  0.10100000352E+00 0. -1.
       -3    1    3    3    0  502  0.64241381170E+03  0.11693411390E+04 -0.22508229297E+03  0.13530396349E+04  0.10100000352E+00 0.  1.
</event>
<event>
 5   0  0.1543678E-06  0.2822242E+04  0.7818609E-02  0.8296396E-01
       -1   -1    0    0    0  501  0.00000000000E+00  0.00000000000E+00  0.16583391396E+04  0.16583391396E+04  0.50400001928E-02 0. -1.
        1   -1    0    0  501    0  0.00000000000E+00  0.00000000000E+00 -0.12007568181E+04  0.12007568182E+04  0.50400001928E-02 0.  1.
    10030    2    1    2    0    0  0.00000000000E+00  0.00000000000E+00  0.45758232143E+03  0.28590959577E+04  0.28222416825E+04 0.  0.
        3    1    3    3  502    0 -0.28918282564E+03  0.55209249911E+03 -0.10537701956E+04  0.12242812052E+04  0.10100000352E+00 0.  1.
       -3    1    3    3    0  502  0.28918282564E+03 -0.55209249911E+03  0.15113525170E+04  0.16348147525E+04  0.10100000352E+00 0. -1.
</event>
<event>
 5   0  0.1511126E-06  0.2864069E+04  0.7818609E-02  0.8283649E-01
       -1   -1    0    0    0  501  0.00000000000E+00  0.00000000000E+00  0.12511837913E+04  0.12511837913E+04  0.50400001928E-02 0. -1.
        1   -1    0    0  501    0  0.00000000000E+00  0.00000000000E+00 -0.16390257262E+04  0.16390257262E+04  0.50400001928E-02 0.  1.
    10030    2    1    2    0    0  0.00000000000E+00  0.00000000000E+00 -0.38784193486E+03  0.28902095175E+04  0.28640687298E+04 0.  0.
        5    1    3    3  502    0 -0.70969298974E+03  0.12001866412E+04 -0.52337929798E+03  0.14893153102E+04  0.46999998093E+01 0.  1.
       -5    1    3    3    0  502  0.70969298974E+03 -0.12001866412E+04  0.13553736313E+03  0.14008942074E+04  0.46999998093E+01 0. -1.
</event>
<event>
 5   0  0.1580212E-06  0.2897118E+04  0.7818609E-02  0.8273735E-01
       -1   -1    0    0    0  501  0.00000000000E+00  0.00000000000E+00  0.82819964013E+03  0.82819964015E+03  0.50400001928E-02 0.  1.
        1   -1    0    0  501    0  0.00000000000E+00  0.00000000000E+00 -0.25335957211E+04  0.25335957211E+04  0.50400001928E-02 0. -1.
    10030    2    1    2    0    0  0.00000000000E+00  0.00000000000E+00 -0.17053960810E+04  0.33617953613E+04  0.28971179227E+04 0.  0.
        4    1    3    3  502    0 -0.48950739720E+03  0.66148941426E+03 -0.22360187465E+04  0.23826387021E+04  0.12699999809E+01 0. -1.
       -4    1    3    3    0  502  0.48950739720E+03 -0.66148941426E+03  0.53062266554E+03  0.97915665916E+03  0.12699999809E+01 0.  1.
</event>
<event>
 5   0  0.4148677E-06  0.2899390E+04  0.7818609E-02  0.8273059E-01
       -2   -1    0    0    0  501  0.00000000000E+00  0.00000000000E+00  0.74164652275E+03  0.74164652275E+03  0.25500000920E-02 0.  1.
        2   -1    0    0  501    0  0.00000000000E+00  0.00000000000E+00 -0.28337169365E+04  0.28337169365E+04  0.25500000920E-02 0. -1.
    10030    2    1    2    0    0  0.00000000000E+00  0.00000000000E+00 -0.20920704138E+04  0.35753634593E+04  0.28993904962E+04 0.  0.
        5    1    3    3  502    0 -0.64483215597E+02  0.81544396562E+03  0.42987138627E+03  0.92407707736E+03  0.46999998093E+01 0.  1.
       -5    1    3    3    0  502  0.64483215597E+02 -0.81544396562E+03 -0.25219418000E+04  0.26512863819E+04  0.46999998093E+01 0. -1.
</event>
<event>
 5   0  0.4162450E-06  0.2918243E+04  0.7818609E-02  0.8267470E-01
       -2   -1    0    0    0  501  0.00000000000E+00  0.00000000000E+00  0.12859108833E+04  0.12859108833E+04  0.25500000920E-02 0.  1.
        2   -1    0    0  501    0  0.00000000000E+00  0.00000000000E+00 -0.16556637604E+04  0.16556637604E+04  0.25500000920E-02 0. -1.
    10030    2    1    2    0    0  0.00000000000E+00  0.00000000000E+00 -0.36975287715E+03  0.29415746437E+04  0.29182433405E+04 0.  0.
        2    1    3    3  502    0  0.33536444099E+03  0.68270626423E+03  0.10702610460E+04  0.13130178438E+04  0.25500000920E-02 0.  1.
       -2    1    3    3    0  502 -0.33536444099E+03 -0.68270626423E+03 -0.14400139232E+04  0.16285567999E+04  0.25500000920E-02 0. -1.
</event>
<event>
 5   0  0.4187518E-06  0.2904941E+04  0.7818609E-02  0.8271409E-01
        2   -1    0    0  501    0  0.00000000000E+00  0.00000000000E+00  0.25725653418E+04  0.25725653418E+04  0.25500000920E-02 0.  1.
       -2   -1    0    0    0  501  0.00000000000E+00  0.00000000000E+00 -0.82006516475E+03  0.82006516475E+03  0.25500000920E-02 0. -1.
    10030    2    1    2    0    0  0.00000000000E+00  0.00000000000E+00  0.17525001770E+04  0.33926305065E+04  0.29049414595E+04 0.  0.
        3    1    3    3  502    0 -0.94442171419E+03  0.10250444942E+04  0.13535450236E+04  0.19428671417E+04  0.10100000352E+00 0.  1.
       -3    1    3    3    0  502  0.94442171419E+03 -0.10250444942E+04  0.39895515344E+03  0.14497633648E+04  0.10100000352E+00 0. -1.
</event>
<event>
 5   0  0.4162450E-06  0.2901102E+04  0.7818609E-02  0.8272550E-01
       -2   -1    0    0    0  501  0.00000000000E+00  0.00000000000E+00  0.77418103253E+03  0.77418103254E+03  0.25500000920E-02 0. -1.
        2   -1    0    0  501    0  0.00000000000E+00  0.00000000000E+00 -0.27178367891E+04  0.27178367891E+04  0.25500000920E-02 0.  1.
    10030    2    1    2    0    0  0.00000000000E+00  0.00000000000E+00 -0.19436557565E+04  0.34920178216E+04  0.29011016470E+04 0.  0.
        2    1    3    3  502    0 -0.73835764134E+03 -0.11913633844E+04 -0.14215285153E+04  0.19963121099E+04  0.25500000920E-02 0.  1.
       -2    1    3    3    0  502  0.73835764134E+03  0.11913633844E+04 -0.52212724122E+03  0.14957057117E+04  0.25500000920E-02 0. -1.
</event>
<event>
 5   0  0.4187518E-06  0.2893664E+04  0.7818609E-02  0.8274765E-01
       -2   -1    0    0    0  501  0.00000000000E+00  0.00000000000E+00  0.13261997932E+04  0.13261997932E+04  0.25500000920E-02 0. -1.
        2   -1    0    0  501    0  0.00000000000E+00  0.00000000000E+00 -0.15784374501E+04  0.15784374501E+04  0.25500000920E-02 0.  1.
    10030    2    1    2    0    0  0.00000000000E+00  0.00000000000E+00 -0.25223765693E+03  0.29046372433E+04  0.28936644035E+04 0.  0.
        3    1    3    3  502    0 -0.11265952156E+04  0.68436641594E+03 -0.72482774966E+03  0.15043102898E+04  0.10100000352E+00 0. -1.
       -3    1    3    3    0  502  0.11265952156E+04 -0.68436641594E+03  0.47259009273E+03  0.14003269536E+04  0.10100000352E+00 0.  1.
</event>
<event>
 5   0  0.4148677E-06  0.2892483E+04  0.7818609E-02  0.8275118E-01
        2   -1    0    0  501    0  0.00000000000E+00  0.00000000000E+00  0.17751149770E+04  0.17751149770E+04  0.25500000920E-02 0. -1.
       -2   -1    0    0    0  501  0.00000000000E+00  0.00000000000E+00 -0.11782978379E+04  0.11782978379E+04  0.25500000920E-02 0.  1.
    10030    2    1    2    0    0  0.00000000000E+00  0.00000000000E+00  0.59681713917E+03  0.29534128149E+04  0.28924827670E+04 0.  0.
        5    1    3    3  502    0 -0.67736924857E+03  0.48561487234E+03 -0.90841123763E+03  0.12328357432E+04  0.46999998093E+01 0.  1.
       -5    1    3    3    0  502  0.67736924857E+03 -0.48561487234E+03  0.15052283768E+04  0.17205770716E+04  0.46999998093E+01 0. -1.
</event>
<event>
 5   0  0.4224163E-06  0.2885372E+04  0.7818609E-02  0.8277243E-01
       -2   -1    0    0    0  501  0.00000000000E+00  0.00000000000E+00  0.10160753739E+04  0.10160753739E+04  0.25500000920E-02 0. -1.
        2   -1    0    0  501    0  0.00000000000E+00  0.00000000000E+00 -0.20484132962E+04  0.20484132962E+04  0.25500000920E-02 0.  1.
    10030    2    1    2    0    0  0.00000000000E+00  0.00000000000E+00 -0.10323379222E+04  0.30644886701E+04  0.28853715920E+04 0.  0.
        4    1    3    3  502    0  0.57531779070E+03 -0.12399407628E+04 -0.26118189463E+02  0.13671603521E+04  0.12699999809E+01 0. -1.
       -4    1    3    3    0  502 -0.57531779070E+03  0.12399407628E+04 -0.10062197328E+04  0.16973283180E+04  0.12699999809E+01 0.  1.
</event>
<event>
 5   0  0.4224163E-06  0.2908868E+04  0.7818609E-02  0.8270244E-01
       -2   -1    0    0    0  501  0.00000000000E+00  0.00000000000E+00  0.13921217818E+04  0.13921217818E+04  0.25500000920E-02 0. -1.
        2   -1    0    0  501    0  0.00000000000E+00  0.00000000000E+00 -0.15195356328E+04  0.15195356328E+04  0.25500000920E-02 0.  1.
    10030    2    1    2    0    0  0.00000000000E+00  0.00000000000E+00 -0.12741385096E+03  0.29116574147E+04  0.29088682698E+04 0.  0.
        4    1    3    3  502    0 -0.12808356727E+04 -0.25235784994E+03  0.57811966609E+03  0.14277424369E+04  0.12699999809E+01 0. -1.
       -4    1    3    3    0  502  0.12808356727E+04  0.25235784994E+03 -0.70553351705E+03  0.14839149778E+04  0.12699999809E+01 0.  1.
</event>
<event>
 5   0  0.1602873E-06  0.2902861E+04  0.7818609E-02  0.8272027E-01
        1   -1    0    0  501    0  0.00000000000E+00  0.00000000000E+00  0.17591805429E+04  0.17591805429E+04  0.50400001928E-02 0. -1.
       -1   -1    0    0    0  501  0.00000000000E+00  0.00000000000E+00 -0.11975180319E+04  0.11975180320E+04  0.50400001928E-02 0.  1.
    10030    2    1    2    0    0  0.00000000000E+00  0.00000000000E+00  0.56166251092E+03  0.29566985748E+04  0.29028609485E+04 0.  0.
        1    1    3    3  502    0 -0.55154006522E+03 -0.49158266500E+03 -0.99165913521E+03  0.12366235484E+04  0.50400001928E-02 0.  1.
       -1    1    3    3    0  502  0.55154006522E+03  0.49158266500E+03  0.15533216461E+04  0.17200750264E+04  0.50400001928E-02 0. -1.
</event>
<event>
 5   0  0.4162450E-06  0.2861453E+04  0.7818609E-02  0.8284439E-01
       -2   -1    0    0    0  501  0.00000000000E+00  0.00000000000E+00  0.94258848729E+03  0.94258848729E+03  0.25500000920E-02 0.  1.
        2   -1    0    0  501    0  0.00000000000E+00  0.00000000000E+00 -0.21716571207E+04  0.21716571207E+04  0.25500000920E-02 0. -1.
    10030    2    1    2    0    0  0.00000000000E+00  0.00000000000E+00 -0.12290686334E+04  0.31142456079E+04  0.28614534770E+04 0.  0.
        2    1    3    3  502    0 -0.98517724935E+03 -0.82930210142E+03 -0.12930387125E+04  0.18249014494E+04  0.25500000920E-02 0. -1.
       -2    1    3    3    0  502  0.98517724935E+03  0.82930210142E+03  0.63970079158E+02  0.12893441585E+04  0.25500000920E-02 0.  1.
</event>
<event>
 5   0  0.1511126E-06  0.2875200E+04  0.7818609E-02  0.8280295E-01
       -1   -1    0    0    0  501  0.00000000000E+00  0.00000000000E+00  0.13827470602E+04  0.13827470602E+04  0.50400001928E-02 0. -1.
        1   -1    0    0  501    0  0.00000000000E+00  0.00000000000E+00 -0.14946287629E+04  0.14946287629E+04  0.50400001928E-02 0.  1.
    10030    2    1    2    0    0  0.00000000000E+00  0.00000000000E+00 -0.11188170268E+03  0.28773758231E+04  0.28751998386E+04 0.  0.
        5    1    3    3  502    0  0.57111153864E+03 -0.74955594761E+03  0.10305459942E+04  0.13964417798E+04  0.46999998093E+01 0. -1.
       -5    1    3    3    0  502 -0.57111153864E+03  0.74955594761E+03 -0.11424276968E+04  0.14809340433E+04  0.46999998093E+01 0.  1.
</event>
<event>
 5   0  0.1602873E-06  0.2906154E+04  0.7818609E-02  0.8271049E-01
        1   -1    0    0  501    0  0.00000000000E+00  0.00000000000E+00  0.17462873904E+04  0.17462873904E+04  0.50400001928E-02 0. -1.
       -1   -1    0    0    0  501  0.00000000000E+00  0.00000000000E+00 -0.12090982611E+04  0.12090982611E+04  0.50400001928E-02 0.  1.
    10030    2    1    2    0    0  0.00000000000E+00  0.00000000000E+00  0.53718912928E+03  0.29553856515E+04  0.29061541922E+04 0.  0.
        1    1    3    3  502    0  0.40458160050E+03  0.13776951515E+04  0.49531263293E+03  0.15189025006E+04  0.50400001928E-02 0.  1.
       -1    1    3    3    0  502 -0.40458160050E+03 -0.13776951515E+04  0.41876496350E+02  0.14364831509E+04  0.50400001928E-02 0. -1.
</event>
<event>
 5   0  0.1511126E-06  0.2899812E+04  0.7818609E-02  0.8272933E-01
        1   -1    0    0  501    0  0.00000000000E+00  0.00000000000E+00  0.19454771696E+04  0.19454771696E+04  0.50400001928E-02 0. -1.
       -1   -1    0    0    0  501  0.00000000000E+00  0.00000000000E+00 -0.10805714769E+04  0.10805714769E+04  0.50400001928E-02 0.  1.
    10030    2    1    2    0    0  0.00000000000E+00  0.00000000000E+00  0.86490569271E+03  0.30260486466E+04  0.28998118136E+04 0.  0.
        5    1    3    3  502    0 -0.14093696884E+04  0.23304915336E+03  0.69138825976E+03  0.15870332832E+04  0.46999998093E+01 0. -1.
       -5    1    3    3    0  502  0.14093696884E+04 -0.23304915336E+03  0.17351743295E+03  0.14390153633E+04  0.46999998093E+01 0.  1.
</event>
<event>
 5   0  0.4115143E-06  0.2907318E+04  0.7818609E-02  0.8270704E-01
       -2   -1    0    0    0  501  0.00000000000E+00  0.00000000000E+00  0.96600877882E+03  0.96600877882E+03  0.25500000920E-02 0.  1.
        2   -1    0    0  501    0  0.00000000000E+00  0.00000000000E+00 -0.21874790890E+04  0.21874790890E+04  0.25500000920E-02 0. -1.
    10030    2    1    2    0    0  0.00000000000E+00  0.00000000000E+00 -0.12214703102E+04  0.31534878679E+04  0.29073176665E+04 0.  0.
        1    1    3    3  502    0  0.24698471931E+03  0.14538694636E+03 -0.21565307140E+04  0.21754915619E+04  0.50400001928E-02 0. -1.
       -1    1    3    3    0  502 -0.24698471931E+03 -0.14538694636E+03  0.93506040374E+03  0.97799630593E+03  0.50400001928E-02 0.  1.
</event>
<event>
 5   0  0.4187518E-06  0.2898945E+04  0.7818609E-02  0.8273191E-01
        2   -1    0    0  501    0  0.00000000000E+00  0.00000000000E+00  0.10462367523E+04  0.10462367523E+04  0.25500000920E-02 0. -1.
       -2   -1    0    0    0  501  0.00000000000E+00  0.00000000000E+00 -0.20081218730E+04  0.20081218730E+04  0.25500000920E-02 0.  1.
    10030    2    1    2    0    0  0.00000000000E+00  0.00000000000E+00 -0.96188512069E+03  0.30543586252E+04  0.28989452610E+04 0.  0.
        3    1    3    3  502    0  0.39247669812E+03  0.13803047585E+04 -0.69607449060E+03  0.15949291181E+04  0.10100000352E+00 0. -1.
       -3    1    3    3    0  502 -0.39247669812E+03 -0.13803047585E+04 -0.26581063010E+03  0.14594295071E+04  0.10100000352E+00 0.  1.
</event>
<event>
 5   0  0.4148677E-06  0.2907991E+04  0.7818609E-02  0.8270504E-01
        2   -1    0    0  501    0  0.00000000000E+00  0.00000000000E+00  0.25010334089E+04  0.25010334089E+04  0.25500000920E-02 0. -1.
       -2   -1    0    0    0  501  0.00000000000E+00  0.00000000000E+00 -0.84529198979E+03  0.84529198979E+03  0.25500000920E-02 0.  1.
    10030    2    1    2    0    0  0.00000000000E+00  0.00000000000E+00  0.16557414191E+04  0.33463253987E+04  0.29079914076E+04 0.  0.
        5    1    3    3  502    0  0.46076096251E+03  0.32648266395E+03 -0.71393709410E+03  0.91028559187E+03  0.46999998093E+01 0.  1.
       -5    1    3    3    0  502 -0.46076096251E+03 -0.32648266395E+03  0.23696785132E+04  0.24360398068E+04  0.46999998093E+01 0. -1.
</event>
<event>
 5   0  0.1511126E-06  0.2890037E+04  0.7818609E-02  0.8275848E-01
       -1   -1    0    0    0  501  0.00000000000E+00  0.00000000000E+00  0.10526040327E+04  0.10526040327E+04  0.50400001928E-02 0. -1.
        1   -1    0    0  501    0  0.00000000000E+00  0.00000000000E+00 -0.19837268165E+04  0.19837268165E+04  0.50400001928E-02 0.  1.
    10030    2    1    2    0    0  0.00000000000E+00  0.00000000000E+00 -0.93112278376E+03  0.30363308492E+04  0.28900372640E+04 0.  0.
        5    1    3    3  502    0  0.98770232459E+03  0.26712377724E+03 -0.15375777624E+04  0.18469105175E+04  0.46999998093E+01 0.  1.
       -5    1    3    3    0  502 -0.98770232459E+03 -0.26712377724E+03  0.60645497860E+03  0.11894203317E+04  0.46999998093E+01 0. -1.
</event>
<event>
 5   0  0.4187518E-06  0.2895763E+04  0.7818609E-02  0.8274139E-01
        2   -1    0    0  501    0  0.00000000000E+00  0.00000000000E+00  0.21341791167E+04  0.21341791167E+04  0.25500000920E-02 0. -1.
       -2   -1    0    0    0  501  0.00000000000E+00  0.00000000000E+00 -0.98227953333E+03  0.98227953334E+03  0.25500000920E-02 0.  1.
    10030    2    1    2    0    0  0.00000000000E+00  0.00000000000E+00  0.11518995834E+04  0.31164586501E+04  0.28957627436E+04 0.  0.
        3    1    3    3  502    0  0.35686535766E+03  0.86816319071E+02  0.20832136413E+04  0.21153413536E+04  0.10100000352E+00 0. -1.
       -3    1    3    3    0  502 -0.35686535766E+03 -0.86816319071E+02 -0.93131405787E+03  0.10011172965E+04  0.10100000352E+00 0.  1.
</event>
<event>
 5   0  0.4224163E-06  0.2915247E+04  0.7818609E-02  0.8268355E-01
        2   -1    0    0  501    0  0.00000000000E+00  0.00000000000E+00  0.22498871556E+04  0.22498871556E+04  0.25500000920E-02 0. -1.
       -2   -1    0    0    0  501  0.00000000000E+00  0.00000000000E+00 -0.94434344797E+03  0.94434344797E+03  0.25500000920E-02 0.  1.
    10030    2    1    2    0    0  0.00000000000E+00  0.00000000000E+00  0.13055437077E+04  0.31942306036E+04  0.29152469495E+04 0.  0.
        4    1    3    3  502    0 -0.14209723601E+04  0.10580313581E+03  0.98925614308E+03  0.17346429262E+04  0.12699999809E+01 0.  1.
       -4    1    3    3    0  502  0.14209723601E+04 -0.10580313581E+03  0.31628756460E+03  0.14595876775E+04  0.12699999809E+01 0. -1.
</event>
<event>
 5   0  0.4148677E-06  0.2876780E+04  0.7818609E-02  0.8279820E-01
       -2   -1    0    0    0  501  0.00000000000E+00  0.00000000000E+00  0.17134744818E+04  0.17134744818E+04  0.25500000920E-02 0. -1.
        2   -1    0    0  501    0  0.00000000000E+00  0.00000000000E+00 -0.12074684946E+04  0.12074684946E+04  0.25500000920E-02 0.  1.
    10030    2    1    2    0    0  0.00000000000E+00  0.00000000000E+00  0.50600598722E+03  0.29209429764E+04  0.28767804595E+04 0.  0.
        5    1    3    3  502    0  0.87492661974E+03 -0.11285191317E+04  0.77454812732E+02  0.14300606136E+04  0.46999998093E+01 0. -1.
       -5    1    3    3    0  502 -0.87492661974E+03  0.11285191317E+04  0.42855117448E+03  0.14908823628E+04  0.46999998093E+01 0.  1.
</event>
<event>
 5   0  0.1511126E-06  0.2750500E+04  0.7818609E-02  0.8318803E-01
        1   -1    0    0  501    0  0.00000000000E+00  0.00000000000E+00  0.16206498325E+04  0.16206498325E+04  0.50400001928E-02 0. -1.
       -1   -1    0    0    0  501  0.00000000000E+00  0.00000000000E+00 -0.11670089873E+04  0.11670089874E+04  0.50400001928E-02 0.  1.
    10030    2    1    2    0    0  0.00000000000E+00  0.00000000000E+00  0.45364084514E+03  0.27876588198E+04  0.27505002599E+04 0.  0.
        5    1    3    3  502    0  0.89683561399E+03 -0.42235065831E+03  0.11929013111E+04  0.15510415291E+04  0.46999998093E+01 0. -1.
       -5    1    3    3    0  502 -0.89683561399E+03  0.42235065831E+03 -0.73926046597E+03  0.12366172907E+04  0.46999998093E+01 0.  1.
</event>
<event>
 5   0  0.4187518E-06  0.2913338E+04  0.7818609E-02  0.8268920E-01
        2   -1    0    0  501    0  0.00000000000E+00  0.00000000000E+00  0.17747865433E+04  0.17747865433E+04  0.25500000920E-02 0.  1.
       -2   -1    0    0    0  501  0.00000000000E+00  0.00000000000E+00 -0.11955719399E+04  0.11955719400E+04  0.25500000920E-02 0. -1.
    10030    2    1    2    0    0  0.00000000000E+00  0.00000000000E+00  0.57921460338E+03  0.29703584833E+04  0.29133382849E+04 0.  0.
        3    1    3    3  502    0  0.11783425521E+04  0.37463647833E+02  0.11619168147E+04  0.16552780400E+04  0.10100000352E+00 0.  1.
       -3    1    3    3    0  502 -0.11783425521E+04 -0.37463647833E+02 -0.58270221133E+03  0.13150804433E+04  0.10100000352E+00 0. -1.
</event>
<event>
 5   0  0.4115143E-06  0.2932182E+04  0.7818609E-02  0.8263366E-01
        2   -1    0    0  501    0  0.00000000000E+00  0.00000000000E+00  0.21084585702E+04  0.21084585703E+04  0.25500000920E-02 0. -1.
       -2   -1    0    0    0  501  0.00000000000E+00  0.00000000000E+00 -0.10194283712E+04  0.10194283712E+04  0.25500000920E-02 0.  1.
    10030    2    1    2    0    0  0.00000000000E+00  0.00000000000E+00  0.10890301990E+04  0.31278869415E+04  0.29321817720E+04 0.  0.
        1    1    3    3  502    0 -0.89154487727E+02 -0.41322236402E+03  0.20420355300E+04  0.20853321919E+04  0.50400001928E-02 0. -1.
       -1    1    3    3    0  502  0.89154487727E+02  0.41322236402E+03 -0.95300533101E+03  0.10425547495E+04  0.50400001928E-02 0.  1.
</event>
<event>
 5   0  0.4224163E-06  0.2963715E+04  0.7818609E-02  0.8254169E-01
        2   -1    0    0  501    0  0.00000000000E+00  0.00000000000E+00  0.17246242390E+04  0.17246242390E+04  0.25500000920E-02 0. -1.
       -2   -1    0    0    0  501  0.00000000000E+00  0.00000000000E+00 -0.12732641346E+04  0.12732641346E+04  0.25500000920E-02 0.  1.
    10030    2    1    2    0    0  0.00000000000E+00  0.00000000000E+00  0.45136010438E+03  0.29978883736E+04  0.29637153636E+04 0.  0.
        4    1    3    3  502    0 -0.88037476205E+03  0.11851977064E+04  0.35421708489E+03  0.15182966380E+04  0.12699999809E+01 0. -1.
       -4    1    3    3    0  502  0.88037476205E+03 -0.11851977064E+04  0.97143019492E+02  0.14795917356E+04  0.12699999809E+01 0.  1.
</event>
<event>
 5   0  0.4115143E-06  0.2890530E+04  0.7818609E-02  0.8275701E-01
        2   -1    0    0  501    0  0.00000000000E+00  0.00000000000E+00  0.19600831335E+04  0.19600831335E+04  0.25500000920E-02 0.  1.
       -2   -1    0    0    0  501  0.00000000000E+00  0.00000000000E+00 -0.10656645856E+04  0.10656645856E+04  0.25500000920E-02 0. -1.
    10030    2    1    2    0    0  0.00000000000E+00  0.00000000000E+00  0.89441854795E+03  0.30257477191E+04  0.28905301798E+04 0.  0.
        1    1    3    3  502    0  0.72043591491E+03  0.11135641123E+04 -0.15388122649E+03  0.13351900133E+04  0.50400001928E-02 0. -1.
       -1    1    3    3    0  502 -0.72043591491E+03 -0.11135641123E+04  0.10482997744E+04  0.16905577058E+04  0.50400001928E-02 0.  1.
</event>
<event>
 5   0  0.4187518E-06  0.2895517E+04  0.7818609E-02  0.8274213E-01
        2   -1    0    0  501    0  0.00000000000E+00  0.00000000000E+00  0.11333475176E+04  0.11333475176E+04  0.25500000920E-02 0. -1.
       -2   -1    0    0    0  501  0.00000000000E+00  0.00000000000E+00 -0.18493923047E+04  0.18493923047E+04  0.25500000920E-02 0.  1.
    10030    2    1    2    0    0  0.00000000000E+00  0.00000000000E+00 -0.71604478708E+03  0.29827398224E+04  0.28955166570E+04 0.  0.
        3    1    3    3  502    0  0.27687823083E+03 -0.10910400780E+03 -0.18175438224E+04  0.18417466698E+04  0.10100000352E+00 0.  1.
       -3    1    3    3    0  502 -0.27687823083E+03  0.10910400780E+03  0.11014990353E+04  0.11409931526E+04  0.10100000352E+00 0. -1.
</event>
<event>
 5   0  0.4162450E-06  0.2904656E+04  0.7818609E-02  0.8271493E-01
       -2   -1    0    0    0  501  0.00000000000E+00  0.00000000000E+00  0.25204860859E+04  0.25204860859E+04  0.25500000920E-02 0.  1.
        2   -1    0    0  501    0  0.00000000000E+00  0.00000000000E+00 -0.83684536958E+03  0.83684536958E+03  0.25500000920E-02 0. -1.
    10030    2    1    2    0    0  0.00000000000E+00  0.00000000000E+00  0.16836407163E+04  0.33573314555E+04  0.29046563377E+04 0.  0.
        2    1    3    3  502    0 -0.13087733691E+04  0.58070331162E+03  0.56070277798E+03  0.15376903697E+04  0.25500000920E-02 0. -1.
       -2    1    3    3    0  502  0.13087733691E+04 -0.58070331162E+03  0.11229379383E+04  0.18196410858E+04  0.25500000920E-02 0.  1.
</event>
<event>
 5   0  0.4115143E-06  0.2924217E+04  0.7818609E-02  0.8265709E-01
       -2   -1    0    0    0  501  0.00000000000E+00  0.00000000000E+00  0.99058422971E+03  0.99058422971E+03  0.25500000920E-02 0. -1.
        2   -1    0    0  501    0  0.00000000000E+00  0.00000000000E+00 -0.21580806701E+04  0.21580806701E+04  0.25500000920E-02 0.  1.
    10030    2    1    2    0    0  0.00000000000E+00  0.00000000000E+00 -0.11674964404E+04  0.31486648998E+04  0.29242165981E+04 0.  0.
        1    1    3    3  502    0 -0.41469898187E+03  0.28806889506E+03 -0.20612200220E+04  0.21221656186E+04  0.50400001928E-02 0.  1.
       -1    1    3    3    0  502  0.41469898187E+03 -0.28806889506E+03  0.89372358161E+03  0.10264992812E+04  0.50400001928E-02 0. -1.
</event>
<event>
 5   0  0.4162450E-06  0.2900694E+04  0.7818609E-02  0.8272671E-01
        2   -1    0    0  501    0  0.00000000000E+00  0.00000000000E+00  0.31779962231E+04  0.31779962231E+04  0.25500000920E-02 0. -1.
       -2   -1    0    0    0  501  0.00000000000E+00  0.00000000000E+00 -0.66189702150E+03  0.66189702150E+03  0.25500000920E-02 0.  1.
    10030    2    1    2    0    0  0.00000000000E+00  0.00000000000E+00  0.25160992016E+04  0.38398932446E+04  0.29006938717E+04 0.  0.
        2    1    3    3  502    0  0.35881448590E+03 -0.13708072945E+04  0.84864745415E+03  0.16516848898E+04  0.25500000920E-02 0. -1.
       -2    1    3    3    0  502 -0.35881448590E+03  0.13708072945E+04  0.16674517474E+04  0.21882083547E+04  0.25500000920E-02 0.  1.
</event>
<event>
 5   0  0.1602873E-06  0.2870187E+04  0.7818609E-02  0.8281803E-01
       -1   -1    0    0    0  501  0.00000000000E+00  0.00000000000E+00  0.13789325569E+04  0.13789325569E+04  0.50400001928E-02 0.  1.
        1   -1    0    0  501    0  0.00000000000E+00  0.00000000000E+00 -0.14935417338E+04  0.14935417338E+04  0.50400001928E-02 0. -1.
    10030    2    1    2    0    0  0.00000000000E+00  0.00000000000E+00 -0.11460917688E+03  0.28724742906E+04  0.28701869777E+04 0.  0.
        1    1    3    3  502    0 -0.57929547769E+03  0.82207256950E+03  0.96728213040E+03  0.13953570438E+04  0.50400001928E-02 0.  1.
       -1    1    3    3    0  502  0.57929547769E+03 -0.82207256950E+03 -0.10818913073E+04  0.14771172468E+04  0.50400001928E-02 0. -1.
</event>
<event>
 5   0  0.1550278E-06  0.2911185E+04  0.7818609E-02  0.8269557E-01
       -1   -1    0    0    0  501  0.00000000000E+00  0.00000000000E+00  0.13891017237E+04  0.13891017237E+04  0.50400001928E-02 0. -1.
        1   -1    0    0  501    0  0.00000000000E+00  0.00000000000E+00 -0.15252657076E+04  0.15252657076E+04  0.50400001928E-02 0.  1.
    10030    2    1    2    0    0  0.00000000000E+00  0.00000000000E+00 -0.13616398391E+03  0.29143674313E+04  0.29111847922E+04 0.  0.
        2    1    3    3  502    0 -0.83974875819E+03 -0.10980843175E+04  0.38824753832E+03  0.14358632582E+04  0.25500000920E-02 0. -1.
       -2    1    3    3    0  502  0.83974875819E+03  0.10980843175E+04 -0.52441152222E+03  0.14785041731E+04  0.25500000920E-02 0.  1.
</event>
<event>
 5   0  0.1580212E-06  0.2872648E+04  0.7818609E-02  0.8281062E-01
       -1   -1    0    0    0  501  0.00000000000E+00  0.00000000000E+00  0.14449328046E+04  0.14449328046E+04  0.50400001928E-02 0.  1.
        1   -1    0    0  501    0  0.00000000000E+00  0.00000000000E+00 -0.14277660363E+04  0.14277660363E+04  0.50400001928E-02 0. -1.
    10030    2    1    2    0    0  0.00000000000E+00  0.00000000000E+00  0.17166768302E+02  0.28726988409E+04  0.28726475475E+04 0.  0.
        4    1    3    3  502    0 -0.11652086046E+04 -0.83735920927E+03  0.72949374006E+02  0.14367340608E+04  0.12699999809E+01 0. -1.
       -4    1    3    3    0  502  0.11652086046E+04  0.83735920927E+03 -0.55782605704E+02  0.14359647800E+04  0.12699999809E+01 0.  1.
</event>
<event>
 5   0  0.1360125E-06  0.2890039E+04  0.7818609E-02  0.8275847E-01
       -3   -1    0    0    0  501  0.00000000000E+00  0.00000000000E+00  0.15429963765E+04  0.15429963798E+04  0.10100000352E+00 0.  1.
        3   -1    0    0  501    0  0.00000000000E+00  0.00000000000E+00 -0.13532638375E+04  0.13532638412E+04  0.10100000352E+00 0. -1.
    10030    2    1    2    0    0  0.00000000000E+00  0.00000000000E+00  0.18973253906E+03  0.28962602210E+04  0.28900388979E+04 0.  0.
        4    1    3    3  502    0  0.26904446165E+02  0.13401386351E+04 -0.44609588011E+03  0.14126919543E+04  0.12699999809E+01 0. -1.
       -4    1    3    3    0  502 -0.26904446165E+02 -0.13401386351E+04  0.63582841917E+03  0.14835682668E+04  0.12699999809E+01 0.  1.
</event>
<event>
 5   0  0.4187518E-06  0.2754074E+04  0.7818609E-02  0.8317670E-01
       -2   -1    0    0    0  501  0.00000000000E+00  0.00000000000E+00  0.88531188576E+03  0.88531188577E+03  0.25500000920E-02 0. -1.
        2   -1    0    0  501    0  0.00000000000E+00  0.00000000000E+00 -0.21418783018E+04  0.21418783018E+04  0.25500000920E-02 0.  1.
    10030    2    1    2    0    0  0.00000000000E+00  0.00000000000E+00 -0.12565664160E+04  0.30271901876E+04  0.27540735781E+04 0.  0.
        3    1    3    3  502    0  0.12318588046E+04  0.27324221279E+02  0.47510934220E+02  0.12330774617E+04  0.10100000352E+00 0. -1.
       -3    1    3    3    0  502 -0.12318588046E+04 -0.27324221279E+02 -0.13040773503E+04  0.17941127259E+04  0.10100000352E+00 0.  1.
</event>
<event>
 5   0  0.4187518E-06  0.2898137E+04  0.7818609E-02  0.8273432E-01
        2   -1    0    0  501    0  0.00000000000E+00  0.00000000000E+00  0.17122089350E+04  0.17122089350E+04  0.25500000920E-02 0.  1.
       -2   -1    0    0    0  501  0.00000000000E+00  0.00000000000E+00 -0.12263688911E+04  0.12263688911E+04  0.25500000920E-02 0. -1.
    10030    2    1    2    0    0  0.00000000000E+00  0.00000000000E+00  0.48584004391E+03  0.29385778260E+04  0.28981371761E+04 0.  0.
        3    1    3    3  502    0  0.68759080254E+03 -0.46694082892E+03 -0.96065019062E+03  0.12703006134E+04  0.10100000352E+00 0. -1.
       -3    1    3    3    0  502 -0.68759080254E+03  0.46694082892E+03  0.14464902345E+04  0.16682772126E+04  0.10100000352E+00 0.  1.
</event>
<event>
 5   0  0.1543678E-06  0.2907098E+04  0.7818609E-02  0.8270769E-01
       -1   -1    0    0    0  501  0.00000000000E+00  0.00000000000E+00  0.10470521628E+04  0.10470521628E+04  0.50400001928E-02 0.  1.
        1   -1    0    0  501    0  0.00000000000E+00  0.00000000000E+00 -0.20178594896E+04  0.20178594896E+04  0.50400001928E-02 0. -1.
    10030    2    1    2    0    0  0.00000000000E+00  0.00000000000E+00 -0.97080732680E+03  0.30649116525E+04  0.29070976199E+04 0.  0.
        3    1    3    3  502    0 -0.21995523560E+03 -0.67769321743E+03  0.85032095822E+03  0.11093665511E+04  0.10100000352E+00 0.  1.
       -3    1    3    3    0  502  0.21995523560E+03  0.67769321743E+03 -0.18211282850E+04  0.19555451013E+04  0.10100000352E+00 0. -1.
</event>
<event>
 5   0  0.1580212E-06  0.2902583E+04  0.7818609E-02  0.8272109E-01
        1   -1    0    0  501    0  0.00000000000E+00  0.00000000000E+00  0.21786824123E+04  0.21786824123E+04  0.50400001928E-02 0. -1.
       -1   -1    0    0    0  501  0.00000000000E+00  0.00000000000E+00 -0.96675257935E+03  0.96675257936E+03  0.50400001928E-02 0.  1.
    10030    2    1    2    0    0  0.00000000000E+00  0.00000000000E+00  0.12119298329E+04  0.31454349916E+04  0.29025828785E+04 0.  0.
        4    1    3    3  502    0 -0.22388239487E+03  0.68715675022E+02 -0.94614068549E+03  0.97469430098E+03  0.12699999809E+01 0.  1.
       -4    1    3    3    0  502  0.22388239487E+03 -0.68715675022E+02  0.21580705184E+04  0.21707406907E+04  0.12699999809E+01 0. -1.
</event>
<event>
 5   0  0.1360125E-06  0.2873033E+04  0.7818609E-02  0.8280946E-01
        3   -1    0    0  501    0  0.00000000000E+00  0.00000000000E+00  0.13913620062E+04  0.13913620098E+04  0.10100000352E+00 0.  1.
       -3   -1    0    0    0  501  0.00000000000E+00  0.00000000000E+00 -0.14831368796E+04  0.14831368831E+04  0.10100000352E+00 0. -1.
    10030    2    1    2    0    0  0.00000000000E+00  0.00000000000E+00 -0.91774873446E+02  0.28744988929E+04  0.28730334592E+04 0.  0.
        2    1    3    3  502    0  0.13458801448E+04  0.18305094844E+03 -0.51375754546E+03  0.14521872570E+04  0.25500000920E-02 0. -1.
       -2    1    3    3    0  502 -0.13458801448E+04 -0.18305094844E+03  0.42198267201E+03  0.14223116359E+04  0.25500000920E-02 0.  1.
</event>
<event>
 5   0  0.4224163E-06  0.2905001E+04  0.7818609E-02  0.8271391E-01
       -2   -1    0    0    0  501  0.00000000000E+00  0.00000000000E+00  0.86857280764E+03  0.86857280764E+03  0.25500000920E-02 0.  1.
        2   -1    0    0  501    0  0.00000000000E+00  0.00000000000E+00 -0.24289931782E+04  0.24289931782E+04  0.25500000920E-02 0. -1.
    10030    2    1    2    0    0  0.00000000000E+00  0.00000000000E+00 -0.15604203705E+04  0.32975659858E+04  0.29050008086E+04 0.  0.
        4    1    3    3  502    0 -0.56783092920E+03  0.35320345683E+03  0.68344022628E+03  0.95617822704E+03  0.12699999809E+01 0.  1.
       -4    1    3    3    0  502  0.56783092920E+03 -0.35320345683E+03 -0.22438605968E+04  0.23413877588E+04  0.12699999809E+01 0. -1.
</event>
<event>
 5   0  0.4224163E-06  0.2901088E+04  0.7818609E-02  0.8272554E-01
        2   -1    0    0  501    0  0.00000000000E+00  0.00000000000E+00  0.15677825709E+04  0.15677825709E+04  0.25500000920E-02 0.  1.
       -2   -1    0    0    0  501  0.00000000000E+00  0.00000000000E+00 -0.13420729052E+04  0.13420729052E+04  0.25500000920E-02 0. -1.
    10030    2    1    2    0    0  0.00000000000E+00  0.00000000000E+00  0.22570966575E+03  0.29098554761E+04  0.29010884231E+04 0.  0.
        4    1    3    3  502    0 -0.56086882575E+03 -0.11922353771E+04 -0.49567279790E+03  0.14077258858E+04  0.12699999809E+01 0. -1.
       -4    1    3    3    0  502  0.56086882575E+03  0.11922353771E+04  0.72138246365E+03  0.15021295903E+04  0.12699999809E+01 0.  1.
</event>
<event>
 5   0  0.4187518E-06  0.2901294E+04  0.7818609E-02  0.8272493E-01
        2   -1    0    0  501    0  0.00000000000E+00  0.00000000000E+00  0.15377426354E+04  0.15377426354E+04  0.25500000920E-02 0.  1.
       -2   -1    0    0    0  501  0.00000000000E+00  0.00000000000E+00 -0.13684842710E+04  0.13684842710E+04  0.25500000920E-02 0. -1.
    10030    2    1    2    0    0  0.00000000000E+00  0.00000000000E+00  0.16925836442E+03  0.29062269065E+04  0.29012939248E+04 0.  0.
        3    1    3    3  502    0  0.13455722257E+04  0.41152640337E+03 -0.26875670896E+03  0.14325322943E+04  0.10100000352E+00 0.  1.
       -3    1    3    3    0  502 -0.13455722257E+04 -0.41152640337E+03  0.43801507338E+03  0.14736946122E+04  0.10100000352E+00 0. -1.
</event>
<event>
 5   0  0.1602873E-06  0.2907783E+04  0.7818609E-02  0.8270565E-01
       -1   -1    0    0    0  501  0.00000000000E+00  0.00000000000E+00  0.28683018611E+04  0.28683018611E+04  0.50400001928E-02 0.  1.
        1   -1    0    0  501    0  0.00000000000E+00  0.00000000000E+00 -0.73695213315E+03  0.73695213316E+03  0.50400001928E-02 0. -1.
    10030    2    1    2    0    0  0.00000000000E+00  0.00000000000E+00  0.21313497279E+04  0.36052539943E+04  0.29077834686E+04 0.  0.
        1    1    3    3  502    0 -0.12890811430E+02  0.10757462036E+04 -0.14686142997E+03  0.10858012466E+04  0.50400001928E-02 0. -1.
       -1    1    3    3    0  502  0.12890811430E+02 -0.10757462036E+04  0.22782111579E+04  0.25194527476E+04  0.50400001928E-02 0.  1.
</event>
<event>
 5   0  0.4224163E-06  0.2908318E+04  0.7818609E-02  0.8270407E-01
        2   -1    0    0  501    0  0.00000000000E+00  0.00000000000E+00  0.18257681702E+04  0.18257681702E+04  0.25500000920E-02 0.  1.
       -2   -1    0    0    0  501  0.00000000000E+00  0.00000000000E+00 -0.11581853423E+04  0.11581853423E+04  0.25500000920E-02 0. -1.
    10030    2    1    2    0    0  0.00000000000E+00  0.00000000000E+00  0.66758282787E+03  0.29839535126E+04  0.29083176809E+04 0.  0.
        4    1    3    3  502    0  0.21736605622E+01 -0.11213253122E+04  0.12837213610E+04  0.17044991423E+04  0.12699999809E+01 0.  1.
       -4    1    3    3    0  502 -0.21736605622E+01  0.11213253122E+04 -0.61613853312E+03  0.12794543702E+04  0.12699999809E+01 0. -1.
</event>
<event>
 5   0  0.1580212E-06  0.2876380E+04  0.7818609E-02  0.8279940E-01
       -1   -1    0    0    0  501  0.00000000000E+00  0.00000000000E+00  0.20378046271E+04  0.20378046271E+04  0.50400001928E-02 0. -1.
        1   -1    0    0  501    0  0.00000000000E+00  0.00000000000E+00 -0.10150089426E+04  0.10150089426E+04  0.50400001928E-02 0.  1.
    10030    2    1    2    0    0  0.00000000000E+00  0.00000000000E+00  0.10227956845E+04  0.30528135697E+04  0.28763796132E+04 0.  0.
        4    1    3    3  502    0 -0.39968133881E+03 -0.10341960652E+04  0.14835991230E+04  0.18521270595E+04  0.12699999809E+01 0. -1.
       -4    1    3    3    0  502  0.39968133881E+03  0.10341960652E+04 -0.46080343849E+03  0.12006865102E+04  0.12699999809E+01 0.  1.
</event>
<event>
 5   0  0.4115143E-06  0.2880205E+04  0.7818609E-02  0.8278791E-01
        2   -1    0    0  501    0  0.00000000000E+00  0.00000000000E+00  0.17375705818E+04  0.17375705818E+04  0.25500000920E-02 0. -1.
       -2   -1    0    0    0  501  0.00000000000E+00  0.00000000000E+00 -0.11935606594E+04  0.11935606594E+04  0.25500000920E-02 0.  1.
    10030    2    1    2    0    0  0.00000000000E+00  0.00000000000E+00  0.54400992240E+03  0.29311312412E+04  0.28802054714E+04 0.  0.
        1    1    3    3  502    0  0.29262881513E+03  0.52321803574E+03  0.16045486109E+04  0.17128820687E+04  0.50400001928E-02 0. -1.
       -1    1    3    3    0  502 -0.29262881513E+03 -0.52321803574E+03 -0.10605386885E+04  0.12182491725E+04  0.50400001928E-02 0.  1.
</event>
<event>
 5   0  0.4148677E-06  0.2879361E+04  0.7818609E-02  0.8279045E-01
       -2   -1    0    0    0  501  0.00000000000E+00  0.00000000000E+00  0.10145301581E+04  0.10145301581E+04  0.25500000920E-02 0.  1.
        2   -1    0    0  501    0  0.00000000000E+00  0.00000000000E+00 -0.20429952249E+04  0.20429952249E+04  0.25500000920E-02 0. -1.
    10030    2    1    2    0    0  0.00000000000E+00  0.00000000000E+00 -0.10284650668E+04  0.30575253829E+04  0.28793612267E+04 0.  0.
        5    1    3    3  502    0 -0.74381105950E+03 -0.52023263637E+02 -0.18219782725E+04  0.19686513728E+04  0.46999998093E+01 0. -1.
       -5    1    3    3    0  502  0.74381105950E+03  0.52023263637E+02  0.79351320574E+03  0.10888740101E+04  0.46999998093E+01 0.  1.
</event>
<event>
 5   0  0.1602873E-06  0.2900090E+04  0.7818609E-02  0.8272851E-01
        1   -1    0    0  501    0  0.00000000000E+00  0.00000000000E+00  0.14729410855E+04  0.14729410855E+04  0.50400001928E-02 0. -1.
       -1   -1    0    0    0  501  0.00000000000E+00  0.00000000000E+00 -0.14275050030E+04  0.14275050030E+04  0.50400001928E-02 0.  1.
    10030    2    1    2    0    0  0.00000000000E+00  0.00000000000E+00  0.45436082461E+02  0.29004460885E+04  0.29000901839E+04 0.  0.
        1    1    3    3  502    0  0.11325060315E+04  0.87167053248E+03  0.26820964888E+03  0.14540687206E+04  0.50400001928E-02 0.  1.
       -1    1    3    3    0  502 -0.11325060315E+04 -0.87167053248E+03 -0.22277356642E+03  0.14463773679E+04  0.50400001928E-02 0. -1.
</event>
<event>
 5   0  0.1602873E-06  0.2910051E+04  0.7818609E-02  0.8269893E-01
        1   -1    0    0  501    0  0.00000000000E+00  0.00000000000E+00  0.28981389150E+04  0.28981389150E+04  0.50400001928E-02 0.  1.
       -1   -1    0    0    0  501  0.00000000000E+00  0.00000000000E+00 -0.73050321644E+03  0.73050321646E+03  0.50400001928E-02 0. -1.
    10030    2    1    2    0    0  0.00000000000E+00  0.00000000000E+00  0.21676356986E+04  0.36286421315E+04  0.29100514079E+04 0.  0.
        1    1    3    3  502    0 -0.86114843855E+03  0.25865747101E+03  0.25102468761E+04  0.26664245160E+04  0.50400001928E-02 0.  1.
       -1    1    3    3    0  502  0.86114843855E+03 -0.25865747101E+03 -0.34261117753E+03  0.96221761547E+03  0.50400001928E-02 0. -1.
</event>
<event>
 5   0  0.1580212E-06  0.2896423E+04  0.7818609E-02  0.8273943E-01
       -1   -1    0    0    0  501  0.00000000000E+00  0.00000000000E+00  0.16301664536E+04  0.16301664536E+04  0.50400001928E-02 0.  1.
        1   -1    0    0  501    0  0.00000000000E+00  0.00000000000E+00 -0.12865658172E+04  0.12865658172E+04  0.50400001928E-02 0. -1.
    10030    2    1    2    0    0  0.00000000000E+00  0.00000000000E+00  0.34360063637E+03  0.29167322708E+04  0.28964229219E+04 0.  0.
        4    1    3    3  502    0 -0.92638527921E+03 -0.11031413044E+04  0.21744061298E+02  0.14406890158E+04  0.12699999809E+01 0.  1.
       -4    1    3    3    0  502  0.92638527921E+03  0.11031413044E+04  0.32185657507E+03  0.14760432551E+04  0.12699999809E+01 0. -1.
</event>
<event>
 5   0  0.4224163E-06  0.2900952E+04  0.7818609E-02  0.8272594E-01
       -2   -1    0    0    0  501  0.00000000000E+00  0.00000000000E+00  0.18517493531E+04  0.18517493531E+04  0.25500000920E-02 0. -1.
        2   -1    0    0  501    0  0.00000000000E+00  0.00000000000E+00 -0.11361586381E+04  0.11361586381E+04  0.25500000920E-02 0.  1.
    10030    2    1    2    0    0  0.00000000000E+00  0.00000000000E+00  0.71559071500E+03  0.29879079912E+04  0.29009522733E+04 0.  0.
        4    1    3    3  502    0 -0.65344887850E+02 -0.10030720395E+04 -0.71923335154E+03  0.12360103955E+04  0.12699999809E+01 0.  1.
       -4    1    3    3    0  502  0.65344887850E+02  0.10030720395E+04  0.14348240665E+04  0.17518975957E+04  0.12699999809E+01 0. -1.
</event>
<event>
 5   0  0.1602873E-06  0.2826681E+04  0.7818609E-02  0.8295033E-01
        1   -1    0    0  501    0  0.00000000000E+00  0.00000000000E+00  0.12102400331E+04  0.12102400331E+04  0.50400001928E-02 0.  1.
       -1   -1    0    0    0  501  0.00000000000E+00  0.00000000000E+00 -0.16505243730E+04  0.16505243730E+04  0.50400001928E-02 0. -1.
    10030    2    1    2    0    0  0.00000000000E+00  0.00000000000E+00 -0.44028433990E+03  0.28607644061E+04  0.28266805068E+04 0.  0.
        1    1    3    3  502    0 -0.69915024308E+03  0.82630926300E+03  0.69962451908E+03  0.12888260271E+04  0.50400001928E-02 0.  1.
       -1    1    3    3    0  502  0.69915024308E+03 -0.82630926300E+03 -0.11399088590E+04  0.15719383790E+04  0.50400001928E-02 0. -1.
</event>
<event>
 5   0  0.4115143E-06  0.2910384E+04  0.7818609E-02  0.8269795E-01
       -2   -1    0    0    0  501  0.00000000000E+00  0.00000000000E+00  0.11451904079E+04  0.11451904079E+04  0.25500000920E-02 0. -1.
        2   -1    0    0  501    0  0.00000000000E+00  0.00000000000E+00 -0.18491103944E+04  0.18491103944E+04  0.25500000920E-02 0.  1.
    10030    2    1    2    0    0  0.00000000000E+00  0.00000000000E+00 -0.70391998649E+03  0.29943008023E+04  0.29103838144E+04 0.  0.
        1    1    3    3  502    0 -0.46157495129E+03 -0.12740485515E+04 -0.89766129429E+03  0.16254374631E+04  0.50400001928E-02 0.  1.
       -1    1    3    3    0  502  0.46157495129E+03  0.12740485515E+04  0.19374130781E+03  0.13688633392E+04  0.50400001928E-02 0. -1.
</event>
<event>
 5   0  0.1360125E-06  0.2898926E+04  0.7818609E-02  0.8273197E-01
       -3   -1    0    0    0  501  0.00000000000E+00  0.00000000000E+00  0.10476675436E+04  0.10476675484E+04  0.10100000352E+00 0.  1.
        3   -1    0    0  501    0  0.00000000000E+00  0.00000000000E+00 -0.20053527196E+04  0.20053527221E+04  0.10100000352E+00 0. -1.
    10030    2    1    2    0    0  0.00000000000E+00  0.00000000000E+00 -0.95768517600E+03  0.30530202706E+04  0.28989259867E+04 0.  0.
        1    1    3    3  502    0 -0.20693585218E+03 -0.13059490843E+04 -0.11042233227E+04  0.17226823863E+04  0.50400001928E-02 0. -1.
       -1    1    3    3    0  502  0.20693585218E+03  0.13059490843E+04  0.14653814665E+03  0.13303378842E+04  0.50400001928E-02 0.  1.
</event>
<event>
 5   0  0.4187518E-06  0.2870118E+04  0.7818609E-02  0.8281824E-01
       -2   -1    0    0    0  501  0.00000000000E+00  0.00000000000E+00  0.95759892313E+03  0.95759892314E+03  0.25500000920E-02 0. -1.
        2   -1    0    0  501    0  0.00000000000E+00  0.00000000000E+00 -0.21505805775E+04  0.21505805775E+04  0.25500000920E-02 0.  1.
    10030    2    1    2    0    0  0.00000000000E+00  0.00000000000E+00 -0.11929816543E+04  0.31081795006E+04  0.28701175203E+04 0.  0.
        3    1    3    3  502    0 -0.38018224787E+03  0.13730047794E+04 -0.40981871641E+03  0.14824412488E+04  0.10100000352E+00 0. -1.
       -3    1    3    3    0  502  0.38018224787E+03 -0.13730047794E+04 -0.78316293792E+03  0.16257382518E+04  0.10100000352E+00 0.  1.
</event>
<event>
 5   0  0.1602873E-06  0.2899968E+04  0.7818609E-02  0.8272887E-01
        1   -1    0    0  501    0  0.00000000000E+00  0.00000000000E+00  0.19757704585E+04  0.19757704585E+04  0.50400001928E-02 0. -1.
       -1   -1    0    0    0  501  0.00000000000E+00  0.00000000000E+00 -0.10641187084E+04  0.10641187084E+04  0.50400001928E-02 0.  1.
    10030    2    1    2    0    0  0.00000000000E+00  0.00000000000E+00  0.91165175013E+03  0.30398891669E+04  0.28999684883E+04 0.  0.
        1    1    3    3  502    0 -0.44194616531E+03  0.12802777325E+03 -0.98556296810E+03  0.10876772903E+04  0.50400001928E-02 0.  1.
       -1    1    3    3    0  502  0.44194616531E+03 -0.12802777325E+03  0.18972147182E+04  0.19522118765E+04  0.50400001928E-02 0. -1.
</event>
<event>
 5   0  0.1360125E-06  0.2831908E+04  0.7818609E-02  0.8293430E-01
       -3   -1    0    0    0  501  0.00000000000E+00  0.00000000000E+00  0.19549024317E+04  0.19549024343E+04  0.10100000352E+00 0. -1.
        3   -1    0    0  501    0  0.00000000000E+00  0.00000000000E+00 -0.10255886405E+04  0.10255886455E+04  0.10100000352E+00 0.  1.
    10030    2    1    2    0    0  0.00000000000E+00  0.00000000000E+00  0.92931379117E+03  0.29804910797E+04  0.28319080059E+04 0.  0.
        1    1    3    3  502    0 -0.85054211003E+03  0.96865685651E+03 -0.15191997525E+03  0.12979975599E+04  0.50400001928E-02 0. -1.
       -1    1    3    3    0  502  0.85054211003E+03 -0.96865685651E+03  0.10812337664E+04  0.16824935198E+04  0.50400001928E-02 0.  1.
</event>
<event>
 5   0  0.4148677E-06  0.2879386E+04  0.7818609E-02  0.8279037E-01
       -2   -1    0    0    0  501  0.00000000000E+00  0.00000000000E+00  0.13911414109E+04  0.13911414109E+04  0.25500000920E-02 0.  1.
        2   -1    0    0  501    0  0.00000000000E+00  0.00000000000E+00 -0.14899387837E+04  0.14899387837E+04  0.25500000920E-02 0. -1.
    10030    2    1    2    0    0  0.00000000000E+00  0.00000000000E+00 -0.98797372863E+02  0.28810801946E+04  0.28793857273E+04 0.  0.
        5    1    3    3  502    0  0.10239345705E+04 -0.74701727593E+03 -0.73260108574E+03  0.14639683248E+04  0.46999998093E+01 0. -1.
       -5    1    3    3    0  502 -0.10239345705E+04  0.74701727593E+03  0.63380371288E+03  0.14171118698E+04  0.46999998093E+01 0.  1.
</event>
<event>
 5   0  0.1602873E-06  0.2919780E+04  0.7818609E-02  0.8267016E-01
        1   -1    0    0  501    0  0.00000000000E+00  0.00000000000E+00  0.14629701993E+04  0.14629701993E+04  0.50400001928E-02 0.  1.
       -1   -1    0    0    0  501  0.00000000000E+00  0.00000000000E+00 -0.14568167797E+04  0.14568167797E+04  0.50400001928E-02 0. -1.
    10030    2    1    2    0    0  0.00000000000E+00  0.00000000000E+00  0.61534196170E+01  0.29197869789E+04  0.29197804948E+04 0.  0.
        1    1    3    3  502    0 -0.58336202529E+03 -0.15085725793E+03 -0.13266669584E+04  0.14570910690E+04  0.50400001928E-02 0. -1.
       -1    1    3    3    0  502  0.58336202529E+03  0.15085725793E+03  0.13328203780E+04  0.14626959099E+04  0.50400001928E-02 0.  1.
</event>
<event>
 5   0  0.1511126E-06  0.3029280E+04  0.7818609E-02  0.8235419E-01
       -1   -1    0    0    0  501  0.00000000000E+00  0.00000000000E+00  0.90003358774E+03  0.90003358775E+03  0.50400001928E-02 0. -1.
        1   -1    0    0  501    0  0.00000000000E+00  0.00000000000E+00 -0.25489423817E+04  0.25489423817E+04  0.50400001928E-02 0.  1.
    10030    2    1    2    0    0  0.00000000000E+00  0.00000000000E+00 -0.16489087940E+04  0.34489759695E+04  0.30292796218E+04 0.  0.
        5    1    3    3  502    0  0.88129435498E+03 -0.10505783151E+04 -0.15567771995E+04  0.20746016184E+04  0.46999998093E+01 0.  1.
       -5    1    3    3    0  502 -0.88129435498E+03  0.10505783151E+04 -0.92131594509E+02  0.13743743511E+04  0.46999998093E+01 0. -1.
</event>
<event>
 5   0  0.1543678E-06  0.2900862E+04  0.7818609E-02  0.8272621E-01
        1   -1    0    0  501    0  0.00000000000E+00  0.00000000000E+00  0.18638109006E+04  0.18638109006E+04  0.50400001928E-02 0. -1.
       -1   -1    0    0    0  501  0.00000000000E+00  0.00000000000E+00 -0.11287354426E+04  0.11287354426E+04  0.50400001928E-02 0.  1.
    10030    2    1    2    0    0  0.00000000000E+00  0.00000000000E+00  0.73507545793E+03  0.29925463432E+04  0.29008615423E+04 0.  0.
        3    1    3    3  502    0 -0.42067279198E+03 -0.23313506156E+03 -0.10440793199E+04  0.11495299872E+04  0.10100000352E+00 0.  1.
       -3    1    3    3    0  502  0.42067279198E+03  0.23313506156E+03  0.17791547779E+04  0.18430163560E+04  0.10100000352E+00 0. -1.
</event>
<event>
 5   0  0.4224163E-06  0.2904513E+04  0.7818609E-02  0.8271536E-01
       -2   -1    0    0    0  501  0.00000000000E+00  0.00000000000E+00  0.93696885857E+03  0.93696885857E+03  0.25500000920E-02 0. -1.
        2   -1    0    0  501    0  0.00000000000E+00  0.00000000000E+00 -0.22509274988E+04  0.22509274988E+04  0.25500000920E-02 0.  1.
    10030    2    1    2    0    0  0.00000000000E+00  0.00000000000E+00 -0.13139586402E+04  0.31878963574E+04  0.29045130189E+04 0.  0.
        4    1    3    3  502    0 -0.75621746016E+03 -0.28537637833E+03 -0.19812391221E+04  0.21397697530E+04  0.12699999809E+01 0.  1.
       -4    1    3    3    0  502  0.75621746016E+03  0.28537637833E+03  0.66728048183E+03  0.10481266043E+04  0.12699999809E+01 0. -1.
</event>
<event>
 5   0  0.1550278E-06  0.2897831E+04  0.7818609E-02  0.8273523E-01
       -1   -1    0    0    0  501  0.00000000000E+00  0.00000000000E+00  0.88366359841E+03  0.88366359842E+03  0.50400001928E-02 0. -1.
        1   -1    0    0  501    0  0.00000000000E+00  0.00000000000E+00 -0.23757405336E+04  0.23757405336E+04  0.50400001928E-02 0.  1.
    10030    2    1    2    0    0  0.00000000000E+00  0.00000000000E+00 -0.14920769352E+04  0.32594041320E+04  0.28978305187E+04 0.  0.
        2    1    3    3  502    0  0.78845153278E+03  0.25470827912E+02  0.62094402596E+03  0.10039303093E+04  0.25500000920E-02 0. -1.
       -2    1    3    3    0  502 -0.78845153278E+03 -0.25470827912E+02 -0.21130209611E+04  0.22554738227E+04  0.25500000920E-02 0.  1.
</event>
<event>
 5   0  0.4115143E-06  0.2901746E+04  0.7818609E-02  0.8272358E-01
        2   -1    0    0  501    0  0.00000000000E+00  0.00000000000E+00  0.18592219098E+04  0.18592219098E+04  0.25500000920E-02 0. -1.
       -2   -1    0    0    0  501  0.00000000000E+00  0.00000000000E+00 -0.11322114154E+04  0.11322114154E+04  0.25500000920E-02 0.  1.
    10030    2    1    2    0    0  0.00000000000E+00  0.00000000000E+00  0.72701049440E+03  0.29914333252E+04  0.29017458676E+04 0.  0.
        1    1    3    3  502    0 -0.25624033079E+03 -0.13759744563E+04 -0.30495177001E+02  0.13999624164E+04  0.50400001928E-02 0.  1.
       -1    1    3    3    0  502  0.25624033079E+03  0.13759744563E+04  0.75750567140E+03  0.15914709088E+04  0.50400001928E-02 0. -1.
</event>
<event>
 5   0  0.4115143E-06  0.2879861E+04  0.7818609E-02  0.8278895E-01
       -2   -1    0    0    0  501  0.00000000000E+00  0.00000000000E+00  0.10510986164E+04  0.10510986164E+04  0.25500000920E-02 0.  1.
        2   -1    0    0  501    0  0.00000000000E+00  0.00000000000E+00 -0.19726021190E+04  0.19726021190E+04  0.25500000920E-02 0. -1.
    10030    2    1    2    0    0  0.00000000000E+00  0.00000000000E+00 -0.92150350257E+03  0.30237007355E+04  0.28798606620E+04 0.  0.
        1    1    3    3  502    0 -0.53827795454E+03  0.12944564558E+04 -0.11564220219E+03  0.14066747283E+04  0.50400001928E-02 0.  1.
       -1    1    3    3    0  502  0.53827795454E+03 -0.12944564558E+04 -0.80586130039E+03  0.16170260072E+04  0.50400001928E-02 0. -1.
</event>
<event>
 5   0  0.4224163E-06  0.3188729E+04  0.7818609E-02  0.8191800E-01
        2   -1    0    0  501    0  0.00000000000E+00  0.00000000000E+00  0.27823041512E+04  0.27823041512E+04  0.25500000920E-02 0.  1.
       -2   -1    0    0    0  501  0.00000000000E+00  0.00000000000E+00 -0.91363074245E+03  0.91363074245E+03  0.25500000920E-02 0. -1.
    10030    2    1    2    0    0  0.00000000000E+00  0.00000000000E+00  0.18686734087E+04  0.36959348936E+04  0.31887292813E+04 0.  0.
        4    1    3    3  502    0 -0.52130877398E+03 -0.12199528362E+04 -0.90597393745E+02  0.13297583468E+04  0.12699999809E+01 0. -1.
       -4    1    3    3    0  502  0.52130877398E+03  0.12199528362E+04  0.19592708025E+04  0.23661765468E+04  0.12699999809E+01 0.  1.
</event>
<event>
 5   0  0.4224163E-06  0.2886701E+04  0.7818609E-02  0.8276845E-01
        2   -1    0    0  501    0  0.00000000000E+00  0.00000000000E+00  0.13002667164E+04  0.13002667164E+04  0.25500000920E-02 0.  1.
       -2   -1    0    0    0  501  0.00000000000E+00  0.00000000000E+00 -0.16021798442E+04  0.16021798442E+04  0.25500000920E-02 0. -1.
    10030    2    1    2    0    0  0.00000000000E+00  0.00000000000E+00 -0.30191312771E+03  0.29024465606E+04  0.28867013182E+04 0.  0.
        4    1    3    3  502    0 -0.76330223756E+03 -0.37374393539E+03 -0.13239149847E+04  0.15732346725E+04  0.12699999809E+01 0. -1.
       -4    1    3    3    0  502  0.76330223756E+03  0.37374393539E+03  0.10220018569E+04  0.13292118882E+04  0.12699999809E+01 0.  1.
</event>
<event>
 5   0  0.4187518E-06  0.2918416E+04  0.7818609E-02  0.8267419E-01
       -2   -1    0    0    0  501  0.00000000000E+00  0.00000000000E+00  0.13812157527E+04  0.13812157527E+04  0.25500000920E-02 0. -1.
        2   -1    0    0  501    0  0.00000000000E+00  0.00000000000E+00 -0.15416039017E+04  0.15416039017E+04  0.25500000920E-02 0.  1.
    10030    2    1    2    0    0  0.00000000000E+00  0.00000000000E+00 -0.16038814903E+03  0.29228196544E+04  0.29184157301E+04 0.  0.
        3    1    3    3  502    0  0.56096963108E+03 -0.12429986250E+04  0.43977632070E+03  0.14328767327E+04  0.10100000352E+00 0. -1.
       -3    1    3    3    0  502 -0.56096963108E+03  0.12429986250E+04 -0.60016446973E+03  0.14899429216E+04  0.10100000352E+00 0.  1.
</event>
<event>
 5   0  0.1543678E-06  0.2892911E+04  0.7818609E-02  0.8274990E-01
       -1   -1    0    0    0  501  0.00000000000E+00  0.00000000000E+00  0.16802704717E+04  0.16802704717E+04  0.50400001928E-02 0. -1.
        1   -1    0    0  501    0  0.00000000000E+00  0.00000000000E+00 -0.12451769963E+04  0.12451769963E+04  0.50400001928E-02 0.  1.
    10030    2    1    2    0    0  0.00000000000E+00  0.00000000000E+00  0.43509347541E+03  0.29254474679E+04  0.28929114323E+04 0.  0.
        3    1    3    3  502    0 -0.64446131226E+03  0.53844037265E+03  0.14084957253E+04  0.16398501872E+04  0.10100000352E+00 0. -1.
       -3    1    3    3    0  502  0.64446131226E+03 -0.53844037265E+03 -0.97340224994E+03  0.12855972808E+04  0.10100000352E+00 0.  1.
</event>
<event>
 5   0  0.1580212E-06  0.2902856E+04  0.7818609E-02  0.8272028E-01
       -1   -1    0    0    0  501  0.00000000000E+00  0.00000000000E+00  0.11758131565E+04  0.11758131565E+04  0.50400001928E-02 0. -1.
        1   -1    0    0  501    0  0.00000000000E+00  0.00000000000E+00 -0.17916479303E+04  0.17916479303E+04  0.50400001928E-02 0.  1.
    10030    2    1    2    0    0  0.00000000000E+00  0.00000000000E+00 -0.61583477377E+03  0.29674610868E+04  0.29028559787E+04 0.  0.
        4    1    3    3  502    0  0.27142310863E+03  0.36903193550E+03  0.10999727638E+04  0.11915522512E+04  0.12699999809E+01 0. -1.
       -4    1    3    3    0  502 -0.27142310863E+03 -0.36903193550E+03 -0.17158075376E+04  0.17759088356E+04  0.12699999809E+01 0.  1.
</event>
<event>
 5   0  0.4187518E-06  0.2930127E+04  0.7818609E-02  0.8263970E-01
        2   -1    0    0  501    0  0.00000000000E+00  0.00000000000E+00  0.12940701217E+04  0.12940701217E+04  0.25500000920E-02 0.  1.
       -2   -1    0    0    0  501  0.00000000000E+00  0.00000000000E+00 -0.16586510275E+04  0.16586510275E+04  0.25500000920E-02 0. -1.
    10030    2    1    2    0    0  0.00000000000E+00  0.00000000000E+00 -0.36458090585E+03  0.29527211492E+04  0.29301267802E+04 0.  0.
        3    1    3    3  502    0 -0.14214504816E+04 -0.33697418428E+03 -0.70358953186E+02  0.14625400729E+04  0.10100000352E+00 0. -1.
       -3    1    3    3    0  502  0.14214504816E+04  0.33697418428E+03 -0.29422195267E+03  0.14901810763E+04  0.10100000352E+00 0.  1.
</event>
<event>
 5   0  0.4162450E-06  0.2897150E+04  0.7818609E-02  0.8273726E-01
        2   -1    0    0  501    0  0.00000000000E+00  0.00000000000E+00  0.18070894387E+04  0.18070894387E+04  0.25500000920E-02 0. -1.
       -2   -1    0    0    0  501  0.00000000000E+00  0.00000000000E+00 -0.11611873617E+04  0.11611873617E+04  0.25500000920E-02 0.  1.
    10030    2    1    2    0    0  0.00000000000E+00  0.00000000000E+00  0.64590207708E+03  0.29682768004E+04  0.28971499220E+04 0.  0.
        2    1    3    3  502    0  0.55331271712E+03  0.12388546690E+03  0.16886685248E+04  0.17813208466E+04  0.25500000920E-02 0. -1.
       -2    1    3    3    0  502 -0.55331271712E+03 -0.12388546690E+03 -0.10427664477E+04  0.11869559538E+04  0.25500000920E-02 0.  1.
</event>
<event>
 5   0  0.1602873E-06  0.2900041E+04  0.7818609E-02  0.8272865E-01
        1   -1    0    0  501    0  0.00000000000E+00  0.00000000000E+00  0.10092882556E+04  0.10092882556E+04  0.50400001928E-02 0. -1.
       -1   -1    0    0    0  501  0.00000000000E+00  0.00000000000E+00 -0.20832098227E+04  0.20832098227E+04  0.50400001928E-02 0.  1.
    10030    2    1    2    0    0  0.00000000000E+00  0.00000000000E+00 -0.10739215671E+04  0.30924980783E+04  0.29000408328E+04 0.  0.
        1    1    3    3  502    0  0.11390865656E+04 -0.49492450047E+03  0.26109734049E+03  0.12691100371E+04  0.50400001928E-02 0. -1.
       -1    1    3    3    0  502 -0.11390865656E+04  0.49492450047E+03 -0.13350189076E+04  0.18233880412E+04  0.50400001928E-02 0.  1.
</event>
<event>
 5   0  0.4115143E-06  0.2835705E+04  0.7818609E-02  0.8292268E-01
        2   -1    0    0  501    0  0.00000000000E+00  0.00000000000E+00  0.21088757554E+04  0.21088757554E+04  0.25500000920E-02 0. -1.
       -2   -1    0    0    0  501  0.00000000000E+00  0.00000000000E+00 -0.95325973970E+03  0.95325973971E+03  0.25500000920E-02 0.  1.
    10030    2    1    2    0    0  0.00000000000E+00  0.00000000000E+00  0.11556160157E+04  0.30621354951E+04  0.28357054527E+04 0.  0.
        1    1    3    3  502    0  0.25227324352E+03 -0.13952025839E+04  0.56849908841E+03  0.15275546645E+04  0.50400001928E-02 0.  1.
       -1    1    3    3    0  502 -0.25227324352E+03  0.13952025839E+04  0.58711692728E+03  0.15345808306E+04  0.50400001928E-02 0. -1.
</event>
<event>
 5   0  0.1550278E-06  0.2954919E+04  0.7818609E-02  0.8256723E-01
       -1   -1    0    0    0  501  0.00000000000E+00  0.00000000000E+00  0.10392243940E+04  0.10392243940E+04  0.50400001928E-02 0. -1.
        1   -1    0    0  501    0  0.00000000000E+00  0.00000000000E+00 -0.21004951928E+04  0.21004951928E+04  0.50400001928E-02 0.  1.
    10030    2    1    2    0    0  0.00000000000E+00  0.00000000000E+00 -0.10612707988E+04  0.31397195868E+04  0.29549185058E+04 0.  0.
        2    1    3    3  502    0 -0.92734396953E+03 -0.82197989429E+03 -0.13854805310E+04  0.18588098574E+04  0.25500000920E-02 0.  1.
       -2    1    3    3    0  502  0.92734396953E+03  0.82197989429E+03  0.32420973217E+03  0.12809097294E+04  0.25500000920E-02 0. -1.
</event>
<event>
 5   0  0.4148677E-06  0.2917485E+04  0.7818609E-02  0.8267694E-01
        2   -1    0    0  501    0  0.00000000000E+00  0.00000000000E+00  0.21752758998E+04  0.21752758998E+04  0.25500000920E-02 0. -1.
       -2   -1    0    0    0  501  0.00000000000E+00  0.00000000000E+00 -0.97823439486E+03  0.97823439486E+03  0.25500000920E-02 0.  1.
    10030    2    1    2    0    0  0.00000000000E+00  0.00000000000E+00  0.11970415050E+04  0.31535102947E+04  0.29174850152E+04 0.  0.
        5    1    3    3  502    0 -0.55717501212E+03 -0.10800881751E+04 -0.27351401082E+03  0.12457393244E+04  0.46999998093E+01 0.  1.
       -5    1    3    3    0  502  0.55717501212E+03  0.10800881751E+04  0.14705555158E+04  0.19077709703E+04  0.46999998093E+01 0. -1.
</event>
<event>
 5   0  0.1550278E-06  0.3115912E+04  0.7818609E-02  0.8211384E-01
       -1   -1    0    0    0  501  0.00000000000E+00  0.00000000000E+00  0.12443945627E+04  0.12443945627E+04  0.50400001928E-02 0.  1.
        1   -1    0    0  501    0  0.00000000000E+00  0.00000000000E+00 -0.19505289424E+04  0.19505289424E+04  0.50400001928E-02 0. -1.
    10030    2    1    2    0    0  0.00000000000E+00  0.00000000000E+00 -0.70613437969E+03  0.31949235050E+04  0.31159124572E+04 0.  0.
        2    1    3    3  502    0 -0.56605520984E+02  0.11489788714E+04 -0.14303615215E+04  0.18355627785E+04  0.25500000920E-02 0. -1.
       -2    1    3    3    0  502  0.56605520984E+02 -0.11489788714E+04  0.72422714178E+03  0.13593607265E+04  0.25500000920E-02 0.  1.
</event>
<event>
 5   0  0.1543678E-06  0.2896345E+04  0.7818609E-02  0.8273966E-01
       -1   -1    0    0    0  501  0.00000000000E+00  0.00000000000E+00  0.85027574719E+03  0.85027574721E+03  0.50400001928E-02 0. -1.
        1   -1    0    0  501    0  0.00000000000E+00  0.00000000000E+00 -0.24664974602E+04  0.24664974602E+04  0.50400001928E-02 0.  1.
    10030    2    1    2    0    0  0.00000000000E+00  0.00000000000E+00 -0.16162217130E+04  0.33167732074E+04  0.28963445727E+04 0.  0.
        3    1    3    3  502    0  0.13782108796E+04  0.41770953839E+03 -0.63347336710E+03  0.15732879597E+04  0.10100000352E+00 0.  1.
       -3    1    3    3    0  502 -0.13782108796E+04 -0.41770953839E+03 -0.98274834589E+03  0.17434852477E+04  0.10100000352E+00 0. -1.
</event>
<event>
 5   0  0.1360125E-06  0.2878887E+04  0.7818609E-02  0.8279187E-01
        3   -1    0    0  501    0  0.00000000000E+00  0.00000000000E+00  0.11395150229E+04  0.11395150274E+04  0.10100000352E+00 0.  1.
       -3   -1    0    0    0  501  0.00000000000E+00  0.00000000000E+00 -0.18183155835E+04  0.18183155863E+04  0.10100000352E+00 0. -1.
    10030    2    1    2    0    0  0.00000000000E+00  0.00000000000E+00 -0.67880056053E+03  0.29578306137E+04  0.28788872396E+04 0.  0.
        2    1    3    3  502    0 -0.99693076891E+03  0.10169174624E+04 -0.12387220143E+03  0.14294531841E+04  0.25500000920E-02 0.  1.
       -2    1    3    3    0  502  0.99693076891E+03 -0.10169174624E+04 -0.55492835910E+03  0.15283774295E+04  0.25500000920E-02 0. -1.
</event>
<event>
 5   0  0.4115143E-06  0.2899514E+04  0.7818609E-02  0.8273022E-01
        2   -1    0    0  501    0  0.00000000000E+00  0.00000000000E+00  0.16222503994E+04  0.16222503994E+04  0.25500000920E-02 0.  1.
       -2   -1    0    0    0  501  0.00000000000E+00  0.00000000000E+00 -0.12956048137E+04  0.12956048137E+04  0.25500000920E-02 0. -1.
    10030    2    1    2    0    0  0.00000000000E+00  0.00000000000E+00  0.32664558571E+03  0.29178552131E+04  0.28995140465E+04 0.  0.
        1    1    3    3  502    0  0.12117626037E+04 -0.49146636952E+03 -0.46664637764E+03  0.13884043510E+04  0.50400001928E-02 0. -1.
       -1    1    3    3    0  502 -0.12117626037E+04  0.49146636952E+03  0.79329196335E+03  0.15294508620E+04  0.50400001928E-02 0.  1.
</event>
<event>
 5   0  0.1543678E-06  0.2937767E+04  0.7818609E-02  0.8261729E-01
       -1   -1    0    0    0  501  0.00000000000E+00  0.00000000000E+00  0.18400966055E+04  0.18400966055E+04  0.50400001928E-02 0. -1.
        1   -1    0    0  501    0  0.00000000000E+00  0.00000000000E+00 -0.11725574125E+04  0.11725574125E+04  0.50400001928E-02 0.  1.
    10030    2    1    2    0    0  0.00000000000E+00  0.00000000000E+00  0.66753919297E+03  0.30126540181E+04  0.29377671212E+04 0.  0.
        3    1    3    3  502    0 -0.32972634963E+02 -0.13386574095E+04  0.95292172310E+03  0.16435177745E+04  0.10100000352E+00 0. -1.
       -3    1    3    3    0  502  0.32972634963E+02  0.13386574095E+04 -0.28538253013E+03  0.13691362435E+04  0.10100000352E+00 0.  1.
</event>
<event>
 5   0  0.4162450E-06  0.2925106E+04  0.7818609E-02  0.8265447E-01
       -2   -1    0    0    0  501  0.00000000000E+00  0.00000000000E+00  0.86169721338E+03  0.86169721338E+03  0.25500000920E-02 0. -1.
        2   -1    0    0  501    0  0.00000000000E+00  0.00000000000E+00 -0.24823813552E+04  0.24823813552E+04  0.25500000920E-02 0.  1.
    10030    2    1    2    0    0  0.00000000000E+00  0.00000000000E+00 -0.16206841418E+04  0.33440785686E+04  0.29251058759E+04 0.  0.
        2    1    3    3  502    0  0.84621033333E+03 -0.11092742619E+04 -0.13119333777E+04  0.19151319808E+04  0.25500000920E-02 0. -1.
       -2    1    3    3    0  502 -0.84621033333E+03  0.11092742619E+04 -0.30875076409E+03  0.14289465878E+04  0.25500000920E-02 0.  1.
</event>
<event>
 5   0  0.1580212E-06  0.2892129E+04  0.7818609E-02  0.8275223E-01
        1   -1    0    0  501    0  0.00000000000E+00  0.00000000000E+00  0.13904204350E+04  0.13904204350E+04  0.50400001928E-02 0. -1.
       -1   -1    0    0    0  501  0.00000000000E+00  0.00000000000E+00 -0.15039356430E+04  0.15039356430E+04  0.50400001928E-02 0.  1.
    10030    2    1    2    0    0  0.00000000000E+00  0.00000000000E+00 -0.11351520798E+03  0.28943560780E+04  0.28921292163E+04 0.  0.
        4    1    3    3  502    0  0.85746663868E+03 -0.11625307920E+04  0.94322604163E+01  0.14445821054E+04  0.12699999809E+01 0.  1.
       -4    1    3    3    0  502 -0.85746663868E+03  0.11625307920E+04 -0.12294746840E+03  0.14497739726E+04  0.12699999809E+01 0. -1.
</event>
<event>
 5   0  0.1511126E-06  0.2620128E+04  0.7818609E-02  0.8361396E-01
        1   -1    0    0  501    0  0.00000000000E+00  0.00000000000E+00  0.22481247797E+04  0.22481247797E+04  0.50400001928E-02 0.  1.
       -1   -1    0    0    0  501  0.00000000000E+00  0.00000000000E+00 -0.76342189168E+03  0.76342189170E+03  0.50400001928E-02 0. -1.
    10030    2    1    2    0    0  0.00000000000E+00  0.00000000000E+00  0.14847028880E+04  0.30115466714E+04  0.26201279908E+04 0.  0.
        5    1    3    3  502    0  0.38500838123E+03  0.33955553538E+03 -0.64299207133E+03  0.82279420818E+03  0.46999998093E+01 0. -1.
       -5    1    3    3    0  502 -0.38500838123E+03 -0.33955553538E+03  0.21276949593E+04  0.21887524632E+04  0.46999998093E+01 0.  1.
</event>
<event>
 5   0  0.4148677E-06  0.2959992E+04  0.7818609E-02  0.8255249E-01
       -2   -1    0    0    0  501  0.00000000000E+00  0.00000000000E+00  0.92964034731E+03  0.92964034731E+03  0.25500000920E-02 0.  1.
        2   -1    0    0  501    0  0.00000000000E+00  0.00000000000E+00 -0.23561672023E+04  0.23561672023E+04  0.25500000920E-02 0. -1.
    10030    2    1    2    0    0  0.00000000000E+00  0.00000000000E+00 -0.14265268550E+04  0.32858075496E+04  0.29599919569E+04 0.  0.
        5    1    3    3  502    0  0.11637023844E+04  0.46253561035E+03  0.16237502213E+03  0.12627470721E+04  0.46999998093E+01 0.  1.
       -5    1    3    3    0  502 -0.11637023844E+04 -0.46253561035E+03 -0.15889018771E+04  0.20230604775E+04  0.46999998093E+01 0. -1.
</event>
<event>
 5   0  0.1511126E-06  0.2896277E+04  0.7818609E-02  0.8273986E-01
        1   -1    0    0  501    0  0.00000000000E+00  0.00000000000E+00  0.16772207849E+04  0.16772207849E+04  0.50400001928E-02 0. -1.
       -1   -1    0    0    0  501  0.00000000000E+00  0.00000000000E+00 -0.12503453696E+04  0.12503453696E+04  0.50400001928E-02 0.  1.
    10030    2    1    2    0    0  0.00000000000E+00  0.00000000000E+00  0.42687541533E+03  0.29275661545E+04  0.28962770877E+04 0.  0.
        5    1    3    3  502    0  0.24623694194E+03 -0.11361962223E+04 -0.65931852078E+03  0.13365244064E+04  0.46999998093E+01 0.  1.
       -5    1    3    3    0  502 -0.24623694194E+03  0.11361962223E+04  0.10861939361E+04  0.15910417480E+04  0.46999998093E+01 0. -1.
</event>
<event>
 5   0  0.1550278E-06  0.2921432E+04  0.7818609E-02  0.8266529E-01
        1   -1    0    0  501    0  0.00000000000E+00  0.00000000000E+00  0.18553650332E+04  0.18553650332E+04  0.50400001928E-02 0.  1.
       -1   -1    0    0    0  501  0.00000000000E+00  0.00000000000E+00 -0.11500112938E+04  0.11500112938E+04  0.50400001928E-02 0. -1.
    10030    2    1    2    0    0  0.00000000000E+00  0.00000000000E+00  0.70535373938E+03  0.30053763270E+04  0.29214316643E+04 0.  0.
        2    1    3    3  502    0  0.14529603714E+04 -0.97908422611E+02  0.23533423530E+03  0.14751481628E+04  0.25500000920E-02 0. -1.
       -2    1    3    3    0  502 -0.14529603714E+04  0.97908422611E+02  0.47001950408E+03  0.15302281641E+04  0.25500000920E-02 0.  1.
</event>
<event>
 5   0  0.4115143E-06  0.2899625E+04  0.7818609E-02  0.8272989E-01
        2   -1    0    0  501    0  0.00000000000E+00  0.00000000000E+00  0.26653109378E+04  0.26653109378E+04  0.25500000920E-02 0.  1.
       -2   -1    0    0    0  501  0.00000000000E+00  0.00000000000E+00 -0.78863433526E+03  0.78863433527E+03  0.25500000920E-02 0. -1.
    10030    2    1    2    0    0  0.00000000000E+00  0.00000000000E+00  0.18766766025E+04  0.34539452731E+04  0.28996246100E+04 0.  0.
        1    1    3    3  502    0 -0.12581152427E+04 -0.29141525123E+03  0.15344967568E+03  0.13005089833E+04  0.50400001928E-02 0. -1.
       -1    1    3    3    0  502  0.12581152427E+04  0.29141525123E+03  0.17232269269E+04  0.21534362898E+04  0.50400001928E-02 0.  1.
</event>
<event>
 5   0  0.1602873E-06  0.2867087E+04  0.7818609E-02  0.8282738E-01
        1   -1    0    0  501    0  0.00000000000E+00  0.00000000000E+00  0.99662991023E+03  0.99662991024E+03  0.50400001928E-02 0.  1.
       -1   -1    0    0    0  501  0.00000000000E+00  0.00000000000E+00 -0.20619961915E+04  0.20619961915E+04  0.50400001928E-02 0. -1.
    10030    2    1    2    0    0  0.00000000000E+00  0.00000000000E+00 -0.10653662812E+04  0.30586261017E+04  0.28670870787E+04 0.  0.
        1    1    3    3  502    0  0.29174942118E+03  0.77442492143E+03  0.71607047534E+03  0.10943530552E+04  0.50400001928E-02 0.  1.
       -1    1    3    3    0  502 -0.29174942118E+03 -0.77442492143E+03 -0.17814367566E+04  0.19642730465E+04  0.50400001928E-02 0. -1.
</event>
<event>
 5   0  0.4115143E-06  0.2900895E+04  0.7818609E-02  0.8272611E-01
       -2   -1    0    0    0  501  0.00000000000E+00  0.00000000000E+00  0.14306369611E+04  0.14306369611E+04  0.25500000920E-02 0. -1.
        2   -1    0    0  501    0  0.00000000000E+00  0.00000000000E+00 -0.14705328028E+04  0.14705328028E+04  0.25500000920E-02 0.  1.
    10030    2    1    2    0    0  0.00000000000E+00  0.00000000000E+00 -0.39895841704E+02  0.29011697639E+04  0.29008954343E+04 0.  0.
        1    1    3    3  502    0 -0.44710469480E+02  0.12480792189E+04 -0.75764754135E+03  0.14607294615E+04  0.50400001928E-02 0.  1.
       -1    1    3    3    0  502  0.44710469480E+02 -0.12480792189E+04  0.71775169964E+03  0.14404403025E+04  0.50400001928E-02 0. -1.
</event>
<event>
 5   0  0.4115143E-06  0.2887752E+04  0.7818609E-02  0.8276531E-01
        2   -1    0    0  501    0  0.00000000000E+00  0.00000000000E+00  0.97235229227E+03  0.97235229227E+03  0.25500000920E-02 0. -1.
       -2   -1    0    0    0  501  0.00000000000E+00  0.00000000000E+00 -0.21440557863E+04  0.21440557863E+04  0.25500000920E-02 0.  1.
    10030    2    1    2    0    0  0.00000000000E+00  0.00000000000E+00 -0.11717034941E+04  0.31164080786E+04  0.28877517612E+04 0.  0.
        1    1    3    3  502    0 -0.24755306284E+01  0.14142569104E+04 -0.27186962338E+03  0.14401534047E+04  0.50400001928E-02 0. -1.
       -1    1    3    3    0  502  0.24755306284E+01 -0.14142569104E+04 -0.89983387069E+03  0.16762546739E+04  0.50400001928E-02 0.  1.
</event>
<event>
 5   0  0.1580212E-06  0.2929123E+04  0.7818609E-02  0.8264265E-01
       -1   -1    0    0    0  501  0.00000000000E+00  0.00000000000E+00  0.11923659196E+04  0.11923659196E+04  0.50400001928E-02 0. -1.
        1   -1    0    0  501    0  0.00000000000E+00  0.00000000000E+00 -0.17988940315E+04  0.17988940315E+04  0.50400001928E-02 0.  1.
    10030    2    1    2    0    0  0.00000000000E+00  0.00000000000E+00 -0.60652811190E+03  0.29912599512E+04  0.29291226920E+04 0.  0.
        4    1    3    3  502    0 -0.11847489223E+04  0.71058378533E+03 -0.79976609598E+03  0.15963040894E+04  0.12699999809E+01 0.  1.
       -4    1    3    3    0  502  0.11847489223E+04 -0.71058378533E+03  0.19323798408E+03  0.13949558617E+04  0.12699999809E+01 0. -1.
</event>
<event>
 5   0  0.1511126E-06  0.2898440E+04  0.7818609E-02  0.8273342E-01
       -1   -1    0    0    0  501  0.00000000000E+00  0.00000000000E+00  0.16497194543E+04  0.16497194543E+04  0.50400001928E-02 0. -1.
        1   -1    0    0  501    0  0.00000000000E+00  0.00000000000E+00 -0.12730879305E+04  0.12730879306E+04  0.50400001928E-02 0.  1.
    10030    2    1    2    0    0  0.00000000000E+00  0.00000000000E+00  0.37663152374E+03  0.29228073848E+04  0.28984395292E+04 0.  0.
        5    1    3    3  502    0  0.68463652421E+03 -0.22007280656E+03 -0.10804579648E+04  0.12979101333E+04  0.46999998093E+01 0.  1.
       -5    1    3    3    0  502 -0.68463652421E+03  0.22007280656E+03  0.14570894885E+04  0.16248972515E+04  0.46999998093E+01 0. -1.
</event>
<event>
 5   0  0.4224163E-06  0.2907953E+04  0.7818609E-02  0.8270515E-01
        2   -1    0    0  501    0  0.00000000000E+00  0.00000000000E+00  0.16988986314E+04  0.16988986314E+04  0.25500000920E-02 0.  1.
       -2   -1    0    0    0  501  0.00000000000E+00  0.00000000000E+00 -0.12443637048E+04  0.12443637048E+04  0.25500000920E-02 0. -1.
    10030    2    1    2    0    0  0.00000000000E+00  0.00000000000E+00  0.45453492656E+03  0.29432623362E+04  0.29079530911E+04 0.  0.
        4    1    3    3  502    0  0.10814922405E+04 -0.58977550985E+03 -0.55450063923E+03  0.13509008809E+04  0.12699999809E+01 0.  1.
       -4    1    3    3    0  502 -0.10814922405E+04  0.58977550985E+03  0.10090355658E+04  0.15923614553E+04  0.12699999809E+01 0. -1.
</event>
<event>
 5   0  0.1580212E-06  0.2897385E+04  0.7818609E-02  0.8273656E-01
        1   -1    0    0  501    0  0.00000000000E+00  0.00000000000E+00  0.12866461078E+04  0.12866461078E+04  0.50400001928E-02 0.  1.
       -1   -1    0    0    0  501  0.00000000000E+00  0.00000000000E+00 -0.16311473608E+04  0.16311473608E+04  0.50400001928E-02 0. -1.
    10030    2    1    2    0    0  0.00000000000E+00  0.00000000000E+00 -0.34450125305E+03  0.29177934686E+04  0.28973846158E+04 0.  0.
        4    1    3    3  502    0 -0.10513066397E+04  0.37610640700E+02 -0.11752823035E+04  0.15773237831E+04  0.12699999809E+01 0. -1.
       -4    1    3    3    0  502  0.10513066397E+04 -0.37610640700E+02  0.83078105049E+03  0.13404696855E+04  0.12699999809E+01 0.  1.
</event>
<event>
 5   0  0.1602873E-06  0.2885401E+04  0.7818609E-02  0.8277235E-01
        1   -1    0    0  501    0  0.00000000000E+00  0.00000000000E+00  0.13280390810E+04  0.13280390810E+04  0.50400001928E-02 0.  1.
       -1   -1    0    0    0  501  0.00000000000E+00  0.00000000000E+00 -0.15672611460E+04  0.15672611460E+04  0.50400001928E-02 0. -1.
    10030    2    1    2    0    0  0.00000000000E+00  0.00000000000E+00 -0.23922206495E+03  0.28953002270E+04  0.28854005282E+04 0.  0.
        1    1    3    3  502    0 -0.13048564433E+03 -0.27568796975E+03  0.12953168910E+04  0.13307427281E+04  0.50400001928E-02 0.  1.
       -1    1    3    3    0  502  0.13048564433E+03  0.27568796975E+03 -0.15345389560E+04  0.15645574989E+04  0.50400001928E-02 0. -1.
</event>
<event>
 5   0  0.1511126E-06  0.2810390E+04  0.7818609E-02  0.8300050E-01
        1   -1    0    0  501    0  0.00000000000E+00  0.00000000000E+00  0.12163742000E+04  0.12163742000E+04  0.50400001928E-02 0.  1.
       -1   -1    0    0    0  501  0.00000000000E+00  0.00000000000E+00 -0.16233270523E+04  0.16233270523E+04  0.50400001928E-02 0. -1.
    10030    2    1    2    0    0  0.00000000000E+00  0.00000000000E+00 -0.40695285227E+03  0.28397012523E+04  0.28103901115E+04 0.  0.
        5    1    3    3  502    0 -0.13105636053E+04 -0.40782277796E+02 -0.71402929378E+03  0.14930171065E+04  0.46999998093E+01 0. -1.
       -5    1    3    3    0  502  0.13105636053E+04  0.40782277796E+02  0.30707644151E+03  0.13466841459E+04  0.46999998093E+01 0.  1.
</event>
<event>
 5   0  0.4224163E-06  0.2894077E+04  0.7818609E-02  0.8274642E-01
       -2   -1    0    0    0  501  0.00000000000E+00  0.00000000000E+00  0.19370846834E+04  0.19370846834E+04  0.25500000920E-02 0.  1.
        2   -1    0    0  501    0  0.00000000000E+00  0.00000000000E+00 -0.10809648627E+04  0.10809648627E+04  0.25500000920E-02 0. -1.
    10030    2    1    2    0    0  0.00000000000E+00  0.00000000000E+00  0.85611982062E+03  0.30180495461E+04  0.28940770403E+04 0.  0.
        4    1    3    3  502    0  0.30466088502E+03  0.21193173338E+03 -0.10304900195E+04  0.10952828894E+04  0.12699999809E+01 0. -1.
       -4    1    3    3    0  502 -0.30466088502E+03 -0.21193173338E+03  0.18866098401E+04  0.19227666568E+04  0.12699999809E+01 0.  1.
</event>
<event>
 5   0  0.4162450E-06  0.2893255E+04  0.7818609E-02  0.8274887E-01
       -2   -1    0    0    0  501  0.00000000000E+00  0.00000000000E+00  0.61751986117E+03  0.61751986117E+03  0.25500000920E-02 0. -1.
        2   -1    0    0  501    0  0.00000000000E+00  0.00000000000E+00 -0.33889284390E+04  0.33889284390E+04  0.25500000920E-02 0.  1.
    10030    2    1    2    0    0  0.00000000000E+00  0.00000000000E+00 -0.27714085778E+04  0.40064483002E+04  0.28932546512E+04 0.  0.
        2    1    3    3  502    0 -0.14564077233E+03 -0.28458995107E+02  0.60695233775E+03  0.62482980825E+03  0.25500000920E-02 0. -1.
       -2    1    3    3    0  502  0.14564077233E+03  0.28458995107E+02 -0.33783609156E+04  0.33816184919E+04  0.25500000920E-02 0.  1.
</event>
<event>
 5   0  0.1511126E-06  0.2909264E+04  0.7818609E-02  0.8270126E-01
        1   -1    0    0  501    0  0.00000000000E+00  0.00000000000E+00  0.14823361072E+04  0.14823361073E+04  0.50400001928E-02 0.  1.
       -1   -1    0    0    0  501  0.00000000000E+00  0.00000000000E+00 -0.14274457790E+04  0.14274457790E+04  0.50400001928E-02 0. -1.
    10030    2    1    2    0    0  0.00000000000E+00  0.00000000000E+00  0.54890328258E+02  0.29097818862E+04  0.29092641127E+04 0.  0.
        5    1    3    3  502    0 -0.13599221493E+04  0.47374305693E+03  0.23269278056E+03  0.14587627485E+04  0.46999998093E+01 0. -1.
       -5    1    3    3    0  502  0.13599221493E+04 -0.47374305693E+03 -0.17780245230E+03  0.14510191378E+04  0.46999998093E+01 0.  1.
</event>
<event>
 5   0  0.1602873E-06  0.2908829E+04  0.7818609E-02  0.8270255E-01
       -1   -1    0    0    0  501  0.00000000000E+00  0.00000000000E+00  0.10633036149E+04  0.10633036149E+04  0.50400001928E-02 0. -1.
        1   -1    0    0  501    0  0.00000000000E+00  0.00000000000E+00 -0.19893863131E+04  0.19893863131E+04  0.50400001928E-02 0.  1.
    10030    2    1    2    0    0  0.00000000000E+00  0.00000000000E+00 -0.92608269823E+03  0.30526899280E+04  0.29088290827E+04 0.  0.
        1    1    3    3  502    0  0.83312991309E+03 -0.48822851056E+03 -0.16044184812E+04  0.18726001157E+04  0.50400001928E-02 0.  1.
       -1    1    3    3    0  502 -0.83312991309E+03  0.48822851056E+03  0.67833578293E+03  0.11800898123E+04  0.50400001928E-02 0. -1.
</event>
<event>
 5   0  0.4187518E-06  0.2655456E+04  0.7818609E-02  0.8349604E-01
       -2   -1    0    0    0  501  0.00000000000E+00  0.00000000000E+00  0.11579347913E+04  0.11579347913E+04  0.25500000920E-02 0.  1.
        2   -1    0    0  501    0  0.00000000000E+00  0.00000000000E+00 -0.15224184796E+04  0.15224184796E+04  0.25500000920E-02 0. -1.
    10030    2    1    2    0    0  0.00000000000E+00  0.00000000000E+00 -0.36448368836E+03  0.26803532709E+04  0.26554557608E+04 0.  0.
        3    1    3    3  502    0  0.24264878607E+03  0.59253812588E+03  0.99179800598E+03  0.11805266447E+04  0.10100000352E+00 0.  1.
       -3    1    3    3    0  502 -0.24264878607E+03 -0.59253812588E+03 -0.13562816943E+04  0.14998266262E+04  0.10100000352E+00 0. -1.
</event>
<event>
 5   0  0.4224163E-06  0.2910786E+04  0.7818609E-02  0.8269675E-01
       -2   -1    0    0    0  501  0.00000000000E+00  0.00000000000E+00  0.12178151672E+04  0.12178151672E+04  0.25500000920E-02 0.  1.
        2   -1    0    0  501    0  0.00000000000E+00  0.00000000000E+00 -0.17393190439E+04  0.17393190439E+04  0.25500000920E-02 0. -1.
    10030    2    1    2    0    0  0.00000000000E+00  0.00000000000E+00 -0.52150387670E+03  0.29571342110E+04  0.29107862252E+04 0.  0.
        4    1    3    3  502    0  0.52212733320E+03  0.13151062314E+04  0.85327731504E+02  0.14175344041E+04  0.12699999809E+01 0.  1.
       -4    1    3    3    0  502 -0.52212733320E+03 -0.13151062314E+04 -0.60683160821E+03  0.15395998070E+04  0.12699999809E+01 0. -1.
</event>
<event>
 5   0  0.4224163E-06  0.2890582E+04  0.7818609E-02  0.8275685E-01
        2   -1    0    0  501    0  0.00000000000E+00  0.00000000000E+00  0.11625855925E+04  0.11625855925E+04  0.25500000920E-02 0.  1.
       -2   -1    0    0    0  501  0.00000000000E+00  0.00000000000E+00 -0.17967416833E+04  0.17967416833E+04  0.25500000920E-02 0. -1.
    10030    2    1    2    0    0  0.00000000000E+00  0.00000000000E+00 -0.63415609079E+03  0.29593272757E+04  0.28905819444E+04 0.  0.
        4    1    3    3  502    0 -0.75097140823E+03  0.29265184329E+03  0.91114579755E+03  0.12164667832E+04  0.12699999809E+01 0.  1.
       -4    1    3    3    0  502  0.75097140823E+03 -0.29265184329E+03 -0.15453018883E+04  0.17428604925E+04  0.12699999809E+01 0. -1.
</event>
<event>
 5   0  0.1543678E-06  0.2920806E+04  0.7818609E-02  0.8266714E-01
       -1   -1    0    0    0  501  0.00000000000E+00  0.00000000000E+00  0.89656407616E+03  0.89656407617E+03  0.50400001928E-02 0. -1.
        1   -1    0    0  501    0  0.00000000000E+00  0.00000000000E+00 -0.23788330617E+04  0.23788330617E+04  0.50400001928E-02 0.  1.
    10030    2    1    2    0    0  0.00000000000E+00  0.00000000000E+00 -0.14822689856E+04  0.32753971379E+04  0.29208055508E+04 0.  0.
        3    1    3    3  502    0  0.12468711162E+04  0.34943990798E+03 -0.14983760156E+04  0.19803854483E+04  0.10100000352E+00 0.  1.
       -3    1    3    3    0  502 -0.12468711162E+04 -0.34943990798E+03  0.16107029984E+02  0.12950116896E+04  0.10100000352E+00 0. -1.
</event>
<event>
 5   0  0.1511126E-06  0.2891687E+04  0.7818609E-02  0.8275355E-01
       -1   -1    0    0    0  501  0.00000000000E+00  0.00000000000E+00  0.10569005917E+04  0.10569005917E+04  0.50400001928E-02 0.  1.
        1   -1    0    0  501    0  0.00000000000E+00  0.00000000000E+00 -0.19779193329E+04  0.19779193329E+04  0.50400001928E-02 0. -1.
    10030    2    1    2    0    0  0.00000000000E+00  0.00000000000E+00 -0.92101874124E+03  0.30348199246E+04  0.28916874750E+04 0.  0.
        5    1    3    3  502    0  0.34775964640E+03 -0.65688926794E+03 -0.17620567629E+04  0.19124085357E+04  0.46999998093E+01 0. -1.
       -5    1    3    3    0  502 -0.34775964640E+03  0.65688926794E+03  0.84103802163E+03  0.11224113888E+04  0.46999998093E+01 0.  1.
</event>
<event>
 5   0  0.1543678E-06  0.2896573E+04  0.7818609E-02  0.8273898E-01
       -1   -1    0    0    0  501  0.00000000000E+00  0.00000000000E+00  0.23606163742E+04  0.23606163742E+04  0.50400001928E-02 0.  1.
        1   -1    0    0  501    0  0.00000000000E+00  0.00000000000E+00 -0.88855336006E+03  0.88855336008E+03  0.50400001928E-02 0. -1.
    10030    2    1    2    0    0  0.00000000000E+00  0.00000000000E+00  0.14720630141E+04  0.32491697342E+04  0.28965728792E+04 0.  0.
        3    1    3    3  502    0 -0.12448589555E+04 -0.42937846951E+03  0.14123270259E+04  0.19309861023E+04  0.10100000352E+00 0.  1.
       -3    1    3    3    0  502  0.12448589555E+04  0.42937846951E+03  0.59735988225E+02  0.13181836319E+04  0.10100000352E+00 0. -1.
</event>
<event>
 5   0  0.1550278E-06  0.2901895E+04  0.7818609E-02  0.8272314E-01
        1   -1    0    0  501    0  0.00000000000E+00  0.00000000000E+00  0.95154385954E+03  0.95154385955E+03  0.50400001928E-02 0. -1.
       -1   -1    0    0    0  501  0.00000000000E+00  0.00000000000E+00 -0.22124554317E+04  0.22124554317E+04  0.50400001928E-02 0.  1.
    10030    2    1    2    0    0  0.00000000000E+00  0.00000000000E+00 -0.12609115721E+04  0.31639992912E+04  0.29018948158E+04 0.  0.
        2    1    3    3  502    0 -0.14098546197E+04 -0.24419524836E+03 -0.89287478598E+03  0.16865784155E+04  0.25500000920E-02 0.  1.
       -2    1    3    3    0  502  0.14098546197E+04  0.24419524836E+03 -0.36803678613E+03  0.14774208757E+04  0.25500000920E-02 0. -1.
</event>
<event>
 5   0  0.4187518E-06  0.2912868E+04  0.7818609E-02  0.8269059E-01
       -2   -1    0    0    0  501  0.00000000000E+00  0.00000000000E+00  0.95199435182E+03  0.95199435183E+03  0.25500000920E-02 0.  1.
        2   -1    0    0  501    0  0.00000000000E+00  0.00000000000E+00 -0.22281645946E+04  0.22281645946E+04  0.25500000920E-02 0. -1.
    10030    2    1    2    0    0  0.00000000000E+00  0.00000000000E+00 -0.12761702428E+04  0.31801589464E+04  0.29128680773E+04 0.  0.
        3    1    3    3  502    0 -0.46728195024E+03  0.37433203370E+03  0.81142106032E+03  0.10084051962E+04  0.10100000352E+00 0.  1.
       -3    1    3    3    0  502  0.46728195024E+03 -0.37433203370E+03 -0.20875913031E+04  0.21717537502E+04  0.10100000352E+00 0. -1.
</event>
<event>
 5   0  0.4187518E-06  0.2896562E+04  0.7818609E-02  0.8273901E-01
       -2   -1    0    0    0  501  0.00000000000E+00  0.00000000000E+00  0.14194374447E+04  0.14194374447E+04  0.25500000920E-02 0. -1.
        2   -1    0    0  501    0  0.00000000000E+00  0.00000000000E+00 -0.14777110666E+04  0.14777110666E+04  0.25500000920E-02 0.  1.
    10030    2    1    2    0    0  0.00000000000E+00  0.00000000000E+00 -0.58273621896E+02  0.28971485113E+04  0.28965623904E+04 0.  0.
        3    1    3    3  502    0  0.58017516340E+03 -0.12909665839E+04 -0.33631533346E+03  0.14547528844E+04  0.10100000352E+00 0.  1.
       -3    1    3    3    0  502 -0.58017516340E+03  0.12909665839E+04  0.27804171156E+03  0.14423956269E+04  0.10100000352E+00 0. -1.
</event>
<event>
 5   0  0.1511126E-06  0.2887759E+04  0.7818609E-02  0.8276529E-01
       -1   -1    0    0    0  501  0.00000000000E+00  0.00000000000E+00  0.13727136569E+04  0.13727136569E+04  0.50400001928E-02 0. -1.
        1   -1    0    0  501    0  0.00000000000E+00  0.00000000000E+00 -0.15187351987E+04  0.15187351987E+04  0.50400001928E-02 0.  1.
    10030    2    1    2    0    0  0.00000000000E+00  0.00000000000E+00 -0.14602154178E+03  0.28914488556E+04  0.28877593726E+04 0.  0.
        5    1    3    3  502    0  0.13565209399E+04 -0.46489352549E+02 -0.56603822620E+03  0.14706228897E+04  0.46999998093E+01 0.  1.
       -5    1    3    3    0  502 -0.13565209399E+04  0.46489352549E+02  0.42001668442E+03  0.14208259659E+04  0.46999998093E+01 0. -1.
</event>
<event>
 5   0  0.4162450E-06  0.2737726E+04  0.7818609E-02  0.8322867E-01
        2   -1    0    0  501    0  0.00000000000E+00  0.00000000000E+00  0.19031734942E+04  0.19031734942E+04  0.25500000920E-02 0. -1.
       -2   -1    0    0    0  501  0.00000000000E+00  0.00000000000E+00 -0.98455830604E+03  0.98455830605E+03  0.25500000920E-02 0.  1.
    10030    2    1    2    0    0  0.00000000000E+00  0.00000000000E+00  0.91861518820E+03  0.28877318003E+04  0.27377255316E+04 0.  0.
        2    1    3    3  502    0  0.12768335805E+04 -0.49056018160E+03  0.40317532361E+03  0.14260096864E+04  0.25500000920E-02 0. -1.
       -2    1    3    3    0  502 -0.12768335805E+04  0.49056018160E+03  0.51543986459E+03  0.14617221139E+04  0.25500000920E-02 0.  1.
</event>
<event>
 5   0  0.4115143E-06  0.2892214E+04  0.7818609E-02  0.8275198E-01
       -2   -1    0    0    0  501  0.00000000000E+00  0.00000000000E+00  0.28551846925E+04  0.28551846925E+04  0.25500000920E-02 0.  1.
        2   -1    0    0  501    0  0.00000000000E+00  0.00000000000E+00 -0.73243067382E+03  0.73243067383E+03  0.25500000920E-02 0. -1.
    10030    2    1    2    0    0  0.00000000000E+00  0.00000000000E+00  0.21227540186E+04  0.35876153663E+04  0.28922135801E+04 0.  0.
        1    1    3    3  502    0 -0.12860201691E+04 -0.66127607601E+03  0.10732051193E+04  0.18008062505E+04  0.50400001928E-02 0.  1.
       -1    1    3    3    0  502  0.12860201691E+04  0.66127607601E+03  0.10495488994E+04  0.17868091157E+04  0.50400001928E-02 0. -1.
</event>
<event>
 5   0  0.4224163E-06  0.2945970E+04  0.7818609E-02  0.8259330E-01
        2   -1    0    0  501    0  0.00000000000E+00  0.00000000000E+00  0.13404350043E+04  0.13404350043E+04  0.25500000920E-02 0. -1.
       -2   -1    0    0    0  501  0.00000000000E+00  0.00000000000E+00 -0.16186418359E+04  0.16186418359E+04  0.25500000920E-02 0.  1.
    10030    2    1    2    0    0  0.00000000000E+00  0.00000000000E+00 -0.27820683164E+03  0.29590768402E+04  0.29459695696E+04 0.  0.
        4    1    3    3  502    0 -0.64177873786E+03  0.73123483371E+03 -0.12499616941E+04  0.15839792233E+04  0.12699999809E+01 0.  1.
       -4    1    3    3    0  502  0.64177873786E+03 -0.73123483371E+03  0.97175486244E+03  0.13750976169E+04  0.12699999809E+01 0. -1.
</event>
<event>
 5   0  0.1511126E-06  0.2850901E+04  0.7818609E-02  0.8287638E-01
        1   -1    0    0  501    0  0.00000000000E+00  0.00000000000E+00  0.11324531278E+04  0.11324531278E+04  0.50400001928E-02 0.  1.
       -1   -1    0    0    0  501  0.00000000000E+00  0.00000000000E+00 -0.17942544265E+04  0.17942544265E+04  0.50400001928E-02 0. -1.
    10030    2    1    2    0    0  0.00000000000E+00  0.00000000000E+00 -0.66180129862E+03  0.29267075543E+04  0.28509009365E+04 0.  0.
        5    1    3    3  502    0 -0.49838026906E+03  0.91460459417E+03 -0.13299173826E+04  0.16892562834E+04  0.46999998093E+01 0. -1.
       -5    1    3    3    0  502  0.49838026906E+03 -0.91460459417E+03  0.66811608401E+03  0.12374512709E+04  0.46999998093E+01 0.  1.
</event>
<event>
 5   0  0.4115143E-06  0.2906657E+04  0.7818609E-02  0.8270899E-01
        2   -1    0    0  501    0  0.00000000000E+00  0.00000000000E+00  0.25159142698E+04  0.25159142698E+04  0.25500000920E-02 0.  1.
       -2   -1    0    0    0  501  0.00000000000E+00  0.00000000000E+00 -0.83952153020E+03  0.83952153020E+03  0.25500000920E-02 0. -1.
    10030    2    1    2    0    0  0.00000000000E+00  0.00000000000E+00  0.16763927396E+04  0.33554358000E+04  0.29066573225E+04 0.  0.
        1    1    3    3  502    0  0.10586591351E+04 -0.97709723225E+03  0.61708785385E+03  0.15672509643E+04  0.50400001928E-02 0.  1.
       -1    1    3    3    0  502 -0.10586591351E+04  0.97709723225E+03  0.10593048857E+04  0.17881848357E+04  0.50400001928E-02 0. -1.
</event>
<event>
 5   0  0.4187518E-06  0.2938695E+04  0.7818609E-02  0.8261457E-01
        2   -1    0    0  501    0  0.00000000000E+00  0.00000000000E+00  0.12657417250E+04  0.12657417250E+04  0.25500000920E-02 0.  1.
       -2   -1    0    0    0  501  0.00000000000E+00  0.00000000000E+00 -0.17057047355E+04  0.17057047355E+04  0.25500000920E-02 0. -1.
    10030    2    1    2    0    0  0.00000000000E+00  0.00000000000E+00 -0.43996301053E+03  0.29714464605E+04  0.29386947131E+04 0.  0.
        3    1    3    3  502    0  0.75197545769E+03  0.12478621743E+04 -0.27187814048E+02  0.14571775055E+04  0.10100000352E+00 0. -1.
       -3    1    3    3    0  502 -0.75197545769E+03 -0.12478621743E+04 -0.41277519648E+03  0.15142689550E+04  0.10100000352E+00 0.  1.
</event>
<event>
 5   0  0.1580212E-06  0.2891295E+04  0.7818609E-02  0.8275472E-01
        1   -1    0    0  501    0  0.00000000000E+00  0.00000000000E+00  0.16615325118E+04  0.16615325118E+04  0.50400001928E-02 0. -1.
       -1   -1    0    0    0  501  0.00000000000E+00  0.00000000000E+00 -0.12578123333E+04  0.12578123333E+04  0.50400001928E-02 0.  1.
    10030    2    1    2    0    0  0.00000000000E+00  0.00000000000E+00  0.40372017842E+03  0.29193448451E+04  0.28912945789E+04 0.  0.
        4    1    3    3  502    0 -0.77498463886E+03 -0.75453805433E+02 -0.10279879976E+04  0.12895950540E+04  0.12699999809E+01 0.  1.
       -4    1    3    3    0  502  0.77498463886E+03  0.75453805433E+02  0.14317081760E+04  0.16297497911E+04  0.12699999809E+01 0. -1.
</event>
<event>
 5   0  0.4148677E-06  0.2917319E+04  0.7818609E-02  0.8267743E-01
       -2   -1    0    0    0  501  0.00000000000E+00  0.00000000000E+00  0.88622984523E+03  0.88622984524E+03  0.25500000920E-02 0. -1.
        2   -1    0    0  501    0  0.00000000000E+00  0.00000000000E+00 -0.24008304828E+04  0.24008304828E+04  0.25500000920E-02 0.  1.
    10030    2    1    2    0    0  0.00000000000E+00  0.00000000000E+00 -0.15146006376E+04  0.32870603280E+04  0.29173190619E+04 0.  0.
        5    1    3    3  502    0 -0.10926845188E+04  0.66235514120E+03  0.35424990204E+02  0.12782608539E+04  0.46999998093E+01 0. -1.
       -5    1    3    3    0  502  0.10926845188E+04 -0.66235514120E+03 -0.15500256278E+04  0.20087994742E+04  0.46999998093E+01 0.  1.
</event>
<event>
 5   0  0.4162450E-06  0.2883530E+04  0.7818609E-02  0.8277795E-01
        2   -1    0    0  501    0  0.00000000000E+00  0.00000000000E+00  0.24964706866E+04  0.24964706866E+04  0.25500000920E-02 0. -1.
       -2   -1    0    0    0  501  0.00000000000E+00  0.00000000000E+00 -0.83265022343E+03  0.83265022343E+03  0.25500000920E-02 0.  1.
    10030    2    1    2    0    0  0.00000000000E+00  0.00000000000E+00  0.16638204632E+04  0.33291209100E+04  0.28835303882E+04 0.  0.
        2    1    3    3  502    0 -0.12461336226E+03  0.80228904664E+03 -0.54362369743E+03  0.97709924206E+03  0.25500000920E-02 0.  1.
       -2    1    3    3    0  502  0.12461336226E+03 -0.80228904664E+03  0.22074441606E+04  0.23520216680E+04  0.25500000920E-02 0. -1.
</event>
<event>
 5   0  0.4162450E-06  0.2919977E+04  0.7818609E-02  0.8266958E-01
       -2   -1    0    0    0  501  0.00000000000E+00  0.00000000000E+00  0.23605995264E+04  0.23605995264E+04  0.25500000920E-02 0. -1.
        2   -1    0    0  501    0  0.00000000000E+00  0.00000000000E+00 -0.90297683942E+03  0.90297683943E+03  0.25500000920E-02 0.  1.
    10030    2    1    2    0    0  0.00000000000E+00  0.00000000000E+00  0.14576226870E+04  0.32635763658E+04  0.29199771913E+04 0.  0.
        2    1    3    3  502    0 -0.42018771898E+03 -0.12728061310E+04  0.13756851522E+04  0.19207037263E+04  0.25500000920E-02 0. -1.
       -2    1    3    3    0  502  0.42018771898E+03  0.12728061310E+04  0.81937534715E+02  0.13428726395E+04  0.25500000920E-02 0.  1.
</event>
<event>
 5   0  0.1543678E-06  0.2805271E+04  0.7818609E-02  0.8301634E-01
        1   -1    0    0  501    0  0.00000000000E+00  0.00000000000E+00  0.13255891146E+04  0.13255891146E+04  0.50400001928E-02 0.  1.
       -1   -1    0    0    0  501  0.00000000000E+00  0.00000000000E+00 -0.14841603461E+04  0.14841603461E+04  0.50400001928E-02 0. -1.
    10030    2    1    2    0    0  0.00000000000E+00  0.00000000000E+00 -0.15857123147E+03  0.28097494607E+04  0.28052713231E+04 0.  0.
        3    1    3    3  502    0  0.77151813461E+03  0.86389953356E+02 -0.12493470582E+04  0.14709084057E+04  0.10100000352E+00 0. -1.
       -3    1    3    3    0  502 -0.77151813461E+03 -0.86389953356E+02  0.10907758267E+04  0.13388410550E+04  0.10100000352E+00 0.  1.
</event>
<event>
 5   0  0.1550278E-06  0.2868355E+04  0.7818609E-02  0.8282356E-01
        1   -1    0    0  501    0  0.00000000000E+00  0.00000000000E+00  0.28264850183E+04  0.28264850183E+04  0.50400001928E-02 0.  1.
       -1   -1    0    0    0  501  0.00000000000E+00  0.00000000000E+00 -0.72771116405E+03  0.72771116407E+03  0.50400001928E-02 0. -1.
    10030    2    1    2    0    0  0.00000000000E+00  0.00000000000E+00  0.20987738543E+04  0.35541961824E+04  0.28683547221E+04 0.  0.
        2    1    3    3  502    0  0.49069876850E+03  0.45219185228E+03 -0.52364461024E+03  0.84821367032E+03  0.25500000920E-02 0. -1.
       -2    1    3    3    0  502 -0.49069876850E+03 -0.45219185228E+03  0.26224184645E+04  0.27059825121E+04  0.25500000920E-02 0.  1.
</event>
<event>
 5   0  0.4115143E-06  0.2897545E+04  0.7818609E-02  0.8273608E-01
        2   -1    0    0  501    0  0.00000000000E+00  0.00000000000E+00  0.13118643677E+04  0.13118643677E+04  0.25500000920E-02 0.  1.
       -2   -1    0    0    0  501  0.00000000000E+00  0.00000000000E+00 -0.15999682060E+04  0.15999682060E+04  0.25500000920E-02 0. -1.
    10030    2    1    2    0    0  0.00000000000E+00  0.00000000000E+00 -0.28810383834E+03  0.29118325738E+04  0.28975446702E+04 0.  0.
        1    1    3    3  502    0 -0.36402132416E+03 -0.13795857617E+04 -0.39663345563E+03  0.14809073220E+04  0.50400001928E-02 0. -1.
       -1    1    3    3    0  502  0.36402132416E+03  0.13795857617E+04  0.10852961729E+03  0.14309252517E+04  0.50400001928E-02 0.  1.
</event>
<event>
 5   0  0.1550278E-06  0.2864273E+04  0.7818609E-02  0.8283587E-01
        1   -1    0    0  501    0  0.00000000000E+00  0.00000000000E+00  0.19273186895E+04  0.19273186895E+04  0.50400001928E-02 0.  1.
       -1   -1    0    0    0  501  0.00000000000E+00  0.00000000000E+00 -0.10641804961E+04  0.10641804961E+04  0.50400001928E-02 0. -1.
    10030    2    1    2    0    0  0.00000000000E+00  0.00000000000E+00  0.86313819345E+03  0.29914991856E+04  0.28642730031E+04 0.  0.
        2    1    3    3  502    0  0.46789584782E+03 -0.30406462337E+03  0.18091062325E+04  0.18932108124E+04  0.25500000920E-02 0.  1.
       -2    1    3    3    0  502 -0.46789584782E+03  0.30406462337E+03 -0.94596803910E+03  0.10982883732E+04  0.25500000920E-02 0. -1.
</event>
<event>
 5   0  0.1511126E-06  0.2903658E+04  0.7818609E-02  0.8271790E-01
       -1   -1    0    0    0  501  0.00000000000E+00  0.00000000000E+00  0.12218843429E+04  0.12218843429E+04  0.50400001928E-02 0.  1.
        1   -1    0    0  501    0  0.00000000000E+00  0.00000000000E+00 -0.17250464192E+04  0.17250464192E+04  0.50400001928E-02 0. -1.
    10030    2    1    2    0    0  0.00000000000E+00  0.00000000000E+00 -0.50316207634E+03  0.29469307621E+04  0.29036578382E+04 0.  0.
        5    1    3    3  502    0 -0.25105225146E+03 -0.66546608792E+03 -0.15361100747E+04  0.16927872279E+04  0.46999998093E+01 0. -1.
       -5    1    3    3    0  502  0.25105225146E+03  0.66546608792E+03  0.10329479984E+04  0.12541435342E+04  0.46999998093E+01 0.  1.
</event>
<event>
 5   0  0.4148677E-06  0.2893242E+04  0.7818609E-02  0.8274891E-01
       -2   -1    0    0    0  501  0.00000000000E+00  0.00000000000E+00  0.11067446442E+04  0.11067446442E+04  0.25500000920E-02 0. -1.
        2   -1    0    0  501    0  0.00000000000E+00  0.00000000000E+00 -0.18908721719E+04  0.18908721719E+04  0.25500000920E-02 0.  1.
    10030    2    1    2    0    0  0.00000000000E+00  0.00000000000E+00 -0.78412752770E+03  0.29976168161E+04  0.28932422291E+04 0.  0.
        5    1    3    3  502    0  0.10231716141E+04 -0.87296428099E+03  0.15982873264E+03  0.13544423581E+04  0.46999998093E+01 0. -1.
       -5    1    3    3    0  502 -0.10231716141E+04  0.87296428099E+03 -0.94395626034E+03  0.16431744579E+04  0.46999998093E+01 0.  1.
</event>
<event>
 5   0  0.1550278E-06  0.2898925E+04  0.7818609E-02  0.8273197E-01
       -1   -1    0    0    0  501  0.00000000000E+00  0.00000000000E+00  0.15067318301E+04  0.15067318301E+04  0.50400001928E-02 0.  1.
        1   -1    0    0  501    0  0.00000000000E+00  0.00000000000E+00 -0.13943700435E+04  0.13943700435E+04  0.50400001928E-02 0. -1.
    10030    2    1    2    0    0  0.00000000000E+00  0.00000000000E+00  0.11236178663E+03  0.29011018736E+04  0.28989251301E+04 0.  0.
        2    1    3    3  502    0  0.10316415954E+03  0.16718158593E+02 -0.13905945802E+04  0.13945162700E+04  0.25500000920E-02 0. -1.
       -2    1    3    3    0  502 -0.10316415954E+03 -0.16718158593E+02  0.15029563668E+04  0.15065856037E+04  0.25500000920E-02 0.  1.
</event>
<event>
 5   0  0.1543678E-06  0.2890064E+04  0.7818609E-02  0.8275840E-01
        1   -1    0    0  501    0  0.00000000000E+00  0.00000000000E+00  0.11394320737E+04  0.11394320737E+04  0.50400001928E-02 0. -1.
       -1   -1    0    0    0  501  0.00000000000E+00  0.00000000000E+00 -0.18325951936E+04  0.18325951936E+04  0.50400001928E-02 0.  1.
    10030    2    1    2    0    0  0.00000000000E+00  0.00000000000E+00 -0.69316311991E+03  0.29720272673E+04  0.28900641804E+04 0.  0.
        3    1    3    3  502    0 -0.85486898525E+03 -0.81108791723E+03  0.51347025041E+03  0.12854245601E+04  0.10100000352E+00 0. -1.
       -3    1    3    3    0  502  0.85486898525E+03  0.81108791723E+03 -0.12066333703E+04  0.16866027072E+04  0.10100000352E+00 0.  1.
</event>
<event>
 5   0  0.1511126E-06  0.2964615E+04  0.7818609E-02  0.8253908E-01
        1   -1    0    0  501    0  0.00000000000E+00  0.00000000000E+00  0.19806213560E+04  0.19806213560E+04  0.50400001928E-02 0.  1.
       -1   -1    0    0    0  501  0.00000000000E+00  0.00000000000E+00 -0.11093670418E+04  0.11093670418E+04  0.50400001928E-02 0. -1.
    10030    2    1    2    0    0  0.00000000000E+00  0.00000000000E+00  0.87125431424E+03  0.30899883978E+04  0.29646153576E+04 0.  0.
        5    1    3    3  502    0  0.73614659121E+03 -0.12541070491E+04  0.13622014075E+03  0.14605732817E+04  0.46999998093E+01 0. -1.
       -5    1    3    3    0  502 -0.73614659121E+03  0.12541070491E+04  0.73503417348E+03  0.16294151161E+04  0.46999998093E+01 0.  1.
</event>
<event>
 5   0  0.4162450E-06  0.2857254E+04  0.7818609E-02  0.8285711E-01
        2   -1    0    0  501    0  0.00000000000E+00  0.00000000000E+00  0.10287008068E+04  0.10287008068E+04  0.25500000920E-02 0.  1.
       -2   -1    0    0    0  501  0.00000000000E+00  0.00000000000E+00 -0.19840315657E+04  0.19840315657E+04  0.25500000920E-02 0. -1.
    10030    2    1    2    0    0  0.00000000000E+00  0.00000000000E+00 -0.95533075892E+03  0.30127323725E+04  0.28572538371E+04 0.  0.
        2    1    3    3  502    0  0.10066411125E+04 -0.46562553037E+03  0.47180121453E+03  0.12052924334E+04  0.25500000920E-02 0.  1.
       -2    1    3    3    0  502 -0.10066411125E+04  0.46562553037E+03 -0.14271319735E+04  0.18074399391E+04  0.25500000920E-02 0. -1.
</event>
<event>
 5   0  0.4187518E-06  0.2902144E+04  0.7818609E-02  0.8272240E-01
        2   -1    0    0  501    0  0.00000000000E+00  0.00000000000E+00  0.19572246937E+04  0.19572246937E+04  0.25500000920E-02 0.  1.
       -2   -1    0    0    0  501  0.00000000000E+00  0.00000000000E+00 -0.10758144521E+04  0.10758144521E+04  0.25500000920E-02 0. -1.
    10030    2    1    2    0    0  0.00000000000E+00  0.00000000000E+00  0.88141024163E+03  0.30330391458E+04  0.29021444564E+04 0.  0.
        3    1    3    3  502    0 -0.28901601549E+02 -0.40524884093E+03  0.18965706389E+04  0.19395984441E+04  0.10100000352E+00 0.  1.
       -3    1    3    3    0  502  0.28901601549E+02  0.40524884093E+03 -0.10151603973E+04  0.10934407017E+04  0.10100000352E+00 0. -1.
</event>
<event>
 5   0  0.1543678E-06  0.2906746E+04  0.7818609E-02  0.8270873E-01
        1   -1    0    0  501    0  0.00000000000E+00  0.00000000000E+00  0.19111081645E+04  0.19111081645E+04  0.50400001928E-02 0.  1.
       -1   -1    0    0    0  501  0.00000000000E+00  0.00000000000E+00 -0.11052715883E+04  0.11052715883E+04  0.50400001928E-02 0. -1.
    10030    2    1    2    0    0  0.00000000000E+00  0.00000000000E+00  0.80583657619E+03  0.30163797528E+04  0.29067463298E+04 0.  0.
        3    1    3    3  502    0  0.38101338002E+03  0.49588464166E+03 -0.95851753396E+03  0.11444774557E+04  0.10100000352E+00 0. -1.
       -3    1    3    3    0  502 -0.38101338002E+03 -0.49588464166E+03  0.17643541101E+04  0.18719022971E+04  0.10100000352E+00 0.  1.
</event>
<event>
 5   0  0.4115143E-06  0.2889520E+04  0.7818609E-02  0.8276003E-01
       -2   -1    0    0    0  501  0.00000000000E+00  0.00000000000E+00  0.14669936278E+04  0.14669936278E+04  0.25500000920E-02 0.  1.
        2   -1    0    0  501    0  0.00000000000E+00  0.00000000000E+00 -0.14228630421E+04  0.14228630421E+04  0.25500000920E-02 0. -1.
    10030    2    1    2    0    0  0.00000000000E+00  0.00000000000E+00  0.44130585687E+02  0.28898566698E+04  0.28895196943E+04 0.  0.
        1    1    3    3  502    0 -0.11709314916E+04 -0.55004415485E+03  0.66533691744E+03  0.14547516434E+04  0.50400001928E-02 0. -1.
       -1    1    3    3    0  502  0.11709314916E+04  0.55004415485E+03 -0.62120633175E+03  0.14351050264E+04  0.50400001928E-02 0.  1.
</event>
<event>
 5   0  0.4115143E-06  0.2909079E+04  0.7818609E-02  0.8270181E-01
        2   -1    0    0  501    0  0.00000000000E+00  0.00000000000E+00  0.22082486041E+04  0.22082486041E+04  0.25500000920E-02 0.  1.
       -2   -1    0    0    0  501  0.00000000000E+00  0.00000000000E+00 -0.95808318842E+03  0.95808318842E+03  0.25500000920E-02 0. -1.
    10030    2    1    2    0    0  0.00000000000E+00  0.00000000000E+00  0.12501654156E+04  0.31663317925E+04  0.29090794856E+04 0.  0.
        1    1    3    3  502    0 -0.90578493486E+03  0.11293312381E+04  0.47173184288E+03  0.15226182467E+04  0.50400001928E-02 0.  1.
       -1    1    3    3    0  502  0.90578493486E+03 -0.11293312381E+04  0.77843357277E+03  0.16437135458E+04  0.50400001928E-02 0. -1.
</event>
<event>
 5   0  0.4148677E-06  0.2907678E+04  0.7818609E-02  0.8270597E-01
       -2   -1    0    0    0  501  0.00000000000E+00  0.00000000000E+00  0.91183389533E+03  0.91183389533E+03  0.25500000920E-02 0.  1.
        2   -1    0    0  501    0  0.00000000000E+00  0.00000000000E+00 -0.23180186300E+04  0.23180186300E+04  0.25500000920E-02 0. -1.
    10030    2    1    2    0    0  0.00000000000E+00  0.00000000000E+00 -0.14061847346E+04  0.32298525253E+04  0.29076780818E+04 0.  0.
        5    1    3    3  502    0  0.41241163816E+02 -0.99083098738E+03  0.47779909988E+03  0.11008001403E+04  0.46999998093E+01 0.  1.
       -5    1    3    3    0  502 -0.41241163816E+02  0.99083098738E+03 -0.18839838345E+04  0.21290523849E+04  0.46999998093E+01 0. -1.
</event>
<event>
 5   0  0.4187518E-06  0.2874240E+04  0.7818609E-02  0.8280583E-01
        2   -1    0    0  501    0  0.00000000000E+00  0.00000000000E+00  0.91064719374E+03  0.91064719374E+03  0.25500000920E-02 0. -1.
       -2   -1    0    0    0  501  0.00000000000E+00  0.00000000000E+00 -0.22679624064E+04  0.22679624064E+04  0.25500000920E-02 0.  1.
    10030    2    1    2    0    0  0.00000000000E+00  0.00000000000E+00 -0.13573152127E+04  0.31786096002E+04  0.28742397958E+04 0.  0.
        3    1    3    3  502    0 -0.92461125507E+02 -0.11733864270E+04 -0.15905548830E+04  0.19786989698E+04  0.10100000352E+00 0.  1.
       -3    1    3    3    0  502  0.92461125507E+02  0.11733864270E+04  0.23323967038E+03  0.11999106304E+04  0.10100000352E+00 0. -1.
</event>
<event>
 5   0  0.1602873E-06  0.2882931E+04  0.7818609E-02  0.8277974E-01
       -1   -1    0    0    0  501  0.00000000000E+00  0.00000000000E+00  0.88289821156E+03  0.88289821158E+03  0.50400001928E-02 0. -1.
        1   -1    0    0  501    0  0.00000000000E+00  0.00000000000E+00 -0.23534110493E+04  0.23534110493E+04  0.50400001928E-02 0.  1.
    10030    2    1    2    0    0  0.00000000000E+00  0.00000000000E+00 -0.14705128377E+04  0.32363092609E+04  0.28829307356E+04 0.  0.
        1    1    3    3  502    0  0.78817876956E+03  0.22866299347E+03 -0.20655493449E+04  0.22226125694E+04  0.50400001928E-02 0.  1.
       -1    1    3    3    0  502 -0.78817876956E+03 -0.22866299347E+03  0.59503650719E+03  0.10136966915E+04  0.50400001928E-02 0. -1.
</event>
<event>
 5   0  0.1602873E-06  0.2902161E+04  0.7818609E-02  0.8272235E-01
       -1   -1    0    0    0  501  0.00000000000E+00  0.00000000000E+00  0.12326348622E+04  0.12326348622E+04  0.50400001928E-02 0.  1.
        1   -1    0    0  501    0  0.00000000000E+00  0.00000000000E+00 -0.17082393011E+04  0.17082393011E+04  0.50400001928E-02 0. -1.
    10030    2    1    2    0    0  0.00000000000E+00  0.00000000000E+00 -0.47560443895E+03  0.29408741633E+04  0.29021614811E+04 0.  0.
        1    1    3    3  502    0 -0.10100232955E+04 -0.90878341787E+03  0.27850478069E+03  0.13869388129E+04  0.50400001928E-02 0.  1.
       -1    1    3    3    0  502  0.10100232955E+04  0.90878341787E+03 -0.75410921965E+03  0.15539353504E+04  0.50400001928E-02 0. -1.
</event>
<event>
 5   0  0.1543678E-06  0.2874536E+04  0.7818609E-02  0.8280494E-01
        1   -1    0    0  501    0  0.00000000000E+00  0.00000000000E+00  0.11713617923E+04  0.11713617923E+04  0.50400001928E-02 0. -1.
       -1   -1    0    0    0  501  0.00000000000E+00  0.00000000000E+00 -0.17635367139E+04  0.17635367139E+04  0.50400001928E-02 0.  1.
    10030    2    1    2    0    0  0.00000000000E+00  0.00000000000E+00 -0.59217492154E+03  0.29348985062E+04  0.28745361546E+04 0.  0.
        3    1    3    3  502    0  0.10752889874E+04  0.88952369422E+03  0.54994746745E+02  0.13966113423E+04  0.10100000352E+00 0. -1.
       -3    1    3    3    0  502 -0.10752889874E+04 -0.88952369422E+03 -0.64716966829E+03  0.15382871639E+04  0.10100000352E+00 0.  1.
</event>
<event>
 5   0  0.4148677E-06  0.2900802E+04  0.7818609E-02  0.8272639E-01
        2   -1    0    0  501    0  0.00000000000E+00  0.00000000000E+00  0.19628357266E+04  0.19628357266E+04  0.25500000920E-02 0.  1.
       -2   -1    0    0    0  501  0.00000000000E+00  0.00000000000E+00 -0.10717466364E+04  0.10717466364E+04  0.25500000920E-02 0. -1.
    10030    2    1    2    0    0  0.00000000000E+00  0.00000000000E+00  0.89108909021E+03  0.30345823629E+04  0.29008016738E+04 0.  0.
        5    1    3    3  502    0 -0.11044620037E+04 -0.76495947733E+03  0.10172281495E+04  0.16851630538E+04  0.46999998093E+01 0.  1.
       -5    1    3    3    0  502  0.11044620037E+04  0.76495947733E+03 -0.12613905928E+03  0.13494193092E+04  0.46999998093E+01 0. -1.
</event>
<event>
 5   0  0.4115143E-06  0.2828832E+04  0.7818609E-02  0.8294373E-01
        2   -1    0    0  501    0  0.00000000000E+00  0.00000000000E+00  0.18638352285E+04  0.18638352285E+04  0.25500000920E-02 0. -1.
       -2   -1    0    0    0  501  0.00000000000E+00  0.00000000000E+00 -0.10733637768E+04  0.10733637768E+04  0.25500000920E-02 0.  1.
    10030    2    1    2    0    0  0.00000000000E+00  0.00000000000E+00  0.79047145167E+03  0.29371990054E+04  0.28288324237E+04 0.  0.
        1    1    3    3  502    0 -0.55865725716E+03  0.93537108123E+03 -0.54129048967E+03  0.12165575962E+04  0.50400001928E-02 0.  1.
       -1    1    3    3    0  502  0.55865725716E+03 -0.93537108123E+03  0.13317619413E+04  0.17206414092E+04  0.50400001928E-02 0. -1.
</event>
<event>
 5   0  0.1511126E-06  0.2918804E+04  0.7818609E-02  0.8267305E-01
        1   -1    0    0  501    0  0.00000000000E+00  0.00000000000E+00  0.14424630680E+04  0.14424630680E+04  0.50400001928E-02 0. -1.
       -1   -1    0    0    0  501  0.00000000000E+00  0.00000000000E+00 -0.14765402754E+04  0.14765402754E+04  0.50400001928E-02 0.  1.
    10030    2    1    2    0    0  0.00000000000E+00  0.00000000000E+00 -0.34077207400E+02  0.29190033435E+04  0.29188044236E+04 0.  0.
        5    1    3    3  502    0 -0.89634924698E+03  0.78959406445E+03  0.82142891571E+03  0.14497131829E+04  0.46999998093E+01 0. -1.
       -5    1    3    3    0  502  0.89634924698E+03 -0.78959406445E+03 -0.85550612311E+03  0.14692901605E+04  0.46999998093E+01 0.  1.
</event>
<event>
 5   0  0.1511126E-06  0.2810179E+04  0.7818609E-02  0.8300115E-01
        1   -1    0    0  501    0  0.00000000000E+00  0.00000000000E+00  0.11293467703E+04  0.11293467703E+04  0.50400001928E-02 0. -1.
       -1   -1    0    0    0  501  0.00000000000E+00  0.00000000000E+00 -0.17481578942E+04  0.17481578942E+04  0.50400001928E-02 0.  1.
    10030    2    1    2    0    0  0.00000000000E+00  0.00000000000E+00 -0.61881112395E+03  0.28775046645E+04  0.28101789778E+04 0.  0.
        5    1    3    3  502    0  0.95668333932E+03  0.21274993685E+02  0.74410656173E+03  0.12121931786E+04  0.46999998093E+01 0. -1.
       -5    1    3    3    0  502 -0.95668333932E+03 -0.21274993685E+02 -0.13629176857E+04  0.16653114859E+04  0.46999998093E+01 0.  1.
</event>
<event>
 5   0  0.4115143E-06  0.2853277E+04  0.7818609E-02  0.8286916E-01
        2   -1    0    0  501    0  0.00000000000E+00  0.00000000000E+00  0.93342883430E+03  0.93342883431E+03  0.25500000920E-02 0.  1.
       -2   -1    0    0    0  501  0.00000000000E+00  0.00000000000E+00 -0.21804522365E+04  0.21804522365E+04  0.25500000920E-02 0. -1.
    10030    2    1    2    0    0  0.00000000000E+00  0.00000000000E+00 -0.12470234022E+04  0.31138810708E+04  0.28532767054E+04 0.  0.
        1    1    3    3  502    0 -0.28414488301E+03 -0.10096082582E+04  0.43190011454E+03  0.11342772406E+04  0.50400001928E-02 0.  1.
       -1    1    3    3    0  502  0.28414488301E+03  0.10096082582E+04 -0.16789235168E+04  0.19796038302E+04  0.50400001928E-02 0. -1.
</event>
<event>
 5   0  0.1543678E-06  0.2911291E+04  0.7818609E-02  0.8269526E-01
        1   -1    0    0  501    0  0.00000000000E+00  0.00000000000E+00  0.19430050697E+04  0.19430050697E+04  0.50400001928E-02 0.  1.
       -1   -1    0    0    0  501  0.00000000000E+00  0.00000000000E+00 -0.10905290691E+04  0.10905290691E+04  0.50400001928E-02 0. -1.
    10030    2    1    2    0    0  0.00000000000E+00  0.00000000000E+00  0.85247600061E+03  0.30335341388E+04  0.29112907858E+04 0.  0.
        3    1    3    3  502    0 -0.74677901512E+03  0.86646968540E+03  0.13642917493E+04  0.17803765334E+04  0.10100000352E+00 0. -1.
       -3    1    3    3    0  502  0.74677901512E+03 -0.86646968540E+03 -0.51181574871E+03  0.12531576054E+04  0.10100000352E+00 0.  1.
</event>
<event>
 5   0  0.1550278E-06  0.2896229E+04  0.7818609E-02  0.8274000E-01
       -1   -1    0    0    0  501  0.00000000000E+00  0.00000000000E+00  0.17260430894E+04  0.17260430894E+04  0.50400001928E-02 0.  1.
        1   -1    0    0  501    0  0.00000000000E+00  0.00000000000E+00 -0.12149382179E+04  0.12149382179E+04  0.50400001928E-02 0. -1.
    10030    2    1    2    0    0  0.00000000000E+00  0.00000000000E+00  0.51110487149E+03  0.29409813073E+04  0.28962290760E+04 0.  0.
        2    1    3    3  502    0 -0.88592438568E+03 -0.75708640428E+03  0.11284831494E+04  0.16221948278E+04  0.25500000920E-02 0.  1.
       -2    1    3    3    0  502  0.88592438568E+03  0.75708640428E+03 -0.61737827792E+03  0.13187864796E+04  0.25500000920E-02 0. -1.
</event>
<event>
 5   0  0.1580212E-06  0.2855081E+04  0.7818609E-02  0.8286369E-01
        1   -1    0    0  501    0  0.00000000000E+00  0.00000000000E+00  0.11693484117E+04  0.11693484117E+04  0.50400001928E-02 0.  1.
       -1   -1    0    0    0  501  0.00000000000E+00  0.00000000000E+00 -0.17427410569E+04  0.17427410569E+04  0.50400001928E-02 0. -1.
    10030    2    1    2    0    0  0.00000000000E+00  0.00000000000E+00 -0.57339264527E+03  0.29120894686E+04  0.28550807252E+04 0.  0.
        4    1    3    3  502    0  0.12637847856E+04 -0.54270563697E+03 -0.67667682889E+03  0.15328321945E+04  0.12699999809E+01 0.  1.
       -4    1    3    3    0  502 -0.12637847856E+04  0.54270563697E+03  0.10328418362E+03  0.13792572741E+04  0.12699999809E+01 0. -1.
</event>
<event>
 5   0  0.1580212E-06  0.2886342E+04  0.7818609E-02  0.8276953E-01
        1   -1    0    0  501    0  0.00000000000E+00  0.00000000000E+00  0.15692570488E+04  0.15692570488E+04  0.50400001928E-02 0.  1.
       -1   -1    0    0    0  501  0.00000000000E+00  0.00000000000E+00 -0.13272154273E+04  0.13272154274E+04  0.50400001928E-02 0. -1.
    10030    2    1    2    0    0  0.00000000000E+00  0.00000000000E+00  0.24204162146E+03  0.28964724762E+04  0.28863417432E+04 0.  0.
        4    1    3    3  502    0  0.60438136875E+03  0.12910126347E+04 -0.10504769496E+03  0.14293449874E+04  0.12699999809E+01 0. -1.
       -4    1    3    3    0  502 -0.60438136875E+03 -0.12910126347E+04  0.34708931643E+03  0.14671274888E+04  0.12699999809E+01 0.  1.
</event>
<event>
 5   0  0.1602873E-06  0.2904112E+04  0.7818609E-02  0.8271655E-01
       -1   -1    0    0    0  501  0.00000000000E+00  0.00000000000E+00  0.14643783491E+04  0.14643783492E+04  0.50400001928E-02 0.  1.
        1   -1    0    0  501    0  0.00000000000E+00  0.00000000000E+00 -0.14398372209E+04  0.14398372209E+04  0.50400001928E-02 0. -1.
    10030    2    1    2    0    0  0.00000000000E+00  0.00000000000E+00  0.24541128209E+02  0.29042155701E+04  0.29041118798E+04 0.  0.
        1    1    3    3  502    0  0.48434607423E+03 -0.62937874636E+03 -0.12034034276E+04  0.14418351277E+04  0.50400001928E-02 0. -1.
       -1    1    3    3    0  502 -0.48434607423E+03  0.62937874636E+03  0.12279445558E+04  0.14623804424E+04  0.50400001928E-02 0.  1.
</event>
<event>
 5   0  0.1543678E-06  0.2888368E+04  0.7818609E-02  0.8276347E-01
        1   -1    0    0  501    0  0.00000000000E+00  0.00000000000E+00  0.19048739493E+04  0.19048739494E+04  0.50400001928E-02 0.  1.
       -1   -1    0    0    0  501  0.00000000000E+00  0.00000000000E+00 -0.10949112633E+04  0.10949112633E+04  0.50400001928E-02 0. -1.
    10030    2    1    2    0    0  0.00000000000E+00  0.00000000000E+00  0.80996268604E+03  0.29997852127E+04  0.28883683576E+04 0.  0.
        3    1    3    3  502    0  0.32513977235E+02 -0.14379892850E+04  0.53958630327E+03  0.15362368735E+04  0.10100000352E+00 0.  1.
       -3    1    3    3    0  502 -0.32513977235E+02  0.14379892850E+04  0.27037638276E+03  0.14635483392E+04  0.10100000352E+00 0. -1.
</event>
<event>
 5   0  0.1580212E-06  0.2888833E+04  0.7818609E-02  0.8276208E-01
       -1   -1    0    0    0  501  0.00000000000E+00  0.00000000000E+00  0.12832190097E+04  0.12832190097E+04  0.50400001928E-02 0. -1.
        1   -1    0    0  501    0  0.00000000000E+00  0.00000000000E+00 -0.16258631134E+04  0.16258631134E+04  0.50400001928E-02 0.  1.
    10030    2    1    2    0    0  0.00000000000E+00  0.00000000000E+00 -0.34264410368E+03  0.29090821232E+04  0.28888326046E+04 0.  0.
        4    1    3    3  502    0  0.84358971903E+03  0.20919909212E+03  0.99042356652E+03  0.13177057062E+04  0.12699999809E+01 0. -1.
       -4    1    3    3    0  502 -0.84358971903E+03 -0.20919909212E+03 -0.13330676702E+04  0.15913764170E+04  0.12699999809E+01 0.  1.
</event>
<event>
 5   0  0.4148677E-06  0.2908050E+04  0.7818609E-02  0.8270486E-01
       -2   -1    0    0    0  501  0.00000000000E+00  0.00000000000E+00  0.21994782180E+04  0.21994782180E+04  0.25500000920E-02 0. -1.
        2   -1    0    0  501    0  0.00000000000E+00  0.00000000000E+00 -0.96122275712E+03  0.96122275713E+03  0.25500000920E-02 0.  1.
    10030    2    1    2    0    0  0.00000000000E+00  0.00000000000E+00  0.12382554609E+04  0.31607009751E+04  0.29080498737E+04 0.  0.
        5    1    3    3  502    0  0.31296605913E+03  0.91473021794E+03  0.17995249957E+04  0.20427901081E+04  0.46999998093E+01 0. -1.
       -5    1    3    3    0  502 -0.31296605913E+03 -0.91473021794E+03 -0.56126953483E+03  0.11179108670E+04  0.46999998093E+01 0.  1.
</event>
<event>
 5   0  0.1550278E-06  0.2828570E+04  0.7818609E-02  0.8294453E-01
        1   -1    0    0  501    0  0.00000000000E+00  0.00000000000E+00  0.20250226615E+04  0.20250226615E+04  0.50400001928E-02 0. -1.
       -1   -1    0    0    0  501  0.00000000000E+00  0.00000000000E+00 -0.98774278448E+03  0.98774278449E+03  0.50400001928E-02 0.  1.
    10030    2    1    2    0    0  0.00000000000E+00  0.00000000000E+00  0.10372798770E+04  0.30127654460E+04  0.28285696190E+04 0.  0.
        2    1    3    3  502    0 -0.67720480307E+03  0.12375637977E+04  0.62531700823E+03  0.15431110976E+04  0.25500000920E-02 0.  1.
       -2    1    3    3    0  502  0.67720480307E+03 -0.12375637977E+04  0.41196286879E+03  0.14696543484E+04  0.25500000920E-02 0. -1.
</event>
<event>
 5   0  0.1543678E-06  0.2817478E+04  0.7818609E-02  0.8297863E-01
       -1   -1    0    0    0  501  0.00000000000E+00  0.00000000000E+00  0.96531683919E+03  0.96531683920E+03  0.50400001928E-02 0.  1.
        1   -1    0    0  501    0  0.00000000000E+00  0.00000000000E+00 -0.20558487534E+04  0.20558487534E+04  0.50400001928E-02 0. -1.
    10030    2    1    2    0    0  0.00000000000E+00  0.00000000000E+00 -0.10905319142E+04  0.30211655926E+04  0.28174778938E+04 0.  0.
        3    1    3    3  502    0  0.11651841816E+04 -0.68681680511E+03 -0.96766542621E+03  0.16630537839E+04  0.10100000352E+00 0.  1.
       -3    1    3    3    0  502 -0.11651841816E+04  0.68681680511E+03 -0.12286648801E+03  0.13581118087E+04  0.10100000352E+00 0. -1.
</event>
<event>
 5   0  0.1550278E-06  0.2888095E+04  0.7818609E-02  0.8276428E-01
       -1   -1    0    0    0  501  0.00000000000E+00  0.00000000000E+00  0.13601457128E+04  0.13601457128E+04  0.50400001928E-02 0. -1.
        1   -1    0    0  501    0  0.00000000000E+00  0.00000000000E+00 -0.15331249183E+04  0.15331249183E+04  0.50400001928E-02 0.  1.
    10030    2    1    2    0    0  0.00000000000E+00  0.00000000000E+00 -0.17297920556E+03  0.28932706311E+04  0.28880950710E+04 0.  0.
        2    1    3    3  502    0 -0.46909959418E+02  0.28664356005E+03  0.13305799158E+04  0.13619133553E+04  0.25500000920E-02 0. -1.
       -2    1    3    3    0  502  0.46909959418E+02 -0.28664356005E+03 -0.15035591214E+04  0.15313572759E+04  0.25500000920E-02 0.  1.
</event>
<event>
 5   0  0.4115143E-06  0.2900522E+04  0.7818609E-02  0.8272722E-01
       -2   -1    0    0    0  501  0.00000000000E+00  0.00000000000E+00  0.21335317572E+04  0.21335317572E+04  0.25500000920E-02 0.  1.
        2   -1    0    0  501    0  0.00000000000E+00  0.00000000000E+00 -0.98580985560E+03  0.98580985560E+03  0.25500000920E-02 0. -1.
    10030    2    1    2    0    0  0.00000000000E+00  0.00000000000E+00  0.11477219016E+04  0.31193416128E+04  0.29005217692E+04 0.  0.
        1    1    3    3  502    0  0.43095993010E+02  0.73936914179E+02 -0.98309195514E+03  0.98680987236E+03  0.50400001928E-02 0. -1.
       -1    1    3    3    0  502 -0.43095993010E+02 -0.73936914179E+02  0.21308138567E+04  0.21325317404E+04  0.50400001928E-02 0.  1.
</event>
<event>
 5   0  0.1602873E-06  0.2908051E+04  0.7818609E-02  0.8270486E-01
       -1   -1    0    0    0  501  0.00000000000E+00  0.00000000000E+00  0.12317783637E+04  0.12317783638E+04  0.50400001928E-02 0. -1.
        1   -1    0    0  501    0  0.00000000000E+00  0.00000000000E+00 -0.17163724731E+04  0.17163724731E+04  0.50400001928E-02 0.  1.
    10030    2    1    2    0    0  0.00000000000E+00  0.00000000000E+00 -0.48459410936E+03  0.29481508369E+04  0.29080512214E+04 0.  0.
        1    1    3    3  502    0  0.41137112953E+03 -0.47232265082E+02  0.11707422734E+04  0.12418110017E+04  0.50400001928E-02 0. -1.
       -1    1    3    3    0  502 -0.41137112953E+03  0.47232265082E+02 -0.16553363828E+04  0.17063398352E+04  0.50400001928E-02 0.  1.
</event>
<event>
 5   0  0.4162450E-06  0.2848635E+04  0.7818609E-02  0.8288326E-01
       -2   -1    0    0    0  501  0.00000000000E+00  0.00000000000E+00  0.11218234949E+04  0.11218234949E+04  0.25500000920E-02 0. -1.
        2   -1    0    0  501    0  0.00000000000E+00  0.00000000000E+00 -0.18083769895E+04  0.18083769895E+04  0.25500000920E-02 0.  1.
    10030    2    1    2    0    0  0.00000000000E+00  0.00000000000E+00 -0.68655349466E+03  0.29302004844E+04  0.28486346164E+04 0.  0.
        2    1    3    3  502    0  0.76418597049E+03  0.11921608831E+04 -0.50080221182E+03  0.15020088629E+04  0.25500000920E-02 0.  1.
       -2    1    3    3    0  502 -0.76418597049E+03 -0.11921608831E+04 -0.18575128285E+03  0.14281916215E+04  0.25500000920E-02 0. -1.
</event>
<event>
 5   0  0.1360125E-06  0.2911562E+04  0.7818609E-02  0.8269446E-01
        3   -1    0    0  501    0  0.00000000000E+00  0.00000000000E+00  0.15849539050E+04  0.15849539082E+04  0.10100000352E+00 0. -1.
       -3   -1    0    0    0  501  0.00000000000E+00  0.00000000000E+00 -0.13371353616E+04  0.13371353654E+04  0.10100000352E+00 0.  1.
    10030    2    1    2    0    0  0.00000000000E+00  0.00000000000E+00  0.24781854335E+03  0.29220892736E+04  0.29115617274E+04 0.  0.
        5    1    3    3  502    0 -0.40859521566E+03 -0.13807393723E+04  0.33889063103E+03  0.14792769228E+04  0.46999998093E+01 0. -1.
       -5    1    3    3    0  502  0.40859521566E+03  0.13807393723E+04 -0.91072087684E+02  0.14428123508E+04  0.46999998093E+01 0.  1.
</event>
<event>
 5   0  0.1602873E-06  0.2892927E+04  0.7818609E-02  0.8274985E-01
        1   -1    0    0  501    0  0.00000000000E+00  0.00000000000E+00  0.25591338284E+04  0.25591338284E+04  0.50400001928E-02 0. -1.
       -1   -1    0    0    0  501  0.00000000000E+00  0.00000000000E+00 -0.81756443380E+03  0.81756443381E+03  0.50400001928E-02 0.  1.
    10030    2    1    2    0    0  0.00000000000E+00  0.00000000000E+00  0.17415693946E+04  0.33766982622E+04  0.28929270986E+04 0.  0.
        1    1    3    3  502    0  0.64789334903E+03  0.28283746652E+03  0.23437538902E+04  0.24480492483E+04  0.50400001928E-02 0. -1.
       -1    1    3    3    0  502 -0.64789334903E+03 -0.28283746652E+03 -0.60218449564E+03  0.92864901389E+03  0.50400001928E-02 0.  1.
</event>
<event>
 5   0  0.1543678E-06  0.2909474E+04  0.7818609E-02  0.8270064E-01
        1   -1    0    0  501    0  0.00000000000E+00  0.00000000000E+00  0.11203557866E+04  0.11203557866E+04  0.50400001928E-02 0. -1.
       -1   -1    0    0    0  501  0.00000000000E+00  0.00000000000E+00 -0.18889180988E+04  0.18889180988E+04  0.50400001928E-02 0.  1.
    10030    2    1    2    0    0  0.00000000000E+00  0.00000000000E+00 -0.76856231229E+03  0.30092738854E+04  0.29094744009E+04 0.  0.
        3    1    3    3  502    0 -0.29521375868E+03  0.10648582536E+04 -0.13628780400E+04  0.17545685583E+04  0.10100000352E+00 0.  1.
       -3    1    3    3    0  502  0.29521375868E+03 -0.10648582536E+04  0.59431572775E+03  0.12547053271E+04  0.10100000352E+00 0. -1.
</event>
<event>
 5   0  0.4187518E-06  0.2930173E+04  0.7818609E-02  0.8263956E-01
        2   -1    0    0  501    0  0.00000000000E+00  0.00000000000E+00  0.13981996255E+04  0.13981996255E+04  0.25500000920E-02 0. -1.
       -2   -1    0    0    0  501  0.00000000000E+00  0.00000000000E+00 -0.15351734734E+04  0.15351734734E+04  0.25500000920E-02 0.  1.
    10030    2    1    2    0    0  0.00000000000E+00  0.00000000000E+00 -0.13697384793E+03  0.29333730989E+04  0.29301733570E+04 0.  0.
        3    1    3    3  502    0  0.86213896117E+03 -0.11811134119E+04  0.21980365692E+02  0.14624621796E+04  0.10100000352E+00 0.  1.
       -3    1    3    3    0  502 -0.86213896117E+03  0.11811134119E+04 -0.15895421362E+03  0.14709109193E+04  0.10100000352E+00 0. -1.
</event>
<event>
 5   0  0.4224163E-06  0.2879162E+04  0.7818609E-02  0.8279105E-01
        2   -1    0    0  501    0  0.00000000000E+00  0.00000000000E+00  0.11034468674E+04  0.11034468674E+04  0.25500000920E-02 0.  1.
       -2   -1    0    0    0  501  0.00000000000E+00  0.00000000000E+00 -0.18781086072E+04  0.18781086072E+04  0.25500000920E-02 0. -1.
    10030    2    1    2    0    0  0.00000000000E+00  0.00000000000E+00 -0.77466173974E+03  0.29815554746E+04  0.28791617247E+04 0.  0.
        4    1    3    3  502    0 -0.46647821048E+03  0.64974611685E+03  0.85215695304E+03  0.11687365070E+04  0.12699999809E+01 0.  1.
       -4    1    3    3    0  502  0.46647821048E+03 -0.64974611685E+03 -0.16268186928E+04  0.18128189676E+04  0.12699999809E+01 0. -1.
</event>
<event>
 5   0  0.1602873E-06  0.2920380E+04  0.7818609E-02  0.8266840E-01
       -1   -1    0    0    0  501  0.00000000000E+00  0.00000000000E+00  0.12494423951E+04  0.12494423951E+04  0.50400001928E-02 0. -1.
        1   -1    0    0  501    0  0.00000000000E+00  0.00000000000E+00 -0.17064847309E+04  0.17064847309E+04  0.50400001928E-02 0.  1.
    10030    2    1    2    0    0  0.00000000000E+00  0.00000000000E+00 -0.45704233581E+03  0.29559271260E+04  0.29203796804E+04 0.  0.
        1    1    3    3  502    0 -0.26808871560E+03 -0.12560409039E+04 -0.93170339703E+03  0.15866888579E+04  0.50400001928E-02 0.  1.
       -1    1    3    3    0  502  0.26808871560E+03  0.12560409039E+04  0.47466106122E+03  0.13692382681E+04  0.50400001928E-02 0. -1.
</event>
<event>
 5   0  0.1511126E-06  0.2890754E+04  0.7818609E-02  0.8275634E-01
        1   -1    0    0  501    0  0.00000000000E+00  0.00000000000E+00  0.18807020774E+04  0.18807020774E+04  0.50400001928E-02 0. -1.
       -1   -1    0    0    0  501  0.00000000000E+00  0.00000000000E+00 -0.11108166352E+04  0.11108166352E+04  0.50400001928E-02 0.  1.
    10030    2    1    2    0    0  0.00000000000E+00  0.00000000000E+00  0.76988544228E+03  0.29915187126E+04  0.28907543330E+04 0.  0.
        5    1    3    3  502    0  0.22518722898E+03 -0.20281613438E+03  0.18474454571E+04  0.18721432850E+04  0.46999998093E+01 0. -1.
       -5    1    3    3    0  502 -0.22518722898E+03  0.20281613438E+03 -0.10775600148E+04  0.11193754276E+04  0.46999998093E+01 0.  1.
</event>
<event>
 5   0  0.4187518E-06  0.2844019E+04  0.7818609E-02  0.8289731E-01
        2   -1    0    0  501    0  0.00000000000E+00  0.00000000000E+00  0.21502850533E+04  0.21502850533E+04  0.25500000920E-02 0.  1.
       -2   -1    0    0    0  501  0.00000000000E+00  0.00000000000E+00 -0.94039217699E+03  0.94039217699E+03  0.25500000920E-02 0. -1.
    10030    2    1    2    0    0  0.00000000000E+00  0.00000000000E+00  0.12098928763E+04  0.30906772303E+04  0.28440191578E+04 0.  0.
        3    1    3    3  502    0  0.13812242374E+03 -0.13979412440E+04  0.84499717353E+03  0.16393101473E+04  0.10100000352E+00 0. -1.
       -3    1    3    3    0  502 -0.13812242374E+03  0.13979412440E+04  0.36489570278E+03  0.14513670830E+04  0.10100000352E+00 0.  1.
</event>
<event>
 5   0  0.1580212E-06  0.2839752E+04  0.7818609E-02  0.8291032E-01
        1   -1    0    0  501    0  0.00000000000E+00  0.00000000000E+00  0.97953905099E+03  0.97953905101E+03  0.50400001928E-02 0. -1.
       -1   -1    0    0    0  501  0.00000000000E+00  0.00000000000E+00 -0.20581596522E+04  0.20581596522E+04  0.50400001928E-02 0.  1.
    10030    2    1    2    0    0  0.00000000000E+00  0.00000000000E+00 -0.10786206012E+04  0.30376987032E+04  0.28397519276E+04 0.  0.
        4    1    3    3  502    0  0.99768946697E+03 -0.97228935862E+03 -0.83287633896E+03  0.16230882534E+04  0.12699999809E+01 0.  1.
       -4    1    3    3    0  502 -0.99768946697E+03  0.97228935862E+03 -0.24574426224E+03  0.14146104498E+04  0.12699999809E+01 0. -1.
</event>
<event>
 5   0  0.4187518E-06  0.2874082E+04  0.7818609E-02  0.8280631E-01
        2   -1    0    0  501    0  0.00000000000E+00  0.00000000000E+00  0.20020110382E+04  0.20020110382E+04  0.25500000920E-02 0.  1.
       -2   -1    0    0    0  501  0.00000000000E+00  0.00000000000E+00 -0.10315064605E+04  0.10315064605E+04  0.25500000920E-02 0. -1.
    10030    2    1    2    0    0  0.00000000000E+00  0.00000000000E+00  0.97050457771E+03  0.30335174987E+04  0.28740823370E+04 0.  0.
        3    1    3    3  502    0  0.91180774172E+03  0.73528294106E+03 -0.39342723608E+03  0.12356453219E+04  0.10100000352E+00 0. -1.
       -3    1    3    3    0  502 -0.91180774172E+03 -0.73528294106E+03  0.13639318138E+04  0.17978721768E+04  0.10100000352E+00 0.  1.
</event>
<event>
 5   0  0.1360125E-06  0.2881879E+04  0.7818609E-02  0.8278289E-01
       -3   -1    0    0    0  501  0.00000000000E+00  0.00000000000E+00  0.13759941931E+04  0.13759941968E+04  0.10100000352E+00 0. -1.
        3   -1    0    0  501    0  0.00000000000E+00  0.00000000000E+00 -0.15089505067E+04  0.15089505101E+04  0.10100000352E+00 0.  1.
    10030    2    1    2    0    0  0.00000000000E+00  0.00000000000E+00 -0.13295631355E+03  0.28849447069E+04  0.28818793487E+04 0.  0.
        3    1    3    3  502    0  0.73469426584E+03  0.11635255028E+04  0.36145738788E+03  0.14227504044E+04  0.10100000352E+00 0.  1.
       -3    1    3    3    0  502 -0.73469426584E+03 -0.11635255028E+04 -0.49441370143E+03  0.14621943025E+04  0.10100000352E+00 0. -1.
</event>
<event>
 5   0  0.1550278E-06  0.2893575E+04  0.7818609E-02  0.8274792E-01
       -1   -1    0    0    0  501  0.00000000000E+00  0.00000000000E+00  0.13533902190E+04  0.13533902190E+04  0.50400001928E-02 0.  1.
        1   -1    0    0  501    0  0.00000000000E+00  0.00000000000E+00 -0.15466305829E+04  0.15466305829E+04  0.50400001928E-02 0. -1.
    10030    2    1    2    0    0  0.00000000000E+00  0.00000000000E+00 -0.19324036385E+03  0.29000208019E+04  0.28935754376E+04 0.  0.
        2    1    3    3  502    0  0.79225540047E+03  0.28967692090E+03 -0.12746589063E+04  0.15285079868E+04  0.25500000920E-02 0. -1.
       -2    1    3    3    0  502 -0.79225540047E+03 -0.28967692090E+03  0.10814185425E+04  0.13715128151E+04  0.25500000920E-02 0.  1.
</event>
<event>
 5   0  0.4148677E-06  0.2955001E+04  0.7818609E-02  0.8256699E-01
       -2   -1    0    0    0  501  0.00000000000E+00  0.00000000000E+00  0.15090495094E+04  0.15090495094E+04  0.25500000920E-02 0.  1.
        2   -1    0    0  501    0  0.00000000000E+00  0.00000000000E+00 -0.14466112670E+04  0.14466112670E+04  0.25500000920E-02 0. -1.
    10030    2    1    2    0    0  0.00000000000E+00  0.00000000000E+00  0.62438242397E+02  0.29556607764E+04  0.29550011999E+04 0.  0.
        5    1    3    3  502    0  0.53750976891E+03 -0.53178514594E+03  0.13008620295E+04  0.15046515553E+04  0.46999998093E+01 0.  1.
       -5    1    3    3    0  502 -0.53750976891E+03  0.53178514594E+03 -0.12384237871E+04  0.14510092211E+04  0.46999998093E+01 0. -1.
</event>
<event>
 5   0  0.1602873E-06  0.2900085E+04  0.7818609E-02  0.8272852E-01
        1   -1    0    0  501    0  0.00000000000E+00  0.00000000000E+00  0.21631476150E+04  0.21631476150E+04  0.50400001928E-02 0. -1.
       -1   -1    0    0    0  501  0.00000000000E+00  0.00000000000E+00 -0.97202004755E+03  0.97202004756E+03  0.50400001928E-02 0.  1.
    10030    2    1    2    0    0  0.00000000000E+00  0.00000000000E+00  0.11911275675E+04  0.31351676626E+04  0.29000847213E+04 0.  0.
        1    1    3    3  502    0  0.14758865083E+03  0.14258714399E+04  0.35937966468E+03  0.14778516557E+04  0.50400001928E-02 0. -1.
       -1    1    3    3    0  502 -0.14758865083E+03 -0.14258714399E+04  0.83174790278E+03  0.16573160069E+04  0.50400001928E-02 0.  1.
</event>
<event>
 5   0  0.1602873E-06  0.2899006E+04  0.7818609E-02  0.8273173E-01
       -1   -1    0    0    0  501  0.00000000000E+00  0.00000000000E+00  0.12803623721E+04  0.12803623722E+04  0.50400001928E-02 0.  1.
        1   -1    0    0  501    0  0.00000000000E+00  0.00000000000E+00 -0.16409881796E+04  0.16409881796E+04  0.50400001928E-02 0. -1.
    10030    2    1    2    0    0  0.00000000000E+00  0.00000000000E+00 -0.36062580749E+03  0.29213505518E+04  0.28990063942E+04 0.  0.
        1    1    3    3  502    0 -0.12699502740E+04  0.36186476916E+03 -0.78269927875E+03  0.15350367978E+04  0.50400001928E-02 0. -1.
       -1    1    3    3    0  502  0.12699502740E+04 -0.36186476916E+03  0.42207347126E+03  0.13863137540E+04  0.50400001928E-02 0.  1.
</event>
<event>
 5   0  0.4148677E-06  0.2901861E+04  0.7818609E-02  0.8272324E-01
       -2   -1    0    0    0  501  0.00000000000E+00  0.00000000000E+00  0.19188620863E+04  0.19188620863E+04  0.25500000920E-02 0. -1.
        2   -1    0    0  501    0  0.00000000000E+00  0.00000000000E+00 -0.10971082494E+04  0.10971082494E+04  0.25500000920E-02 0.  1.
    10030    2    1    2    0    0  0.00000000000E+00  0.00000000000E+00  0.82175383697E+03  0.30159703357E+04  0.29018610748E+04 0.  0.
        5    1    3    3  502    0  0.96470479831E+03  0.40013481106E+03 -0.63590952919E+03  0.12227699024E+04  0.46999998093E+01 0.  1.
       -5    1    3    3    0  502 -0.96470479831E+03 -0.40013481106E+03  0.14576633662E+04  0.17932004333E+04  0.46999998093E+01 0. -1.
</event>
<event>
 5   0  0.1580212E-06  0.2925528E+04  0.7818609E-02  0.8265322E-01
        1   -1    0    0  501    0  0.00000000000E+00  0.00000000000E+00  0.30753940850E+04  0.30753940850E+04  0.50400001928E-02 0. -1.
       -1   -1    0    0    0  501  0.00000000000E+00  0.00000000000E+00 -0.69574142076E+03  0.69574142078E+03  0.50400001928E-02 0.  1.
    10030    2    1    2    0    0  0.00000000000E+00  0.00000000000E+00  0.23796526642E+04  0.37711355058E+04  0.29255283626E+04 0.  0.
        4    1    3    3  502    0  0.11702506197E+04 -0.58041735048E+03  0.20383529859E+04  0.24210029578E+04  0.12699999809E+01 0. -1.
       -4    1    3    3    0  502 -0.11702506197E+04  0.58041735048E+03  0.34129967833E+03  0.13501325480E+04  0.12699999809E+01 0.  1.
</event>
<event>
 5   0  0.1602873E-06  0.2909763E+04  0.7818609E-02  0.8269979E-01
       -1   -1    0    0    0  501  0.00000000000E+00  0.00000000000E+00  0.26280787671E+04  0.26280787671E+04  0.50400001928E-02 0.  1.
        1   -1    0    0  501    0  0.00000000000E+00  0.00000000000E+00 -0.80540980812E+03  0.80540980814E+03  0.50400001928E-02 0. -1.
    10030    2    1    2    0    0  0.00000000000E+00  0.00000000000E+00  0.18226689590E+04  0.34334885752E+04  0.29097631626E+04 0.  0.
        1    1    3    3  502    0  0.68461272739E+03  0.20294126540E+03  0.24070843280E+04  0.25107637694E+04  0.50400001928E-02 0.  1.
       -1    1    3    3    0  502 -0.68461272739E+03 -0.20294126540E+03 -0.58441536903E+03  0.92272480582E+03  0.50400001928E-02 0. -1.
</event>
<event>
 5   0  0.4148677E-06  0.2822739E+04  0.7818609E-02  0.8296243E-01
       -2   -1    0    0    0  501  0.00000000000E+00  0.00000000000E+00  0.66931652779E+03  0.66931652780E+03  0.25500000920E-02 0.  1.
        2   -1    0    0  501    0  0.00000000000E+00  0.00000000000E+00 -0.29761170157E+04  0.29761170157E+04  0.25500000920E-02 0. -1.
    10030    2    1    2    0    0  0.00000000000E+00  0.00000000000E+00 -0.23068004879E+04  0.36454335435E+04  0.28227393130E+04 0.  0.
        5    1    3    3  502    0  0.10759506668E+04  0.62301186691E+01 -0.23329662375E+04  0.25691364711E+04  0.46999998093E+01 0. -1.
       -5    1    3    3    0  502 -0.10759506668E+04 -0.62301186691E+01  0.26165749563E+02  0.10762970724E+04  0.46999998093E+01 0.  1.
</event>
<event>
 5   0  0.1511126E-06  0.2911690E+04  0.7818609E-02  0.8269408E-01
       -1   -1    0    0    0  501  0.00000000000E+00  0.00000000000E+00  0.16784370924E+04  0.16784370924E+04  0.50400001928E-02 0.  1.
        1   -1    0    0  501    0  0.00000000000E+00  0.00000000000E+00 -0.12627724970E+04  0.12627724970E+04  0.50400001928E-02 0. -1.
    10030    2    1    2    0    0  0.00000000000E+00  0.00000000000E+00  0.41566459542E+03  0.29412095894E+04  0.29116896800E+04 0.  0.
        5    1    3    3  502    0  0.70765654718E+03 -0.77172492461E+03 -0.81391906592E+03  0.13262064258E+04  0.46999998093E+01 0. -1.
       -5    1    3    3    0  502 -0.70765654718E+03  0.77172492461E+03  0.12295836613E+04  0.16150031635E+04  0.46999998093E+01 0.  1.
</event>
<event>
 5   0  0.4187518E-06  0.2908740E+04  0.7818609E-02  0.8270282E-01
       -2   -1    0    0    0  501  0.00000000000E+00  0.00000000000E+00  0.73288155456E+03  0.73288155456E+03  0.25500000920E-02 0. -1.
        2   -1    0    0  501    0  0.00000000000E+00  0.00000000000E+00 -0.28861315828E+04  0.28861315828E+04  0.25500000920E-02 0.  1.
    10030    2    1    2    0    0  0.00000000000E+00  0.00000000000E+00 -0.21532500283E+04  0.36190131374E+04  0.29087403467E+04 0.  0.
        3    1    3    3  502    0  0.85792693091E+02 -0.16111197400E+03 -0.28718237920E+04  0.28776186955E+04  0.10100000352E+00 0.  1.
       -3    1    3    3    0  502 -0.85792693091E+02  0.16111197400E+03  0.71857376371E+03  0.74139444188E+03  0.10100000352E+00 0. -1.
</event>
<event>
 5   0  0.1550278E-06  0.2881287E+04  0.7818609E-02  0.8278467E-01
       -1   -1    0    0    0  501  0.00000000000E+00  0.00000000000E+00  0.10473182948E+04  0.10473182948E+04  0.50400001928E-02 0.  1.
        1   -1    0    0  501    0  0.00000000000E+00  0.00000000000E+00 -0.19816838476E+04  0.19816838476E+04  0.50400001928E-02 0. -1.
    10030    2    1    2    0    0  0.00000000000E+00  0.00000000000E+00 -0.93436555279E+03  0.30290021424E+04  0.28812870375E+04 0.  0.
        2    1    3    3  502    0 -0.10407689952E+04 -0.20571635280E+03  0.55743024132E+03  0.11984355606E+04  0.25500000920E-02 0.  1.
       -2    1    3    3    0  502  0.10407689952E+04  0.20571635280E+03 -0.14917957941E+04  0.18305665818E+04  0.25500000920E-02 0. -1.
</event>
<event>
 5   0  0.1580212E-06  0.2901029E+04  0.7818609E-02  0.8272571E-01
        1   -1    0    0  501    0  0.00000000000E+00  0.00000000000E+00  0.15879496323E+04  0.15879496323E+04  0.50400001928E-02 0.  1.
       -1   -1    0    0    0  501  0.00000000000E+00  0.00000000000E+00 -0.13249742633E+04  0.13249742633E+04  0.50400001928E-02 0. -1.
    10030    2    1    2    0    0  0.00000000000E+00  0.00000000000E+00  0.26297536894E+03  0.29129238956E+04  0.29010290548E+04 0.  0.
        4    1    3    3  502    0 -0.14412876359E+04  0.23305635106E+02 -0.30846409576E+02  0.14418066153E+04  0.12699999809E+01 0.  1.
       -4    1    3    3    0  502  0.14412876359E+04 -0.23305635106E+02  0.29382177852E+03  0.14711172803E+04  0.12699999809E+01 0. -1.
</event>
<event>
 5   0  0.1602873E-06  0.2863050E+04  0.7818609E-02  0.8283957E-01
       -1   -1    0    0    0  501  0.00000000000E+00  0.00000000000E+00  0.14446409883E+04  0.14446409883E+04  0.50400001928E-02 0. -1.
        1   -1    0    0  501    0  0.00000000000E+00  0.00000000000E+00 -0.14185277878E+04  0.14185277878E+04  0.50400001928E-02 0.  1.
    10030    2    1    2    0    0  0.00000000000E+00  0.00000000000E+00  0.26113200499E+02  0.28631687762E+04  0.28630496925E+04 0.  0.
        1    1    3    3  502    0  0.53839113825E+03 -0.63738899588E+03 -0.11502345071E+04  0.14209747258E+04  0.50400001928E-02 0.  1.
       -1    1    3    3    0  502 -0.53839113825E+03  0.63738899588E+03  0.11763477076E+04  0.14421940504E+04  0.50400001928E-02 0. -1.
</event>
<event>
 5   0  0.1580212E-06  0.2915020E+04  0.7818609E-02  0.8268423E-01
        1   -1    0    0  501    0  0.00000000000E+00  0.00000000000E+00  0.19611916086E+04  0.19611916086E+04  0.50400001928E-02 0. -1.
       -1   -1    0    0    0  501  0.00000000000E+00  0.00000000000E+00 -0.10831860159E+04  0.10831860159E+04  0.50400001928E-02 0.  1.
    10030    2    1    2    0    0  0.00000000000E+00  0.00000000000E+00  0.87800559269E+03  0.30443776245E+04  0.29150199485E+04 0.  0.
        4    1    3    3  502    0 -0.95323780134E+03  0.94299643240E+03 -0.15769089614E+03  0.13501009625E+04  0.12699999809E+01 0.  1.
       -4    1    3    3    0  502  0.95323780134E+03 -0.94299643240E+03  0.10356964888E+04  0.16942766620E+04  0.12699999809E+01 0. -1.
</event>
<event>
 5   0  0.4162450E-06  0.2896721E+04  0.7818609E-02  0.8273854E-01
       -2   -1    0    0    0  501  0.00000000000E+00  0.00000000000E+00  0.95602142079E+03  0.95602142079E+03  0.25500000920E-02 0.  1.
        2   -1    0    0  501    0  0.00000000000E+00  0.00000000000E+00 -0.21942477896E+04  0.21942477896E+04  0.25500000920E-02 0. -1.
    10030    2    1    2    0    0  0.00000000000E+00  0.00000000000E+00 -0.12382263688E+04  0.31502692104E+04  0.28967208284E+04 0.  0.
        2    1    3    3  502    0 -0.45789542892E+03  0.49886214395E+03  0.77327121531E+03  0.10278521464E+04  0.25500000920E-02 0.  1.
       -2    1    3    3    0  502  0.45789542892E+03 -0.49886214395E+03 -0.20114975842E+04  0.21224170640E+04  0.25500000920E-02 0. -1.
</event>
<event>
 5   0  0.4115143E-06  0.2923108E+04  0.7818609E-02  0.8266035E-01
        2   -1    0    0  501    0  0.00000000000E+00  0.00000000000E+00  0.14854975661E+04  0.14854975662E+04  0.25500000920E-02 0.  1.
       -2   -1    0    0    0  501  0.00000000000E+00  0.00000000000E+00 -0.14379959000E+04  0.14379959000E+04  0.25500000920E-02 0. -1.
    10030    2    1    2    0    0  0.00000000000E+00  0.00000000000E+00  0.47501666181E+02  0.29234934661E+04  0.29231075311E+04 0.  0.
        1    1    3    3  502    0  0.34777920353E+03 -0.11712661349E+04 -0.77843029529E+03  0.14487126898E+04  0.50400001928E-02 0. -1.
       -1    1    3    3    0  502 -0.34777920353E+03  0.11712661349E+04  0.82593196147E+03  0.14747807763E+04  0.50400001928E-02 0.  1.
</event>
<event>
 5   0  0.4187518E-06  0.2907411E+04  0.7818609E-02  0.8270676E-01
        2   -1    0    0  501    0  0.00000000000E+00  0.00000000000E+00  0.17994006382E+04  0.17994006382E+04  0.25500000920E-02 0. -1.
       -2   -1    0    0    0  501  0.00000000000E+00  0.00000000000E+00 -0.11744244989E+04  0.11744244989E+04  0.25500000920E-02 0.  1.
    10030    2    1    2    0    0  0.00000000000E+00  0.00000000000E+00  0.62497613933E+03  0.29738251370E+04  0.29074113522E+04 0.  0.
        3    1    3    3  502    0 -0.71979423145E+03 -0.12629663772E+04  0.30378627057E+03  0.14850838071E+04  0.10100000352E+00 0.  1.
       -3    1    3    3    0  502  0.71979423145E+03  0.12629663772E+04  0.32118986876E+03  0.14887413300E+04  0.10100000352E+00 0. -1.
</event>
<event>
 5   0  0.4115143E-06  0.2915821E+04  0.7818609E-02  0.8268186E-01
        2   -1    0    0  501    0  0.00000000000E+00  0.00000000000E+00  0.20702356592E+04  0.20702356592E+04  0.25500000920E-02 0. -1.
       -2   -1    0    0    0  501  0.00000000000E+00  0.00000000000E+00 -0.10266960708E+04  0.10266960708E+04  0.25500000920E-02 0.  1.
    10030    2    1    2    0    0  0.00000000000E+00  0.00000000000E+00  0.10435395884E+04  0.30969317301E+04  0.29158208567E+04 0.  0.
        1    1    3    3  502    0 -0.48723902033E+03 -0.29108712390E+03 -0.90453756325E+03  0.10678585019E+04  0.50400001928E-02 0.  1.
       -1    1    3    3    0  502  0.48723902033E+03  0.29108712390E+03  0.19480771516E+04  0.20290732282E+04  0.50400001928E-02 0. -1.
</event>
<event>
 5   0  0.4224163E-06  0.2934498E+04  0.7818609E-02  0.8262687E-01
       -2   -1    0    0    0  501  0.00000000000E+00  0.00000000000E+00  0.88981392333E+03  0.88981392333E+03  0.25500000920E-02 0.  1.
        2   -1    0    0  501    0  0.00000000000E+00  0.00000000000E+00 -0.24194042288E+04  0.24194042288E+04  0.25500000920E-02 0. -1.
    10030    2    1    2    0    0  0.00000000000E+00  0.00000000000E+00 -0.15295903055E+04  0.33092181522E+04  0.29344979598E+04 0.  0.
        4    1    3    3  502    0 -0.29997972478E+02  0.15683854200E+03  0.87998543630E+03  0.89435685697E+03  0.12699999809E+01 0.  1.
       -4    1    3    3    0  502  0.29997972478E+02 -0.15683854200E+03 -0.24095757418E+04  0.24148612952E+04  0.12699999809E+01 0. -1.
</event>
<event>
 5   0  0.1543678E-06  0.2905980E+04  0.7818609E-02  0.8271100E-01
        1   -1    0    0  501    0  0.00000000000E+00  0.00000000000E+00  0.26742062541E+04  0.26742062541E+04  0.50400001928E-02 0. -1.
       -1   -1    0    0    0  501  0.00000000000E+00  0.00000000000E+00 -0.78946057533E+03  0.78946057535E+03  0.50400001928E-02 0.  1.
    10030    2    1    2    0    0  0.00000000000E+00  0.00000000000E+00  0.18847456788E+04  0.34636668295E+04  0.29059803220E+04 0.  0.
        3    1    3    3  502    0  0.83698168966E+03  0.11847614503E+04  0.84277626591E+03  0.16776381873E+04  0.10100000352E+00 0.  1.
       -3    1    3    3    0  502 -0.83698168966E+03 -0.11847614503E+04  0.10419694129E+04  0.17860286422E+04  0.10100000352E+00 0. -1.
</event>
<event>
 5   0  0.1602873E-06  0.2917948E+04  0.7818609E-02  0.8267557E-01
        1   -1    0    0  501    0  0.00000000000E+00  0.00000000000E+00  0.20360443070E+04  0.20360443070E+04  0.50400001928E-02 0. -1.
       -1   -1    0    0    0  501  0.00000000000E+00  0.00000000000E+00 -0.10454609151E+04  0.10454609151E+04  0.50400001928E-02 0.  1.
    10030    2    1    2    0    0  0.00000000000E+00  0.00000000000E+00  0.99058339191E+03  0.30815052221E+04  0.29179477339E+04 0.  0.
        1    1    3    3  502    0 -0.69874683314E+03 -0.72210118859E+03  0.16123770802E+04  0.18998518659E+04  0.50400001928E-02 0. -1.
       -1    1    3    3    0  502  0.69874683314E+03  0.72210118859E+03 -0.62179368833E+03  0.11816533562E+04  0.50400001928E-02 0.  1.
</event>
<event>
 5   0  0.1360125E-06  0.2969834E+04  0.7818609E-02  0.8252398E-01
        3   -1    0    0  501    0  0.00000000000E+00  0.00000000000E+00  0.98105931472E+03  0.98105931991E+03  0.10100000352E+00 0.  1.
       -3   -1    0    0    0  501  0.00000000000E+00  0.00000000000E+00 -0.22475483692E+04  0.22475483715E+04  0.10100000352E+00 0. -1.
    10030    2    1    2    0    0  0.00000000000E+00  0.00000000000E+00 -0.12664890545E+04  0.32286076914E+04  0.29698338505E+04 0.  0.
        5    1    3    3  502    0  0.46929541627E+03  0.66182959319E+03 -0.19852738439E+04  0.21446656903E+04  0.46999998093E+01 0. -1.
       -5    1    3    3    0  502 -0.46929541627E+03 -0.66182959319E+03  0.71878478939E+03  0.10839420010E+04  0.46999998093E+01 0.  1.
</event>
<event>
 5   0  0.1602873E-06  0.2914586E+04  0.7818609E-02  0.8268551E-01
        1   -1    0    0  501    0  0.00000000000E+00  0.00000000000E+00  0.18174627482E+04  0.18174627482E+04  0.50400001928E-02 0. -1.
       -1   -1    0    0    0  501  0.00000000000E+00  0.00000000000E+00 -0.11684990592E+04  0.11684990592E+04  0.50400001928E-02 0.  1.
    10030    2    1    2    0    0  0.00000000000E+00  0.00000000000E+00  0.64896368900E+03  0.29859618074E+04  0.29145864279E+04 0.  0.
        1    1    3    3  502    0 -0.11381813772E+03  0.10023112112E+04 -0.75299678242E+03  0.12588035935E+04  0.50400001928E-02 0.  1.
       -1    1    3    3    0  502  0.11381813772E+03 -0.10023112112E+04  0.14019604714E+04  0.17271582140E+04  0.50400001928E-02 0. -1.
</event>
<event>
 5   0  0.1580212E-06  0.2912334E+04  0.7818609E-02  0.8269217E-01
       -1   -1    0    0    0  501  0.00000000000E+00  0.00000000000E+00  0.98510165885E+03  0.98510165886E+03  0.50400001928E-02 0. -1.
        1   -1    0    0  501    0  0.00000000000E+00  0.00000000000E+00 -0.21524907807E+04  0.21524907807E+04  0.50400001928E-02 0.  1.
    10030    2    1    2    0    0  0.00000000000E+00  0.00000000000E+00 -0.11673891218E+04  0.31375924395E+04  0.29123339360E+04 0.  0.
        4    1    3    3  502    0  0.45947233243E+03  0.17416332294E+03 -0.20604739473E+04  0.21182545144E+04  0.12699999809E+01 0.  1.
       -4    1    3    3    0  502 -0.45947233243E+03 -0.17416332294E+03  0.89308482546E+03  0.10193379252E+04  0.12699999809E+01 0. -1.
</event>
<event>
 5   0  0.1543678E-06  0.2925151E+04  0.7818609E-02  0.8265433E-01
       -1   -1    0    0    0  501  0.00000000000E+00  0.00000000000E+00  0.14691019666E+04  0.14691019666E+04  0.50400001928E-02 0.  1.
        1   -1    0    0  501    0  0.00000000000E+00  0.00000000000E+00 -0.14560782648E+04  0.14560782648E+04  0.50400001928E-02 0. -1.
    10030    2    1    2    0    0  0.00000000000E+00  0.00000000000E+00  0.13023701796E+02  0.29251802313E+04  0.29251512387E+04 0.  0.
        3    1    3    3  502    0 -0.98979063830E+02 -0.13478827948E+04 -0.55254873979E+03  0.14601010251E+04  0.10100000352E+00 0. -1.
       -3    1    3    3    0  502  0.98979063830E+02  0.13478827948E+04  0.56557244158E+03  0.14650792062E+04  0.10100000352E+00 0.  1.
</event>
<event>
 5   0  0.4224163E-06  0.2916724E+04  0.7818609E-02  0.8267919E-01
        2   -1    0    0  501    0  0.00000000000E+00  0.00000000000E+00  0.12482028311E+04  0.12482028311E+04  0.25500000920E-02 0. -1.
       -2   -1    0    0    0  501  0.00000000000E+00  0.00000000000E+00 -0.17039052660E+04  0.17039052660E+04  0.25500000920E-02 0.  1.
    10030    2    1    2    0    0  0.00000000000E+00  0.00000000000E+00 -0.45570243487E+03  0.29521080971E+04  0.29167237627E+04 0.  0.
        4    1    3    3  502    0  0.92097442070E+03 -0.19230976395E+03  0.89995620825E+03  0.13019599527E+04  0.12699999809E+01 0. -1.
       -4    1    3    3    0  502 -0.92097442070E+03  0.19230976395E+03 -0.13556586431E+04  0.16501481444E+04  0.12699999809E+01 0.  1.
</event>
<event>
 5   0  0.1550278E-06  0.2974899E+04  0.7818609E-02  0.8250935E-01
       -1   -1    0    0    0  501  0.00000000000E+00  0.00000000000E+00  0.11419133729E+04  0.11419133730E+04  0.50400001928E-02 0. -1.
        1   -1    0    0  501    0  0.00000000000E+00  0.00000000000E+00 -0.19375430501E+04  0.19375430501E+04  0.50400001928E-02 0.  1.
    10030    2    1    2    0    0  0.00000000000E+00  0.00000000000E+00 -0.79562967719E+03  0.30794564231E+04  0.29748992048E+04 0.  0.
        2    1    3    3  502    0 -0.56655322293E+03 -0.17016375010E+03  0.10149109832E+04  0.11747265895E+04  0.25500000920E-02 0. -1.
       -2    1    3    3    0  502  0.56655322293E+03  0.17016375010E+03 -0.18105406604E+04  0.19047298336E+04  0.25500000920E-02 0.  1.
</event>
<event>
 5   0  0.1543678E-06  0.2895191E+04  0.7818609E-02  0.8274310E-01
       -1   -1    0    0    0  501  0.00000000000E+00  0.00000000000E+00  0.10629913208E+04  0.10629913208E+04  0.50400001928E-02 0. -1.
        1   -1    0    0  501    0  0.00000000000E+00  0.00000000000E+00 -0.19713550395E+04  0.19713550395E+04  0.50400001928E-02 0.  1.
    10030    2    1    2    0    0  0.00000000000E+00  0.00000000000E+00 -0.90836371872E+03  0.30343463604E+04  0.28951913908E+04 0.  0.
        3    1    3    3  502    0  0.53038912593E+03 -0.77544206599E+03 -0.16084380422E+04  0.18627119929E+04  0.10100000352E+00 0.  1.
       -3    1    3    3    0  502 -0.53038912593E+03  0.77544206599E+03  0.70007432346E+03  0.11716343675E+04  0.10100000352E+00 0. -1.
</event>
<event>
 5   0  0.4148677E-06  0.2904137E+04  0.7818609E-02  0.8271648E-01
       -2   -1    0    0    0  501  0.00000000000E+00  0.00000000000E+00  0.23299631490E+04  0.23299631490E+04  0.25500000920E-02 0.  1.
        2   -1    0    0  501    0  0.00000000000E+00  0.00000000000E+00 -0.90495129470E+03  0.90495129470E+03  0.25500000920E-02 0. -1.
    10030    2    1    2    0    0  0.00000000000E+00  0.00000000000E+00  0.14250118543E+04  0.32349144437E+04  0.29041371650E+04 0.  0.
        5    1    3    3  502    0 -0.14472217078E+04 -0.90245175857E+02  0.79796609452E+03  0.16551032721E+04  0.46999998093E+01 0.  1.
       -5    1    3    3    0  502  0.14472217078E+04  0.90245175857E+02  0.62704575983E+03  0.15798111717E+04  0.46999998093E+01 0. -1.
</event>
<event>
 5   0  0.1550278E-06  0.2901820E+04  0.7818609E-02  0.8272336E-01
        1   -1    0    0  501    0  0.00000000000E+00  0.00000000000E+00  0.15661092350E+04  0.15661092350E+04  0.50400001928E-02 0. -1.
       -1   -1    0    0    0  501  0.00000000000E+00  0.00000000000E+00 -0.13441845304E+04  0.13441845305E+04  0.50400001928E-02 0.  1.
    10030    2    1    2    0    0  0.00000000000E+00  0.00000000000E+00  0.22192470452E+03  0.29102937654E+04  0.29018199852E+04 0.  0.
        2    1    3    3  502    0 -0.13391059387E+04  0.29956777987E+03 -0.36178897494E+03  0.14190971891E+04  0.25500000920E-02 0.  1.
       -2    1    3    3    0  502  0.13391059387E+04 -0.29956777987E+03  0.58371367946E+03  0.14911965763E+04  0.25500000920E-02 0. -1.
</event>
<event>
 5   0  0.1511126E-06  0.2905428E+04  0.7818609E-02  0.8271264E-01
        1   -1    0    0  501    0  0.00000000000E+00  0.00000000000E+00  0.18690015917E+04  0.18690015917E+04  0.50400001928E-02 0.  1.
       -1   -1    0    0    0  501  0.00000000000E+00  0.00000000000E+00 -0.11291474113E+04  0.11291474113E+04  0.50400001928E-02 0. -1.
    10030    2    1    2    0    0  0.00000000000E+00  0.00000000000E+00  0.73985418045E+03  0.29981490030E+04  0.29054282363E+04 0.  0.
        5    1    3    3  502    0 -0.61891856375E+02 -0.11987037521E+04  0.12143540885E+04  0.17074540197E+04  0.46999998093E+01 0.  1.
       -5    1    3    3    0  502  0.61891856375E+02  0.11987037521E+04 -0.47449990803E+03  0.12906949833E+04  0.46999998093E+01 0. -1.
</event>
<event>
 5   0  0.1511126E-06  0.2896469E+04  0.7818609E-02  0.8273929E-01
       -1   -1    0    0    0  501  0.00000000000E+00  0.00000000000E+00  0.13605434505E+04  0.13605434505E+04  0.50400001928E-02 0.  1.
        1   -1    0    0  501    0  0.00000000000E+00  0.00000000000E+00 -0.15415776254E+04  0.15415776254E+04  0.50400001928E-02 0. -1.
    10030    2    1    2    0    0  0.00000000000E+00  0.00000000000E+00 -0.18103417496E+03  0.29021210759E+04  0.28964691206E+04 0.  0.
        5    1    3    3  502    0  0.47401339276E+03 -0.23039321608E+03  0.12610374552E+04  0.13667506297E+04  0.46999998093E+01 0.  1.
       -5    1    3    3    0  502 -0.47401339276E+03  0.23039321608E+03 -0.14420716301E+04  0.15353704462E+04  0.46999998093E+01 0. -1.
</event>
<event>
 5   0  0.4162450E-06  0.2902742E+04  0.7818609E-02  0.8272062E-01
        2   -1    0    0  501    0  0.00000000000E+00  0.00000000000E+00  0.20856876469E+04  0.20856876469E+04  0.25500000920E-02 0.  1.
       -2   -1    0    0    0  501  0.00000000000E+00  0.00000000000E+00 -0.10099678477E+04  0.10099678477E+04  0.25500000920E-02 0. -1.
    10030    2    1    2    0    0  0.00000000000E+00  0.00000000000E+00  0.10757197993E+04  0.30956554946E+04  0.29027417823E+04 0.  0.
        2    1    3    3  502    0  0.45849727914E+03 -0.99252759658E+03  0.15558378413E+04  0.19015683457E+04  0.25500000920E-02 0.  1.
       -2    1    3    3    0  502 -0.45849727914E+03  0.99252759658E+03 -0.48011804203E+03  0.11940871489E+04  0.25500000920E-02 0. -1.
</event>
<event>
 5   0  0.4162450E-06  0.2906755E+04  0.7818609E-02  0.8270871E-01
       -2   -1    0    0    0  501  0.00000000000E+00  0.00000000000E+00  0.17943274554E+04  0.17943274554E+04  0.25500000920E-02 0.  1.
        2   -1    0    0  501    0  0.00000000000E+00  0.00000000000E+00 -0.11772132274E+04  0.11772132274E+04  0.25500000920E-02 0. -1.
    10030    2    1    2    0    0  0.00000000000E+00  0.00000000000E+00  0.61711422799E+03  0.29715406828E+04  0.29067549018E+04 0.  0.
        2    1    3    3  502    0  0.54578501759E+03 -0.97164160662E+03 -0.64515449611E+03  0.12877084379E+04  0.25500000920E-02 0. -1.
       -2    1    3    3    0  502 -0.54578501759E+03  0.97164160662E+03  0.12622687241E+04  0.16838322449E+04  0.25500000920E-02 0.  1.
</event>
<event>
 5   0  0.4148677E-06  0.2919299E+04  0.7818609E-02  0.8267159E-01
        2   -1    0    0  501    0  0.00000000000E+00  0.00000000000E+00  0.21988176227E+04  0.21988176227E+04  0.25500000920E-02 0.  1.
       -2   -1    0    0    0  501  0.00000000000E+00  0.00000000000E+00 -0.96896446609E+03  0.96896446610E+03  0.25500000920E-02 0. -1.
    10030    2    1    2    0    0  0.00000000000E+00  0.00000000000E+00  0.12298531566E+04  0.31677820888E+04  0.29192986444E+04 0.  0.
        5    1    3    3  502    0 -0.35561238278E+03  0.96985768036E+03 -0.50409738834E+03  0.11494434975E+04  0.46999998093E+01 0. -1.
       -5    1    3    3    0  502  0.35561238278E+03 -0.96985768036E+03  0.17339505449E+04  0.20183385913E+04  0.46999998093E+01 0.  1.
</event>
<event>
 5   0  0.4224163E-06  0.2928085E+04  0.7818609E-02  0.8264570E-01
       -2   -1    0    0    0  501  0.00000000000E+00  0.00000000000E+00  0.11058243645E+04  0.11058243645E+04  0.25500000920E-02 0.  1.
        2   -1    0    0  501    0  0.00000000000E+00  0.00000000000E+00 -0.19383009840E+04  0.19383009840E+04  0.25500000920E-02 0. -1.
    10030    2    1    2    0    0  0.00000000000E+00  0.00000000000E+00 -0.83247661947E+03  0.30441253484E+04  0.29280850082E+04 0.  0.
        4    1    3    3  502    0 -0.14224133832E+04 -0.25971797284E+03 -0.17756318403E+03  0.14567922142E+04  0.12699999809E+01 0. -1.
       -4    1    3    3    0  502  0.14224133832E+04  0.25971797284E+03 -0.65491343544E+03  0.15873331342E+04  0.12699999809E+01 0.  1.
</event>
<event>
 5   0  0.1602873E-06  0.2794558E+04  0.7818609E-02  0.8304960E-01
        1   -1    0    0  501    0  0.00000000000E+00  0.00000000000E+00  0.19795149909E+04  0.19795149909E+04  0.50400001928E-02 0. -1.
       -1   -1    0    0    0  501  0.00000000000E+00  0.00000000000E+00 -0.98629620252E+03  0.98629620254E+03  0.50400001928E-02 0.  1.
    10030    2    1    2    0    0  0.00000000000E+00  0.00000000000E+00  0.99321878842E+03  0.29658111935E+04  0.27945576526E+04 0.  0.
        1    1    3    3  502    0  0.44559337592E+02 -0.32069335055E+03 -0.94593606795E+03  0.99981238457E+03  0.50400001928E-02 0.  1.
       -1    1    3    3    0  502 -0.44559337592E+02  0.32069335055E+03  0.19391548564E+04  0.19659988089E+04  0.50400001928E-02 0. -1.
</event>
<event>
 5   0  0.4224163E-06  0.2893722E+04  0.7818609E-02  0.8274748E-01
        2   -1    0    0  501    0  0.00000000000E+00  0.00000000000E+00  0.21984743012E+04  0.21984743012E+04  0.25500000920E-02 0.  1.
       -2   -1    0    0    0  501  0.00000000000E+00  0.00000000000E+00 -0.95220898789E+03  0.95220898789E+03  0.25500000920E-02 0. -1.
    10030    2    1    2    0    0  0.00000000000E+00  0.00000000000E+00  0.12462653133E+04  0.31506832891E+04  0.28937221630E+04 0.  0.
        4    1    3    3  502    0 -0.40768364561E+03 -0.13868369324E+04  0.55528773951E+03  0.15485053176E+04  0.12699999809E+01 0. -1.
       -4    1    3    3    0  502  0.40768364561E+03  0.13868369324E+04  0.69097757377E+03  0.16021779715E+04  0.12699999809E+01 0.  1.
</event>
<event>
 5   0  0.1580212E-06  0.2891000E+04  0.7818609E-02  0.8275560E-01
       -1   -1    0    0    0  501  0.00000000000E+00  0.00000000000E+00  0.15123102231E+04  0.15123102231E+04  0.50400001928E-02 0. -1.
        1   -1    0    0  501    0  0.00000000000E+00  0.00000000000E+00 -0.13816417192E+04  0.13816417192E+04  0.50400001928E-02 0.  1.
    10030    2    1    2    0    0  0.00000000000E+00  0.00000000000E+00  0.13066850390E+03  0.28939519423E+04  0.28910004473E+04 0.  0.
        4    1    3    3  502    0  0.84816925811E+03 -0.11627600663E+04  0.19988584396E+03  0.14530512812E+04  0.12699999809E+01 0.  1.
       -4    1    3    3    0  502 -0.84816925811E+03  0.11627600663E+04 -0.69217340057E+02  0.14409006611E+04  0.12699999809E+01 0. -1.
</event>
<event>
 5   0  0.4115143E-06  0.2958673E+04  0.7818609E-02  0.8255631E-01
       -2   -1    0    0    0  501  0.00000000000E+00  0.00000000000E+00  0.16030778819E+04  0.16030778819E+04  0.25500000920E-02 0.  1.
        2   -1    0    0  501    0  0.00000000000E+00  0.00000000000E+00 -0.13651468835E+04  0.13651468835E+04  0.25500000920E-02 0. -1.
    10030    2    1    2    0    0  0.00000000000E+00  0.00000000000E+00  0.23793099841E+03  0.29682247654E+04  0.29586731989E+04 0.  0.
        1    1    3    3  502    0 -0.78834392974E+03  0.12079929464E+04 -0.21027634545E+03  0.14577205671E+04  0.50400001928E-02 0. -1.
       -1    1    3    3    0  502  0.78834392974E+03 -0.12079929464E+04  0.44820734386E+03  0.15105041984E+04  0.50400001928E-02 0.  1.
</event>
<event>
 5   0  0.1543678E-06  0.2906486E+04  0.7818609E-02  0.8270950E-01
        1   -1    0    0  501    0  0.00000000000E+00  0.00000000000E+00  0.18551415358E+04  0.18551415359E+04  0.50400001928E-02 0. -1.
       -1   -1    0    0    0  501  0.00000000000E+00  0.00000000000E+00 -0.11384115288E+04  0.11384115288E+04  0.50400001928E-02 0.  1.
    10030    2    1    2    0    0  0.00000000000E+00  0.00000000000E+00  0.71673000703E+03  0.29935530647E+04  0.29064855148E+04 0.  0.
        3    1    3    3  502    0 -0.33881681098E+03 -0.66086761854E+02  0.18123008025E+04  0.18448844138E+04  0.10100000352E+00 0. -1.
       -3    1    3    3    0  502  0.33881681098E+03  0.66086761854E+02 -0.10955707954E+04  0.11486686509E+04  0.10100000352E+00 0.  1.
</event>
<event>
 5   0  0.4187518E-06  0.2899900E+04  0.7818609E-02  0.8272907E-01
        2   -1    0    0  501    0  0.00000000000E+00  0.00000000000E+00  0.25931838133E+04  0.25931838133E+04  0.25500000920E-02 0.  1.
       -2   -1    0    0    0  501  0.00000000000E+00  0.00000000000E+00 -0.81072363742E+03  0.81072363743E+03  0.25500000920E-02 0. -1.
    10030    2    1    2    0    0  0.00000000000E+00  0.00000000000E+00  0.17824601758E+04  0.34039074507E+04  0.28999002835E+04 0.  0.
        3    1    3    3  502    0 -0.34696724500E+03  0.12293457568E+04  0.16965282269E+04  0.21236490514E+04  0.10100000352E+00 0. -1.
       -3    1    3    3    0  502  0.34696724500E+03 -0.12293457568E+04  0.85931948955E+02  0.12802583993E+04  0.10100000352E+00 0.  1.
</event>
<event>
 5   0  0.1511126E-06  0.2896452E+04  0.7818609E-02  0.8273934E-01
       -1   -1    0    0    0  501  0.00000000000E+00  0.00000000000E+00  0.17329916944E+04  0.17329916944E+04  0.50400001928E-02 0.  1.
        1   -1    0    0  501    0  0.00000000000E+00  0.00000000000E+00 -0.12102530083E+04  0.12102530083E+04  0.50400001928E-02 0. -1.
    10030    2    1    2    0    0  0.00000000000E+00  0.00000000000E+00  0.52273868609E+03  0.29432447027E+04  0.28964519064E+04 0.  0.
        5    1    3    3  502    0  0.25734880604E+03 -0.34873332623E+02 -0.11863903792E+04  0.12144911606E+04  0.46999998093E+01 0. -1.
       -5    1    3    3    0  502 -0.25734880604E+03  0.34873332623E+02  0.17091290653E+04  0.17287535421E+04  0.46999998093E+01 0.  1.
</event>
<event>
 5   0  0.4115143E-06  0.2893092E+04  0.7818609E-02  0.8274936E-01
        2   -1    0    0  501    0  0.00000000000E+00  0.00000000000E+00  0.19692615559E+04  0.19692615559E+04  0.25500000920E-02 0. -1.
       -2   -1    0    0    0  501  0.00000000000E+00  0.00000000000E+00 -0.10625784895E+04  0.10625784895E+04  0.25500000920E-02 0.  1.
    10030    2    1    2    0    0  0.00000000000E+00  0.00000000000E+00  0.90668306642E+03  0.30318400454E+04  0.28930917507E+04 0.  0.
        1    1    3    3  502    0  0.33932637196E+03 -0.13929734271E+04  0.25182368311E+03  0.14556553585E+04  0.50400001928E-02 0. -1.
       -1    1    3    3    0  502 -0.33932637196E+03  0.13929734271E+04  0.65485938331E+03  0.15761846869E+04  0.50400001928E-02 0.  1.
</event>
<event>
 5   0  0.4187518E-06  0.2907253E+04  0.7818609E-02  0.8270723E-01
       -2   -1    0    0    0  501  0.00000000000E+00  0.00000000000E+00  0.14296576512E+04  0.14296576512E+04  0.25500000920E-02 0. -1.
        2   -1    0    0  501    0  0.00000000000E+00  0.00000000000E+00 -0.14779974437E+04  0.14779974437E+04  0.25500000920E-02 0.  1.
    10030    2    1    2    0    0  0.00000000000E+00  0.00000000000E+00 -0.48339792498E+02  0.29076550949E+04  0.29072532424E+04 0.  0.
        3    1    3    3  502    0  0.11084123145E+04 -0.61097834067E+03 -0.73922183167E+03  0.14657152924E+04  0.10100000352E+00 0.  1.
       -3    1    3    3    0  502 -0.11084123145E+04  0.61097834067E+03  0.69088203917E+03  0.14419398025E+04  0.10100000352E+00 0. -1.
</event>
<event>
 5   0  0.1360125E-06  0.2784709E+04  0.7818609E-02  0.8308031E-01
        3   -1    0    0  501    0  0.00000000000E+00  0.00000000000E+00  0.18996420407E+04  0.18996420434E+04  0.10100000352E+00 0.  1.
       -3   -1    0    0    0  501  0.00000000000E+00  0.00000000000E+00 -0.10205348904E+04  0.10205348954E+04  0.10100000352E+00 0. -1.
    10030    2    1    2    0    0  0.00000000000E+00  0.00000000000E+00  0.87910715025E+03  0.29201769388E+04  0.27847089565E+04 0.  0.
        5    1    3    3  502    0 -0.10489753376E+04  0.86964836105E+03  0.13928254558E+03  0.13696931219E+04  0.46999998093E+01 0. -1.
       -5    1    3    3    0  502  0.10489753376E+04 -0.86964836105E+03  0.73982460466E+03  0.15504838169E+04  0.46999998093E+01 0.  1.
</event>
<event>
 5   0  0.1580212E-06  0.2912286E+04  0.7818609E-02  0.8269231E-01
        1   -1    0    0  501    0  0.00000000000E+00  0.00000000000E+00  0.13147254614E+04  0.13147254614E+04  0.50400001928E-02 0.  1.
       -1   -1    0    0    0  501  0.00000000000E+00  0.00000000000E+00 -0.16127718549E+04  0.16127718549E+04  0.50400001928E-02 0. -1.
    10030    2    1    2    0    0  0.00000000000E+00  0.00000000000E+00 -0.29804639345E+03  0.29274973163E+04  0.29122858521E+04 0.  0.
        4    1    3    3  502    0 -0.10033395069E+04  0.61554089135E+03  0.71264124222E+03  0.13760232222E+04  0.12699999809E+01 0.  1.
       -4    1    3    3    0  502  0.10033395069E+04 -0.61554089135E+03 -0.10106876357E+04  0.15514740941E+04  0.12699999809E+01 0. -1.
</event>
<event>
 5   0  0.1550278E-06  0.2903189E+04  0.7818609E-02  0.8271929E-01
        1   -1    0    0  501    0  0.00000000000E+00  0.00000000000E+00  0.18693677341E+04  0.18693677341E+04  0.50400001928E-02 0.  1.
       -1   -1    0    0    0  501  0.00000000000E+00  0.00000000000E+00 -0.11271867729E+04  0.11271867729E+04  0.50400001928E-02 0. -1.
    10030    2    1    2    0    0  0.00000000000E+00  0.00000000000E+00  0.74218096125E+03  0.29965545070E+04  0.29031889939E+04 0.  0.
        2    1    3    3  502    0 -0.26260524952E+03 -0.23846618132E+03  0.18239441595E+04  0.18581173090E+04  0.25500000920E-02 0.  1.
       -2    1    3    3    0  502  0.26260524952E+03  0.23846618132E+03 -0.10817631983E+04  0.11384371980E+04  0.25500000920E-02 0. -1.
</event>
<event>
 5   0  0.4224163E-06  0.2937797E+04  0.7818609E-02  0.8261720E-01
        2   -1    0    0  501    0  0.00000000000E+00  0.00000000000E+00  0.77876552561E+03  0.77876552561E+03  0.25500000920E-02 0. -1.
       -2   -1    0    0    0  501  0.00000000000E+00  0.00000000000E+00 -0.27706185939E+04  0.27706185939E+04  0.25500000920E-02 0.  1.
    10030    2    1    2    0    0  0.00000000000E+00  0.00000000000E+00 -0.19918530683E+04  0.35493841196E+04  0.29377966203E+04 0.  0.
        4    1    3    3  502    0 -0.67062502115E+03  0.16782198646E+03  0.56993983981E+03  0.89595489397E+03  0.12699999809E+01 0. -1.
       -4    1    3    3    0  502  0.67062502115E+03 -0.16782198646E+03 -0.25617929081E+04  0.26534292256E+04  0.12699999809E+01 0.  1.
</event>
<event>
 5   0  0.4115143E-06  0.2898684E+04  0.7818609E-02  0.8273269E-01
        2   -1    0    0  501    0  0.00000000000E+00  0.00000000000E+00  0.28940347130E+04  0.28940347130E+04  0.25500000920E-02 0. -1.
       -2   -1    0    0    0  501  0.00000000000E+00  0.00000000000E+00 -0.72583542433E+03  0.72583542433E+03  0.25500000920E-02 0.  1.
    10030    2    1    2    0    0  0.00000000000E+00  0.00000000000E+00  0.21681992886E+04  0.36198701373E+04  0.28986844698E+04 0.  0.
        1    1    3    3  502    0 -0.91480652960E+03 -0.87628678820E+03  0.19634547951E+04  0.23366438013E+04  0.50400001928E-02 0.  1.
       -1    1    3    3    0  502  0.91480652960E+03  0.87628678820E+03  0.20474449355E+03  0.12832263360E+04  0.50400001928E-02 0. -1.
</event>
<event>
 5   0  0.1602873E-06  0.2899092E+04  0.7818609E-02  0.8273148E-01
        1   -1    0    0  501    0  0.00000000000E+00  0.00000000000E+00  0.14874997475E+04  0.14874997475E+04  0.50400001928E-02 0. -1.
       -1   -1    0    0    0  501  0.00000000000E+00  0.00000000000E+00 -0.14125609859E+04  0.14125609859E+04  0.50400001928E-02 0.  1.
    10030    2    1    2    0    0  0.00000000000E+00  0.00000000000E+00  0.74938761585E+02  0.29000607335E+04  0.28990923476E+04 0.  0.
        1    1    3    3  502    0  0.64172239385E+03 -0.17456429112E+03  0.13258839966E+04  0.14833235301E+04  0.50400001928E-02 0. -1.
       -1    1    3    3    0  502 -0.64172239385E+03  0.17456429112E+03 -0.12509452350E+04  0.14167372034E+04  0.50400001928E-02 0.  1.
</event>
<event>
 5   0  0.4148677E-06  0.2808260E+04  0.7818609E-02  0.8300709E-01
       -2   -1    0    0    0  501  0.00000000000E+00  0.00000000000E+00  0.11863925713E+04  0.11863925713E+04  0.25500000920E-02 0. -1.
        2   -1    0    0  501    0  0.00000000000E+00  0.00000000000E+00 -0.16618281751E+04  0.16618281751E+04  0.25500000920E-02 0.  1.
    10030    2    1    2    0    0  0.00000000000E+00  0.00000000000E+00 -0.47543560384E+03  0.28482207463E+04  0.28082596758E+04 0.  0.
        5    1    3    3  502    0  0.11257582777E+03  0.12424948276E+04 -0.89116192690E+03  0.15331856977E+04  0.46999998093E+01 0.  1.
       -5    1    3    3    0  502 -0.11257582777E+03 -0.12424948276E+04  0.41572632306E+03  0.13150350487E+04  0.46999998093E+01 0. -1.
</event>
<event>
 5   0  0.1580212E-06  0.2855647E+04  0.7818609E-02  0.8286197E-01
       -1   -1    0    0    0  501  0.00000000000E+00  0.00000000000E+00  0.98566533170E+03  0.98566533172E+03  0.50400001928E-02 0.  1.
        1   -1    0    0  501    0  0.00000000000E+00  0.00000000000E+00 -0.20683284865E+04  0.20683284865E+04  0.50400001928E-02 0. -1.
    10030    2    1    2    0    0  0.00000000000E+00  0.00000000000E+00 -0.10826631548E+04  0.30539938182E+04  0.28556468155E+04 0.  0.
        4    1    3    3  502    0  0.91363946023E+03  0.92277425731E+03 -0.11762227380E+04  0.17520704711E+04  0.12699999809E+01 0.  1.
       -4    1    3    3    0  502 -0.91363946023E+03 -0.92277425731E+03  0.93559583268E+02  0.13019233471E+04  0.12699999809E+01 0. -1.
</event>
<event>
 5   0  0.1511126E-06  0.2916062E+04  0.7818609E-02  0.8268115E-01
       -1   -1    0    0    0  501  0.00000000000E+00  0.00000000000E+00  0.17380178159E+04  0.17380178159E+04  0.50400001928E-02 0.  1.
        1   -1    0    0  501    0  0.00000000000E+00  0.00000000000E+00 -0.12231488487E+04  0.12231488487E+04  0.50400001928E-02 0. -1.
    10030    2    1    2    0    0  0.00000000000E+00  0.00000000000E+00  0.51486896723E+03  0.29611666647E+04  0.29160620642E+04 0.  0.
        5    1    3    3  502    0  0.31007975442E+03 -0.12403527798E+04 -0.45426847694E+03  0.13568369142E+04  0.46999998093E+01 0. -1.
       -5    1    3    3    0  502 -0.31007975442E+03  0.12403527798E+04  0.96913744417E+03  0.16043297505E+04  0.46999998093E+01 0.  1.
</event>
<event>
 5   0  0.1550278E-06  0.2941416E+04  0.7818609E-02  0.8260661E-01
        1   -1    0    0  501    0  0.00000000000E+00  0.00000000000E+00  0.23180741901E+04  0.23180741901E+04  0.50400001928E-02 0. -1.
       -1   -1    0    0    0  501  0.00000000000E+00  0.00000000000E+00 -0.93309407849E+03  0.93309407851E+03  0.50400001928E-02 0.  1.
    10030    2    1    2    0    0  0.00000000000E+00  0.00000000000E+00  0.13849801116E+04  0.32511682686E+04  0.29414155098E+04 0.  0.
        2    1    3    3  502    0 -0.78050142555E+03  0.10758878484E+04 -0.32955952162E+01  0.13291832073E+04  0.25500000920E-02 0.  1.
       -2    1    3    3    0  502  0.78050142555E+03 -0.10758878484E+04  0.13882757068E+04  0.19219850613E+04  0.25500000920E-02 0. -1.
</event>
<event>
 5   0  0.4224163E-06  0.2883314E+04  0.7818609E-02  0.8277859E-01
        2   -1    0    0  501    0  0.00000000000E+00  0.00000000000E+00  0.17921005252E+04  0.17921005252E+04  0.25500000920E-02 0.  1.
       -2   -1    0    0    0  501  0.00000000000E+00  0.00000000000E+00 -0.11597427150E+04  0.11597427150E+04  0.25500000920E-02 0. -1.
    10030    2    1    2    0    0  0.00000000000E+00  0.00000000000E+00  0.63235781019E+03  0.29518432403E+04  0.28833144322E+04 0.  0.
        4    1    3    3  502    0 -0.16973977037E+03  0.82515857162E+03 -0.88153076532E+03  0.12193425938E+04  0.12699999809E+01 0. -1.
       -4    1    3    3    0  502  0.16973977037E+03 -0.82515857162E+03  0.15138885755E+04  0.17325006464E+04  0.12699999809E+01 0.  1.
</event>
<event>
 5   0  0.1602873E-06  0.2864136E+04  0.7818609E-02  0.8283629E-01
        1   -1    0    0  501    0  0.00000000000E+00  0.00000000000E+00  0.16364300361E+04  0.16364300361E+04  0.50400001928E-02 0. -1.
       -1   -1    0    0    0  501  0.00000000000E+00  0.00000000000E+00 -0.12532273190E+04  0.12532273190E+04  0.50400001928E-02 0.  1.
    10030    2    1    2    0    0  0.00000000000E+00  0.00000000000E+00  0.38320271710E+03  0.28896573551E+04  0.28641360491E+04 0.  0.
        1    1    3    3  502    0 -0.12791455031E+04  0.30587975703E+03 -0.38005420119E+03  0.13690203942E+04  0.50400001928E-02 0.  1.
       -1    1    3    3    0  502  0.12791455031E+04 -0.30587975703E+03  0.76325691829E+03  0.15206369610E+04  0.50400001928E-02 0. -1.
</event>
<event>
 5   0  0.1543678E-06  0.2924862E+04  0.7818609E-02  0.8265518E-01
       -1   -1    0    0    0  501  0.00000000000E+00  0.00000000000E+00  0.12098845613E+04  0.12098845613E+04  0.50400001928E-02 0. -1.
        1   -1    0    0  501    0  0.00000000000E+00  0.00000000000E+00 -0.17676935287E+04  0.17676935287E+04  0.50400001928E-02 0.  1.
    10030    2    1    2    0    0  0.00000000000E+00  0.00000000000E+00 -0.55780896736E+03  0.29775780900E+04  0.29248624648E+04 0.  0.
        3    1    3    3  502    0  0.30255564531E+03  0.90062692352E+03  0.85290499848E+03  0.12767598523E+04  0.10100000352E+00 0. -1.
       -3    1    3    3    0  502 -0.30255564531E+03 -0.90062692352E+03 -0.14107139658E+04  0.17008182376E+04  0.10100000352E+00 0.  1.
</event>
<event>
 5   0  0.4162450E-06  0.2871256E+04  0.7818609E-02  0.8281481E-01
        2   -1    0    0  501    0  0.00000000000E+00  0.00000000000E+00  0.13164474196E+04  0.13164474196E+04  0.25500000920E-02 0. -1.
       -2   -1    0    0    0  501  0.00000000000E+00  0.00000000000E+00 -0.15655979651E+04  0.15655979651E+04  0.25500000920E-02 0.  1.
    10030    2    1    2    0    0  0.00000000000E+00  0.00000000000E+00 -0.24915054547E+03  0.28820453847E+04  0.28712557541E+04 0.  0.
        2    1    3    3  502    0 -0.38683320304E+03 -0.85088510266E+03 -0.12183406467E+04  0.15355778444E+04  0.25500000920E-02 0.  1.
       -2    1    3    3    0  502  0.38683320304E+03  0.85088510266E+03  0.96919010119E+03  0.13464675403E+04  0.25500000920E-02 0. -1.
</event>
<event>
 5   0  0.4224163E-06  0.2900557E+04  0.7818609E-02  0.8272712E-01
       -2   -1    0    0    0  501  0.00000000000E+00  0.00000000000E+00  0.17272706472E+04  0.17272706472E+04  0.25500000920E-02 0.  1.
        2   -1    0    0  501    0  0.00000000000E+00  0.00000000000E+00 -0.12177058325E+04  0.12177058325E+04  0.25500000920E-02 0. -1.
    10030    2    1    2    0    0  0.00000000000E+00  0.00000000000E+00  0.50956481474E+03  0.29449764797E+04  0.29005568716E+04 0.  0.
        4    1    3    3  502    0  0.77435084450E+03  0.80333446703E+03  0.11954371093E+04  0.16352482966E+04  0.12699999809E+01 0.  1.
       -4    1    3    3    0  502 -0.77435084450E+03 -0.80333446703E+03 -0.68587229455E+03  0.13097281831E+04  0.12699999809E+01 0. -1.
</event>
<event>
 5   0  0.1511126E-06  0.2840458E+04  0.7818609E-02  0.8290817E-01
        1   -1    0    0  501    0  0.00000000000E+00  0.00000000000E+00  0.13984870796E+04  0.13984870796E+04  0.50400001928E-02 0. -1.
       -1   -1    0    0    0  501  0.00000000000E+00  0.00000000000E+00 -0.14423093714E+04  0.14423093714E+04  0.50400001928E-02 0.  1.
    10030    2    1    2    0    0  0.00000000000E+00  0.00000000000E+00 -0.43822291849E+02  0.28407964510E+04  0.28404584283E+04 0.  0.
        5    1    3    3  502    0  0.51257673456E+03  0.60233156506E+03  0.11578438753E+04  0.14021992557E+04  0.46999998093E+01 0. -1.
       -5    1    3    3    0  502 -0.51257673456E+03 -0.60233156506E+03 -0.12016661672E+04  0.14385971953E+04  0.46999998093E+01 0.  1.
</event>
<event>
 5   0  0.4224163E-06  0.2894671E+04  0.7818609E-02  0.8274465E-01
        2   -1    0    0  501    0  0.00000000000E+00  0.00000000000E+00  0.14624593161E+04  0.14624593161E+04  0.25500000920E-02 0. -1.
       -2   -1    0    0    0  501  0.00000000000E+00  0.00000000000E+00 -0.14323680047E+04  0.14323680047E+04  0.25500000920E-02 0.  1.
    10030    2    1    2    0    0  0.00000000000E+00  0.00000000000E+00  0.30091311446E+02  0.28948273208E+04  0.28946709191E+04 0.  0.
        4    1    3    3  502    0 -0.12888473658E+04 -0.64083470647E+03 -0.13655958770E+03  0.14458377458E+04  0.12699999809E+01 0.  1.
       -4    1    3    3    0  502  0.12888473658E+04  0.64083470647E+03  0.16665089914E+03  0.14489895750E+04  0.12699999809E+01 0. -1.
</event>
<event>
 5   0  0.1550278E-06  0.2891419E+04  0.7818609E-02  0.8275435E-01
        1   -1    0    0  501    0  0.00000000000E+00  0.00000000000E+00  0.16229733852E+04  0.16229733853E+04  0.50400001928E-02 0. -1.
       -1   -1    0    0    0  501  0.00000000000E+00  0.00000000000E+00 -0.12878063155E+04  0.12878063155E+04  0.50400001928E-02 0.  1.
    10030    2    1    2    0    0  0.00000000000E+00  0.00000000000E+00  0.33516706974E+03  0.29107797008E+04  0.28914185968E+04 0.  0.
        2    1    3    3  502    0 -0.10411280193E+04 -0.22394793721E+03 -0.81670328094E+03  0.13420523389E+04  0.25500000920E-02 0.  1.
       -2    1    3    3    0  502  0.10411280193E+04  0.22394793721E+03  0.11518703507E+04  0.15687273619E+04  0.25500000920E-02 0. -1.
</event>
<event>
 5   0  0.4148677E-06  0.2906659E+04  0.7818609E-02  0.8270899E-01
        2   -1    0    0  501    0  0.00000000000E+00  0.00000000000E+00  0.14791396043E+04  0.14791396043E+04  0.25500000920E-02 0. -1.
       -2   -1    0    0    0  501  0.00000000000E+00  0.00000000000E+00 -0.14279698789E+04  0.14279698789E+04  0.25500000920E-02 0.  1.
    10030    2    1    2    0    0  0.00000000000E+00  0.00000000000E+00  0.51169725337E+02  0.29071094832E+04  0.29066591143E+04 0.  0.
        5    1    3    3  502    0 -0.75019877446E+03 -0.69683438075E+03  0.10571361365E+04  0.14717116757E+04  0.46999998093E+01 0. -1.
       -5    1    3    3    0  502  0.75019877446E+03  0.69683438075E+03 -0.10059664111E+04  0.14353978075E+04  0.46999998093E+01 0.  1.
</event>
<event>
 5   0  0.1580212E-06  0.2903555E+04  0.7818609E-02  0.8271821E-01
       -1   -1    0    0    0  501  0.00000000000E+00  0.00000000000E+00  0.90894362913E+03  0.90894362914E+03  0.50400001928E-02 0.  1.
        1   -1    0    0  501    0  0.00000000000E+00  0.00000000000E+00 -0.23187986756E+04  0.23187986756E+04  0.50400001928E-02 0. -1.
    10030    2    1    2    0    0  0.00000000000E+00  0.00000000000E+00 -0.14098550465E+04  0.32277423047E+04  0.29035545688E+04 0.  0.
        4    1    3    3  502    0  0.11510036854E+03 -0.10840604492E+04 -0.17707348878E+04  0.20794082832E+04  0.12699999809E+01 0. -1.
       -4    1    3    3    0  502 -0.11510036854E+03  0.10840604492E+04  0.36087984132E+03  0.11483340216E+04  0.12699999809E+01 0.  1.
</event>
<event>
 5   0  0.4187518E-06  0.2899513E+04  0.7818609E-02  0.8273022E-01
       -2   -1    0    0    0  501  0.00000000000E+00  0.00000000000E+00  0.17870681849E+04  0.17870681849E+04  0.25500000920E-02 0. -1.
        2   -1    0    0  501    0  0.00000000000E+00  0.00000000000E+00 -0.11761127501E+04  0.11761127501E+04  0.25500000920E-02 0.  1.
    10030    2    1    2    0    0  0.00000000000E+00  0.00000000000E+00  0.61095543482E+03  0.29631809351E+04  0.28995128402E+04 0.  0.
        3    1    3    3  502    0  0.12658894833E+04 -0.44338283766E+03  0.86776757519E+03  0.15975246788E+04  0.10100000352E+00 0. -1.
       -3    1    3    3    0  502 -0.12658894833E+04  0.44338283766E+03 -0.25681214037E+03  0.13656562563E+04  0.10100000352E+00 0.  1.
</event>
<event>
 5   0  0.1550278E-06  0.2933077E+04  0.7818609E-02  0.8263103E-01
       -1   -1    0    0    0  501  0.00000000000E+00  0.00000000000E+00  0.72737556517E+03  0.72737556519E+03  0.50400001928E-02 0.  1.
        1   -1    0    0  501    0  0.00000000000E+00  0.00000000000E+00 -0.29568437502E+04  0.29568437502E+04  0.50400001928E-02 0. -1.
    10030    2    1    2    0    0  0.00000000000E+00  0.00000000000E+00 -0.22294681850E+04  0.36842193154E+04  0.29330774923E+04 0.  0.
        2    1    3    3  502    0  0.65309211432E+03  0.10755342520E+04 -0.20609257208E+04  0.24146879848E+04  0.25500000920E-02 0. -1.
       -2    1    3    3    0  502 -0.65309211432E+03 -0.10755342520E+04 -0.16854246417E+03  0.12695313306E+04  0.25500000920E-02 0.  1.
</event>
<event>
 5   0  0.4162450E-06  0.2893936E+04  0.7818609E-02  0.8274684E-01
        2   -1    0    0  501    0  0.00000000000E+00  0.00000000000E+00  0.17220145981E+04  0.17220145981E+04  0.25500000920E-02 0. -1.
       -2   -1    0    0    0  501  0.00000000000E+00  0.00000000000E+00 -0.12158531921E+04  0.12158531921E+04  0.25500000920E-02 0.  1.
    10030    2    1    2    0    0  0.00000000000E+00  0.00000000000E+00  0.50616140593E+03  0.29378677902E+04  0.28939363822E+04 0.  0.
        2    1    3    3  502    0  0.14441125622E+03 -0.14395389693E+04  0.27773707501E+03  0.14731819093E+04  0.25500000920E-02 0. -1.
       -2    1    3    3    0  502 -0.14441125622E+03  0.14395389693E+04  0.22842433091E+03  0.14646858810E+04  0.25500000920E-02 0.  1.
</event>
<event>
 5   0  0.4224163E-06  0.2903346E+04  0.7818609E-02  0.8271883E-01
       -2   -1    0    0    0  501  0.00000000000E+00  0.00000000000E+00  0.28609122097E+04  0.28609122097E+04  0.25500000920E-02 0.  1.
        2   -1    0    0  501    0  0.00000000000E+00  0.00000000000E+00 -0.73660230468E+03  0.73660230468E+03  0.25500000920E-02 0. -1.
    10030    2    1    2    0    0  0.00000000000E+00  0.00000000000E+00  0.21243099050E+04  0.35975145143E+04  0.29033460194E+04 0.  0.
        4    1    3    3  502    0  0.18005426595E+03 -0.28394018817E+03  0.28120025952E+04  0.28320313870E+04  0.12699999809E+01 0.  1.
       -4    1    3    3    0  502 -0.18005426595E+03  0.28394018817E+03 -0.68769269018E+03  0.76548312729E+03  0.12699999809E+01 0. -1.
</event>
<event>
 5   0  0.4148677E-06  0.2989976E+04  0.7818609E-02  0.8246599E-01
       -2   -1    0    0    0  501  0.00000000000E+00  0.00000000000E+00  0.15888558346E+04  0.15888558346E+04  0.25500000920E-02 0. -1.
        2   -1    0    0  501    0  0.00000000000E+00  0.00000000000E+00 -0.14066656930E+04  0.14066656930E+04  0.25500000920E-02 0.  1.
    10030    2    1    2    0    0  0.00000000000E+00  0.00000000000E+00  0.18219014160E+03  0.29955215276E+04  0.29899759154E+04 0.  0.
        5    1    3    3  502    0  0.31254001306E+03  0.10652365139E+04 -0.91203962411E+03  0.14367492670E+04  0.46999998093E+01 0.  1.
       -5    1    3    3    0  502 -0.31254001306E+03 -0.10652365139E+04  0.10942297657E+04  0.15587722606E+04  0.46999998093E+01 0. -1.
</event>
<event>
 5   0  0.1602873E-06  0.2889973E+04  0.7818609E-02  0.8275867E-01
        1   -1    0    0  501    0  0.00000000000E+00  0.00000000000E+00  0.26529351546E+04  0.26529351546E+04  0.50400001928E-02 0. -1.
       -1   -1    0    0    0  501  0.00000000000E+00  0.00000000000E+00 -0.78704743110E+03  0.78704743112E+03  0.50400001928E-02 0.  1.
    10030    2    1    2    0    0  0.00000000000E+00  0.00000000000E+00  0.18658877235E+04  0.34399825857E+04  0.28899728707E+04 0.  0.
        1    1    3    3  502    0 -0.10386303245E+04  0.70621495768E+03  0.17834109139E+04  0.21812948001E+04  0.50400001928E-02 0. -1.
       -1    1    3    3    0  502  0.10386303245E+04 -0.70621495768E+03  0.82476809605E+02  0.12586877856E+04  0.50400001928E-02 0.  1.
</event>
<event>
 5   0  0.1550278E-06  0.2889357E+04  0.7818609E-02  0.8276051E-01
        1   -1    0    0  501    0  0.00000000000E+00  0.00000000000E+00  0.17329408869E+04  0.17329408869E+04  0.50400001928E-02 0. -1.
       -1   -1    0    0    0  501  0.00000000000E+00  0.00000000000E+00 -0.12043662165E+04  0.12043662165E+04  0.50400001928E-02 0.  1.
    10030    2    1    2    0    0  0.00000000000E+00  0.00000000000E+00  0.52857467038E+03  0.29373071034E+04  0.28893566477E+04 0.  0.
        2    1    3    3  502    0  0.85677502429E+03  0.11584835666E+04  0.37065570070E+03  0.14877947657E+04  0.25500000920E-02 0. -1.
       -2    1    3    3    0  502 -0.85677502429E+03 -0.11584835666E+04  0.15791896968E+03  0.14495123377E+04  0.25500000920E-02 0.  1.
</event>
<event>
 5   0  0.4148677E-06  0.2620227E+04  0.7818609E-02  0.8361363E-01
        2   -1    0    0  501    0  0.00000000000E+00  0.00000000000E+00  0.13930230728E+04  0.13930230728E+04  0.25500000920E-02 0.  1.
       -2   -1    0    0    0  501  0.00000000000E+00  0.00000000000E+00 -0.12321381523E+04  0.12321381523E+04  0.25500000920E-02 0. -1.
    10030    2    1    2    0    0  0.00000000000E+00  0.00000000000E+00  0.16088492047E+03  0.26251612250E+04  0.26202266123E+04 0.  0.
        5    1    3    3  502    0 -0.84390831001E+03 -0.46250116269E+03 -0.81021217686E+03  0.12579961934E+04  0.46999998093E+01 0. -1.
       -5    1    3    3    0  502  0.84390831001E+03  0.46250116269E+03  0.97109709733E+03  0.13671650316E+04  0.46999998093E+01 0.  1.
</event>
<event>
 5   0  0.1543678E-06  0.2905029E+04  0.7818609E-02  0.8271383E-01
        1   -1    0    0  501    0  0.00000000000E+00  0.00000000000E+00  0.32328955894E+04  0.32328955894E+04  0.50400001928E-02 0. -1.
       -1   -1    0    0    0  501  0.00000000000E+00  0.00000000000E+00 -0.65260349901E+03  0.65260349903E+03  0.50400001928E-02 0.  1.
    10030    2    1    2    0    0  0.00000000000E+00  0.00000000000E+00  0.25802920904E+04  0.38854990884E+04  0.29050294137E+04 0.  0.
        3    1    3    3  502    0 -0.12199281359E+04 -0.74349004001E+01  0.23570211215E+03  0.12425117425E+04  0.10100000352E+00 0.  1.
       -3    1    3    3    0  502  0.12199281359E+04  0.74349004001E+01  0.23445899782E+04  0.26429873459E+04  0.10100000352E+00 0. -1.
</event>
<event>
 5   0  0.4115143E-06  0.2863485E+04  0.7818609E-02  0.8283825E-01
       -2   -1    0    0    0  501  0.00000000000E+00  0.00000000000E+00  0.88544264114E+03  0.88544264114E+03  0.25500000920E-02 0. -1.
        2   -1    0    0  501    0  0.00000000000E+00  0.00000000000E+00 -0.23150985768E+04  0.23150985768E+04  0.25500000920E-02 0.  1.
    10030    2    1    2    0    0  0.00000000000E+00  0.00000000000E+00 -0.14296559356E+04  0.32005412179E+04  0.28634852878E+04 0.  0.
        1    1    3    3  502    0 -0.18854320359E+03 -0.31276674174E+03 -0.22621639607E+04  0.22914531109E+04  0.50400001928E-02 0.  1.
       -1    1    3    3    0  502  0.18854320359E+03  0.31276674174E+03  0.83250802510E+03  0.90908810697E+03  0.50400001928E-02 0. -1.
</event>
<event>
 5   0  0.1602873E-06  0.2899550E+04  0.7818609E-02  0.8273011E-01
       -1   -1    0    0    0  501  0.00000000000E+00  0.00000000000E+00  0.10514055042E+04  0.10514055042E+04  0.50400001928E-02 0.  1.
        1   -1    0    0  501    0  0.00000000000E+00  0.00000000000E+00 -0.19990838982E+04  0.19990838982E+04  0.50400001928E-02 0. -1.
    10030    2    1    2    0    0  0.00000000000E+00  0.00000000000E+00 -0.94767839401E+03  0.30504894025E+04  0.28995501817E+04 0.  0.
        1    1    3    3  502    0 -0.13697512995E+03 -0.71154481176E+03  0.84723060669E+03  0.11148353718E+04  0.50400001928E-02 0.  1.
       -1    1    3    3    0  502  0.13697512995E+03  0.71154481176E+03 -0.17949090007E+04  0.19356540306E+04  0.50400001928E-02 0. -1.
</event>
<event>
 5   0  0.4115143E-06  0.2870165E+04  0.7818609E-02  0.8281810E-01
        2   -1    0    0  501    0  0.00000000000E+00  0.00000000000E+00  0.15754100861E+04  0.15754100861E+04  0.25500000920E-02 0.  1.
       -2   -1    0    0    0  501  0.00000000000E+00  0.00000000000E+00 -0.13072541181E+04  0.13072541181E+04  0.25500000920E-02 0. -1.
    10030    2    1    2    0    0  0.00000000000E+00  0.00000000000E+00  0.26815596808E+03  0.28826642042E+04  0.28701646801E+04 0.  0.
        1    1    3    3  502    0 -0.96847566533E+03 -0.24712965746E+03  0.11683408524E+04  0.15375430171E+04  0.50400001928E-02 0.  1.
       -1    1    3    3    0  502  0.96847566533E+03  0.24712965746E+03 -0.90018488436E+03  0.13451211871E+04  0.50400001928E-02 0. -1.
</event>
<event>
 5   0  0.4115143E-06  0.2901168E+04  0.7818609E-02  0.8272530E-01
        2   -1    0    0  501    0  0.00000000000E+00  0.00000000000E+00  0.18305413750E+04  0.18305413750E+04  0.25500000920E-02 0.  1.
       -2   -1    0    0    0  501  0.00000000000E+00  0.00000000000E+00 -0.11494930582E+04  0.11494930582E+04  0.25500000920E-02 0. -1.
    10030    2    1    2    0    0  0.00000000000E+00  0.00000000000E+00  0.68104831680E+03  0.29800344333E+04  0.29011684566E+04 0.  0.
        1    1    3    3  502    0  0.17221795031E+03  0.21655312698E+03 -0.11221372238E+04  0.11557448803E+04  0.50400001928E-02 0. -1.
       -1    1    3    3    0  502 -0.17221795031E+03 -0.21655312698E+03  0.18031855406E+04  0.18242895530E+04  0.50400001928E-02 0.  1.
</event>
<event>
 5   0  0.4148677E-06  0.2895966E+04  0.7818609E-02  0.8274079E-01
       -2   -1    0    0    0  501  0.00000000000E+00  0.00000000000E+00  0.97746922419E+03  0.97746922419E+03  0.25500000920E-02 0. -1.
        2   -1    0    0  501    0  0.00000000000E+00  0.00000000000E+00 -0.21449827528E+04  0.21449827528E+04  0.25500000920E-02 0.  1.
    10030    2    1    2    0    0  0.00000000000E+00  0.00000000000E+00 -0.11675135286E+04  0.31224519770E+04  0.28959659026E+04 0.  0.
        5    1    3    3  502    0 -0.39028243380E+03 -0.96247096577E+03 -0.16716043792E+04  0.19679822226E+04  0.46999998093E+01 0.  1.
       -5    1    3    3    0  502  0.39028243380E+03  0.96247096577E+03  0.50409085058E+03  0.11544697544E+04  0.46999998093E+01 0. -1.
</event>
<event>
 5   0  0.4187518E-06  0.2852685E+04  0.7818609E-02  0.8287096E-01
       -2   -1    0    0    0  501  0.00000000000E+00  0.00000000000E+00  0.21039478912E+04  0.21039478912E+04  0.25500000920E-02 0.  1.
        2   -1    0    0  501    0  0.00000000000E+00  0.00000000000E+00 -0.96696916989E+03  0.96696916989E+03  0.25500000920E-02 0. -1.
    10030    2    1    2    0    0  0.00000000000E+00  0.00000000000E+00  0.11369787213E+04  0.30709170611E+04  0.28526848728E+04 0.  0.
        3    1    3    3  502    0  0.10146982255E+04  0.10346967290E+03  0.16418281175E+04  0.19328523067E+04  0.10100000352E+00 0.  1.
       -3    1    3    3    0  502 -0.10146982255E+04 -0.10346967290E+03 -0.50484939618E+03  0.11380647543E+04  0.10100000352E+00 0. -1.
</event>
<event>
 5   0  0.1580212E-06  0.2902484E+04  0.7818609E-02  0.8272139E-01
       -1   -1    0    0    0  501  0.00000000000E+00  0.00000000000E+00  0.98327565139E+03  0.98327565140E+03  0.50400001928E-02 0.  1.
        1   -1    0    0  501    0  0.00000000000E+00  0.00000000000E+00 -0.21419252100E+04  0.21419252100E+04  0.50400001928E-02 0. -1.
    10030    2    1    2    0    0  0.00000000000E+00  0.00000000000E+00 -0.11586495586E+04  0.31252008614E+04  0.29024836993E+04 0.  0.
        4    1    3    3  502    0  0.66215158467E+03  0.12913643340E+04 -0.57297944293E+03  0.15602479351E+04  0.12699999809E+01 0. -1.
       -4    1    3    3    0  502 -0.66215158467E+03 -0.12913643340E+04 -0.58567011567E+03  0.15649529263E+04  0.12699999809E+01 0.  1.
</event>
<event>
 5   0  0.1543678E-06  0.2893875E+04  0.7818609E-02  0.8274702E-01
        1   -1    0    0  501    0  0.00000000000E+00  0.00000000000E+00  0.13878070735E+04  0.13878070735E+04  0.50400001928E-02 0. -1.
       -1   -1    0    0    0  501  0.00000000000E+00  0.00000000000E+00 -0.15085875126E+04  0.15085875126E+04  0.50400001928E-02 0.  1.
    10030    2    1    2    0    0  0.00000000000E+00  0.00000000000E+00 -0.12078043909E+03  0.28963945860E+04  0.28938752018E+04 0.  0.
        3    1    3    3  502    0 -0.13131917783E+04 -0.59396189502E+03  0.67647034375E+02  0.14428581048E+04  0.10100000352E+00 0.  1.
       -3    1    3    3    0  502  0.13131917783E+04  0.59396189502E+03 -0.18842747347E+03  0.14535364812E+04  0.10100000352E+00 0. -1.
</event>
<event>
 5   0  0.1550278E-06  0.2971800E+04  0.7818609E-02  0.8251830E-01
       -1   -1    0    0    0  501  0.00000000000E+00  0.00000000000E+00  0.16489832391E+04  0.16489832391E+04  0.50400001928E-02 0. -1.
        1   -1    0    0  501    0  0.00000000000E+00  0.00000000000E+00 -0.13389456407E+04  0.13389456407E+04  0.50400001928E-02 0.  1.
    10030    2    1    2    0    0  0.00000000000E+00  0.00000000000E+00  0.31003759840E+03  0.29879288798E+04  0.29718000737E+04 0.  0.
        2    1    3    3  502    0  0.63734895126E+03  0.10696781534E+04 -0.66022953383E+03  0.14093715177E+04  0.25500000920E-02 0.  1.
       -2    1    3    3    0  502 -0.63734895126E+03 -0.10696781534E+04  0.97026713222E+03  0.15785573621E+04  0.25500000920E-02 0. -1.
</event>
<event>
 5   0  0.1602873E-06  0.2935383E+04  0.7818609E-02  0.8262427E-01
        1   -1    0    0  501    0  0.00000000000E+00  0.00000000000E+00  0.14957081121E+04  0.14957081121E+04  0.50400001928E-02 0. -1.
       -1   -1    0    0    0  501  0.00000000000E+00  0.00000000000E+00 -0.14401994157E+04  0.14401994157E+04  0.50400001928E-02 0.  1.
    10030    2    1    2    0    0  0.00000000000E+00  0.00000000000E+00  0.55508696327E+02  0.29359075278E+04  0.29353827342E+04 0.  0.
        1    1    3    3  502    0 -0.12462995663E+04 -0.57527046581E+03  0.54738474892E+03  0.14777783261E+04  0.50400001928E-02 0. -1.
       -1    1    3    3    0  502  0.12462995663E+04  0.57527046581E+03 -0.49187605259E+03  0.14581292017E+04  0.50400001928E-02 0.  1.
</event>
<event>
 5   0  0.4115143E-06  0.2904737E+04  0.7818609E-02  0.8271469E-01
       -2   -1    0    0    0  501  0.00000000000E+00  0.00000000000E+00  0.85144606220E+03  0.85144606220E+03  0.25500000920E-02 0. -1.
        2   -1    0    0  501    0  0.00000000000E+00  0.00000000000E+00 -0.24774020600E+04  0.24774020600E+04  0.25500000920E-02 0.  1.
    10030    2    1    2    0    0  0.00000000000E+00  0.00000000000E+00 -0.16259559978E+04  0.33288481222E+04  0.29047369785E+04 0.  0.
        1    1    3    3  502    0  0.25085732125E+03 -0.60795936292E+03  0.67101453861E+03  0.93957676304E+03  0.50400001928E-02 0. -1.
       -1    1    3    3    0  502 -0.25085732125E+03  0.60795936292E+03 -0.22969705365E+04  0.23892713592E+04  0.50400001928E-02 0.  1.
</event>
<event>
 5   0  0.1543678E-06  0.2895657E+04  0.7818609E-02  0.8274171E-01
       -1   -1    0    0    0  501  0.00000000000E+00  0.00000000000E+00  0.77185778522E+03  0.77185778523E+03  0.50400001928E-02 0. -1.
        1   -1    0    0  501    0  0.00000000000E+00  0.00000000000E+00 -0.27157943520E+04  0.27157943520E+04  0.50400001928E-02 0.  1.
    10030    2    1    2    0    0  0.00000000000E+00  0.00000000000E+00 -0.19439365668E+04  0.34876521373E+04  0.28956567571E+04 0.  0.
        3    1    3    3  502    0 -0.80175669724E+03  0.92804510082E+03 -0.18987830836E+04  0.22604111837E+04  0.10100000352E+00 0.  1.
       -3    1    3    3    0  502  0.80175669724E+03 -0.92804510082E+03 -0.45153483171E+02  0.12272409535E+04  0.10100000352E+00 0. -1.
</event>
<event>
 5   0  0.4162450E-06  0.2899018E+04  0.7818609E-02  0.8273170E-01
        2   -1    0    0  501    0  0.00000000000E+00  0.00000000000E+00  0.15667572172E+04  0.15667572172E+04  0.25500000920E-02 0. -1.
       -2   -1    0    0    0  501  0.00000000000E+00  0.00000000000E+00 -0.13410353797E+04  0.13410353797E+04  0.25500000920E-02 0.  1.
    10030    2    1    2    0    0  0.00000000000E+00  0.00000000000E+00  0.22572183753E+03  0.29077925969E+04  0.28990183578E+04 0.  0.
        2    1    3    3  502    0  0.67250148829E+03  0.69269548650E+03  0.11973324379E+04  0.15380800550E+04  0.25500000920E-02 0. -1.
       -2    1    3    3    0  502 -0.67250148829E+03 -0.69269548650E+03 -0.97161060037E+03  0.13697125419E+04  0.25500000920E-02 0.  1.
</event>
<event>
 5   0  0.1511126E-06  0.2951534E+04  0.7818609E-02  0.8257707E-01
       -1   -1    0    0    0  501  0.00000000000E+00  0.00000000000E+00  0.13669368768E+04  0.13669368768E+04  0.50400001928E-02 0. -1.
        1   -1    0    0  501    0  0.00000000000E+00  0.00000000000E+00 -0.15932622413E+04  0.15932622413E+04  0.50400001928E-02 0.  1.
    10030    2    1    2    0    0  0.00000000000E+00  0.00000000000E+00 -0.22632536449E+03  0.29601991182E+04  0.29515344566E+04 0.  0.
        5    1    3    3  502    0 -0.25058325706E+03 -0.97072277348E+03  0.97296251597E+03  0.13970586312E+04  0.46999998093E+01 0. -1.
       -5    1    3    3    0  502  0.25058325706E+03  0.97072277348E+03 -0.11992878805E+04  0.15631404869E+04  0.46999998093E+01 0.  1.
</event>
<event>
 5   0  0.4224163E-06  0.2880221E+04  0.7818609E-02  0.8278787E-01
       -2   -1    0    0    0  501  0.00000000000E+00  0.00000000000E+00  0.12717028710E+04  0.12717028710E+04  0.25500000920E-02 0. -1.
        2   -1    0    0  501    0  0.00000000000E+00  0.00000000000E+00 -0.16308202234E+04  0.16308202234E+04  0.25500000920E-02 0.  1.
    10030    2    1    2    0    0  0.00000000000E+00  0.00000000000E+00 -0.35911735242E+03  0.29025230944E+04  0.28802213528E+04 0.  0.
        4    1    3    3  502    0 -0.78305851750E+03  0.92092120382E+03  0.60921556629E+03  0.13536697251E+04  0.12699999809E+01 0. -1.
       -4    1    3    3    0  502  0.78305851750E+03 -0.92092120382E+03 -0.96833291871E+03  0.15488533694E+04  0.12699999809E+01 0.  1.
</event>
<event>
 5   0  0.4115143E-06  0.2896987E+04  0.7818609E-02  0.8273775E-01
       -2   -1    0    0    0  501  0.00000000000E+00  0.00000000000E+00  0.12887642925E+04  0.12887642925E+04  0.25500000920E-02 0. -1.
        2   -1    0    0  501    0  0.00000000000E+00  0.00000000000E+00 -0.16280190733E+04  0.16280190733E+04  0.25500000920E-02 0.  1.
    10030    2    1    2    0    0  0.00000000000E+00  0.00000000000E+00 -0.33925478073E+03  0.29167833658E+04  0.28969866062E+04 0.  0.
        1    1    3    3  502    0  0.73939408486E+03 -0.39020020533E+03  0.10213222588E+04  0.13198708154E+04  0.50400001928E-02 0. -1.
       -1    1    3    3    0  502 -0.73939408486E+03  0.39020020533E+03 -0.13605770396E+04  0.15969125504E+04  0.50400001928E-02 0.  1.
</event>
<event>
 5   0  0.4115143E-06  0.2908275E+04  0.7818609E-02  0.8270420E-01
        2   -1    0    0  501    0  0.00000000000E+00  0.00000000000E+00  0.27199716643E+04  0.27199716643E+04  0.25500000920E-02 0.  1.
       -2   -1    0    0    0  501  0.00000000000E+00  0.00000000000E+00 -0.77740374775E+03  0.77740374775E+03  0.25500000920E-02 0. -1.
    10030    2    1    2    0    0  0.00000000000E+00  0.00000000000E+00  0.19425679166E+04  0.34973754121E+04  0.29082752040E+04 0.  0.
        1    1    3    3  502    0 -0.13222746520E+04 -0.19569931000E+02  0.24403543834E+03  0.13447477580E+04  0.50400001928E-02 0. -1.
       -1    1    3    3    0  502  0.13222746520E+04  0.19569931000E+02  0.16985324782E+04  0.21526276541E+04  0.50400001928E-02 0.  1.
</event>
<event>
 5   0  0.1580212E-06  0.2899123E+04  0.7818609E-02  0.8273138E-01
        1   -1    0    0  501    0  0.00000000000E+00  0.00000000000E+00  0.13876427581E+04  0.13876427581E+04  0.50400001928E-02 0. -1.
       -1   -1    0    0    0  501  0.00000000000E+00  0.00000000000E+00 -0.15142431567E+04  0.15142431567E+04  0.50400001928E-02 0.  1.
    10030    2    1    2    0    0  0.00000000000E+00  0.00000000000E+00 -0.12660039862E+03  0.29018859149E+04  0.28991230057E+04 0.  0.
        4    1    3    3  502    0  0.33122385070E+03 -0.75127623256E+03  0.11324519142E+04  0.13987759534E+04  0.12699999809E+01 0. -1.
       -4    1    3    3    0  502 -0.33122385070E+03  0.75127623256E+03 -0.12590523128E+04  0.15031099615E+04  0.12699999809E+01 0.  1.
</event>
<event>
 5   0  0.4224163E-06  0.2918170E+04  0.7818609E-02  0.8267492E-01
        2   -1    0    0  501    0  0.00000000000E+00  0.00000000000E+00  0.15723015681E+04  0.15723015681E+04  0.25500000920E-02 0.  1.
       -2   -1    0    0    0  501  0.00000000000E+00  0.00000000000E+00 -0.13540209401E+04  0.13540209401E+04  0.25500000920E-02 0. -1.
    10030    2    1    2    0    0  0.00000000000E+00  0.00000000000E+00  0.21828062795E+03  0.29263225082E+04  0.29181701440E+04 0.  0.
        4    1    3    3  502    0  0.12079024080E+04 -0.53500866644E+03  0.73027780713E+03  0.15094932225E+04  0.12699999809E+01 0.  1.
       -4    1    3    3    0  502 -0.12079024080E+04  0.53500866644E+03 -0.51199717917E+03  0.14168292857E+04  0.12699999809E+01 0. -1.
</event>
<event>
 5   0  0.4224163E-06  0.2897944E+04  0.7818609E-02  0.8273490E-01
       -2   -1    0    0    0  501  0.00000000000E+00  0.00000000000E+00  0.11559477971E+04  0.11559477971E+04  0.25500000920E-02 0.  1.
        2   -1    0    0  501    0  0.00000000000E+00  0.00000000000E+00 -0.18162751983E+04  0.18162751983E+04  0.25500000920E-02 0. -1.
    10030    2    1    2    0    0  0.00000000000E+00  0.00000000000E+00 -0.66032740121E+03  0.29722229953E+04  0.28979436256E+04 0.  0.
        4    1    3    3  502    0  0.26598930816E+03 -0.38717547268E+03  0.10756862218E+04  0.11737792039E+04  0.12699999809E+01 0.  1.
       -4    1    3    3    0  502 -0.26598930816E+03  0.38717547268E+03 -0.17360136231E+04  0.17984437915E+04  0.12699999809E+01 0. -1.
</event>
<event>
 5   0  0.1550278E-06  0.2834104E+04  0.7818609E-02  0.8292758E-01
        1   -1    0    0  501    0  0.00000000000E+00  0.00000000000E+00  0.26567594912E+04  0.26567594912E+04  0.50400001928E-02 0. -1.
       -1   -1    0    0    0  501  0.00000000000E+00  0.00000000000E+00 -0.75582170864E+03  0.75582170866E+03  0.50400001928E-02 0.  1.
    10030    2    1    2    0    0  0.00000000000E+00  0.00000000000E+00  0.19009377826E+04  0.34125811999E+04  0.28341040899E+04 0.  0.
        2    1    3    3  502    0  0.46624818668E+03 -0.69813529808E+03  0.23250871311E+04  0.24720053465E+04  0.25500000920E-02 0. -1.
       -2    1    3    3    0  502 -0.46624818668E+03  0.69813529808E+03 -0.42414934855E+03  0.94057585334E+03  0.25500000920E-02 0.  1.
</event>
<event>
 5   0  0.4115143E-06  0.2889207E+04  0.7818609E-02  0.8276096E-01
       -2   -1    0    0    0  501  0.00000000000E+00  0.00000000000E+00  0.18575127229E+04  0.18575127229E+04  0.25500000920E-02 0. -1.
        2   -1    0    0  501    0  0.00000000000E+00  0.00000000000E+00 -0.11234804998E+04  0.11234804998E+04  0.25500000920E-02 0.  1.
    10030    2    1    2    0    0  0.00000000000E+00  0.00000000000E+00  0.73403222309E+03  0.29809932227E+04  0.28892070347E+04 0.  0.
        1    1    3    3  502    0 -0.61124653175E+03 -0.79262298351E+03  0.14417435976E+04  0.17551347863E+04  0.50400001928E-02 0. -1.
       -1    1    3    3    0  502  0.61124653175E+03  0.79262298351E+03 -0.70771137456E+03  0.12258584365E+04  0.50400001928E-02 0.  1.
</event>
<event>
 5   0  0.1511126E-06  0.2895943E+04  0.7818609E-02  0.8274086E-01
        1   -1    0    0  501    0  0.00000000000E+00  0.00000000000E+00  0.15383485755E+04  0.15383485755E+04  0.50400001928E-02 0.  1.
       -1   -1    0    0    0  501  0.00000000000E+00  0.00000000000E+00 -0.13629039620E+04  0.13629039620E+04  0.50400001928E-02 0. -1.
    10030    2    1    2    0    0  0.00000000000E+00  0.00000000000E+00  0.17544461351E+03  0.29012525375E+04  0.28959429334E+04 0.  0.
        5    1    3    3  502    0 -0.11493740127E+04 -0.84595617532E+03  0.33290926671E+03  0.14654532205E+04  0.46999998093E+01 0. -1.
       -5    1    3    3    0  502  0.11493740127E+04  0.84595617532E+03 -0.15746465320E+03  0.14357993170E+04  0.46999998093E+01 0.  1.
</event>
<event>
 5   0  0.1511126E-06  0.2883761E+04  0.7818609E-02  0.8277725E-01
       -1   -1    0    0    0  501  0.00000000000E+00  0.00000000000E+00  0.82126574867E+03  0.82126574869E+03  0.50400001928E-02 0. -1.
        1   -1    0    0  501    0  0.00000000000E+00  0.00000000000E+00 -0.25314820869E+04  0.25314820870E+04  0.50400001928E-02 0.  1.
    10030    2    1    2    0    0  0.00000000000E+00  0.00000000000E+00 -0.17102163383E+04  0.33527478356E+04  0.28837611076E+04 0.  0.
        5    1    3    3  502    0  0.76334466096E+03  0.11684904953E+04 -0.43441538513E+03  0.14617810800E+04  0.46999998093E+01 0. -1.
       -5    1    3    3    0  502 -0.76334466096E+03 -0.11684904953E+04 -0.12758009531E+04  0.18909667557E+04  0.46999998093E+01 0.  1.
</event>
<event>
 5   0  0.1511126E-06  0.2894687E+04  0.7818609E-02  0.8274460E-01
        1   -1    0    0  501    0  0.00000000000E+00  0.00000000000E+00  0.12802381054E+04  0.12802381054E+04  0.50400001928E-02 0. -1.
       -1   -1    0    0    0  501  0.00000000000E+00  0.00000000000E+00 -0.16362600837E+04  0.16362600837E+04  0.50400001928E-02 0.  1.
    10030    2    1    2    0    0  0.00000000000E+00  0.00000000000E+00 -0.35602197834E+03  0.29164981891E+04  0.28946865181E+04 0.  0.
        5    1    3    3  502    0  0.25306602126E+03  0.96820371760E+03  0.87548705474E+03  0.13296467662E+04  0.46999998093E+01 0. -1.
       -5    1    3    3    0  502 -0.25306602126E+03 -0.96820371760E+03 -0.12315090331E+04  0.15868514229E+04  0.46999998093E+01 0.  1.
</event>
<event>
 5   0  0.1550278E-06  0.2891838E+04  0.7818609E-02  0.8275310E-01
        1   -1    0    0  501    0  0.00000000000E+00  0.00000000000E+00  0.17954327557E+04  0.17954327557E+04  0.50400001928E-02 0.  1.
       -1   -1    0    0    0  501  0.00000000000E+00  0.00000000000E+00 -0.11644443992E+04  0.11644443992E+04  0.50400001928E-02 0. -1.
    10030    2    1    2    0    0  0.00000000000E+00  0.00000000000E+00  0.63098835646E+03  0.29598771549E+04  0.28918379046E+04 0.  0.
        2    1    3    3  502    0  0.69276026760E+03  0.11118928162E+04  0.94182241229E+03  0.16134595996E+04  0.25500000920E-02 0.  1.
       -2    1    3    3    0  502 -0.69276026760E+03 -0.11118928162E+04 -0.31083405583E+03  0.13464175554E+04  0.25500000920E-02 0. -1.
</event>
<event>
 5   0  0.4187518E-06  0.2908377E+04  0.7818609E-02  0.8270390E-01
        2   -1    0    0  501    0  0.00000000000E+00  0.00000000000E+00  0.16136630024E+04  0.16136630024E+04  0.25500000920E-02 0.  1.
       -2   -1    0    0    0  501  0.00000000000E+00  0.00000000000E+00 -0.13104742123E+04  0.13104742123E+04  0.25500000920E-02 0. -1.
    10030    2    1    2    0    0  0.00000000000E+00  0.00000000000E+00  0.30318879003E+03  0.29241372147E+04  0.29083766964E+04 0.  0.
        3    1    3    3  502    0  0.75960290148E+03  0.57070547792E+03  0.12584517892E+04  0.15768329735E+04  0.10100000352E+00 0.  1.
       -3    1    3    3    0  502 -0.75960290148E+03 -0.57070547792E+03 -0.95526299917E+03  0.13473042412E+04  0.10100000352E+00 0. -1.
</event>
<event>
 5   0  0.4148677E-06  0.2889988E+04  0.7818609E-02  0.8275863E-01
       -2   -1    0    0    0  501  0.00000000000E+00  0.00000000000E+00  0.14439883985E+04  0.14439883985E+04  0.25500000920E-02 0.  1.
        2   -1    0    0  501    0  0.00000000000E+00  0.00000000000E+00 -0.14460002714E+04  0.14460002714E+04  0.25500000920E-02 0. -1.
    10030    2    1    2    0    0  0.00000000000E+00  0.00000000000E+00 -0.20118728759E+01  0.28899886700E+04  0.28899879697E+04 0.  0.
        5    1    3    3  502    0 -0.29892222450E+02  0.12383784292E+04 -0.74498921284E+03  0.14455122608E+04  0.46999998093E+01 0.  1.
       -5    1    3    3    0  502  0.29892222450E+02 -0.12383784292E+04  0.74297733996E+03  0.14444764091E+04  0.46999998093E+01 0. -1.
</event>
<event>
 5   0  0.4162450E-06  0.2912797E+04  0.7818609E-02  0.8269080E-01
       -2   -1    0    0    0  501  0.00000000000E+00  0.00000000000E+00  0.95860286829E+03  0.95860286829E+03  0.25500000920E-02 0.  1.
        2   -1    0    0  501    0  0.00000000000E+00  0.00000000000E+00 -0.22126959706E+04  0.22126959706E+04  0.25500000920E-02 0. -1.
    10030    2    1    2    0    0  0.00000000000E+00  0.00000000000E+00 -0.12540931023E+04  0.31712988388E+04  0.29127970777E+04 0.  0.
        2    1    3    3  502    0 -0.12868986287E+04 -0.46421753469E+03 -0.83227869632E+02  0.13705958114E+04  0.25500000920E-02 0. -1.
       -2    1    3    3    0  502  0.12868986287E+04  0.46421753469E+03 -0.11708652326E+04  0.18007030274E+04  0.25500000920E-02 0.  1.
</event>
<event>
 5   0  0.1580212E-06  0.2894248E+04  0.7818609E-02  0.8274591E-01
       -1   -1    0    0    0  501  0.00000000000E+00  0.00000000000E+00  0.95726189708E+03  0.95726189709E+03  0.50400001928E-02 0.  1.
        1   -1    0    0  501    0  0.00000000000E+00  0.00000000000E+00 -0.21876637556E+04  0.21876637556E+04  0.50400001928E-02 0. -1.
    10030    2    1    2    0    0  0.00000000000E+00  0.00000000000E+00 -0.12304018586E+04  0.31449256527E+04  0.28942475063E+04 0.  0.
        4    1    3    3  502    0  0.98879648398E+03 -0.22247821179E+03  0.50719698608E+03  0.11333425947E+04  0.12699999809E+01 0.  1.
       -4    1    3    3    0  502 -0.98879648398E+03  0.22247821179E+03 -0.17375988446E+04  0.20115830580E+04  0.12699999809E+01 0. -1.
</event>
<event>
 5   0  0.4115143E-06  0.2900777E+04  0.7818609E-02  0.8272646E-01
        2   -1    0    0  501    0  0.00000000000E+00  0.00000000000E+00  0.14849475814E+04  0.14849475814E+04  0.25500000920E-02 0.  1.
       -2   -1    0    0    0  501  0.00000000000E+00  0.00000000000E+00 -0.14166336879E+04  0.14166336879E+04  0.25500000920E-02 0. -1.
    10030    2    1    2    0    0  0.00000000000E+00  0.00000000000E+00  0.68313893483E+02  0.29015812692E+04  0.29007769776E+04 0.  0.
        1    1    3    3  502    0 -0.27984882062E+03  0.56880292079E+03  0.13390394963E+04  0.14815123685E+04  0.50400001928E-02 0.  1.
       -1    1    3    3    0  502  0.27984882062E+03 -0.56880292079E+03 -0.12707256029E+04  0.14200689008E+04  0.50400001928E-02 0. -1.
</event>
<event>
 5   0  0.1550278E-06  0.2582585E+04  0.7818609E-02  0.8374141E-01
       -1   -1    0    0    0  501  0.00000000000E+00  0.00000000000E+00  0.13036250295E+04  0.13036250295E+04  0.50400001928E-02 0. -1.
        1   -1    0    0  501    0  0.00000000000E+00  0.00000000000E+00 -0.12790769575E+04  0.12790769575E+04  0.50400001928E-02 0.  1.
    10030    2    1    2    0    0  0.00000000000E+00  0.00000000000E+00  0.24548071942E+02  0.25827019870E+04  0.25825853221E+04 0.  0.
        2    1    3    3  502    0 -0.26147097247E+03  0.15843314240E+03 -0.12423616935E+04  0.12794259289E+04  0.25500000920E-02 0.  1.
       -2    1    3    3    0  502  0.26147097247E+03 -0.15843314240E+03  0.12669097654E+04  0.13032760582E+04  0.25500000920E-02 0. -1.
</event>
<event>
 5   0  0.1602873E-06  0.2899356E+04  0.7818609E-02  0.8273069E-01
       -1   -1    0    0    0  501  0.00000000000E+00  0.00000000000E+00  0.15868455910E+04  0.15868455910E+04  0.50400001928E-02 0. -1.
        1   -1    0    0  501    0  0.00000000000E+00  0.00000000000E+00 -0.13243676766E+04  0.13243676766E+04  0.50400001928E-02 0.  1.
    10030    2    1    2    0    0  0.00000000000E+00  0.00000000000E+00  0.26247791437E+03  0.29112132676E+04  0.28993564862E+04 0.  0.
        1    1    3    3  502    0  0.11772419542E+03  0.10948372933E+04 -0.81550576035E+03  0.13702471785E+04  0.50400001928E-02 0.  1.
       -1    1    3    3    0  502 -0.11772419542E+03 -0.10948372933E+04  0.10779836747E+04  0.15409660892E+04  0.50400001928E-02 0. -1.
</event>
<event>
 5   0  0.1543678E-06  0.2850007E+04  0.7818609E-02  0.8287909E-01
        1   -1    0    0  501    0  0.00000000000E+00  0.00000000000E+00  0.15267313635E+04  0.15267313635E+04  0.50400001928E-02 0. -1.
       -1   -1    0    0    0  501  0.00000000000E+00  0.00000000000E+00 -0.13300540123E+04  0.13300540123E+04  0.50400001928E-02 0.  1.
    10030    2    1    2    0    0  0.00000000000E+00  0.00000000000E+00  0.19667735118E+03  0.28567853759E+04  0.28500071409E+04 0.  0.
        3    1    3    3  502    0  0.50199008690E+03  0.56927852326E+03  0.13072597433E+04  0.15116216891E+04  0.10100000352E+00 0. -1.
       -3    1    3    3    0  502 -0.50199008690E+03 -0.56927852326E+03 -0.11105823921E+04  0.13451636868E+04  0.10100000352E+00 0.  1.
</event>
<event>
 5   0  0.1550278E-06  0.2902297E+04  0.7818609E-02  0.8272194E-01
       -1   -1    0    0    0  501  0.00000000000E+00  0.00000000000E+00  0.15834522423E+04  0.15834522423E+04  0.50400001928E-02 0. -1.
        1   -1    0    0  501    0  0.00000000000E+00  0.00000000000E+00 -0.13298990038E+04  0.13298990038E+04  0.50400001928E-02 0.  1.
    10030    2    1    2    0    0  0.00000000000E+00  0.00000000000E+00  0.25355323846E+03  0.29133512461E+04  0.29022967178E+04 0.  0.
        2    1    3    3  502    0  0.29885829485E+03 -0.10609207694E+04 -0.82072666895E+03  0.13742130201E+04  0.25500000920E-02 0.  1.
       -2    1    3    3    0  502 -0.29885829485E+03  0.10609207694E+04  0.10742799074E+04  0.15391382260E+04  0.25500000920E-02 0. -1.
</event>
<event>
 5   0  0.1543678E-06  0.2990491E+04  0.7818609E-02  0.8246451E-01
       -1   -1    0    0    0  501  0.00000000000E+00  0.00000000000E+00  0.12733374713E+04  0.12733374713E+04  0.50400001928E-02 0.  1.
        1   -1    0    0  501    0  0.00000000000E+00  0.00000000000E+00 -0.17558261603E+04  0.17558261603E+04  0.50400001928E-02 0. -1.
    10030    2    1    2    0    0  0.00000000000E+00  0.00000000000E+00 -0.48248868903E+03  0.30291636316E+04  0.29904910921E+04 0.  0.
        3    1    3    3  502    0 -0.62879798138E+02 -0.26304707793E+03  0.12483550422E+04  0.12773167015E+04  0.10100000352E+00 0.  1.
       -3    1    3    3    0  502  0.62879798138E+02  0.26304707793E+03 -0.17308437313E+04  0.17518469301E+04  0.10100000352E+00 0. -1.
</event>
<event>
 5   0  0.1602873E-06  0.2949805E+04  0.7818609E-02  0.8258211E-01
       -1   -1    0    0    0  501  0.00000000000E+00  0.00000000000E+00  0.13595923558E+04  0.13595923558E+04  0.50400001928E-02 0. -1.
        1   -1    0    0  501    0  0.00000000000E+00  0.00000000000E+00 -0.15999928066E+04  0.15999928067E+04  0.50400001928E-02 0.  1.
    10030    2    1    2    0    0  0.00000000000E+00  0.00000000000E+00 -0.24040045089E+03  0.29595851624E+04  0.29498054100E+04 0.  0.
        1    1    3    3  502    0  0.73008970410E+03  0.12568244644E+04 -0.37142863353E+03  0.15001993002E+04  0.50400001928E-02 0. -1.
       -1    1    3    3    0  502 -0.73008970410E+03 -0.12568244644E+04  0.13102818264E+03  0.14593858623E+04  0.50400001928E-02 0.  1.
</event>
<event>
 5   0  0.1550278E-06  0.2731774E+04  0.7818609E-02  0.8324769E-01
       -1   -1    0    0    0  501  0.00000000000E+00  0.00000000000E+00  0.21326768624E+04  0.21326768624E+04  0.50400001928E-02 0. -1.
        1   -1    0    0  501    0  0.00000000000E+00  0.00000000000E+00 -0.87479115774E+03  0.87479115776E+03  0.50400001928E-02 0.  1.
    10030    2    1    2    0    0  0.00000000000E+00  0.00000000000E+00  0.12578857047E+04  0.30074680202E+04  0.27317736814E+04 0.  0.
        2    1    3    3  502    0 -0.38177448639E+03 -0.38886393229E+03  0.20078133311E+04  0.20804521837E+04  0.25500000920E-02 0. -1.
       -2    1    3    3    0  502  0.38177448639E+03  0.38886393229E+03 -0.74992762637E+03  0.92701583649E+03  0.25500000920E-02 0.  1.
</event>
<event>
 5   0  0.4162450E-06  0.2871555E+04  0.7818609E-02  0.8281391E-01
        2   -1    0    0  501    0  0.00000000000E+00  0.00000000000E+00  0.19860172018E+04  0.19860172018E+04  0.25500000920E-02 0. -1.
       -2   -1    0    0    0  501  0.00000000000E+00  0.00000000000E+00 -0.10379857257E+04  0.10379857257E+04  0.25500000920E-02 0.  1.
    10030    2    1    2    0    0  0.00000000000E+00  0.00000000000E+00  0.94803147608E+03  0.30240029276E+04  0.28715553323E+04 0.  0.
        2    1    3    3  502    0  0.10543470940E+04 -0.62836909750E+03 -0.31049092619E+03  0.12660569231E+04  0.25500000920E-02 0. -1.
       -2    1    3    3    0  502 -0.10543470940E+04  0.62836909750E+03  0.12585224023E+04  0.17579460044E+04  0.25500000920E-02 0.  1.
</event>
<event>
 5   0  0.1550278E-06  0.2906395E+04  0.7818609E-02  0.8270977E-01
       -1   -1    0    0    0  501  0.00000000000E+00  0.00000000000E+00  0.19174828853E+04  0.19174828853E+04  0.50400001928E-02 0. -1.
        1   -1    0    0  501    0  0.00000000000E+00  0.00000000000E+00 -0.11013306679E+04  0.11013306679E+04  0.50400001928E-02 0.  1.
    10030    2    1    2    0    0  0.00000000000E+00  0.00000000000E+00  0.81615221747E+03  0.30188135532E+04  0.29063948161E+04 0.  0.
        2    1    3    3  502    0  0.58214556912E+03  0.13241517629E+04  0.26299015736E+03  0.14701820220E+04  0.25500000920E-02 0.  1.
       -2    1    3    3    0  502 -0.58214556912E+03 -0.13241517629E+04  0.55316206011E+03  0.15486315313E+04  0.25500000920E-02 0. -1.
</event>
<event>
 5   0  0.1511126E-06  0.2930003E+04  0.7818609E-02  0.8264006E-01
       -1   -1    0    0    0  501  0.00000000000E+00  0.00000000000E+00  0.96142016408E+03  0.96142016409E+03  0.50400001928E-02 0. -1.
        1   -1    0    0  501    0  0.00000000000E+00  0.00000000000E+00 -0.22323535121E+04  0.22323535121E+04  0.50400001928E-02 0.  1.
    10030    2    1    2    0    0  0.00000000000E+00  0.00000000000E+00 -0.12709333480E+04  0.31937736762E+04  0.29300031945E+04 0.  0.
        5    1    3    3  502    0  0.46900988933E+03  0.56542756251E+03  0.74612696790E+03  0.10470941443E+04  0.46999998093E+01 0. -1.
       -5    1    3    3    0  502 -0.46900988933E+03 -0.56542756251E+03 -0.20170603159E+04  0.21466795319E+04  0.46999998093E+01 0.  1.
</event>
<event>
 5   0  0.4187518E-06  0.2977126E+04  0.7818609E-02  0.8250293E-01
       -2   -1    0    0    0  501  0.00000000000E+00  0.00000000000E+00  0.16242338984E+04  0.16242338984E+04  0.25500000920E-02 0.  1.
        2   -1    0    0  501    0  0.00000000000E+00  0.00000000000E+00 -0.13642242687E+04  0.13642242687E+04  0.25500000920E-02 0. -1.
    10030    2    1    2    0    0  0.00000000000E+00  0.00000000000E+00  0.26000962972E+03  0.29884581672E+04  0.29771256623E+04 0.  0.
        3    1    3    3  502    0 -0.11408761002E+04  0.35947356512E+03 -0.75936990360E+03  0.14168493853E+04  0.10100000352E+00 0. -1.
       -3    1    3    3    0  502  0.11408761002E+04 -0.35947356512E+03  0.10193795333E+04  0.15716087818E+04  0.10100000352E+00 0.  1.
</event>
<event>
 5   0  0.4187518E-06  0.2908497E+04  0.7818609E-02  0.8270354E-01
       -2   -1    0    0    0  501  0.00000000000E+00  0.00000000000E+00  0.13553462209E+04  0.13553462209E+04  0.25500000920E-02 0. -1.
        2   -1    0    0  501    0  0.00000000000E+00  0.00000000000E+00 -0.15603677406E+04  0.15603677406E+04  0.25500000920E-02 0.  1.
    10030    2    1    2    0    0  0.00000000000E+00  0.00000000000E+00 -0.20502151971E+03  0.29157139615E+04  0.29084968767E+04 0.  0.
        3    1    3    3  502    0  0.11913606316E+04 -0.94168909785E+02 -0.93319865678E+03  0.15162676813E+04  0.10100000352E+00 0.  1.
       -3    1    3    3    0  502 -0.11913606316E+04  0.94168909785E+02  0.72817713707E+03  0.13994462802E+04  0.10100000352E+00 0. -1.
</event>
<event>
 5   0  0.4224163E-06  0.2908732E+04  0.7818609E-02  0.8270284E-01
        2   -1    0    0  501    0  0.00000000000E+00  0.00000000000E+00  0.15930003870E+04  0.15930003870E+04  0.25500000920E-02 0. -1.
       -2   -1    0    0    0  501  0.00000000000E+00  0.00000000000E+00 -0.13277966055E+04  0.13277966055E+04  0.25500000920E-02 0.  1.
    10030    2    1    2    0    0  0.00000000000E+00  0.00000000000E+00  0.26520378149E+03  0.29207969926E+04  0.29087320306E+04 0.  0.
        4    1    3    3  502    0  0.79430399020E+03  0.10153991397E+04  0.80861391595E+03  0.15217793269E+04  0.12699999809E+01 0. -1.
       -4    1    3    3    0  502 -0.79430399020E+03 -0.10153991397E+04 -0.54341013445E+03  0.13990176657E+04  0.12699999809E+01 0.  1.
</event>
<event>
 5   0  0.4187518E-06  0.2912977E+04  0.7818609E-02  0.8269027E-01
        2   -1    0    0  501    0  0.00000000000E+00  0.00000000000E+00  0.17978129898E+04  0.17978129898E+04  0.25500000920E-02 0.  1.
       -2   -1    0    0    0  501  0.00000000000E+00  0.00000000000E+00 -0.11799665426E+04  0.11799665426E+04  0.25500000920E-02 0. -1.
    10030    2    1    2    0    0  0.00000000000E+00  0.00000000000E+00  0.61784644721E+03  0.29777795324E+04  0.29129772933E+04 0.  0.
        3    1    3    3  502    0 -0.14526528682E+04 -0.37141451163E+02  0.20783283276E+03  0.14679149633E+04  0.10100000352E+00 0. -1.
       -3    1    3    3    0  502  0.14526528682E+04  0.37141451163E+02  0.41001361446E+03  0.15098645691E+04  0.10100000352E+00 0.  1.
</event>
<event>
 5   0  0.4115143E-06  0.2895390E+04  0.7818609E-02  0.8274250E-01
       -2   -1    0    0    0  501  0.00000000000E+00  0.00000000000E+00  0.12979539982E+04  0.12979539982E+04  0.25500000920E-02 0. -1.
        2   -1    0    0  501    0  0.00000000000E+00  0.00000000000E+00 -0.16147111711E+04  0.16147111711E+04  0.25500000920E-02 0.  1.
    10030    2    1    2    0    0  0.00000000000E+00  0.00000000000E+00 -0.31675717287E+03  0.29126651693E+04  0.28953900051E+04 0.  0.
        1    1    3    3  502    0  0.11994734272E+04  0.13585373870E+03  0.64553153471E+03  0.13689060243E+04  0.50400001928E-02 0. -1.
       -1    1    3    3    0  502 -0.11994734272E+04 -0.13585373870E+03 -0.96228870759E+03  0.15437591450E+04  0.50400001928E-02 0.  1.
</event>
<event>
 5   0  0.4148677E-06  0.2709694E+04  0.7818609E-02  0.8331866E-01
        2   -1    0    0  501    0  0.00000000000E+00  0.00000000000E+00  0.20991970628E+04  0.20991970628E+04  0.25500000920E-02 0. -1.
       -2   -1    0    0    0  501  0.00000000000E+00  0.00000000000E+00 -0.87443476414E+03  0.87443476414E+03  0.25500000920E-02 0.  1.
    10030    2    1    2    0    0  0.00000000000E+00  0.00000000000E+00  0.12247622986E+04  0.29736318269E+04  0.27096943654E+04 0.  0.
        5    1    3    3  502    0  0.20615010357E+03 -0.93350324636E+03  0.16659256287E+04  0.19207437274E+04  0.46999998093E+01 0. -1.
       -5    1    3    3    0  502 -0.20615010357E+03  0.93350324636E+03 -0.44116333008E+03  0.10528880995E+04  0.46999998093E+01 0.  1.
</event>
<event>
 5   0  0.4148677E-06  0.2901810E+04  0.7818609E-02  0.8272339E-01
       -2   -1    0    0    0  501  0.00000000000E+00  0.00000000000E+00  0.20066222066E+04  0.20066222066E+04  0.25500000920E-02 0.  1.
        2   -1    0    0  501    0  0.00000000000E+00  0.00000000000E+00 -0.10490889317E+04  0.10490889317E+04  0.25500000920E-02 0. -1.
    10030    2    1    2    0    0  0.00000000000E+00  0.00000000000E+00  0.95753327488E+03  0.30557111382E+04  0.29018098814E+04 0.  0.
        5    1    3    3  502    0 -0.87060642901E+03 -0.20159515641E+03  0.16824137964E+04  0.19050287225E+04  0.46999998093E+01 0.  1.
       -5    1    3    3    0  502  0.87060642901E+03  0.20159515641E+03 -0.72488052153E+03  0.11506824157E+04  0.46999998093E+01 0. -1.
</event>
<event>
 5   0  0.1511126E-06  0.2954820E+04  0.7818609E-02  0.8256751E-01
        1   -1    0    0  501    0  0.00000000000E+00  0.00000000000E+00  0.19030282709E+04  0.19030282710E+04  0.50400001928E-02 0. -1.
       -1   -1    0    0    0  501  0.00000000000E+00  0.00000000000E+00 -0.11469828210E+04  0.11469828210E+04  0.50400001928E-02 0.  1.
    10030    2    1    2    0    0  0.00000000000E+00  0.00000000000E+00  0.75604544996E+03  0.30500110919E+04  0.29548202887E+04 0.  0.
        5    1    3    3  502    0  0.22588286065E+03  0.54464520953E+03 -0.10202604961E+04  0.11783951124E+04  0.46999998093E+01 0.  1.
       -5    1    3    3    0  502 -0.22588286065E+03 -0.54464520953E+03  0.17763059461E+04  0.18716159796E+04  0.46999998093E+01 0. -1.
</event>
<event>
 5   0  0.1602873E-06  0.2857660E+04  0.7818609E-02  0.8285588E-01
        1   -1    0    0  501    0  0.00000000000E+00  0.00000000000E+00  0.19870894715E+04  0.19870894715E+04  0.50400001928E-02 0.  1.
       -1   -1    0    0    0  501  0.00000000000E+00  0.00000000000E+00 -0.10274095370E+04  0.10274095370E+04  0.50400001928E-02 0. -1.
    10030    2    1    2    0    0  0.00000000000E+00  0.00000000000E+00  0.95967993446E+03  0.30144990085E+04  0.28576596536E+04 0.  0.
        1    1    3    3  502    0  0.39720336443E+03  0.42763399738E+03 -0.89592971263E+03  0.10692667574E+04  0.50400001928E-02 0. -1.
       -1    1    3    3    0  502 -0.39720336443E+03 -0.42763399738E+03  0.18556096471E+04  0.19452322511E+04  0.50400001928E-02 0.  1.
</event>
<event>
 5   0  0.1543678E-06  0.2897056E+04  0.7818609E-02  0.8273754E-01
        1   -1    0    0  501    0  0.00000000000E+00  0.00000000000E+00  0.16467618893E+04  0.16467618893E+04  0.50400001928E-02 0.  1.
       -1   -1    0    0    0  501  0.00000000000E+00  0.00000000000E+00 -0.12741575268E+04  0.12741575268E+04  0.50400001928E-02 0. -1.
    10030    2    1    2    0    0  0.00000000000E+00  0.00000000000E+00  0.37260436251E+03  0.29209194161E+04  0.28970564759E+04 0.  0.
        3    1    3    3  502    0 -0.34043372487E+03 -0.73928210702E+03  0.13944212058E+04  0.16145722852E+04  0.10100000352E+00 0.  1.
       -3    1    3    3    0  502  0.34043372487E+03  0.73928210702E+03 -0.10218168433E+04  0.13063471308E+04  0.10100000352E+00 0. -1.
</event>
<event>
 5   0  0.1602873E-06  0.2779105E+04  0.7818609E-02  0.8309785E-01
        1   -1    0    0  501    0  0.00000000000E+00  0.00000000000E+00  0.17793492146E+04  0.17793492146E+04  0.50400001928E-02 0.  1.
       -1   -1    0    0    0  501  0.00000000000E+00  0.00000000000E+00 -0.10851470309E+04  0.10851470309E+04  0.50400001928E-02 0. -1.
    10030    2    1    2    0    0  0.00000000000E+00  0.00000000000E+00  0.69420218370E+03  0.28644962455E+04  0.27791045444E+04 0.  0.
        1    1    3    3  502    0 -0.11765770149E+04 -0.26151612867E+03  0.10598178779E+04  0.16049729256E+04  0.50400001928E-02 0.  1.
       -1    1    3    3    0  502  0.11765770149E+04  0.26151612867E+03 -0.36561569419E+03  0.12595233199E+04  0.50400001928E-02 0. -1.
</event>
<event>
 5   0  0.1580212E-06  0.2925773E+04  0.7818609E-02  0.8265250E-01
        1   -1    0    0  501    0  0.00000000000E+00  0.00000000000E+00  0.23501127182E+04  0.23501127182E+04  0.50400001928E-02 0. -1.
       -1   -1    0    0    0  501  0.00000000000E+00  0.00000000000E+00 -0.91061048400E+03  0.91061048401E+03  0.50400001928E-02 0.  1.
    10030    2    1    2    0    0  0.00000000000E+00  0.00000000000E+00  0.14395022342E+04  0.32607232023E+04  0.29257732515E+04 0.  0.
        4    1    3    3  502    0 -0.79303298021E+03 -0.23961127690E+02 -0.65000197960E+03  0.10256605821E+04  0.12699999809E+01 0.  1.
       -4    1    3    3    0  502  0.79303298021E+03  0.23961127690E+02  0.20895042138E+04  0.22350626201E+04  0.12699999809E+01 0. -1.
</event>
<event>
 5   0  0.4224163E-06  0.2905652E+04  0.7818609E-02  0.8271198E-01
       -2   -1    0    0    0  501  0.00000000000E+00  0.00000000000E+00  0.28587393474E+04  0.28587393474E+04  0.25500000920E-02 0.  1.
        2   -1    0    0  501    0  0.00000000000E+00  0.00000000000E+00 -0.73833340520E+03  0.73833340521E+03  0.25500000920E-02 0. -1.
    10030    2    1    2    0    0  0.00000000000E+00  0.00000000000E+00  0.21204059422E+04  0.35970727527E+04  0.29056515669E+04 0.  0.
        4    1    3    3  502    0  0.26643143179E+03  0.71318794185E+02 -0.70562466529E+03  0.75761458500E+03  0.12699999809E+01 0. -1.
       -4    1    3    3    0  502 -0.26643143179E+03 -0.71318794185E+02  0.28260306075E+04  0.28394581677E+04  0.12699999809E+01 0.  1.
</event>
<event>
 5   0  0.4148677E-06  0.2897779E+04  0.7818609E-02  0.8273539E-01
       -2   -1    0    0    0  501  0.00000000000E+00  0.00000000000E+00  0.13299845192E+04  0.13299845192E+04  0.25500000920E-02 0. -1.
        2   -1    0    0  501    0  0.00000000000E+00  0.00000000000E+00 -0.15784251244E+04  0.15784251244E+04  0.25500000920E-02 0.  1.
    10030    2    1    2    0    0  0.00000000000E+00  0.00000000000E+00 -0.24844060515E+03  0.29084096436E+04  0.28977791359E+04 0.  0.
        5    1    3    3  502    0  0.25912680961E+03  0.10149167637E+04  0.88047951548E+03  0.13683818940E+04  0.46999998093E+01 0. -1.
       -5    1    3    3    0  502 -0.25912680961E+03 -0.10149167637E+04 -0.11289201206E+04  0.15400277496E+04  0.46999998093E+01 0.  1.
</event>
<event>
 5   0  0.1602873E-06  0.2910374E+04  0.7818609E-02  0.8269797E-01
       -1   -1    0    0    0  501  0.00000000000E+00  0.00000000000E+00  0.83676660575E+03  0.83676660577E+03  0.50400001928E-02 0.  1.
        1   -1    0    0  501    0  0.00000000000E+00  0.00000000000E+00 -0.25306577479E+04  0.25306577479E+04  0.50400001928E-02 0. -1.
    10030    2    1    2    0    0  0.00000000000E+00  0.00000000000E+00 -0.16938911422E+04  0.33674243537E+04  0.29103744736E+04 0.  0.
        1    1    3    3  502    0 -0.39221189179E+03  0.12580870296E+04 -0.13279989109E+03  0.13244806353E+04  0.50400001928E-02 0.  1.
       -1    1    3    3    0  502  0.39221189179E+03 -0.12580870296E+04 -0.15610912511E+04  0.20429437184E+04  0.50400001928E-02 0. -1.
</event>
<event>
 5   0  0.4187518E-06  0.2900009E+04  0.7818609E-02  0.8272875E-01
       -2   -1    0    0    0  501  0.00000000000E+00  0.00000000000E+00  0.10594173405E+04  0.10594173405E+04  0.25500000920E-02 0.  1.
        2   -1    0    0  501    0  0.00000000000E+00  0.00000000000E+00 -0.19845938938E+04  0.19845938938E+04  0.25500000920E-02 0. -1.
    10030    2    1    2    0    0  0.00000000000E+00  0.00000000000E+00 -0.92517655328E+03  0.30440112343E+04  0.29000090930E+04 0.  0.
        3    1    3    3  502    0 -0.27113555655E+03  0.10928140053E+04  0.49642965348E+03  0.12305280782E+04  0.10100000352E+00 0.  1.
       -3    1    3    3    0  502  0.27113555655E+03 -0.10928140053E+04 -0.14216062068E+04  0.18134831561E+04  0.10100000352E+00 0. -1.
</event>
<event>
 5   0  0.4115143E-06  0.2957347E+04  0.7818609E-02  0.8256017E-01
       -2   -1    0    0    0  501  0.00000000000E+00  0.00000000000E+00  0.11692117496E+04  0.11692117496E+04  0.25500000920E-02 0. -1.
        2   -1    0    0  501    0  0.00000000000E+00  0.00000000000E+00 -0.18700420529E+04  0.18700420529E+04  0.25500000920E-02 0.  1.
    10030    2    1    2    0    0  0.00000000000E+00  0.00000000000E+00 -0.70083030330E+03  0.30392538024E+04  0.29573468788E+04 0.  0.
        1    1    3    3  502    0  0.41049668647E+03 -0.11947787071E+04 -0.11401188168E+04  0.17017269478E+04  0.50400001928E-02 0.  1.
       -1    1    3    3    0  502 -0.41049668647E+03  0.11947787071E+04  0.43928851349E+03  0.13375268546E+04  0.50400001928E-02 0. -1.
</event>
<event>
 5   0  0.4162450E-06  0.2888358E+04  0.7818609E-02  0.8276350E-01
       -2   -1    0    0    0  501  0.00000000000E+00  0.00000000000E+00  0.94622106278E+03  0.94622106279E+03  0.25500000920E-02 0.  1.
        2   -1    0    0  501    0  0.00000000000E+00  0.00000000000E+00 -0.22041928491E+04  0.22041928491E+04  0.25500000920E-02 0. -1.
    10030    2    1    2    0    0  0.00000000000E+00  0.00000000000E+00 -0.12579717863E+04  0.31504139119E+04  0.28883584959E+04 0.  0.
        2    1    3    3  502    0 -0.99574084802E+03  0.37929019370E+03  0.43428822635E+03  0.11506377149E+04  0.25500000920E-02 0.  1.
       -2    1    3    3    0  502  0.99574084802E+03 -0.37929019370E+03 -0.16922600127E+04  0.19997761970E+04  0.25500000920E-02 0. -1.
</event>
<event>
 5   0  0.1550278E-06  0.2900686E+04  0.7818609E-02  0.8272673E-01
        1   -1    0    0  501    0  0.00000000000E+00  0.00000000000E+00  0.13269765190E+04  0.13269765190E+04  0.50400001928E-02 0. -1.
       -1   -1    0    0    0  501  0.00000000000E+00  0.00000000000E+00 -0.15851783218E+04  0.15851783218E+04  0.50400001928E-02 0.  1.
    10030    2    1    2    0    0  0.00000000000E+00  0.00000000000E+00 -0.25820180280E+03  0.29121548408E+04  0.29006857199E+04 0.  0.
        2    1    3    3  502    0  0.10925036273E+04  0.41128402418E+03  0.73498545138E+03  0.13794645113E+04  0.25500000920E-02 0. -1.
       -2    1    3    3    0  502 -0.10925036273E+04 -0.41128402418E+03 -0.99318725418E+03  0.15326903295E+04  0.25500000920E-02 0.  1.
</event>
<event>
 5   0  0.1580212E-06  0.2896439E+04  0.7818609E-02  0.8273938E-01
       -1   -1    0    0    0  501  0.00000000000E+00  0.00000000000E+00  0.14815068772E+04  0.14815068773E+04  0.50400001928E-02 0. -1.
        1   -1    0    0  501    0  0.00000000000E+00  0.00000000000E+00 -0.14156802106E+04  0.14156802106E+04  0.50400001928E-02 0.  1.
    10030    2    1    2    0    0  0.00000000000E+00  0.00000000000E+00  0.65826666631E+02  0.28971870879E+04  0.28964391711E+04 0.  0.
        4    1    3    3  502    0 -0.69813910671E+03 -0.30455577535E+01 -0.12362448150E+04  0.14197571424E+04  0.12699999809E+01 0.  1.
       -4    1    3    3    0  502  0.69813910671E+03  0.30455577535E+01  0.13020714816E+04  0.14774299455E+04  0.12699999809E+01 0. -1.
</event>
<event>
 5   0  0.4148677E-06  0.2899970E+04  0.7818609E-02  0.8272886E-01
       -2   -1    0    0    0  501  0.00000000000E+00  0.00000000000E+00  0.87398873685E+03  0.87398873686E+03  0.25500000920E-02 0. -1.
        2   -1    0    0  501    0  0.00000000000E+00  0.00000000000E+00 -0.24055877816E+04  0.24055877816E+04  0.25500000920E-02 0.  1.
    10030    2    1    2    0    0  0.00000000000E+00  0.00000000000E+00 -0.15315990448E+04  0.32795765185E+04  0.28999700872E+04 0.  0.
        5    1    3    3  502    0  0.63294299743E+03  0.10911134075E+04 -0.15744439024E+04  0.20174342611E+04  0.46999998093E+01 0.  1.
       -5    1    3    3    0  502 -0.63294299743E+03 -0.10911134075E+04  0.42844857604E+02  0.12621422574E+04  0.46999998093E+01 0. -1.
</event>
<event>
 5   0  0.1550278E-06  0.2884053E+04  0.7818609E-02  0.8277638E-01
       -1   -1    0    0    0  501  0.00000000000E+00  0.00000000000E+00  0.14053963763E+04  0.14053963763E+04  0.50400001928E-02 0.  1.
        1   -1    0    0  501    0  0.00000000000E+00  0.00000000000E+00 -0.14796113347E+04  0.14796113347E+04  0.50400001928E-02 0. -1.
    10030    2    1    2    0    0  0.00000000000E+00  0.00000000000E+00 -0.74214958420E+02  0.28850077110E+04  0.28840529871E+04 0.  0.
        2    1    3    3  502    0 -0.42759626874E+03 -0.63200314875E+03 -0.12611030913E+04  0.14739903514E+04  0.25500000920E-02 0. -1.
       -2    1    3    3    0  502  0.42759626874E+03  0.63200314875E+03  0.11868881329E+04  0.14110173596E+04  0.25500000920E-02 0.  1.
</event>
<event>
 5   0  0.1511126E-06  0.2891582E+04  0.7818609E-02  0.8275386E-01
       -1   -1    0    0    0  501  0.00000000000E+00  0.00000000000E+00  0.10801495889E+04  0.10801495889E+04  0.50400001928E-02 0. -1.
        1   -1    0    0  501    0  0.00000000000E+00  0.00000000000E+00 -0.19352062985E+04  0.19352062985E+04  0.50400001928E-02 0.  1.
    10030    2    1    2    0    0  0.00000000000E+00  0.00000000000E+00 -0.85505670960E+03  0.30153558874E+04  0.28915824649E+04 0.  0.
        5    1    3    3  502    0 -0.87800446643E+03 -0.81906025435E+03 -0.12673187974E+04  0.17458151585E+04  0.46999998093E+01 0.  1.
       -5    1    3    3    0  502  0.87800446643E+03  0.81906025435E+03  0.41226208784E+03  0.12695407289E+04  0.46999998093E+01 0. -1.
</event>
<event>
 5   0  0.1580212E-06  0.2852131E+04  0.7818609E-02  0.8287264E-01
        1   -1    0    0  501    0  0.00000000000E+00  0.00000000000E+00  0.18053510503E+04  0.18053510504E+04  0.50400001928E-02 0.  1.
       -1   -1    0    0    0  501  0.00000000000E+00  0.00000000000E+00 -0.11264636905E+04  0.11264636906E+04  0.50400001928E-02 0. -1.
    10030    2    1    2    0    0  0.00000000000E+00  0.00000000000E+00  0.67888735980E+03  0.29318147409E+04  0.28521307171E+04 0.  0.
        4    1    3    3  502    0 -0.42594780224E+03  0.10031742461E+04  0.12848512771E+04  0.16848247729E+04  0.12699999809E+01 0.  1.
       -4    1    3    3    0  502  0.42594780224E+03 -0.10031742461E+04 -0.60596391728E+03  0.12469899680E+04  0.12699999809E+01 0. -1.
</event>
<event>
 5   0  0.1543678E-06  0.2886288E+04  0.7818609E-02  0.8276969E-01
        1   -1    0    0  501    0  0.00000000000E+00  0.00000000000E+00  0.14642510809E+04  0.14642510809E+04  0.50400001928E-02 0.  1.
       -1   -1    0    0    0  501  0.00000000000E+00  0.00000000000E+00 -0.14223407732E+04  0.14223407732E+04  0.50400001928E-02 0. -1.
    10030    2    1    2    0    0  0.00000000000E+00  0.00000000000E+00  0.41910307644E+02  0.28865918541E+04  0.28862875910E+04 0.  0.
        3    1    3    3  502    0 -0.11311839611E+04 -0.54847528616E+03  0.72973411104E+03  0.14535866594E+04  0.10100000352E+00 0.  1.
       -3    1    3    3    0  502  0.11311839611E+04  0.54847528616E+03 -0.68782380340E+03  0.14330051947E+04  0.10100000352E+00 0. -1.
</event>
<event>
 5   0  0.1511126E-06  0.2872668E+04  0.7818609E-02  0.8281056E-01
       -1   -1    0    0    0  501  0.00000000000E+00  0.00000000000E+00  0.86258970738E+03  0.86258970740E+03  0.50400001928E-02 0.  1.
        1   -1    0    0  501    0  0.00000000000E+00  0.00000000000E+00 -0.23916987742E+04  0.23916987742E+04  0.50400001928E-02 0. -1.
    10030    2    1    2    0    0  0.00000000000E+00  0.00000000000E+00 -0.15291090669E+04  0.32542884816E+04  0.28726675727E+04 0.  0.
        5    1    3    3  502    0  0.13572913127E+04  0.39718719332E+03 -0.10489761015E+04  0.17607868484E+04  0.46999998093E+01 0. -1.
       -5    1    3    3    0  502 -0.13572913127E+04 -0.39718719332E+03 -0.48013296532E+03  0.14935016332E+04  0.46999998093E+01 0.  1.
</event>
<event>
 5   0  0.1602873E-06  0.2955202E+04  0.7818609E-02  0.8256640E-01
        1   -1    0    0  501    0  0.00000000000E+00  0.00000000000E+00  0.14519710231E+04  0.14519710231E+04  0.50400001928E-02 0. -1.
       -1   -1    0    0    0  501  0.00000000000E+00  0.00000000000E+00 -0.15036829876E+04  0.15036829876E+04  0.50400001928E-02 0.  1.
    10030    2    1    2    0    0  0.00000000000E+00  0.00000000000E+00 -0.51711964508E+02  0.29556540107E+04  0.29552016012E+04 0.  0.
        1    1    3    3  502    0 -0.27569519309E+03 -0.79111939566E+03 -0.12431809199E+04  0.14991252574E+04  0.50400001928E-02 0.  1.
       -1    1    3    3    0  502  0.27569519309E+03  0.79111939566E+03  0.11914689554E+04  0.14565287533E+04  0.50400001928E-02 0. -1.
</event>
<event>
 5   0  0.4115143E-06  0.2849655E+04  0.7818609E-02  0.8288016E-01
       -2   -1    0    0    0  501  0.00000000000E+00  0.00000000000E+00  0.77137240577E+03  0.77137240578E+03  0.25500000920E-02 0. -1.
        2   -1    0    0  501    0  0.00000000000E+00  0.00000000000E+00 -0.26318460722E+04  0.26318460722E+04  0.25500000920E-02 0.  1.
    10030    2    1    2    0    0  0.00000000000E+00  0.00000000000E+00 -0.18604736664E+04  0.34032184780E+04  0.28496550222E+04 0.  0.
        1    1    3    3  502    0  0.10555050782E+04 -0.95011596906E+03 -0.79239403619E+03  0.16262532501E+04  0.50400001928E-02 0.  1.
       -1    1    3    3    0  502 -0.10555050782E+04  0.95011596906E+03 -0.10680796302E+04  0.17769652279E+04  0.50400001928E-02 0. -1.
</event>
<event>
 5   0  0.1602873E-06  0.2902552E+04  0.7818609E-02  0.8272119E-01
       -1   -1    0    0    0  501  0.00000000000E+00  0.00000000000E+00  0.19687692688E+04  0.19687692689E+04  0.50400001928E-02 0. -1.
        1   -1    0    0  501    0  0.00000000000E+00  0.00000000000E+00 -0.10698064900E+04  0.10698064901E+04  0.50400001928E-02 0.  1.
    10030    2    1    2    0    0  0.00000000000E+00  0.00000000000E+00  0.89896277880E+03  0.30385757589E+04  0.29025520779E+04 0.  0.
        1    1    3    3  502    0 -0.10776823586E+04 -0.78702404010E+03  0.10466489073E+04  0.16959599173E+04  0.50400001928E-02 0. -1.
       -1    1    3    3    0  502  0.10776823586E+04  0.78702404010E+03 -0.14768612854E+03  0.13426158417E+04  0.50400001928E-02 0.  1.
</event>
<event>
 5   0  0.4115143E-06  0.2938939E+04  0.7818609E-02  0.8261385E-01
        2   -1    0    0  501    0  0.00000000000E+00  0.00000000000E+00  0.20540160627E+04  0.20540160627E+04  0.25500000920E-02 0.  1.
       -2   -1    0    0    0  501  0.00000000000E+00  0.00000000000E+00 -0.10512772175E+04  0.10512772175E+04  0.25500000920E-02 0. -1.
    10030    2    1    2    0    0  0.00000000000E+00  0.00000000000E+00  0.10027388452E+04  0.31052932803E+04  0.29389387821E+04 0.  0.
        1    1    3    3  502    0 -0.39207556101E+03 -0.50436113133E+03 -0.89687962707E+03  0.11011341707E+04  0.50400001928E-02 0. -1.
       -1    1    3    3    0  502  0.39207556101E+03  0.50436113133E+03  0.18996184723E+04  0.20041591096E+04  0.50400001928E-02 0.  1.
</event>
<event>
 5   0  0.4148677E-06  0.2886343E+04  0.7818609E-02  0.8276953E-01
       -2   -1    0    0    0  501  0.00000000000E+00  0.00000000000E+00  0.16308430979E+04  0.16308430979E+04  0.25500000920E-02 0. -1.
        2   -1    0    0  501    0  0.00000000000E+00  0.00000000000E+00 -0.12770962562E+04  0.12770962562E+04  0.25500000920E-02 0.  1.
    10030    2    1    2    0    0  0.00000000000E+00  0.00000000000E+00  0.35374684167E+03  0.29079393541E+04  0.28863427480E+04 0.  0.
        5    1    3    3  502    0 -0.91609432173E+03 -0.22337793234E+03  0.12775657557E+04  0.15878673928E+04  0.46999998093E+01 0. -1.
       -5    1    3    3    0  502  0.91609432173E+03  0.22337793234E+03 -0.92381891407E+03  0.13200719613E+04  0.46999998093E+01 0.  1.
</event>
<event>
 5   0  0.1550278E-06  0.2927871E+04  0.7818609E-02  0.8264633E-01
        1   -1    0    0  501    0  0.00000000000E+00  0.00000000000E+00  0.20373629584E+04  0.20373629584E+04  0.50400001928E-02 0. -1.
       -1   -1    0    0    0  501  0.00000000000E+00  0.00000000000E+00 -0.10519021671E+04  0.10519021671E+04  0.50400001928E-02 0.  1.
    10030    2    1    2    0    0  0.00000000000E+00  0.00000000000E+00  0.98546079135E+03  0.30892651255E+04  0.29278705648E+04 0.  0.
        2    1    3    3  502    0 -0.63879245393E+03  0.30326160023E+03  0.18452173177E+04  0.19760694185E+04  0.25500000920E-02 0. -1.
       -2    1    3    3    0  502  0.63879245393E+03 -0.30326160023E+03 -0.85975652633E+03  0.11131957069E+04  0.25500000920E-02 0.  1.
</event>
<event>
 5   0  0.1602873E-06  0.2905415E+04  0.7818609E-02  0.8271268E-01
        1   -1    0    0  501    0  0.00000000000E+00  0.00000000000E+00  0.15337491728E+04  0.15337491728E+04  0.50400001928E-02 0.  1.
       -1   -1    0    0    0  501  0.00000000000E+00  0.00000000000E+00 -0.13759480237E+04  0.13759480237E+04  0.50400001928E-02 0. -1.
    10030    2    1    2    0    0  0.00000000000E+00  0.00000000000E+00  0.15780114911E+03  0.29096971965E+04  0.29054150431E+04 0.  0.
        1    1    3    3  502    0  0.14463606400E+04  0.13552467827E+03  0.84662645422E+02  0.14551610917E+04  0.50400001928E-02 0.  1.
       -1    1    3    3    0  502 -0.14463606400E+04 -0.13552467827E+03  0.73138503683E+02  0.14545361048E+04  0.50400001928E-02 0. -1.
</event>
<event>
 5   0  0.4162450E-06  0.2903902E+04  0.7818609E-02  0.8271718E-01
       -2   -1    0    0    0  501  0.00000000000E+00  0.00000000000E+00  0.11127866416E+04  0.11127866416E+04  0.25500000920E-02 0.  1.
        2   -1    0    0  501    0  0.00000000000E+00  0.00000000000E+00 -0.18944881415E+04  0.18944881415E+04  0.25500000920E-02 0. -1.
    10030    2    1    2    0    0  0.00000000000E+00  0.00000000000E+00 -0.78170149981E+03  0.30072747831E+04  0.29039015800E+04 0.  0.
        2    1    3    3  502    0 -0.84210806228E+01 -0.26708318947E+03 -0.18688043575E+04  0.18878119798E+04  0.25500000920E-02 0. -1.
       -2    1    3    3    0  502  0.84210806228E+01  0.26708318947E+03  0.10871028577E+04  0.11194628033E+04  0.25500000920E-02 0.  1.
</event>
<event>
 5   0  0.1543678E-06  0.2897462E+04  0.7818609E-02  0.8273633E-01
        1   -1    0    0  501    0  0.00000000000E+00  0.00000000000E+00  0.27372317997E+04  0.27372317997E+04  0.50400001928E-02 0.  1.
       -1   -1    0    0    0  501  0.00000000000E+00  0.00000000000E+00 -0.76676793481E+03  0.76676793483E+03  0.50400001928E-02 0. -1.
    10030    2    1    2    0    0  0.00000000000E+00  0.00000000000E+00  0.19704638649E+04  0.35039997345E+04  0.28974620441E+04 0.  0.
        3    1    3    3  502    0  0.39794478438E+03  0.10298177192E+04 -0.14918341474E+03  0.11140647592E+04  0.10100000352E+00 0. -1.
       -3    1    3    3    0  502 -0.39794478438E+03 -0.10298177192E+04  0.21196472796E+04  0.23899349754E+04  0.10100000352E+00 0.  1.
</event>
<event>
 5   0  0.1543678E-06  0.2890722E+04  0.7818609E-02  0.8275643E-01
        1   -1    0    0  501    0  0.00000000000E+00  0.00000000000E+00  0.17028145023E+04  0.17028145023E+04  0.50400001928E-02 0. -1.
       -1   -1    0    0    0  501  0.00000000000E+00  0.00000000000E+00 -0.12268322790E+04  0.12268322790E+04  0.50400001928E-02 0.  1.
    10030    2    1    2    0    0  0.00000000000E+00  0.00000000000E+00  0.47598222328E+03  0.29296467813E+04  0.28907215685E+04 0.  0.
        3    1    3    3  502    0 -0.50156778380E+03  0.11167987343E+04 -0.54063683689E+03  0.13383190406E+04  0.10100000352E+00 0.  1.
       -3    1    3    3    0  502  0.50156778380E+03 -0.11167987343E+04  0.10166190602E+04  0.15913277407E+04  0.10100000352E+00 0. -1.
</event>
<event>
 5   0  0.4162450E-06  0.2906935E+04  0.7818609E-02  0.8270817E-01
        2   -1    0    0  501    0  0.00000000000E+00  0.00000000000E+00  0.20110193042E+04  0.20110193042E+04  0.25500000920E-02 0.  1.
       -2   -1    0    0    0  501  0.00000000000E+00  0.00000000000E+00 -0.10504963779E+04  0.10504963779E+04  0.25500000920E-02 0. -1.
    10030    2    1    2    0    0  0.00000000000E+00  0.00000000000E+00  0.96052292633E+03  0.30615156821E+04  0.29069354963E+04 0.  0.
        2    1    3    3  502    0  0.96946735574E+03  0.44265546660E+03  0.15211267152E+04  0.18573199239E+04  0.25500000920E-02 0.  1.
       -2    1    3    3    0  502 -0.96946735574E+03 -0.44265546660E+03 -0.56060378890E+03  0.12041957582E+04  0.25500000920E-02 0. -1.
</event>
<event>
 5   0  0.1511126E-06  0.2882040E+04  0.7818609E-02  0.8278241E-01
       -1   -1    0    0    0  501  0.00000000000E+00  0.00000000000E+00  0.13046798203E+04  0.13046798203E+04  0.50400001928E-02 0. -1.
        1   -1    0    0  501    0  0.00000000000E+00  0.00000000000E+00 -0.15916074108E+04  0.15916074108E+04  0.50400001928E-02 0.  1.
    10030    2    1    2    0    0  0.00000000000E+00  0.00000000000E+00 -0.28692759058E+03  0.28962872311E+04  0.28820396047E+04 0.  0.
        5    1    3    3  502    0 -0.18465004058E+03  0.13016459224E+04  0.44948548628E+03  0.13894016832E+04  0.46999998093E+01 0. -1.
       -5    1    3    3    0  502  0.18465004058E+03 -0.13016459224E+04 -0.73641307686E+03  0.15068855479E+04  0.46999998093E+01 0.  1.
</event>
<event>
 5   0  0.4187518E-06  0.2903669E+04  0.7818609E-02  0.8271787E-01
        2   -1    0    0  501    0  0.00000000000E+00  0.00000000000E+00  0.15892612866E+04  0.15892612866E+04  0.25500000920E-02 0.  1.
       -2   -1    0    0    0  501  0.00000000000E+00  0.00000000000E+00 -0.13262913558E+04  0.13262913558E+04  0.25500000920E-02 0. -1.
    10030    2    1    2    0    0  0.00000000000E+00  0.00000000000E+00  0.26296993085E+03  0.29155526424E+04  0.29036690628E+04 0.  0.
        3    1    3    3  502    0 -0.14014527472E+04 -0.32715572276E+03  0.32390124868E+03  0.14751314174E+04  0.10100000352E+00 0.  1.
       -3    1    3    3    0  502  0.14014527472E+04  0.32715572276E+03 -0.60931317838E+02  0.14404212250E+04  0.10100000352E+00 0. -1.
</event>
<event>
 5   0  0.4187518E-06  0.2877707E+04  0.7818609E-02  0.8279541E-01
       -2   -1    0    0    0  501  0.00000000000E+00  0.00000000000E+00  0.15417981121E+04  0.15417981121E+04  0.25500000920E-02 0.  1.
        2   -1    0    0  501    0  0.00000000000E+00  0.00000000000E+00 -0.13427825713E+04  0.13427825713E+04  0.25500000920E-02 0. -1.
    10030    2    1    2    0    0  0.00000000000E+00  0.00000000000E+00  0.19901554081E+03  0.28845806833E+04  0.28777071660E+04 0.  0.
        3    1    3    3  502    0  0.10856012633E+04 -0.10874271260E+03 -0.84078640038E+03  0.13774167349E+04  0.10100000352E+00 0. -1.
       -3    1    3    3    0  502 -0.10856012633E+04  0.10874271260E+03  0.10398019412E+04  0.15071639484E+04  0.10100000352E+00 0.  1.
</event>
<event>
 5   0  0.4162450E-06  0.2931508E+04  0.7818609E-02  0.8263564E-01
       -2   -1    0    0    0  501  0.00000000000E+00  0.00000000000E+00  0.11784844183E+04  0.11784844183E+04  0.25500000920E-02 0. -1.
        2   -1    0    0  501    0  0.00000000000E+00  0.00000000000E+00 -0.18230487419E+04  0.18230487419E+04  0.25500000920E-02 0.  1.
    10030    2    1    2    0    0  0.00000000000E+00  0.00000000000E+00 -0.64456432361E+03  0.30015331601E+04  0.29315078277E+04 0.  0.
        2    1    3    3  502    0  0.41854118830E+03 -0.76513673350E+01  0.11159783610E+04  0.11919072833E+04  0.25500000920E-02 0. -1.
       -2    1    3    3    0  502 -0.41854118830E+03  0.76513673350E+01 -0.17605426846E+04  0.18096258768E+04  0.25500000920E-02 0.  1.
</event>
<event>
 5   0  0.1580212E-06  0.2943717E+04  0.7818609E-02  0.8259988E-01
       -1   -1    0    0    0  501  0.00000000000E+00  0.00000000000E+00  0.29039253837E+04  0.29039253837E+04  0.50400001928E-02 0.  1.
        1   -1    0    0  501    0  0.00000000000E+00  0.00000000000E+00 -0.74601337764E+03  0.74601337765E+03  0.50400001928E-02 0. -1.
    10030    2    1    2    0    0  0.00000000000E+00  0.00000000000E+00  0.21579120060E+04  0.36499387613E+04  0.29437168233E+04 0.  0.
        4    1    3    3  502    0 -0.12197284504E+04 -0.35338023154E+03  0.20016264490E+04  0.23704693913E+04  0.12699999809E+01 0.  1.
       -4    1    3    3    0  502  0.12197284504E+04  0.35338023154E+03  0.15628555704E+03  0.12794693701E+04  0.12699999809E+01 0. -1.
</event>
<event>
 5   0  0.4115143E-06  0.2910579E+04  0.7818609E-02  0.8269737E-01
       -2   -1    0    0    0  501  0.00000000000E+00  0.00000000000E+00  0.16599468398E+04  0.16599468398E+04  0.25500000920E-02 0.  1.
        2   -1    0    0  501    0  0.00000000000E+00  0.00000000000E+00 -0.12758648070E+04  0.12758648070E+04  0.25500000920E-02 0. -1.
    10030    2    1    2    0    0  0.00000000000E+00  0.00000000000E+00  0.38408203279E+03  0.29358116468E+04  0.29105791550E+04 0.  0.
        1    1    3    3  502    0 -0.83116840251E+03 -0.78941742544E+03  0.10963887692E+04  0.15862184964E+04  0.50400001928E-02 0. -1.
       -1    1    3    3    0  502  0.83116840251E+03  0.78941742544E+03 -0.71230673642E+03  0.13495931504E+04  0.50400001928E-02 0.  1.
</event>
<event>
 5   0  0.4162450E-06  0.2881549E+04  0.7818609E-02  0.8278388E-01
        2   -1    0    0  501    0  0.00000000000E+00  0.00000000000E+00  0.10351653730E+04  0.10351653730E+04  0.25500000920E-02 0. -1.
       -2   -1    0    0    0  501  0.00000000000E+00  0.00000000000E+00 -0.20053140582E+04  0.20053140582E+04  0.25500000920E-02 0.  1.
    10030    2    1    2    0    0  0.00000000000E+00  0.00000000000E+00 -0.97014868517E+03  0.30404794312E+04  0.28815493576E+04 0.  0.
        2    1    3    3  502    0 -0.78375028593E+03 -0.68714803219E+03  0.56447003573E+03  0.11853536814E+04  0.25500000920E-02 0. -1.
       -2    1    3    3    0  502  0.78375028593E+03  0.68714803219E+03 -0.15346187209E+04  0.18551257498E+04  0.25500000920E-02 0.  1.
</event>
<event>
 5   0  0.4115143E-06  0.2915556E+04  0.7818609E-02  0.8268264E-01
       -2   -1    0    0    0  501  0.00000000000E+00  0.00000000000E+00  0.12702649715E+04  0.12702649715E+04  0.25500000920E-02 0.  1.
        2   -1    0    0  501    0  0.00000000000E+00  0.00000000000E+00 -0.16729709833E+04  0.16729709833E+04  0.25500000920E-02 0. -1.
    10030    2    1    2    0    0  0.00000000000E+00  0.00000000000E+00 -0.40270601179E+03  0.29432359548E+04  0.29155558224E+04 0.  0.
        1    1    3    3  502    0  0.57201723405E+03 -0.24858479811E+03  0.11287748211E+04  0.12896242533E+04  0.50400001928E-02 0.  1.
       -1    1    3    3    0  502 -0.57201723405E+03  0.24858479811E+03 -0.15314808329E+04  0.16536117015E+04  0.50400001928E-02 0. -1.
</event>
<event>
 5   0  0.4187518E-06  0.2922505E+04  0.7818609E-02  0.8266213E-01
        2   -1    0    0  501    0  0.00000000000E+00  0.00000000000E+00  0.22622502039E+04  0.22622502039E+04  0.25500000920E-02 0. -1.
       -2   -1    0    0    0  501  0.00000000000E+00  0.00000000000E+00 -0.94386501492E+03  0.94386501493E+03  0.25500000920E-02 0.  1.
    10030    2    1    2    0    0  0.00000000000E+00  0.00000000000E+00  0.13183851890E+04  0.32061152188E+04  0.29225049683E+04 0.  0.
        3    1    3    3  502    0 -0.49620025211E+02  0.14489486800E+04  0.45886755163E+03  0.15206820392E+04  0.10100000352E+00 0.  1.
       -3    1    3    3    0  502  0.49620025211E+02 -0.14489486800E+04  0.85951763736E+03  0.16854331797E+04  0.10100000352E+00 0. -1.
</event>
<event>
 5   0  0.1550278E-06  0.2918358E+04  0.7818609E-02  0.8267436E-01
        1   -1    0    0  501    0  0.00000000000E+00  0.00000000000E+00  0.17485499988E+04  0.17485499988E+04  0.50400001928E-02 0. -1.
       -1   -1    0    0    0  501  0.00000000000E+00  0.00000000000E+00 -0.12176969607E+04  0.12176969607E+04  0.50400001928E-02 0.  1.
    10030    2    1    2    0    0  0.00000000000E+00  0.00000000000E+00  0.53085303813E+03  0.29662469595E+04  0.29183584558E+04 0.  0.
        2    1    3    3  502    0 -0.47405118701E+03 -0.77753199629E+03  0.14242774311E+04  0.16905167062E+04  0.25500000920E-02 0. -1.
       -2    1    3    3    0  502  0.47405118701E+03  0.77753199629E+03 -0.89342439300E+03  0.12757302533E+04  0.25500000920E-02 0.  1.
</event>
<event>
 5   0  0.4187518E-06  0.2888305E+04  0.7818609E-02  0.8276366E-01
        2   -1    0    0  501    0  0.00000000000E+00  0.00000000000E+00  0.19171734804E+04  0.19171734804E+04  0.25500000920E-02 0.  1.
       -2   -1    0    0    0  501  0.00000000000E+00  0.00000000000E+00 -0.10878391453E+04  0.10878391453E+04  0.25500000920E-02 0. -1.
    10030    2    1    2    0    0  0.00000000000E+00  0.00000000000E+00  0.82933433506E+03  0.30050126257E+04  0.28883049426E+04 0.  0.
        3    1    3    3  502    0  0.50299940788E+03  0.44519169038E+03 -0.91541586945E+03  0.11354251493E+04  0.10100000352E+00 0. -1.
       -3    1    3    3    0  502 -0.50299940788E+03 -0.44519169038E+03  0.17447502045E+04  0.18695874764E+04  0.10100000352E+00 0.  1.
</event>
<event>
 5   0  0.4224163E-06  0.2620086E+04  0.7818609E-02  0.8361410E-01
        2   -1    0    0  501    0  0.00000000000E+00  0.00000000000E+00  0.18946895727E+04  0.18946895727E+04  0.25500000920E-02 0.  1.
       -2   -1    0    0    0  501  0.00000000000E+00  0.00000000000E+00 -0.90580138793E+03  0.90580138794E+03  0.25500000920E-02 0. -1.
    10030    2    1    2    0    0  0.00000000000E+00  0.00000000000E+00  0.98888818481E+03  0.28004909607E+04  0.26200858342E+04 0.  0.
        4    1    3    3  502    0 -0.12368013276E+03 -0.97652427231E+03 -0.42955242029E+03  0.10739708210E+04  0.12699999809E+01 0. -1.
       -4    1    3    3    0  502  0.12368013276E+03  0.97652427231E+03  0.14184406051E+04  0.17265201397E+04  0.12699999809E+01 0.  1.
</event>
<event>
 5   0  0.1602873E-06  0.2910104E+04  0.7818609E-02  0.8269877E-01
        1   -1    0    0  501    0  0.00000000000E+00  0.00000000000E+00  0.22083604382E+04  0.22083604382E+04  0.50400001928E-02 0.  1.
       -1   -1    0    0    0  501  0.00000000000E+00  0.00000000000E+00 -0.95870980917E+03  0.95870980918E+03  0.50400001928E-02 0. -1.
    10030    2    1    2    0    0  0.00000000000E+00  0.00000000000E+00  0.12496506290E+04  0.31670702474E+04  0.29101043379E+04 0.  0.
        1    1    3    3  502    0 -0.11955070569E+04  0.67541614600E+03  0.10090944089E+03  0.13768103750E+04  0.50400001928E-02 0. -1.
       -1    1    3    3    0  502  0.11955070569E+04 -0.67541614600E+03  0.11487411881E+04  0.17902598724E+04  0.50400001928E-02 0.  1.
</event>
<event>
 5   0  0.1550278E-06  0.2862068E+04  0.7818609E-02  0.8284254E-01
        1   -1    0    0  501    0  0.00000000000E+00  0.00000000000E+00  0.16522889708E+04  0.16522889708E+04  0.50400001928E-02 0. -1.
       -1   -1    0    0    0  501  0.00000000000E+00  0.00000000000E+00 -0.12394072304E+04  0.12394072304E+04  0.50400001928E-02 0.  1.
    10030    2    1    2    0    0  0.00000000000E+00  0.00000000000E+00  0.41288174038E+03  0.28916962012E+04  0.28620684108E+04 0.  0.
        2    1    3    3  502    0  0.94344915053E+03  0.85837520165E+03 -0.44908568488E+03  0.13522508047E+04  0.25500000920E-02 0.  1.
       -2    1    3    3    0  502 -0.94344915053E+03 -0.85837520165E+03  0.86196742526E+03  0.15394453965E+04  0.25500000920E-02 0. -1.
</event>
<event>
 5   0  0.1511126E-06  0.2908508E+04  0.7818609E-02  0.8270351E-01
        1   -1    0    0  501    0  0.00000000000E+00  0.00000000000E+00  0.93552267209E+03  0.93552267210E+03  0.50400001928E-02 0. -1.
       -1   -1    0    0    0  501  0.00000000000E+00  0.00000000000E+00 -0.22606131612E+04  0.22606131612E+04  0.50400001928E-02 0.  1.
    10030    2    1    2    0    0  0.00000000000E+00  0.00000000000E+00 -0.13250904891E+04  0.31961358333E+04  0.29085081160E+04 0.  0.
        5    1    3    3  502    0  0.37095463944E+03 -0.26159390252E+02  0.88238144093E+03  0.95755457051E+03  0.46999998093E+01 0. -1.
       -5    1    3    3    0  502 -0.37095463944E+03  0.26159390252E+02 -0.22074719301E+04  0.22385812628E+04  0.46999998093E+01 0.  1.
</event>
<event>
 5   0  0.1543678E-06  0.2936577E+04  0.7818609E-02  0.8262077E-01
       -1   -1    0    0    0  501  0.00000000000E+00  0.00000000000E+00  0.23356830241E+04  0.23356830242E+04  0.50400001928E-02 0. -1.
        1   -1    0    0  501    0  0.00000000000E+00  0.00000000000E+00 -0.92301534279E+03  0.92301534281E+03  0.50400001928E-02 0.  1.
    10030    2    1    2    0    0  0.00000000000E+00  0.00000000000E+00  0.14126676814E+04  0.32586983670E+04  0.29365771008E+04 0.  0.
        3    1    3    3  502    0 -0.84504310211E+03 -0.83817560320E+03  0.16604341494E+04  0.20429580908E+04  0.10100000352E+00 0.  1.
       -3    1    3    3    0  502  0.84504310211E+03  0.83817560320E+03 -0.24776646800E+03  0.12157402762E+04  0.10100000352E+00 0. -1.
</event>
<event>
 5   0  0.4224163E-06  0.2887422E+04  0.7818609E-02  0.8276630E-01
        2   -1    0    0  501    0  0.00000000000E+00  0.00000000000E+00  0.20790267236E+04  0.20790267236E+04  0.25500000920E-02 0. -1.
       -2   -1    0    0    0  501  0.00000000000E+00  0.00000000000E+00 -0.10025372100E+04  0.10025372100E+04  0.25500000920E-02 0.  1.
    10030    2    1    2    0    0  0.00000000000E+00  0.00000000000E+00  0.10764895136E+04  0.30815639337E+04  0.28874221382E+04 0.  0.
        4    1    3    3  502    0 -0.99802962165E+03 -0.23997002471E+03  0.16217144762E+04  0.19192728294E+04  0.12699999809E+01 0. -1.
       -4    1    3    3    0  502  0.99802962165E+03  0.23997002471E+03 -0.54522496254E+03  0.11622911043E+04  0.12699999809E+01 0.  1.
</event>
<event>
 5   0  0.1602873E-06  0.2887836E+04  0.7818609E-02  0.8276506E-01
        1   -1    0    0  501    0  0.00000000000E+00  0.00000000000E+00  0.19402966942E+04  0.19402966942E+04  0.50400001928E-02 0.  1.
       -1   -1    0    0    0  501  0.00000000000E+00  0.00000000000E+00 -0.10745257030E+04  0.10745257030E+04  0.50400001928E-02 0. -1.
    10030    2    1    2    0    0  0.00000000000E+00  0.00000000000E+00  0.86577099121E+03  0.30148223973E+04  0.28878356390E+04 0.  0.
        1    1    3    3  502    0 -0.12483545307E+03  0.14570824713E+03  0.19269286142E+04  0.19364577630E+04  0.50400001928E-02 0.  1.
       -1    1    3    3    0  502  0.12483545307E+03 -0.14570824713E+03 -0.10611576230E+04  0.10783646343E+04  0.50400001928E-02 0. -1.
</event>
<event>
 5   0  0.4148677E-06  0.2908454E+04  0.7818609E-02  0.8270366E-01
        2   -1    0    0  501    0  0.00000000000E+00  0.00000000000E+00  0.23631871007E+04  0.23631871007E+04  0.25500000920E-02 0. -1.
       -2   -1    0    0    0  501  0.00000000000E+00  0.00000000000E+00 -0.89488331608E+03  0.89488331609E+03  0.25500000920E-02 0.  1.
    10030    2    1    2    0    0  0.00000000000E+00  0.00000000000E+00  0.14683037846E+04  0.32580704167E+04  0.29084543725E+04 0.  0.
        5    1    3    3  502    0  0.66328090568E+03 -0.98357913441E+03 -0.20801139948E+03  0.12044336037E+04  0.46999998093E+01 0.  1.
       -5    1    3    3    0  502 -0.66328090568E+03  0.98357913441E+03  0.16763151841E+04  0.20536368130E+04  0.46999998093E+01 0. -1.
</event>
<event>
 5   0  0.4148677E-06  0.2893993E+04  0.7818609E-02  0.8274667E-01
        2   -1    0    0  501    0  0.00000000000E+00  0.00000000000E+00  0.19554155844E+04  0.19554155844E+04  0.25500000920E-02 0.  1.
       -2   -1    0    0    0  501  0.00000000000E+00  0.00000000000E+00 -0.10707690330E+04  0.10707690330E+04  0.25500000920E-02 0. -1.
    10030    2    1    2    0    0  0.00000000000E+00  0.00000000000E+00  0.88464655136E+03  0.30261846174E+04  0.28939927122E+04 0.  0.
        5    1    3    3  502    0 -0.46052480679E+00  0.39896138243E+03  0.18967580439E+04  0.19382681868E+04  0.46999998093E+01 0.  1.
       -5    1    3    3    0  502  0.46052480679E+00 -0.39896138243E+03 -0.10121114925E+04  0.10879164307E+04  0.46999998093E+01 0. -1.
</event>
<event>
 5   0  0.4148677E-06  0.2919350E+04  0.7818609E-02  0.8267143E-01
       -2   -1    0    0    0  501  0.00000000000E+00  0.00000000000E+00  0.95727526926E+03  0.95727526926E+03  0.25500000920E-02 0.  1.
        2   -1    0    0  501    0  0.00000000000E+00  0.00000000000E+00 -0.22257461347E+04  0.22257461347E+04  0.25500000920E-02 0. -1.
    10030    2    1    2    0    0  0.00000000000E+00  0.00000000000E+00 -0.12684708654E+04  0.31830214039E+04  0.29193504280E+04 0.  0.
        5    1    3    3  502    0  0.98706609134E+03  0.78399976554E+03 -0.14366938578E+04  0.19112996709E+04  0.46999998093E+01 0. -1.
       -5    1    3    3    0  502 -0.98706609134E+03 -0.78399976554E+03  0.16822299239E+03  0.12717217330E+04  0.46999998093E+01 0.  1.
</event>
<event>
 5   0  0.4162450E-06  0.2942242E+04  0.7818609E-02  0.8260419E-01
       -2   -1    0    0    0  501  0.00000000000E+00  0.00000000000E+00  0.99477068255E+03  0.99477068255E+03  0.25500000920E-02 0.  1.
        2   -1    0    0  501    0  0.00000000000E+00  0.00000000000E+00 -0.21755735200E+04  0.21755735200E+04  0.25500000920E-02 0. -1.
    10030    2    1    2    0    0  0.00000000000E+00  0.00000000000E+00 -0.11808028375E+04  0.31703442026E+04  0.29422418360E+04 0.  0.
        2    1    3    3  502    0  0.95655329693E+03  0.10249533896E+04 -0.10706848202E+04  0.17640548872E+04  0.25500000920E-02 0.  1.
       -2    1    3    3    0  502 -0.95655329693E+03 -0.10249533896E+04 -0.11011801722E+03  0.14062893154E+04  0.25500000920E-02 0. -1.
</event>
<event>
 5   0  0.1580212E-06  0.2901787E+04  0.7818609E-02  0.8272346E-01
       -1   -1    0    0    0  501  0.00000000000E+00  0.00000000000E+00  0.10775257161E+04  0.10775257161E+04  0.50400001928E-02 0. -1.
        1   -1    0    0  501    0  0.00000000000E+00  0.00000000000E+00 -0.19536345733E+04  0.19536345733E+04  0.50400001928E-02 0.  1.
    10030    2    1    2    0    0  0.00000000000E+00  0.00000000000E+00 -0.87610885717E+03  0.30311602893E+04  0.29017866858E+04 0.  0.
        4    1    3    3  502    0  0.87321394373E+03  0.11579415829E+04 -0.48185949208E+03  0.15282413042E+04  0.12699999809E+01 0.  1.
       -4    1    3    3    0  502 -0.87321394373E+03 -0.11579415829E+04 -0.39424936509E+03  0.15029189851E+04  0.12699999809E+01 0. -1.
</event>
<event>
 5   0  0.4115143E-06  0.2894163E+04  0.7818609E-02  0.8274616E-01
       -2   -1    0    0    0  501  0.00000000000E+00  0.00000000000E+00  0.86715896600E+03  0.86715896601E+03  0.25500000920E-02 0. -1.
        2   -1    0    0  501    0  0.00000000000E+00  0.00000000000E+00 -0.24148336598E+04  0.24148336598E+04  0.25500000920E-02 0.  1.
    10030    2    1    2    0    0  0.00000000000E+00  0.00000000000E+00 -0.15476746938E+04  0.32819926258E+04  0.28941628562E+04 0.  0.
        1    1    3    3  502    0 -0.67837412630E+03 -0.11206829976E+04 -0.14709712365E+04  0.19697406467E+04  0.50400001928E-02 0.  1.
       -1    1    3    3    0  502  0.67837412630E+03  0.11206829976E+04 -0.76703457294E+02  0.13122519792E+04  0.50400001928E-02 0. -1.
</event>
<event>
 5   0  0.4148677E-06  0.2902714E+04  0.7818609E-02  0.8272070E-01
       -2   -1    0    0    0  501  0.00000000000E+00  0.00000000000E+00  0.22244615644E+04  0.22244615644E+04  0.25500000920E-02 0. -1.
        2   -1    0    0  501    0  0.00000000000E+00  0.00000000000E+00 -0.94694271772E+03  0.94694271773E+03  0.25500000920E-02 0.  1.
    10030    2    1    2    0    0  0.00000000000E+00  0.00000000000E+00  0.12775188467E+04  0.31714042822E+04  0.29027143706E+04 0.  0.
        5    1    3    3  502    0  0.48206651796E+02  0.38903740911E+03  0.21655156317E+04  0.22007167078E+04  0.46999998093E+01 0. -1.
       -5    1    3    3    0  502 -0.48206651796E+02 -0.38903740911E+03 -0.88799678495E+03  0.97068757438E+03  0.46999998093E+01 0.  1.
</event>
<event>
 5   0  0.4224163E-06  0.2906967E+04  0.7818609E-02  0.8270808E-01
        2   -1    0    0  501    0  0.00000000000E+00  0.00000000000E+00  0.17885967975E+04  0.17885967975E+04  0.25500000920E-02 0. -1.
       -2   -1    0    0    0  501  0.00000000000E+00  0.00000000000E+00 -0.11811571659E+04  0.11811571659E+04  0.25500000920E-02 0.  1.
    10030    2    1    2    0    0  0.00000000000E+00  0.00000000000E+00  0.60743963160E+03  0.29697539634E+04  0.29069667520E+04 0.  0.
        4    1    3    3  502    0 -0.94309158826E+03  0.25439705940E+03 -0.79585126360E+03  0.12599684339E+04  0.12699999809E+01 0.  1.
       -4    1    3    3    0  502  0.94309158826E+03 -0.25439705940E+03  0.14032908952E+04  0.17097855296E+04  0.12699999809E+01 0. -1.
</event>
<event>
 5   0  0.4148677E-06  0.3009806E+04  0.7818609E-02  0.8240936E-01
       -2   -1    0    0    0  501  0.00000000000E+00  0.00000000000E+00  0.15162919270E+04  0.15162919270E+04  0.25500000920E-02 0.  1.
        2   -1    0    0  501    0  0.00000000000E+00  0.00000000000E+00 -0.14935996900E+04  0.14935996900E+04  0.25500000920E-02 0. -1.
    10030    2    1    2    0    0  0.00000000000E+00  0.00000000000E+00  0.22692237045E+02  0.30098916170E+04  0.30098060749E+04 0.  0.
        5    1    3    3  502    0  0.74537734529E+03 -0.30217735365E+03 -0.12606226247E+04  0.14953561555E+04  0.46999998093E+01 0. -1.
       -5    1    3    3    0  502 -0.74537734529E+03  0.30217735365E+03  0.12833148617E+04  0.15145354615E+04  0.46999998093E+01 0.  1.
</event>
<event>
 5   0  0.4148677E-06  0.2898686E+04  0.7818609E-02  0.8273268E-01
        2   -1    0    0  501    0  0.00000000000E+00  0.00000000000E+00  0.12196120644E+04  0.12196120644E+04  0.25500000920E-02 0.  1.
       -2   -1    0    0    0  501  0.00000000000E+00  0.00000000000E+00 -0.17223471897E+04  0.17223471897E+04  0.25500000920E-02 0. -1.
    10030    2    1    2    0    0  0.00000000000E+00  0.00000000000E+00 -0.50273512523E+03  0.29419592541E+04  0.28986861932E+04 0.  0.
        5    1    3    3  502    0 -0.96147188531E+03 -0.61474416964E+03 -0.11581451230E+04  0.16259338229E+04  0.46999998093E+01 0. -1.
       -5    1    3    3    0  502  0.96147188531E+03  0.61474416964E+03  0.65540999781E+03  0.13160254312E+04  0.46999998093E+01 0.  1.
</event>
<event>
 5   0  0.1580212E-06  0.2897218E+04  0.7818609E-02  0.8273706E-01
       -1   -1    0    0    0  501  0.00000000000E+00  0.00000000000E+00  0.10314391163E+04  0.10314391163E+04  0.50400001928E-02 0.  1.
        1   -1    0    0  501    0  0.00000000000E+00  0.00000000000E+00 -0.20345055742E+04  0.20345055742E+04  0.50400001928E-02 0. -1.
    10030    2    1    2    0    0  0.00000000000E+00  0.00000000000E+00 -0.10030664580E+04  0.30659446905E+04  0.28972184119E+04 0.  0.
        4    1    3    3  502    0 -0.46015418468E+03 -0.91409497896E+03 -0.15865003212E+04  0.18879344232E+04  0.12699999809E+01 0. -1.
       -4    1    3    3    0  502  0.46015418468E+03  0.91409497896E+03  0.58343386325E+03  0.11780102673E+04  0.12699999809E+01 0.  1.
</event>
<event>
 5   0  0.1543678E-06  0.2899388E+04  0.7818609E-02  0.8273060E-01
        1   -1    0    0  501    0  0.00000000000E+00  0.00000000000E+00  0.10126609873E+04  0.10126609873E+04  0.50400001928E-02 0. -1.
       -1   -1    0    0    0  501  0.00000000000E+00  0.00000000000E+00 -0.20753364470E+04  0.20753364470E+04  0.50400001928E-02 0.  1.
    10030    2    1    2    0    0  0.00000000000E+00  0.00000000000E+00 -0.10626754597E+04  0.30879974343E+04  0.28993876977E+04 0.  0.
        3    1    3    3  502    0  0.16731453024E+03  0.41282745950E+03 -0.20006425151E+04  0.20496319540E+04  0.10100000352E+00 0.  1.
       -3    1    3    3    0  502 -0.16731453024E+03 -0.41282745950E+03  0.93796705546E+03  0.10383654803E+04  0.10100000352E+00 0. -1.
</event>
<event>
 5   0  0.1511126E-06  0.2781644E+04  0.7818609E-02  0.8308990E-01
        1   -1    0    0  501    0  0.00000000000E+00  0.00000000000E+00  0.86772730550E+03  0.86772730551E+03  0.50400001928E-02 0. -1.
       -1   -1    0    0    0  501  0.00000000000E+00  0.00000000000E+00 -0.22292557106E+04  0.22292557106E+04  0.50400001928E-02 0.  1.
    10030    2    1    2    0    0  0.00000000000E+00  0.00000000000E+00 -0.13615284051E+04  0.30969830161E+04  0.27816441548E+04 0.  0.
        5    1    3    3  502    0 -0.74958149402E+03 -0.11714908342E+04 -0.66958776383E+03  0.15435780039E+04  0.46999998093E+01 0.  1.
       -5    1    3    3    0  502  0.74958149402E+03  0.11714908342E+04 -0.69194064125E+03  0.15534050122E+04  0.46999998093E+01 0. -1.
</event>
<event>
 5   0  0.4115143E-06  0.2911057E+04  0.7818609E-02  0.8269595E-01
        2   -1    0    0  501    0  0.00000000000E+00  0.00000000000E+00  0.15885290406E+04  0.15885290406E+04  0.25500000920E-02 0.  1.
       -2   -1    0    0    0  501  0.00000000000E+00  0.00000000000E+00 -0.13336636543E+04  0.13336636543E+04  0.25500000920E-02 0. -1.
    10030    2    1    2    0    0  0.00000000000E+00  0.00000000000E+00  0.25486538630E+03  0.29221926950E+04  0.29110571587E+04 0.  0.
        1    1    3    3  502    0 -0.42830926545E+03  0.91994439320E+03  0.11748881190E+04  0.15524524487E+04  0.50400001928E-02 0.  1.
       -1    1    3    3    0  502  0.42830926545E+03 -0.91994439320E+03 -0.92002273268E+03  0.13697402462E+04  0.50400001928E-02 0. -1.
</event>
<event>
 5   0  0.4148677E-06  0.2896779E+04  0.7818609E-02  0.8273836E-01
        2   -1    0    0  501    0  0.00000000000E+00  0.00000000000E+00  0.23092198200E+04  0.23092198200E+04  0.25500000920E-02 0. -1.
       -2   -1    0    0    0  501  0.00000000000E+00  0.00000000000E+00 -0.90845952826E+03  0.90845952827E+03  0.25500000920E-02 0.  1.
    10030    2    1    2    0    0  0.00000000000E+00  0.00000000000E+00  0.14007602918E+04  0.32176793483E+04  0.28967794175E+04 0.  0.
        5    1    3    3  502    0 -0.66424867144E+03 -0.10618910141E+04  0.15082541089E+04  0.19605334403E+04  0.46999998093E+01 0. -1.
       -5    1    3    3    0  502  0.66424867144E+03  0.10618910141E+04 -0.10749381713E+03  0.12571459080E+04  0.46999998093E+01 0.  1.
</event>
<event>
 5   0  0.1511126E-06  0.2878362E+04  0.7818609E-02  0.8279345E-01
        1   -1    0    0  501    0  0.00000000000E+00  0.00000000000E+00  0.20134440884E+04  0.20134440885E+04  0.50400001928E-02 0. -1.
       -1   -1    0    0    0  501  0.00000000000E+00  0.00000000000E+00 -0.10287061991E+04  0.10287061991E+04  0.50400001928E-02 0.  1.
    10030    2    1    2    0    0  0.00000000000E+00  0.00000000000E+00  0.98473788931E+03  0.30421502876E+04  0.28783623229E+04 0.  0.
        5    1    3    3  502    0 -0.46784834042E+03 -0.13569617659E+04  0.38155516995E+03  0.14852049493E+04  0.46999998093E+01 0. -1.
       -5    1    3    3    0  502  0.46784834042E+03  0.13569617659E+04  0.60318271936E+03  0.15569453383E+04  0.46999998093E+01 0.  1.
</event>
<event>
 5   0  0.1602873E-06  0.2917635E+04  0.7818609E-02  0.8267650E-01
        1   -1    0    0  501    0  0.00000000000E+00  0.00000000000E+00  0.22332463957E+04  0.22332463957E+04  0.50400001928E-02 0.  1.
       -1   -1    0    0    0  501  0.00000000000E+00  0.00000000000E+00 -0.95293969026E+03  0.95293969028E+03  0.50400001928E-02 0. -1.
    10030    2    1    2    0    0  0.00000000000E+00  0.00000000000E+00  0.12803067055E+04  0.31861860860E+04  0.29176354321E+04 0.  0.
        1    1    3    3  502    0 -0.30315042852E+03  0.66983811666E+03  0.20161139125E+04  0.21459959443E+04  0.50400001928E-02 0.  1.
       -1    1    3    3    0  502  0.30315042852E+03 -0.66983811666E+03 -0.73580720706E+03  0.10401901417E+04  0.50400001928E-02 0. -1.
</event>
<event>
 5   0  0.4224163E-06  0.2877475E+04  0.7818609E-02  0.8279611E-01
       -2   -1    0    0    0  501  0.00000000000E+00  0.00000000000E+00  0.14241072608E+04  0.14241072608E+04  0.25500000920E-02 0.  1.
        2   -1    0    0  501    0  0.00000000000E+00  0.00000000000E+00 -0.14535185272E+04  0.14535185272E+04  0.25500000920E-02 0. -1.
    10030    2    1    2    0    0  0.00000000000E+00  0.00000000000E+00 -0.29411266310E+02  0.28776257880E+04  0.28774754826E+04 0.  0.
        4    1    3    3  502    0 -0.21693846457E+03 -0.52209403732E+03 -0.13377714121E+04  0.14523355140E+04  0.12699999809E+01 0. -1.
       -4    1    3    3    0  502  0.21693846457E+03  0.52209403732E+03  0.13083601458E+04  0.14252902740E+04  0.12699999809E+01 0.  1.
</event>
<event>
 5   0  0.1602873E-06  0.2902616E+04  0.7818609E-02  0.8272100E-01
       -1   -1    0    0    0  501  0.00000000000E+00  0.00000000000E+00  0.10559238242E+04  0.10559238242E+04  0.50400001928E-02 0.  1.
        1   -1    0    0  501    0  0.00000000000E+00  0.00000000000E+00 -0.19947407810E+04  0.19947407810E+04  0.50400001928E-02 0. -1.
    10030    2    1    2    0    0  0.00000000000E+00  0.00000000000E+00 -0.93881695676E+03  0.30506646052E+04  0.29026155886E+04 0.  0.
        1    1    3    3  502    0 -0.44123830778E+03 -0.11798897128E+04  0.28809108992E+03  0.12922180369E+04  0.50400001928E-02 0.  1.
       -1    1    3    3    0  502  0.44123830778E+03  0.11798897128E+04 -0.12269080467E+04  0.17584465683E+04  0.50400001928E-02 0. -1.
</event>
<event>
 5   0  0.4224163E-06  0.3020583E+04  0.7818609E-02  0.8237878E-01
        2   -1    0    0  501    0  0.00000000000E+00  0.00000000000E+00  0.17129599836E+04  0.17129599836E+04  0.25500000920E-02 0.  1.
       -2   -1    0    0    0  501  0.00000000000E+00  0.00000000000E+00 -0.13316013840E+04  0.13316013840E+04  0.25500000920E-02 0. -1.
    10030    2    1    2    0    0  0.00000000000E+00  0.00000000000E+00  0.38135859966E+03  0.30445613676E+04  0.30205826491E+04 0.  0.
        4    1    3    3  502    0  0.95207294268E+03 -0.10470444452E+04 -0.34098631446E+03  0.14556848003E+04  0.12699999809E+01 0. -1.
       -4    1    3    3    0  502 -0.95207294268E+03  0.10470444452E+04  0.72234491412E+03  0.15888765673E+04  0.12699999809E+01 0.  1.
</event>
<event>
 5   0  0.4115143E-06  0.2898400E+04  0.7818609E-02  0.8273354E-01
       -2   -1    0    0    0  501  0.00000000000E+00  0.00000000000E+00  0.20593543382E+04  0.20593543382E+04  0.25500000920E-02 0.  1.
        2   -1    0    0  501    0  0.00000000000E+00  0.00000000000E+00 -0.10198249191E+04  0.10198249191E+04  0.25500000920E-02 0. -1.
    10030    2    1    2    0    0  0.00000000000E+00  0.00000000000E+00  0.10395294191E+04  0.30791792573E+04  0.28984001596E+04 0.  0.
        1    1    3    3  502    0 -0.28329535819E+02 -0.40043105792E+03 -0.95957957675E+03  0.10401637173E+04  0.50400001928E-02 0. -1.
       -1    1    3    3    0  502  0.28329535819E+02  0.40043105792E+03  0.19991089958E+04  0.20390155399E+04  0.50400001928E-02 0.  1.
</event>
<event>
 5   0  0.1550278E-06  0.2936276E+04  0.7818609E-02  0.8262165E-01
       -1   -1    0    0    0  501  0.00000000000E+00  0.00000000000E+00  0.10418479164E+04  0.10418479164E+04  0.50400001928E-02 0. -1.
        1   -1    0    0  501    0  0.00000000000E+00  0.00000000000E+00 -0.20688516405E+04  0.20688516405E+04  0.50400001928E-02 0.  1.
    10030    2    1    2    0    0  0.00000000000E+00  0.00000000000E+00 -0.10270037241E+04  0.31106995569E+04  0.29362757166E+04 0.  0.
        2    1    3    3  502    0  0.13896947681E+04  0.45423415830E+03 -0.65503649574E+03  0.16020777228E+04  0.25500000920E-02 0. -1.
       -2    1    3    3    0  502 -0.13896947681E+04 -0.45423415830E+03 -0.37196722841E+03  0.15086218341E+04  0.25500000920E-02 0.  1.
</event>
<event>
 5   0  0.1602873E-06  0.2870404E+04  0.7818609E-02  0.8281738E-01
       -1   -1    0    0    0  501  0.00000000000E+00  0.00000000000E+00  0.74367808725E+03  0.74367808727E+03  0.50400001928E-02 0.  1.
        1   -1    0    0  501    0  0.00000000000E+00  0.00000000000E+00 -0.27697526276E+04  0.27697526276E+04  0.50400001928E-02 0. -1.
    10030    2    1    2    0    0  0.00000000000E+00  0.00000000000E+00 -0.20260745404E+04  0.35134307149E+04  0.28704036903E+04 0.  0.
        1    1    3    3  502    0 -0.31053378898E+03  0.12482732199E+03  0.69524494026E+03  0.77160781579E+03  0.50400001928E-02 0.  1.
       -1    1    3    3    0  502  0.31053378898E+03 -0.12482732199E+03 -0.27213194806E+04  0.27418228991E+04  0.50400001928E-02 0. -1.
</event>
<event>
 5   0  0.4224163E-06  0.2891932E+04  0.7818609E-02  0.8275282E-01
        2   -1    0    0  501    0  0.00000000000E+00  0.00000000000E+00  0.24826375839E+04  0.24826375839E+04  0.25500000920E-02 0. -1.
       -2   -1    0    0    0  501  0.00000000000E+00  0.00000000000E+00 -0.84217620096E+03  0.84217620096E+03  0.25500000920E-02 0.  1.
    10030    2    1    2    0    0  0.00000000000E+00  0.00000000000E+00  0.16404613829E+04  0.33248137848E+04  0.28919324257E+04 0.  0.
        4    1    3    3  502    0  0.12373922625E+04  0.16682876500E+03 -0.18208979744E+02  0.12487211971E+04  0.12699999809E+01 0.  1.
       -4    1    3    3    0  502 -0.12373922625E+04 -0.16682876500E+03  0.16586703627E+04  0.20760925878E+04  0.12699999809E+01 0. -1.
</event>
<event>
 5   0  0.1580212E-06  0.2913674E+04  0.7818609E-02  0.8268821E-01
        1   -1    0    0  501    0  0.00000000000E+00  0.00000000000E+00  0.16622888569E+04  0.16622888570E+04  0.50400001928E-02 0. -1.
       -1   -1    0    0    0  501  0.00000000000E+00  0.00000000000E+00 -0.12767779944E+04  0.12767779944E+04  0.50400001928E-02 0.  1.
    10030    2    1    2    0    0  0.00000000000E+00  0.00000000000E+00  0.38551086259E+03  0.29390668513E+04  0.29136738547E+04 0.  0.
        4    1    3    3  502    0  0.43618720276E+03 -0.95783605177E+03  0.12088390474E+04  0.16028108539E+04  0.12699999809E+01 0. -1.
       -4    1    3    3    0  502 -0.43618720276E+03  0.95783605177E+03 -0.82332818480E+03  0.13362559974E+04  0.12699999809E+01 0.  1.
</event>
<event>
 5   0  0.4224163E-06  0.2930239E+04  0.7818609E-02  0.8263937E-01
        2   -1    0    0  501    0  0.00000000000E+00  0.00000000000E+00  0.20111336944E+04  0.20111336944E+04  0.25500000920E-02 0.  1.
       -2   -1    0    0    0  501  0.00000000000E+00  0.00000000000E+00 -0.10673458329E+04  0.10673458329E+04  0.25500000920E-02 0. -1.
    10030    2    1    2    0    0  0.00000000000E+00  0.00000000000E+00  0.94378786148E+03  0.30784795274E+04  0.29302390129E+04 0.  0.
        4    1    3    3  502    0 -0.83753128627E-01 -0.14130352954E+04  0.87865651359E+03  0.16639433990E+04  0.12699999809E+01 0.  1.
       -4    1    3    3    0  502  0.83753128627E-01  0.14130352954E+04  0.65131347886E+02  0.14145361284E+04  0.12699999809E+01 0. -1.
</event>
<event>
 5   0  0.1550278E-06  0.2901138E+04  0.7818609E-02  0.8272539E-01
       -1   -1    0    0    0  501  0.00000000000E+00  0.00000000000E+00  0.11757203574E+04  0.11757203575E+04  0.50400001928E-02 0. -1.
        1   -1    0    0  501    0  0.00000000000E+00  0.00000000000E+00 -0.17896695570E+04  0.17896695570E+04  0.50400001928E-02 0.  1.
    10030    2    1    2    0    0  0.00000000000E+00  0.00000000000E+00 -0.61394919957E+03  0.29653899145E+04  0.29011383499E+04 0.  0.
        2    1    3    3  502    0 -0.29971027017E+03  0.65411551431E+03 -0.15944163779E+04  0.17492446765E+04  0.25500000920E-02 0.  1.
       -2    1    3    3    0  502  0.29971027017E+03 -0.65411551431E+03  0.98046717833E+03  0.12161452380E+04  0.25500000920E-02 0. -1.
</event>
<event>
 5   0  0.4115143E-06  0.2884758E+04  0.7818609E-02  0.8277427E-01
       -2   -1    0    0    0  501  0.00000000000E+00  0.00000000000E+00  0.94518358185E+03  0.94518358185E+03  0.25500000920E-02 0.  1.
        2   -1    0    0  501    0  0.00000000000E+00  0.00000000000E+00 -0.22011148949E+04  0.22011148949E+04  0.25500000920E-02 0. -1.
    10030    2    1    2    0    0  0.00000000000E+00  0.00000000000E+00 -0.12559313130E+04  0.31462984767E+04  0.28847583333E+04 0.  0.
        1    1    3    3  502    0 -0.74221567513E+03 -0.91512574844E+03  0.27939655025E+03  0.12109507324E+04  0.50400001928E-02 0.  1.
       -1    1    3    3    0  502  0.74221567513E+03  0.91512574844E+03 -0.15353278633E+04  0.19353477444E+04  0.50400001928E-02 0. -1.
</event>
<event>
 5   0  0.1543678E-06  0.2929812E+04  0.7818609E-02  0.8264062E-01
        1   -1    0    0  501    0  0.00000000000E+00  0.00000000000E+00  0.15728582812E+04  0.15728582812E+04  0.50400001928E-02 0.  1.
       -1   -1    0    0    0  501  0.00000000000E+00  0.00000000000E+00 -0.13643626820E+04  0.13643626820E+04  0.50400001928E-02 0. -1.
    10030    2    1    2    0    0  0.00000000000E+00  0.00000000000E+00  0.20849559914E+03  0.29372209632E+04  0.29298116956E+04 0.  0.
        3    1    3    3  502    0  0.10382545463E+04 -0.20730151767E+03 -0.91073671828E+03  0.13965628530E+04  0.10100000352E+00 0. -1.
       -3    1    3    3    0  502 -0.10382545463E+04  0.20730151767E+03  0.11192323174E+04  0.15406581102E+04  0.10100000352E+00 0.  1.
</event>
<event>
 5   0  0.1602873E-06  0.2853018E+04  0.7818609E-02  0.8286995E-01
       -1   -1    0    0    0  501  0.00000000000E+00  0.00000000000E+00  0.82606175824E+03  0.82606175826E+03  0.50400001928E-02 0. -1.
        1   -1    0    0  501    0  0.00000000000E+00  0.00000000000E+00 -0.24634087919E+04  0.24634087919E+04  0.50400001928E-02 0.  1.
    10030    2    1    2    0    0  0.00000000000E+00  0.00000000000E+00 -0.16373470336E+04  0.32894705501E+04  0.28530179094E+04 0.  0.
        1    1    3    3  502    0 -0.68352680199E+03  0.97385297117E+03 -0.17260391325E+04  0.20963801148E+04  0.50400001928E-02 0.  1.
       -1    1    3    3    0  502  0.68352680199E+03 -0.97385297117E+03  0.88692098925E+02  0.11930904354E+04  0.50400001928E-02 0. -1.
</event>
<event>
 5   0  0.1543678E-06  0.2919950E+04  0.7818609E-02  0.8266966E-01
        1   -1    0    0  501    0  0.00000000000E+00  0.00000000000E+00  0.10409430101E+04  0.10409430101E+04  0.50400001928E-02 0.  1.
       -1   -1    0    0    0  501  0.00000000000E+00  0.00000000000E+00 -0.20476881596E+04  0.20476881596E+04  0.50400001928E-02 0. -1.
    10030    2    1    2    0    0  0.00000000000E+00  0.00000000000E+00 -0.10067451494E+04  0.30886311697E+04  0.29199497781E+04 0.  0.
        3    1    3    3  502    0 -0.24934120405E+03  0.95484803383E+02 -0.20216439163E+04  0.20391989894E+04  0.10100000352E+00 0. -1.
       -3    1    3    3    0  502  0.24934120405E+03 -0.95484803383E+02  0.10148987669E+04  0.10494321803E+04  0.10100000352E+00 0.  1.
</event>
<event>
 5   0  0.4187518E-06  0.2895515E+04  0.7818609E-02  0.8274213E-01
       -2   -1    0    0    0  501  0.00000000000E+00  0.00000000000E+00  0.16501930491E+04  0.16501930491E+04  0.25500000920E-02 0.  1.
        2   -1    0    0  501    0  0.00000000000E+00  0.00000000000E+00 -0.12701557875E+04  0.12701557875E+04  0.25500000920E-02 0. -1.
    10030    2    1    2    0    0  0.00000000000E+00  0.00000000000E+00  0.38003726155E+03  0.29203488366E+04  0.28955153267E+04 0.  0.
        3    1    3    3  502    0  0.83533303858E+03 -0.91049041449E+03 -0.57092423901E+03  0.13611497262E+04  0.10100000352E+00 0. -1.
       -3    1    3    3    0  502 -0.83533303858E+03  0.91049041449E+03  0.95096150056E+03  0.15591991104E+04  0.10100000352E+00 0.  1.
</event>
<event>
 5   0  0.4162450E-06  0.2833150E+04  0.7818609E-02  0.8293050E-01
        2   -1    0    0  501    0  0.00000000000E+00  0.00000000000E+00  0.27108266377E+04  0.27108266377E+04  0.25500000920E-02 0. -1.
       -2   -1    0    0    0  501  0.00000000000E+00  0.00000000000E+00 -0.74024806410E+03  0.74024806411E+03  0.25500000920E-02 0.  1.
    10030    2    1    2    0    0  0.00000000000E+00  0.00000000000E+00  0.19705785736E+04  0.34510747018E+04  0.28331496047E+04 0.  0.
        2    1    3    3  502    0  0.95747680241E+02  0.13987953677E+04  0.12315999235E+04  0.18661817892E+04  0.25500000920E-02 0. -1.
       -2    1    3    3    0  502 -0.95747680241E+02 -0.13987953677E+04  0.73897865017E+03  0.15848929126E+04  0.25500000920E-02 0.  1.
</event>
<event>
 5   0  0.1580212E-06  0.2890238E+04  0.7818609E-02  0.8275788E-01
       -1   -1    0    0    0  501  0.00000000000E+00  0.00000000000E+00  0.15973116038E+04  0.15973116038E+04  0.50400001928E-02 0. -1.
        1   -1    0    0  501    0  0.00000000000E+00  0.00000000000E+00 -0.13074269994E+04  0.13074269995E+04  0.50400001928E-02 0.  1.
    10030    2    1    2    0    0  0.00000000000E+00  0.00000000000E+00  0.28988460432E+03  0.29047386032E+04  0.28902375801E+04 0.  0.
        4    1    3    3  502    0  0.63787820762E+03  0.69780642504E+03 -0.95349340228E+03  0.13427485601E+04  0.12699999809E+01 0.  1.
       -4    1    3    3    0  502 -0.63787820762E+03 -0.69780642504E+03  0.12433780066E+04  0.15619900431E+04  0.12699999809E+01 0. -1.
</event>
<event>
 5   0  0.4115143E-06  0.2896378E+04  0.7818609E-02  0.8273956E-01
       -2   -1    0    0    0  501  0.00000000000E+00  0.00000000000E+00  0.10030705636E+04  0.10030705636E+04  0.25500000920E-02 0.  1.
        2   -1    0    0  501    0  0.00000000000E+00  0.00000000000E+00 -0.20908309694E+04  0.20908309694E+04  0.25500000920E-02 0. -1.
    10030    2    1    2    0    0  0.00000000000E+00  0.00000000000E+00 -0.10877604057E+04  0.30939015330E+04  0.28963777370E+04 0.  0.
        1    1    3    3  502    0  0.36215684353E+03 -0.27390724989E+03 -0.20128230108E+04  0.20634047673E+04  0.50400001928E-02 0. -1.
       -1    1    3    3    0  502 -0.36215684353E+03  0.27390724989E+03  0.92506260505E+03  0.10304967657E+04  0.50400001928E-02 0.  1.
</event>
<event>
 5   0  0.1360125E-06  0.2907704E+04  0.7818609E-02  0.8270589E-01
        4   -1    0    0  501    0  0.00000000000E+00  0.00000000000E+00  0.95919613917E+03  0.95919697992E+03  0.12699999809E+01 0.  1.
       -4   -1    0    0    0  501  0.00000000000E+00  0.00000000000E+00 -0.22035996741E+04  0.22036000400E+04  0.12699999809E+01 0. -1.
    10030    2    1    2    0    0  0.00000000000E+00  0.00000000000E+00 -0.12444035349E+04  0.31627970200E+04  0.29077043921E+04 0.  0.
        2    1    3    3  502    0 -0.12845930531E+04 -0.33826923592E+03 -0.12648658996E+04  0.18342549256E+04  0.25500000920E-02 0. -1.
       -2    1    3    3    0  502  0.12845930531E+04  0.33826923592E+03  0.20462364653E+02  0.13285420944E+04  0.25500000920E-02 0.  1.
</event>
<event>
 5   0  0.1580212E-06  0.2898191E+04  0.7818609E-02  0.8273416E-01
        1   -1    0    0  501    0  0.00000000000E+00  0.00000000000E+00  0.84621500917E+03  0.84621500919E+03  0.50400001928E-02 0. -1.
       -1   -1    0    0    0  501  0.00000000000E+00  0.00000000000E+00 -0.24814936362E+04  0.24814936362E+04  0.50400001928E-02 0.  1.
    10030    2    1    2    0    0  0.00000000000E+00  0.00000000000E+00 -0.16352786270E+04  0.33277086454E+04  0.28981905804E+04 0.  0.
        4    1    3    3  502    0 -0.83475804220E+03 -0.22441323379E+03  0.51778112028E+03  0.10076116265E+04  0.12699999809E+01 0. -1.
       -4    1    3    3    0  502  0.83475804220E+03  0.22441323379E+03 -0.21530597473E+04  0.23200970189E+04  0.12699999809E+01 0.  1.
</event>
<event>
 5   0  0.4115143E-06  0.2850961E+04  0.7818609E-02  0.8287619E-01
        2   -1    0    0  501    0  0.00000000000E+00  0.00000000000E+00  0.16076567863E+04  0.16076567863E+04  0.25500000920E-02 0. -1.
       -2   -1    0    0    0  501  0.00000000000E+00  0.00000000000E+00 -0.12639477181E+04  0.12639477181E+04  0.25500000920E-02 0.  1.
    10030    2    1    2    0    0  0.00000000000E+00  0.00000000000E+00  0.34370906819E+03  0.28716045044E+04  0.28509606287E+04 0.  0.
        1    1    3    3  502    0  0.10935182909E+04 -0.38210135094E+03  0.10086593395E+04  0.15359613791E+04  0.50400001928E-02 0. -1.
       -1    1    3    3    0  502 -0.10935182909E+04  0.38210135094E+03 -0.66495027131E+03  0.13356431253E+04  0.50400001928E-02 0.  1.
</event>
<event>
 5   0  0.1602873E-06  0.2894899E+04  0.7818609E-02  0.8274397E-01
       -1   -1    0    0    0  501  0.00000000000E+00  0.00000000000E+00  0.15348132385E+04  0.15348132385E+04  0.50400001928E-02 0. -1.
        1   -1    0    0  501    0  0.00000000000E+00  0.00000000000E+00 -0.13650590743E+04  0.13650590743E+04  0.50400001928E-02 0.  1.
    10030    2    1    2    0    0  0.00000000000E+00  0.00000000000E+00  0.16975416413E+03  0.28998723128E+04  0.28948994722E+04 0.  0.
        1    1    3    3  502    0  0.14201725831E+03  0.39369382445E+03 -0.13031246547E+04  0.13686846221E+04  0.50400001928E-02 0.  1.
       -1    1    3    3    0  502 -0.14201725831E+03 -0.39369382445E+03  0.14728788188E+04  0.15311876907E+04  0.50400001928E-02 0. -1.
</event>
<event>
 5   0  0.4115143E-06  0.2988226E+04  0.7818609E-02  0.8247101E-01
        2   -1    0    0  501    0  0.00000000000E+00  0.00000000000E+00  0.10229296620E+04  0.10229296620E+04  0.25500000920E-02 0.  1.
       -2   -1    0    0    0  501  0.00000000000E+00  0.00000000000E+00 -0.21823333331E+04  0.21823333332E+04  0.25500000920E-02 0. -1.
    10030    2    1    2    0    0  0.00000000000E+00  0.00000000000E+00 -0.11594036712E+04  0.32052629951E+04  0.29882258943E+04 0.  0.
        1    1    3    3  502    0 -0.28775091684E+02 -0.76562039171E+03  0.79618321535E+03  0.11049480995E+04  0.50400001928E-02 0.  1.
       -1    1    3    3    0  502  0.28775091684E+02  0.76562039171E+03 -0.19555868865E+04  0.21003148957E+04  0.50400001928E-02 0. -1.
</event>
<event>
 5   0  0.1580212E-06  0.2895521E+04  0.7818609E-02  0.8274211E-01
       -1   -1    0    0    0  501  0.00000000000E+00  0.00000000000E+00  0.18231665947E+04  0.18231665947E+04  0.50400001928E-02 0. -1.
        1   -1    0    0  501    0  0.00000000000E+00  0.00000000000E+00 -0.11496535921E+04  0.11496535921E+04  0.50400001928E-02 0.  1.
    10030    2    1    2    0    0  0.00000000000E+00  0.00000000000E+00  0.67351300255E+03  0.29728201868E+04  0.28955206956E+04 0.  0.
        4    1    3    3  502    0 -0.12207579749E+04  0.21560544502E+03  0.11045665060E+04  0.16603627677E+04  0.12699999809E+01 0. -1.
       -4    1    3    3    0  502  0.12207579749E+04 -0.21560544502E+03 -0.43105350348E+03  0.13124574191E+04  0.12699999809E+01 0.  1.
</event>
<event>
 5   0  0.4162450E-06  0.2889377E+04  0.7818609E-02  0.8276045E-01
       -2   -1    0    0    0  501  0.00000000000E+00  0.00000000000E+00  0.14788506619E+04  0.14788506619E+04  0.25500000920E-02 0. -1.
        2   -1    0    0  501    0  0.00000000000E+00  0.00000000000E+00 -0.14113154388E+04  0.14113154388E+04  0.25500000920E-02 0.  1.
    10030    2    1    2    0    0  0.00000000000E+00  0.00000000000E+00  0.67535223144E+02  0.28901661007E+04  0.28893769369E+04 0.  0.
        2    1    3    3  502    0  0.46733155872E+03 -0.97587570426E+03  0.99131303842E+03  0.14674582502E+04  0.25500000920E-02 0. -1.
       -2    1    3    3    0  502 -0.46733155872E+03  0.97587570426E+03 -0.92377781528E+03  0.14227078505E+04  0.25500000920E-02 0.  1.
</event>
<event>
 5   0  0.4162450E-06  0.2900055E+04  0.7818609E-02  0.8272861E-01
       -2   -1    0    0    0  501  0.00000000000E+00  0.00000000000E+00  0.12428751212E+04  0.12428751212E+04  0.25500000920E-02 0.  1.
        2   -1    0    0  501    0  0.00000000000E+00  0.00000000000E+00 -0.16917066274E+04  0.16917066274E+04  0.25500000920E-02 0. -1.
    10030    2    1    2    0    0  0.00000000000E+00  0.00000000000E+00 -0.44883150625E+03  0.29345817486E+04  0.29000552268E+04 0.  0.
        2    1    3    3  502    0  0.26165465818E+03 -0.62354065187E+03 -0.15223848036E+04  0.16658095914E+04  0.25500000920E-02 0. -1.
       -2    1    3    3    0  502 -0.26165465818E+03  0.62354065187E+03  0.10735532973E+04  0.12687721572E+04  0.25500000920E-02 0.  1.
</event>
<event>
 5   0  0.1580212E-06  0.2867908E+04  0.7818609E-02  0.8282490E-01
       -1   -1    0    0    0  501  0.00000000000E+00  0.00000000000E+00  0.15330694228E+04  0.15330694228E+04  0.50400001928E-02 0. -1.
        1   -1    0    0  501    0  0.00000000000E+00  0.00000000000E+00 -0.13412466861E+04  0.13412466861E+04  0.50400001928E-02 0.  1.
    10030    2    1    2    0    0  0.00000000000E+00  0.00000000000E+00  0.19182273667E+03  0.28743161090E+04  0.28679081457E+04 0.  0.
        4    1    3    3  502    0  0.23696236133E+03 -0.46192347237E+03  0.14355723027E+04  0.15265627744E+04  0.12699999809E+01 0. -1.
       -4    1    3    3    0  502 -0.23696236133E+03  0.46192347237E+03 -0.12437495660E+04  0.13477533346E+04  0.12699999809E+01 0.  1.
</event>
<event>
 5   0  0.1511126E-06  0.2909451E+04  0.7818609E-02  0.8270071E-01
        1   -1    0    0  501    0  0.00000000000E+00  0.00000000000E+00  0.28237409712E+04  0.28237409712E+04  0.50400001928E-02 0.  1.
       -1   -1    0    0    0  501  0.00000000000E+00  0.00000000000E+00 -0.74944067249E+03  0.74944067251E+03  0.50400001928E-02 0. -1.
    10030    2    1    2    0    0  0.00000000000E+00  0.00000000000E+00  0.20743002987E+04  0.35731816437E+04  0.29094510358E+04 0.  0.
        5    1    3    3  502    0  0.29462973268E+03  0.10371047101E+04 -0.16228091395E+03  0.10902981446E+04  0.46999998093E+01 0. -1.
       -5    1    3    3    0  502 -0.29462973268E+03 -0.10371047101E+04  0.22365812126E+04  0.24828834990E+04  0.46999998093E+01 0.  1.
</event>
<event>
 5   0  0.1550278E-06  0.2850415E+04  0.7818609E-02  0.8287785E-01
       -1   -1    0    0    0  501  0.00000000000E+00  0.00000000000E+00  0.91483898502E+03  0.91483898503E+03  0.50400001928E-02 0. -1.
        1   -1    0    0  501    0  0.00000000000E+00  0.00000000000E+00 -0.22202998306E+04  0.22202998306E+04  0.50400001928E-02 0.  1.
    10030    2    1    2    0    0  0.00000000000E+00  0.00000000000E+00 -0.13054608455E+04  0.31351388156E+04  0.28504152985E+04 0.  0.
        2    1    3    3  502    0 -0.12194169655E+04 -0.45420373696E+03 -0.12921224203E+04  0.18338100009E+04  0.25500000920E-02 0. -1.
       -2    1    3    3    0  502  0.12194169655E+04  0.45420373696E+03 -0.13338425207E+02  0.13013288147E+04  0.25500000920E-02 0.  1.
</event>
<event>
 5   0  0.4187518E-06  0.2840984E+04  0.7818609E-02  0.8290656E-01
       -2   -1    0    0    0  501  0.00000000000E+00  0.00000000000E+00  0.16487864050E+04  0.16487864050E+04  0.25500000920E-02 0. -1.
        2   -1    0    0  501    0  0.00000000000E+00  0.00000000000E+00 -0.12238078337E+04  0.12238078337E+04  0.25500000920E-02 0.  1.
    10030    2    1    2    0    0  0.00000000000E+00  0.00000000000E+00  0.42497857132E+03  0.28725942388E+04  0.28409841384E+04 0.  0.
        3    1    3    3  502    0  0.62531809508E+03 -0.18556859935E+02  0.15019949335E+04  0.16270697181E+04  0.10100000352E+00 0. -1.
       -3    1    3    3    0  502 -0.62531809508E+03  0.18556859935E+02 -0.10770163621E+04  0.12455245207E+04  0.10100000352E+00 0.  1.
</event>
<event>
 5   0  0.1550278E-06  0.2905932E+04  0.7818609E-02  0.8271115E-01
        1   -1    0    0  501    0  0.00000000000E+00  0.00000000000E+00  0.11401175438E+04  0.11401175438E+04  0.50400001928E-02 0.  1.
       -1   -1    0    0    0  501  0.00000000000E+00  0.00000000000E+00 -0.18516598023E+04  0.18516598023E+04  0.50400001928E-02 0. -1.
    10030    2    1    2    0    0  0.00000000000E+00  0.00000000000E+00 -0.71154225853E+03  0.29917773461E+04  0.29059317444E+04 0.  0.
        2    1    3    3  502    0  0.24890828124E+03 -0.87034093820E+03  0.81431588049E+03  0.12176038085E+04  0.25500000920E-02 0.  1.
       -2    1    3    3    0  502 -0.24890828124E+03  0.87034093820E+03 -0.15258581390E+04  0.17741735376E+04  0.25500000920E-02 0. -1.
</event>
<event>
 5   0  0.1602873E-06  0.2906123E+04  0.7818609E-02  0.8271058E-01
        1   -1    0    0  501    0  0.00000000000E+00  0.00000000000E+00  0.22597151720E+04  0.22597151720E+04  0.50400001928E-02 0. -1.
       -1   -1    0    0    0  501  0.00000000000E+00  0.00000000000E+00 -0.93436028695E+03  0.93436028697E+03  0.50400001928E-02 0.  1.
    10030    2    1    2    0    0  0.00000000000E+00  0.00000000000E+00  0.13253548851E+04  0.31940754590E+04  0.29061232710E+04 0.  0.
        1    1    3    3  502    0  0.14492400199E+04 -0.65730452342E+02  0.75311674260E+03  0.16345647603E+04  0.50400001928E-02 0. -1.
       -1    1    3    3    0  502 -0.14492400199E+04  0.65730452342E+02  0.57223814248E+03  0.15595106987E+04  0.50400001928E-02 0.  1.
</event>
<event>
 5   0  0.4115143E-06  0.2875776E+04  0.7818609E-02  0.8280122E-01
       -2   -1    0    0    0  501  0.00000000000E+00  0.00000000000E+00  0.14979899328E+04  0.14979899328E+04  0.25500000920E-02 0.  1.
        2   -1    0    0  501    0  0.00000000000E+00  0.00000000000E+00 -0.13801971848E+04  0.13801971848E+04  0.25500000920E-02 0. -1.
    10030    2    1    2    0    0  0.00000000000E+00  0.00000000000E+00  0.11779274798E+03  0.28781871176E+04  0.28757757131E+04 0.  0.
        1    1    3    3  502    0  0.99425773160E+03 -0.84742639490E+03  0.66010096323E+03  0.14636984708E+04  0.50400001928E-02 0.  1.
       -1    1    3    3    0  502 -0.99425773160E+03  0.84742639490E+03 -0.54230821524E+03  0.14144886468E+04  0.50400001928E-02 0. -1.
</event>
<event>
 5   0  0.1360125E-06  0.2899819E+04  0.7818609E-02  0.8272931E-01
       -3   -1    0    0    0  501  0.00000000000E+00  0.00000000000E+00  0.14460701097E+04  0.14460701132E+04  0.10100000352E+00 0. -1.
        3   -1    0    0  501    0  0.00000000000E+00  0.00000000000E+00 -0.14537592420E+04  0.14537592456E+04  0.10100000352E+00 0.  1.
    10030    2    1    2    0    0  0.00000000000E+00  0.00000000000E+00 -0.76891323638E+01  0.28998293588E+04  0.28998191646E+04 0.  0.
        3    1    3    3  502    0  0.78519642070E+03 -0.31699572825E+03  0.11731124488E+04  0.14467938825E+04  0.10100000352E+00 0. -1.
       -3    1    3    3    0  502 -0.78519642070E+03  0.31699572825E+03 -0.11808015812E+04  0.14530354762E+04  0.10100000352E+00 0.  1.
</event>
<event>
 5   0  0.1511126E-06  0.2899626E+04  0.7818609E-02  0.8272989E-01
       -1   -1    0    0    0  501  0.00000000000E+00  0.00000000000E+00  0.13066446554E+04  0.13066446554E+04  0.50400001928E-02 0.  1.
        1   -1    0    0  501    0  0.00000000000E+00  0.00000000000E+00 -0.16086684108E+04  0.16086684109E+04  0.50400001928E-02 0. -1.
    10030    2    1    2    0    0  0.00000000000E+00  0.00000000000E+00 -0.30202375545E+03  0.29153130663E+04  0.28996261700E+04 0.  0.
        5    1    3    3  502    0  0.88296854219E+03  0.63708773479E+03 -0.11134899895E+04  0.15573683813E+04  0.46999998093E+01 0. -1.
       -5    1    3    3    0  502 -0.88296854219E+03 -0.63708773479E+03  0.81146623410E+03  0.13579446850E+04  0.46999998093E+01 0.  1.
</event>
<event>
 5   0  0.4162450E-06  0.2898627E+04  0.7818609E-02  0.8273286E-01
        2   -1    0    0  501    0  0.00000000000E+00  0.00000000000E+00  0.16613513157E+04  0.16613513157E+04  0.25500000920E-02 0. -1.
       -2   -1    0    0    0  501  0.00000000000E+00  0.00000000000E+00 -0.12643379381E+04  0.12643379381E+04  0.25500000920E-02 0.  1.
    10030    2    1    2    0    0  0.00000000000E+00  0.00000000000E+00  0.39701337764E+03  0.29256892538E+04  0.28986269142E+04 0.  0.
        2    1    3    3  502    0 -0.44120789337E+03  0.13804688073E+04  0.21090813115E+03  0.14645274914E+04  0.25500000920E-02 0. -1.
       -2    1    3    3    0  502  0.44120789337E+03 -0.13804688073E+04  0.18610524648E+03  0.14611617624E+04  0.25500000920E-02 0.  1.
</event>
<event>
 5   0  0.4162450E-06  0.2908903E+04  0.7818609E-02  0.8270234E-01
       -2   -1    0    0    0  501  0.00000000000E+00  0.00000000000E+00  0.21729857645E+04  0.21729857645E+04  0.25500000920E-02 0. -1.
        2   -1    0    0  501    0  0.00000000000E+00  0.00000000000E+00 -0.97351233828E+03  0.97351233829E+03  0.25500000920E-02 0.  1.
    10030    2    1    2    0    0  0.00000000000E+00  0.00000000000E+00  0.11994734262E+04  0.31464981028E+04  0.29089025097E+04 0.  0.
        2    1    3    3  502    0 -0.82365794140E+03  0.39593845868E+03  0.18236354712E+04  0.20398102851E+04  0.25500000920E-02 0. -1.
       -2    1    3    3    0  502  0.82365794140E+03 -0.39593845868E+03 -0.62416204494E+03  0.11066878177E+04  0.25500000920E-02 0.  1.
</event>
<event>
 5   0  0.1543678E-06  0.2868890E+04  0.7818609E-02  0.8282194E-01
       -1   -1    0    0    0  501  0.00000000000E+00  0.00000000000E+00  0.10458710265E+04  0.10458710265E+04  0.50400001928E-02 0.  1.
        1   -1    0    0  501    0  0.00000000000E+00  0.00000000000E+00 -0.19673863263E+04  0.19673863263E+04  0.50400001928E-02 0. -1.
    10030    2    1    2    0    0  0.00000000000E+00  0.00000000000E+00 -0.92151529977E+03  0.30132573528E+04  0.28688899293E+04 0.  0.
        3    1    3    3  502    0  0.14179929109E+04 -0.49757891528E+02 -0.68220523042E+03  0.15743518443E+04  0.10100000352E+00 0. -1.
       -3    1    3    3    0  502 -0.14179929109E+04  0.49757891528E+02 -0.23931006935E+03  0.14389055085E+04  0.10100000352E+00 0.  1.
</event>
<event>
 5   0  0.4148677E-06  0.2902370E+04  0.7818609E-02  0.8272173E-01
        2   -1    0    0  501    0  0.00000000000E+00  0.00000000000E+00  0.14850103183E+04  0.14850103183E+04  0.25500000920E-02 0.  1.
       -2   -1    0    0    0  501  0.00000000000E+00  0.00000000000E+00 -0.14181298581E+04  0.14181298581E+04  0.25500000920E-02 0. -1.
    10030    2    1    2    0    0  0.00000000000E+00  0.00000000000E+00  0.66880460203E+02  0.29031401764E+04  0.29023697022E+04 0.  0.
        5    1    3    3  502    0  0.12154755598E+04 -0.37881038646E+03 -0.66319079894E+03  0.14355216024E+04  0.46999998093E+01 0. -1.
       -5    1    3    3    0  502 -0.12154755598E+04  0.37881038646E+03  0.73007125914E+03  0.14676185740E+04  0.46999998093E+01 0.  1.
</event>
<event>
 5   0  0.1580212E-06  0.2949803E+04  0.7818609E-02  0.8258212E-01
        1   -1    0    0  501    0  0.00000000000E+00  0.00000000000E+00  0.20114540448E+04  0.20114540448E+04  0.50400001928E-02 0. -1.
       -1   -1    0    0    0  501  0.00000000000E+00  0.00000000000E+00 -0.10814733365E+04  0.10814733365E+04  0.50400001928E-02 0.  1.
    10030    2    1    2    0    0  0.00000000000E+00  0.00000000000E+00  0.92998070827E+03  0.30929273813E+04  0.29498026490E+04 0.  0.
        4    1    3    3  502    0  0.21704219786E+03 -0.52247798658E+03 -0.96317014065E+03  0.11170447148E+04  0.12699999809E+01 0.  1.
       -4    1    3    3    0  502 -0.21704219786E+03  0.52247798658E+03  0.18931508489E+04  0.19758826665E+04  0.12699999809E+01 0. -1.
</event>
<event>
 5   0  0.4162450E-06  0.2890451E+04  0.7818609E-02  0.8275724E-01
       -2   -1    0    0    0  501  0.00000000000E+00  0.00000000000E+00  0.10406704626E+04  0.10406704626E+04  0.25500000920E-02 0.  1.
        2   -1    0    0  501    0  0.00000000000E+00  0.00000000000E+00 -0.20070490051E+04  0.20070490051E+04  0.25500000920E-02 0. -1.
    10030    2    1    2    0    0  0.00000000000E+00  0.00000000000E+00 -0.96637854247E+03  0.30477194678E+04  0.28904509106E+04 0.  0.
        2    1    3    3  502    0 -0.29802423296E+03 -0.14141357730E+04 -0.49251283289E+03  0.15268160722E+04  0.25500000920E-02 0. -1.
       -2    1    3    3    0  502  0.29802423296E+03  0.14141357730E+04 -0.47386570958E+03  0.15209033955E+04  0.25500000920E-02 0.  1.
</event>
<event>
 5   0  0.1511126E-06  0.2911193E+04  0.7818609E-02  0.8269555E-01
        1   -1    0    0  501    0  0.00000000000E+00  0.00000000000E+00  0.23852833786E+04  0.23852833787E+04  0.50400001928E-02 0. -1.
       -1   -1    0    0    0  501  0.00000000000E+00  0.00000000000E+00 -0.88826375933E+03  0.88826375935E+03  0.50400001928E-02 0.  1.
    10030    2    1    2    0    0  0.00000000000E+00  0.00000000000E+00  0.14970196193E+04  0.32735471380E+04  0.29111927322E+04 0.  0.
        5    1    3    3  502    0 -0.51953296827E+03 -0.13597008043E+04  0.75543316212E+03  0.16399396742E+04  0.46999998093E+01 0.  1.
       -5    1    3    3    0  502  0.51953296827E+03  0.13597008043E+04  0.74158645720E+03  0.16336074638E+04  0.46999998093E+01 0. -1.
</event>
<event>
 5   0  0.1360125E-06  0.2875539E+04  0.7818609E-02  0.8280193E-01
       -3   -1    0    0    0  501  0.00000000000E+00  0.00000000000E+00  0.80078009459E+03  0.80078010096E+03  0.10100000352E+00 0.  1.
        3   -1    0    0  501    0  0.00000000000E+00  0.00000000000E+00 -0.25814599054E+04  0.25814599074E+04  0.10100000352E+00 0. -1.
    10030    2    1    2    0    0  0.00000000000E+00  0.00000000000E+00 -0.17806798109E+04  0.33822400084E+04  0.28755394077E+04 0.  0.
        3    1    3    3  502    0 -0.14332041389E+04  0.53469549734E+02 -0.77126570278E+03  0.16284298852E+04  0.10100000352E+00 0. -1.
       -3    1    3    3    0  502  0.14332041389E+04 -0.53469549734E+02 -0.10094141081E+04  0.17538101232E+04  0.10100000352E+00 0.  1.
</event>
<event>
 5   0  0.1550278E-06  0.2898697E+04  0.7818609E-02  0.8273265E-01
       -1   -1    0    0    0  501  0.00000000000E+00  0.00000000000E+00  0.10962208305E+04  0.10962208305E+04  0.50400001928E-02 0. -1.
        1   -1    0    0  501    0  0.00000000000E+00  0.00000000000E+00 -0.19162291866E+04  0.19162291866E+04  0.50400001928E-02 0.  1.
    10030    2    1    2    0    0  0.00000000000E+00  0.00000000000E+00 -0.82000835615E+03  0.30124500171E+04  0.28986965004E+04 0.  0.
        2    1    3    3  502    0 -0.65552034385E+03  0.12231508243E+04  0.24500681237E+02  0.13879499788E+04  0.25500000920E-02 0. -1.
       -2    1    3    3    0  502  0.65552034385E+03 -0.12231508243E+04 -0.84450903739E+03  0.16245000383E+04  0.25500000920E-02 0.  1.
</event>
<event>
 5   0  0.1511126E-06  0.2879810E+04  0.7818609E-02  0.8278910E-01
        1   -1    0    0  501    0  0.00000000000E+00  0.00000000000E+00  0.15378876082E+04  0.15378876082E+04  0.50400001928E-02 0. -1.
       -1   -1    0    0    0  501  0.00000000000E+00  0.00000000000E+00 -0.13481654848E+04  0.13481654848E+04  0.50400001928E-02 0.  1.
    10030    2    1    2    0    0  0.00000000000E+00  0.00000000000E+00  0.18972212339E+03  0.28860530929E+04  0.28798104054E+04 0.  0.
        5    1    3    3  502    0 -0.48956680201E+03 -0.38089379509E+03 -0.12073976608E+04  0.13574192198E+04  0.46999998093E+01 0.  1.
       -5    1    3    3    0  502  0.48956680201E+03  0.38089379509E+03  0.13971197842E+04  0.15286338732E+04  0.46999998093E+01 0. -1.
</event>
<event>
 5   0  0.4162450E-06  0.3046892E+04  0.7818609E-02  0.8230466E-01
       -2   -1    0    0    0  501  0.00000000000E+00  0.00000000000E+00  0.11680057550E+04  0.11680057550E+04  0.25500000920E-02 0.  1.
        2   -1    0    0  501    0  0.00000000000E+00  0.00000000000E+00 -0.19870517061E+04  0.19870517061E+04  0.25500000920E-02 0. -1.
    10030    2    1    2    0    0  0.00000000000E+00  0.00000000000E+00 -0.81904595110E+03  0.31550574611E+04  0.30468920744E+04 0.  0.
        2    1    3    3  502    0  0.10581930419E+04  0.22881101674E+03  0.70032887886E+03  0.12894136395E+04  0.25500000920E-02 0.  1.
       -2    1    3    3    0  502 -0.10581930419E+04 -0.22881101674E+03 -0.15193748300E+04  0.18656438216E+04  0.25500000920E-02 0. -1.
</event>
<event>
 5   0  0.4162450E-06  0.2840136E+04  0.7818609E-02  0.8290915E-01
       -2   -1    0    0    0  501  0.00000000000E+00  0.00000000000E+00  0.90355673814E+03  0.90355673814E+03  0.25500000920E-02 0. -1.
        2   -1    0    0  501    0  0.00000000000E+00  0.00000000000E+00 -0.22318384891E+04  0.22318384892E+04  0.25500000920E-02 0.  1.
    10030    2    1    2    0    0  0.00000000000E+00  0.00000000000E+00 -0.13282817510E+04  0.31353952273E+04  0.28401357047E+04 0.  0.
        2    1    3    3  502    0 -0.12837473050E+04  0.53300716152E+03 -0.34325315271E+03  0.14317564402E+04  0.25500000920E-02 0.  1.
       -2    1    3    3    0  502  0.12837473050E+04 -0.53300716152E+03 -0.98502859830E+03  0.17036387871E+04  0.25500000920E-02 0. -1.
</event>
<event>
 5   0  0.1580212E-06  0.2909013E+04  0.7818609E-02  0.8270201E-01
        1   -1    0    0  501    0  0.00000000000E+00  0.00000000000E+00  0.11133189228E+04  0.11133189228E+04  0.50400001928E-02 0.  1.
       -1   -1    0    0    0  501  0.00000000000E+00  0.00000000000E+00 -0.19002549811E+04  0.19002549811E+04  0.50400001928E-02 0. -1.
    10030    2    1    2    0    0  0.00000000000E+00  0.00000000000E+00 -0.78693605825E+03  0.30135739039E+04  0.29090134607E+04 0.  0.
        4    1    3    3  502    0  0.35582302677E+03  0.13743099485E+04 -0.72147197979E+03  0.15924387874E+04  0.12699999809E+01 0. -1.
       -4    1    3    3    0  502 -0.35582302677E+03 -0.13743099485E+04 -0.65464078457E+02  0.14211351166E+04  0.12699999809E+01 0.  1.
</event>
<event>
 5   0  0.4224163E-06  0.2895899E+04  0.7818609E-02  0.8274099E-01
        2   -1    0    0  501    0  0.00000000000E+00  0.00000000000E+00  0.25361891987E+04  0.25361891987E+04  0.25500000920E-02 0.  1.
       -2   -1    0    0    0  501  0.00000000000E+00  0.00000000000E+00 -0.82665688487E+03  0.82665688488E+03  0.25500000920E-02 0. -1.
    10030    2    1    2    0    0  0.00000000000E+00  0.00000000000E+00  0.17095323139E+04  0.33628460836E+04  0.28958993508E+04 0.  0.
        4    1    3    3  502    0 -0.90736246066E+03  0.11079248295E+04  0.11031545819E+04  0.18076934771E+04  0.12699999809E+01 0.  1.
       -4    1    3    3    0  502  0.90736246066E+03 -0.11079248295E+04  0.60637773201E+03  0.15551526065E+04  0.12699999809E+01 0. -1.
</event>
<event>
 5   0  0.1360125E-06  0.2885275E+04  0.7818609E-02  0.8277272E-01
        3   -1    0    0  501    0  0.00000000000E+00  0.00000000000E+00  0.15329867977E+04  0.15329868010E+04  0.10100000352E+00 0.  1.
       -3   -1    0    0    0  501  0.00000000000E+00  0.00000000000E+00 -0.13576133134E+04  0.13576133172E+04  0.10100000352E+00 0. -1.
    10030    2    1    2    0    0  0.00000000000E+00  0.00000000000E+00  0.17537348426E+03  0.28906001182E+04  0.28852752355E+04 0.  0.
        3    1    3    3  502    0 -0.37404873041E+03  0.21020299031E+03 -0.12922097595E+04  0.13615813683E+04  0.10100000352E+00 0. -1.
       -3    1    3    3    0  502  0.37404873041E+03 -0.21020299031E+03  0.14675832438E+04  0.15290187499E+04  0.10100000352E+00 0.  1.
</event>
<event>
 5   0  0.1511126E-06  0.3100210E+04  0.7818609E-02  0.8215680E-01
        1   -1    0    0  501    0  0.00000000000E+00  0.00000000000E+00  0.17668982865E+04  0.17668982865E+04  0.50400001928E-02 0. -1.
       -1   -1    0    0    0  501  0.00000000000E+00  0.00000000000E+00 -0.13599115065E+04  0.13599115065E+04  0.50400001928E-02 0.  1.
    10030    2    1    2    0    0  0.00000000000E+00  0.00000000000E+00  0.40698677997E+03  0.31268097930E+04  0.31002098707E+04 0.  0.
        5    1    3    3  502    0 -0.45666453209E+03  0.13939771950E+04 -0.30189308104E+03  0.14976235967E+04  0.46999998093E+01 0.  1.
       -5    1    3    3    0  502  0.45666453209E+03 -0.13939771950E+04  0.70887986100E+03  0.16291861963E+04  0.46999998093E+01 0. -1.
</event>
<event>
 5   0  0.4162450E-06  0.2690786E+04  0.7818609E-02  0.8338001E-01
        2   -1    0    0  501    0  0.00000000000E+00  0.00000000000E+00  0.15975182929E+04  0.15975182929E+04  0.25500000920E-02 0. -1.
       -2   -1    0    0    0  501  0.00000000000E+00  0.00000000000E+00 -0.11330592406E+04  0.11330592406E+04  0.25500000920E-02 0.  1.
    10030    2    1    2    0    0  0.00000000000E+00  0.00000000000E+00  0.46445905232E+03  0.27305775335E+04  0.26907864009E+04 0.  0.
        2    1    3    3  502    0 -0.55559370799E+03  0.89516307517E+03 -0.61685242486E+03  0.12208637162E+04  0.25500000920E-02 0.  1.
       -2    1    3    3    0  502  0.55559370799E+03 -0.89516307517E+03  0.10813114772E+04  0.15097138173E+04  0.25500000920E-02 0. -1.
</event>
<event>
 5   0  0.1602873E-06  0.2900098E+04  0.7818609E-02  0.8272848E-01
       -1   -1    0    0    0  501  0.00000000000E+00  0.00000000000E+00  0.82332713686E+03  0.82332713688E+03  0.50400001928E-02 0. -1.
        1   -1    0    0  501    0  0.00000000000E+00  0.00000000000E+00 -0.25538362854E+04  0.25538362854E+04  0.50400001928E-02 0.  1.
    10030    2    1    2    0    0  0.00000000000E+00  0.00000000000E+00 -0.17305091485E+04  0.33771634223E+04  0.29000984238E+04 0.  0.
        1    1    3    3  502    0  0.67330895872E+03 -0.73316994813E+03 -0.20931030679E+04  0.23177496801E+04  0.50400001928E-02 0.  1.
       -1    1    3    3    0  502 -0.67330895872E+03  0.73316994813E+03  0.36259391936E+03  0.10594137422E+04  0.50400001928E-02 0. -1.
</event>
<event>
 5   0  0.4162450E-06  0.2882307E+04  0.7818609E-02  0.8278161E-01
        2   -1    0    0  501    0  0.00000000000E+00  0.00000000000E+00  0.25349958115E+04  0.25349958115E+04  0.25500000920E-02 0. -1.
       -2   -1    0    0    0  501  0.00000000000E+00  0.00000000000E+00 -0.81930046083E+03  0.81930046083E+03  0.25500000920E-02 0.  1.
    10030    2    1    2    0    0  0.00000000000E+00  0.00000000000E+00  0.17156953507E+04  0.33542962724E+04  0.28823068793E+04 0.  0.
        2    1    3    3  502    0  0.27647701780E+03  0.13986482652E+04  0.11026975577E+04  0.18023868660E+04  0.25500000920E-02 0.  1.
       -2    1    3    3    0  502 -0.27647701780E+03 -0.13986482652E+04  0.61299779302E+03  0.15519094063E+04  0.25500000920E-02 0. -1.
</event>
<event>
 5   0  0.4162450E-06  0.2874654E+04  0.7818609E-02  0.8280459E-01
       -2   -1    0    0    0  501  0.00000000000E+00  0.00000000000E+00  0.93730217742E+03  0.93730217743E+03  0.25500000920E-02 0. -1.
        2   -1    0    0  501    0  0.00000000000E+00  0.00000000000E+00 -0.22041017448E+04  0.22041017448E+04  0.25500000920E-02 0.  1.
    10030    2    1    2    0    0  0.00000000000E+00  0.00000000000E+00 -0.12667995674E+04  0.31414039222E+04  0.28746543199E+04 0.  0.
        2    1    3    3  502    0  0.39824276698E+03  0.12126409278E+04  0.88848386074E+02  0.12794488489E+04  0.25500000920E-02 0. -1.
       -2    1    3    3    0  502 -0.39824276698E+03 -0.12126409278E+04 -0.13556479535E+04  0.18619550733E+04  0.25500000920E-02 0.  1.
</event>
<event>
 5   0  0.1511126E-06  0.2889049E+04  0.7818609E-02  0.8276143E-01
       -1   -1    0    0    0  501  0.00000000000E+00  0.00000000000E+00  0.10370506907E+04  0.10370506907E+04  0.50400001928E-02 0.  1.
        1   -1    0    0  501    0  0.00000000000E+00  0.00000000000E+00 -0.20121016016E+04  0.20121016016E+04  0.50400001928E-02 0. -1.
    10030    2    1    2    0    0  0.00000000000E+00  0.00000000000E+00 -0.97505091094E+03  0.30491522923E+04  0.28890492247E+04 0.  0.
        5    1    3    3  502    0 -0.81689141198E+03  0.11565912219E+04 -0.18601133474E+03  0.14281586537E+04  0.46999998093E+01 0.  1.
       -5    1    3    3    0  502  0.81689141198E+03 -0.11565912219E+04 -0.78903957620E+03  0.16209936386E+04  0.46999998093E+01 0. -1.
</event>
<event>
 5   0  0.1602873E-06  0.2896666E+04  0.7818609E-02  0.8273870E-01
        1   -1    0    0  501    0  0.00000000000E+00  0.00000000000E+00  0.11618787016E+04  0.11618787017E+04  0.50400001928E-02 0.  1.
       -1   -1    0    0    0  501  0.00000000000E+00  0.00000000000E+00 -0.18054104114E+04  0.18054104114E+04  0.50400001928E-02 0. -1.
    10030    2    1    2    0    0  0.00000000000E+00  0.00000000000E+00 -0.64353170979E+03  0.29672891131E+04  0.28966656036E+04 0.  0.
        1    1    3    3  502    0 -0.33684466714E+03  0.83338807676E+03  0.84155749189E+03  0.12313484594E+04  0.50400001928E-02 0.  1.
       -1    1    3    3    0  502  0.33684466714E+03 -0.83338807676E+03 -0.14850892017E+04  0.17359406537E+04  0.50400001928E-02 0. -1.
</event>
<event>
 5   0  0.1543678E-06  0.2912603E+04  0.7818609E-02  0.8269138E-01
       -1   -1    0    0    0  501  0.00000000000E+00  0.00000000000E+00  0.21068579437E+04  0.21068579437E+04  0.50400001928E-02 0. -1.
        1   -1    0    0  501    0  0.00000000000E+00  0.00000000000E+00 -0.10066238670E+04  0.10066238670E+04  0.50400001928E-02 0.  1.
    10030    2    1    2    0    0  0.00000000000E+00  0.00000000000E+00  0.11002340767E+04  0.31134818106E+04  0.29126026096E+04 0.  0.
        3    1    3    3  502    0  0.12808001953E+04 -0.42313890966E+03  0.11368999998E+04  0.17640967369E+04  0.10100000352E+00 0.  1.
       -3    1    3    3    0  502 -0.12808001953E+04  0.42313890966E+03 -0.36665923126E+02  0.13493850738E+04  0.10100000352E+00 0. -1.
</event>
<event>
 5   0  0.1580212E-06  0.2899707E+04  0.7818609E-02  0.8272965E-01
       -1   -1    0    0    0  501  0.00000000000E+00  0.00000000000E+00  0.16249260096E+04  0.16249260097E+04  0.50400001928E-02 0. -1.
        1   -1    0    0  501    0  0.00000000000E+00  0.00000000000E+00 -0.12936438132E+04  0.12936438132E+04  0.50400001928E-02 0.  1.
    10030    2    1    2    0    0  0.00000000000E+00  0.00000000000E+00  0.33128219644E+03  0.29185698229E+04  0.28997072123E+04 0.  0.
        4    1    3    3  502    0 -0.24464363807E+03 -0.14069895752E+04  0.41747599626E+03  0.14878702883E+04  0.12699999809E+01 0. -1.
       -4    1    3    3    0  502  0.24464363807E+03  0.14069895752E+04 -0.86193799818E+02  0.14306995346E+04  0.12699999809E+01 0.  1.
</event>
<event>
 5   0  0.1580212E-06  0.2926601E+04  0.7818609E-02  0.8265007E-01
        1   -1    0    0  501    0  0.00000000000E+00  0.00000000000E+00  0.15572662312E+04  0.15572662312E+04  0.50400001928E-02 0.  1.
       -1   -1    0    0    0  501  0.00000000000E+00  0.00000000000E+00 -0.13750048429E+04  0.13750048429E+04  0.50400001928E-02 0. -1.
    10030    2    1    2    0    0  0.00000000000E+00  0.00000000000E+00  0.18226138835E+03  0.29322710741E+04  0.29266011752E+04 0.  0.
        4    1    3    3  502    0 -0.57981167739E+03  0.50719730597E+03  0.13376536553E+04  0.15436157562E+04  0.12699999809E+01 0.  1.
       -4    1    3    3    0  502  0.57981167739E+03 -0.50719730597E+03 -0.11553922670E+04  0.13886553179E+04  0.12699999809E+01 0. -1.
</event>
<event>
 5   0  0.4115143E-06  0.2792391E+04  0.7818609E-02  0.8305634E-01
       -2   -1    0    0    0  501  0.00000000000E+00  0.00000000000E+00  0.15608249646E+04  0.15608249646E+04  0.25500000920E-02 0.  1.
        2   -1    0    0  501    0  0.00000000000E+00  0.00000000000E+00 -0.12489306990E+04  0.12489306990E+04  0.25500000920E-02 0. -1.
    10030    2    1    2    0    0  0.00000000000E+00  0.00000000000E+00  0.31189426557E+03  0.28097556636E+04  0.27923912434E+04 0.  0.
        1    1    3    3  502    0 -0.52485850034E+03  0.82937676335E+03 -0.84321309779E+03  0.12939669970E+04  0.50400001928E-02 0. -1.
       -1    1    3    3    0  502  0.52485850034E+03 -0.82937676335E+03  0.11551073634E+04  0.15157886666E+04  0.50400001928E-02 0.  1.
</event>
<event>
 5   0  0.4187518E-06  0.2880702E+04  0.7818609E-02  0.8278643E-01
        2   -1    0    0  501    0  0.00000000000E+00  0.00000000000E+00  0.22763206128E+04  0.22763206128E+04  0.25500000920E-02 0. -1.
       -2   -1    0    0    0  501  0.00000000000E+00  0.00000000000E+00 -0.91138761737E+03  0.91138761738E+03  0.25500000920E-02 0.  1.
    10030    2    1    2    0    0  0.00000000000E+00  0.00000000000E+00  0.13649329954E+04  0.31877082301E+04  0.28807015949E+04 0.  0.
        3    1    3    3  502    0 -0.82290004640E+03  0.11780520934E+04  0.79110919034E+03  0.16403734278E+04  0.10100000352E+00 0. -1.
       -3    1    3    3    0  502  0.82290004640E+03 -0.11780520934E+04  0.57382380504E+03  0.15473348024E+04  0.10100000352E+00 0.  1.
</event>
<event>
 5   0  0.1360125E-06  0.2948104E+04  0.7818609E-02  0.8258707E-01
        3   -1    0    0  501    0  0.00000000000E+00  0.00000000000E+00  0.15061308769E+04  0.15061308803E+04  0.10100000352E+00 0.  1.
       -3   -1    0    0    0  501  0.00000000000E+00  0.00000000000E+00 -0.14426566324E+04  0.14426566360E+04  0.10100000352E+00 0. -1.
    10030    2    1    2    0    0  0.00000000000E+00  0.00000000000E+00  0.63474244475E+02  0.29487875163E+04  0.29481042784E+04 0.  0.
        3    1    3    3  502    0 -0.12490270659E+03  0.83008232776E+02  0.14984802712E+04  0.15059661969E+04  0.10100000352E+00 0.  1.
       -3    1    3    3    0  502  0.12490270659E+03 -0.83008232776E+02 -0.14350060267E+04  0.14428213194E+04  0.10100000352E+00 0. -1.
</event>
<event>
 5   0  0.4162450E-06  0.2889344E+04  0.7818609E-02  0.8276055E-01
        2   -1    0    0  501    0  0.00000000000E+00  0.00000000000E+00  0.13153716798E+04  0.13153716798E+04  0.25500000920E-02 0.  1.
       -2   -1    0    0    0  501  0.00000000000E+00  0.00000000000E+00 -0.15866823573E+04  0.15866823573E+04  0.25500000920E-02 0. -1.
    10030    2    1    2    0    0  0.00000000000E+00  0.00000000000E+00 -0.27131067751E+03  0.29020540372E+04  0.28893438963E+04 0.  0.
        2    1    3    3  502    0 -0.98486022162E+03  0.55897614108E+03 -0.10366370777E+04  0.15352590704E+04  0.25500000920E-02 0. -1.
       -2    1    3    3    0  502  0.98486022162E+03 -0.55897614108E+03  0.76532640015E+03  0.13667949668E+04  0.25500000920E-02 0.  1.
</event>
<event>
 5   0  0.4224163E-06  0.2907002E+04  0.7818609E-02  0.8270797E-01
       -2   -1    0    0    0  501  0.00000000000E+00  0.00000000000E+00  0.10188717282E+04  0.10188717282E+04  0.25500000920E-02 0.  1.
        2   -1    0    0  501    0  0.00000000000E+00  0.00000000000E+00 -0.20735344696E+04  0.20735344696E+04  0.25500000920E-02 0. -1.
    10030    2    1    2    0    0  0.00000000000E+00  0.00000000000E+00 -0.10546627414E+04  0.30924061978E+04  0.29070023382E+04 0.  0.
        4    1    3    3  502    0 -0.53513906344E+03  0.11586506386E+04 -0.12672646762E+04  0.17985567803E+04  0.12699999809E+01 0. -1.
       -4    1    3    3    0  502  0.53513906344E+03 -0.11586506386E+04  0.21260193480E+03  0.12938494175E+04  0.12699999809E+01 0.  1.
</event>
<event>
 5   0  0.1580212E-06  0.2884940E+04  0.7818609E-02  0.8277372E-01
        1   -1    0    0  501    0  0.00000000000E+00  0.00000000000E+00  0.14747858493E+04  0.14747858493E+04  0.50400001928E-02 0. -1.
       -1   -1    0    0    0  501  0.00000000000E+00  0.00000000000E+00 -0.14108621332E+04  0.14108621332E+04  0.50400001928E-02 0.  1.
    10030    2    1    2    0    0  0.00000000000E+00  0.00000000000E+00  0.63923716101E+02  0.28856479825E+04  0.28849398672E+04 0.  0.
        4    1    3    3  502    0 -0.16336931970E+03 -0.70356904354E+03  0.12808751403E+04  0.14704902827E+04  0.12699999809E+01 0. -1.
       -4    1    3    3    0  502  0.16336931970E+03  0.70356904354E+03 -0.12169514242E+04  0.14151576998E+04  0.12699999809E+01 0.  1.
</event>
<event>
 5   0  0.4148677E-06  0.2905845E+04  0.7818609E-02  0.8271141E-01
        2   -1    0    0  501    0  0.00000000000E+00  0.00000000000E+00  0.15414489597E+04  0.15414489597E+04  0.25500000920E-02 0.  1.
       -2   -1    0    0    0  501  0.00000000000E+00  0.00000000000E+00 -0.13694798434E+04  0.13694798434E+04  0.25500000920E-02 0. -1.
    10030    2    1    2    0    0  0.00000000000E+00  0.00000000000E+00  0.17196911629E+03  0.29109288031E+04  0.29058446483E+04 0.  0.
        5    1    3    3  502    0  0.13978300281E+03  0.14361896445E+04 -0.83962516288E+02  0.14454244280E+04  0.46999998093E+01 0. -1.
       -5    1    3    3    0  502 -0.13978300281E+03 -0.14361896445E+04  0.25593163258E+03  0.14655043751E+04  0.46999998093E+01 0.  1.
</event>
<event>
 5   0  0.4187518E-06  0.2928166E+04  0.7818609E-02  0.8264546E-01
       -2   -1    0    0    0  501  0.00000000000E+00  0.00000000000E+00  0.89910826261E+03  0.89910826262E+03  0.25500000920E-02 0. -1.
        2   -1    0    0  501    0  0.00000000000E+00  0.00000000000E+00 -0.23840725270E+04  0.23840725270E+04  0.25500000920E-02 0.  1.
    10030    2    1    2    0    0  0.00000000000E+00  0.00000000000E+00 -0.14849642644E+04  0.32831807897E+04  0.29281661891E+04 0.  0.
        3    1    3    3  502    0  0.59882698171E+03 -0.15810661488E+03 -0.22299547336E+04  0.23143659131E+04  0.10100000352E+00 0.  1.
       -3    1    3    3    0  502 -0.59882698171E+03  0.15810661488E+03  0.74499046916E+03  0.96881487655E+03  0.10100000352E+00 0. -1.
</event>
<event>
 5   0  0.1580212E-06  0.2893263E+04  0.7818609E-02  0.8274885E-01
       -1   -1    0    0    0  501  0.00000000000E+00  0.00000000000E+00  0.84351850143E+03  0.84351850144E+03  0.50400001928E-02 0. -1.
        1   -1    0    0  501    0  0.00000000000E+00  0.00000000000E+00 -0.24809689898E+04  0.24809689898E+04  0.50400001928E-02 0.  1.
    10030    2    1    2    0    0  0.00000000000E+00  0.00000000000E+00 -0.16374504884E+04  0.33244874913E+04  0.28932633785E+04 0.  0.
        4    1    3    3  502    0 -0.88245453215E+03  0.10758032659E+04 -0.12735246637E+04  0.18862516667E+04  0.12699999809E+01 0.  1.
       -4    1    3    3    0  502  0.88245453215E+03 -0.10758032659E+04 -0.36392582469E+03  0.14382358246E+04  0.12699999809E+01 0. -1.
</event>
<event>
 5   0  0.1543678E-06  0.2902072E+04  0.7818609E-02  0.8272261E-01
        1   -1    0    0  501    0  0.00000000000E+00  0.00000000000E+00  0.18392896753E+04  0.18392896753E+04  0.50400001928E-02 0.  1.
       -1   -1    0    0    0  501  0.00000000000E+00  0.00000000000E+00 -0.11447387247E+04  0.11447387247E+04  0.50400001928E-02 0. -1.
    10030    2    1    2    0    0  0.00000000000E+00  0.00000000000E+00  0.69455095053E+03  0.29840284000E+04  0.29020724438E+04 0.  0.
        3    1    3    3  502    0 -0.58004629205E+03  0.91489785721E+03  0.13399479840E+04  0.17230648276E+04  0.10100000352E+00 0.  1.
       -3    1    3    3    0  502  0.58004629205E+03 -0.91489785721E+03 -0.64539703343E+03  0.12609635724E+04  0.10100000352E+00 0. -1.
</event>
<event>
 5   0  0.4224163E-06  0.2903895E+04  0.7818609E-02  0.8271720E-01
       -2   -1    0    0    0  501  0.00000000000E+00  0.00000000000E+00  0.11989926346E+04  0.11989926346E+04  0.25500000920E-02 0. -1.
        2   -1    0    0  501    0  0.00000000000E+00  0.00000000000E+00 -0.17582689960E+04  0.17582689960E+04  0.25500000920E-02 0.  1.
    10030    2    1    2    0    0  0.00000000000E+00  0.00000000000E+00 -0.55927636131E+03  0.29572616306E+04  0.29038950228E+04 0.  0.
        4    1    3    3  502    0 -0.14165071823E+04 -0.13503096745E+03 -0.57377835752E+03  0.15342585102E+04  0.12699999809E+01 0. -1.
       -4    1    3    3    0  502  0.14165071823E+04  0.13503096745E+03  0.14501996207E+02  0.14230031204E+04  0.12699999809E+01 0.  1.
</event>
<event>
 5   0  0.4187518E-06  0.2878004E+04  0.7818609E-02  0.8279452E-01
        2   -1    0    0  501    0  0.00000000000E+00  0.00000000000E+00  0.14186554306E+04  0.14186554306E+04  0.25500000920E-02 0. -1.
       -2   -1    0    0    0  501  0.00000000000E+00  0.00000000000E+00 -0.14596400763E+04  0.14596400763E+04  0.25500000920E-02 0.  1.
    10030    2    1    2    0    0  0.00000000000E+00  0.00000000000E+00 -0.40984645752E+02  0.28782955069E+04  0.28780036977E+04 0.  0.
        3    1    3    3  502    0 -0.83937487869E+03  0.96138148002E+03  0.64434705145E+03  0.14296809679E+04  0.10100000352E+00 0.  1.
       -3    1    3    3    0  502  0.83937487869E+03 -0.96138148002E+03 -0.68533169720E+03  0.14486145390E+04  0.10100000352E+00 0. -1.
</event>
<event>
 5   0  0.4162450E-06  0.2896060E+04  0.7818609E-02  0.8274051E-01
       -2   -1    0    0    0  501  0.00000000000E+00  0.00000000000E+00  0.10611911371E+04  0.10611911371E+04  0.25500000920E-02 0. -1.
        2   -1    0    0  501    0  0.00000000000E+00  0.00000000000E+00 -0.19758840473E+04  0.19758840473E+04  0.25500000920E-02 0.  1.
    10030    2    1    2    0    0  0.00000000000E+00  0.00000000000E+00 -0.91469291015E+03  0.30370751844E+04  0.28960598330E+04 0.  0.
        2    1    3    3  502    0  0.29378310469E+03  0.14168181062E+04 -0.51581591188E+03  0.15361471654E+04  0.25500000920E-02 0.  1.
       -2    1    3    3    0  502 -0.29378310469E+03 -0.14168181062E+04 -0.39887699827E+03  0.15009280191E+04  0.25500000920E-02 0. -1.
</event>
<event>
 5   0  0.4162450E-06  0.2816509E+04  0.7818609E-02  0.8298161E-01
       -2   -1    0    0    0  501  0.00000000000E+00  0.00000000000E+00  0.75429854965E+03  0.75429854966E+03  0.25500000920E-02 0.  1.
        2   -1    0    0  501    0  0.00000000000E+00  0.00000000000E+00 -0.26291726731E+04  0.26291726731E+04  0.25500000920E-02 0. -1.
    10030    2    1    2    0    0  0.00000000000E+00  0.00000000000E+00 -0.18748741234E+04  0.33834712228E+04  0.28165092821E+04 0.  0.
        2    1    3    3  502    0  0.11530025393E+04  0.15279984766E+03  0.16381499872E+02  0.11631986084E+04  0.25500000920E-02 0.  1.
       -2    1    3    3    0  502 -0.11530025393E+04 -0.15279984766E+03 -0.18912556233E+04  0.22202726143E+04  0.25500000920E-02 0. -1.
</event>
<event>
 5   0  0.4224163E-06  0.2893740E+04  0.7818609E-02  0.8274743E-01
        2   -1    0    0  501    0  0.00000000000E+00  0.00000000000E+00  0.20663380617E+04  0.20663380617E+04  0.25500000920E-02 0. -1.
       -2   -1    0    0    0  501  0.00000000000E+00  0.00000000000E+00 -0.10131121834E+04  0.10131121834E+04  0.25500000920E-02 0.  1.
    10030    2    1    2    0    0  0.00000000000E+00  0.00000000000E+00  0.10532258783E+04  0.30794502451E+04  0.28937396327E+04 0.  0.
        4    1    3    3  502    0 -0.89758229576E+03 -0.10943382164E+04  0.84622143468E+03  0.16490368216E+04  0.12699999809E+01 0. -1.
       -4    1    3    3    0  502  0.89758229576E+03  0.10943382164E+04  0.20700444360E+03  0.14304134235E+04  0.12699999809E+01 0.  1.
</event>
<event>
 5   0  0.4148677E-06  0.2861659E+04  0.7818609E-02  0.8284377E-01
       -2   -1    0    0    0  501  0.00000000000E+00  0.00000000000E+00  0.18025033034E+04  0.18025033034E+04  0.25500000920E-02 0.  1.
        2   -1    0    0  501    0  0.00000000000E+00  0.00000000000E+00 -0.11357939596E+04  0.11357939596E+04  0.25500000920E-02 0. -1.
    10030    2    1    2    0    0  0.00000000000E+00  0.00000000000E+00  0.66670934379E+03  0.29382972630E+04  0.28616585150E+04 0.  0.
        5    1    3    3  502    0 -0.30708708710E+03  0.94775657636E+03  0.13878471358E+04  0.17084164508E+04  0.46999998093E+01 0.  1.
       -5    1    3    3    0  502  0.30708708710E+03 -0.94775657636E+03 -0.72113779199E+03  0.12298808122E+04  0.46999998093E+01 0. -1.
</event>
<event>
 5   0  0.4148677E-06  0.2907021E+04  0.7818609E-02  0.8270791E-01
       -2   -1    0    0    0  501  0.00000000000E+00  0.00000000000E+00  0.12451625724E+04  0.12451625724E+04  0.25500000920E-02 0.  1.
        2   -1    0    0  501    0  0.00000000000E+00  0.00000000000E+00 -0.16967209819E+04  0.16967209819E+04  0.25500000920E-02 0. -1.
    10030    2    1    2    0    0  0.00000000000E+00  0.00000000000E+00 -0.45155840944E+03  0.29418835543E+04  0.29070214739E+04 0.  0.
        5    1    3    3  502    0  0.82630378423E+02  0.78964813786E+02  0.12406002383E+04  0.12458628586E+04  0.46999998093E+01 0.  1.
       -5    1    3    3    0  502 -0.82630378423E+02 -0.78964813786E+02 -0.16921586477E+04  0.16960206957E+04  0.46999998093E+01 0. -1.
</event>
<event>
 5   0  0.4187518E-06  0.2930526E+04  0.7818609E-02  0.8263853E-01
        2   -1    0    0  501    0  0.00000000000E+00  0.00000000000E+00  0.14095175098E+04  0.14095175098E+04  0.25500000920E-02 0.  1.
       -2   -1    0    0    0  501  0.00000000000E+00  0.00000000000E+00 -0.15232130921E+04  0.15232130921E+04  0.25500000920E-02 0. -1.
    10030    2    1    2    0    0  0.00000000000E+00  0.00000000000E+00 -0.11369558229E+03  0.29327306019E+04  0.29305259080E+04 0.  0.
        3    1    3    3  502    0 -0.45957833387E+03 -0.11771862344E+04  0.68534067968E+03  0.14375922693E+04  0.10100000352E+00 0.  1.
       -3    1    3    3    0  502  0.45957833387E+03  0.11771862344E+04 -0.79903626198E+03  0.14951383326E+04  0.10100000352E+00 0. -1.
</event>
<event>
 5   0  0.1602873E-06  0.2894617E+04  0.7818609E-02  0.8274481E-01
       -1   -1    0    0    0  501  0.00000000000E+00  0.00000000000E+00  0.15901200487E+04  0.15901200487E+04  0.50400001928E-02 0.  1.
        1   -1    0    0  501    0  0.00000000000E+00  0.00000000000E+00 -0.13173232331E+04  0.13173232331E+04  0.50400001928E-02 0. -1.
    10030    2    1    2    0    0  0.00000000000E+00  0.00000000000E+00  0.27279681556E+03  0.29074432818E+04  0.28946171309E+04 0.  0.
        1    1    3    3  502    0  0.25310062183E+02  0.89847884689E+03 -0.10029988888E+04  0.13468153580E+04  0.50400001928E-02 0. -1.
       -1    1    3    3    0  502 -0.25310062183E+02 -0.89847884689E+03  0.12757957043E+04  0.15606279239E+04  0.50400001928E-02 0.  1.
</event>
<event>
 5   0  0.1602873E-06  0.2900829E+04  0.7818609E-02  0.8272631E-01
        1   -1    0    0  501    0  0.00000000000E+00  0.00000000000E+00  0.11405132015E+04  0.11405132015E+04  0.50400001928E-02 0.  1.
       -1   -1    0    0    0  501  0.00000000000E+00  0.00000000000E+00 -0.18445230664E+04  0.18445230664E+04  0.50400001928E-02 0. -1.
    10030    2    1    2    0    0  0.00000000000E+00  0.00000000000E+00 -0.70400986493E+03  0.29850362679E+04  0.29008294729E+04 0.  0.
        1    1    3    3  502    0  0.23844961370E+03 -0.59735566722E+03 -0.16897463249E+04  0.18080195391E+04  0.50400001928E-02 0. -1.
       -1    1    3    3    0  502 -0.23844961370E+03  0.59735566722E+03  0.98573645992E+03  0.11770167288E+04  0.50400001928E-02 0.  1.
</event>
<event>
 5   0  0.4162450E-06  0.2865503E+04  0.7818609E-02  0.8283216E-01
        2   -1    0    0  501    0  0.00000000000E+00  0.00000000000E+00  0.17112361289E+04  0.17112361289E+04  0.25500000920E-02 0.  1.
       -2   -1    0    0    0  501  0.00000000000E+00  0.00000000000E+00 -0.11995867967E+04  0.11995867967E+04  0.25500000920E-02 0. -1.
    10030    2    1    2    0    0  0.00000000000E+00  0.00000000000E+00  0.51164933225E+03  0.29108229257E+04  0.28655025851E+04 0.  0.
        2    1    3    3  502    0 -0.13568246783E+03  0.12981421189E+04  0.85609669017E+03  0.15609241608E+04  0.25500000920E-02 0. -1.
       -2    1    3    3    0  502  0.13568246783E+03 -0.12981421189E+04 -0.34444735793E+03  0.13498987648E+04  0.25500000920E-02 0.  1.
</event>
<event>
 5   0  0.4224163E-06  0.2881089E+04  0.7818609E-02  0.8278526E-01
        2   -1    0    0  501    0  0.00000000000E+00  0.00000000000E+00  0.23731257005E+04  0.23731257005E+04  0.25500000920E-02 0. -1.
       -2   -1    0    0    0  501  0.00000000000E+00  0.00000000000E+00 -0.87444533765E+03  0.87444533766E+03  0.25500000920E-02 0.  1.
    10030    2    1    2    0    0  0.00000000000E+00  0.00000000000E+00  0.14986803628E+04  0.32475710382E+04  0.28810891721E+04 0.  0.
        4    1    3    3  502    0 -0.69019494171E+03 -0.19546114059E+03 -0.65880289270E+03  0.97395943415E+03  0.12699999809E+01 0.  1.
       -4    1    3    3    0  502  0.69019494171E+03  0.19546114059E+03  0.21574832555E+04  0.22736116040E+04  0.12699999809E+01 0. -1.
</event>
<event>
 5   0  0.1511126E-06  0.2896178E+04  0.7818609E-02  0.8274016E-01
       -1   -1    0    0    0  501  0.00000000000E+00  0.00000000000E+00  0.13882146238E+04  0.13882146238E+04  0.50400001928E-02 0. -1.
        1   -1    0    0  501    0  0.00000000000E+00  0.00000000000E+00 -0.15105452992E+04  0.15105452992E+04  0.50400001928E-02 0.  1.
    10030    2    1    2    0    0  0.00000000000E+00  0.00000000000E+00 -0.12233067534E+03  0.28987599230E+04  0.28961775320E+04 0.  0.
        5    1    3    3  502    0  0.98484576787E+03  0.10363749166E+04  0.16913726553E+03  0.14396609528E+04  0.46999998093E+01 0. -1.
       -5    1    3    3    0  502 -0.98484576787E+03 -0.10363749166E+04 -0.29146794087E+03  0.14590989702E+04  0.46999998093E+01 0.  1.
</event>
<event>
 5   0  0.4115143E-06  0.2877596E+04  0.7818609E-02  0.8279575E-01
        2   -1    0    0  501    0  0.00000000000E+00  0.00000000000E+00  0.24755115121E+04  0.24755115121E+04  0.25500000920E-02 0.  1.
       -2   -1    0    0    0  501  0.00000000000E+00  0.00000000000E+00 -0.83624751763E+03  0.83624751763E+03  0.25500000920E-02 0. -1.
    10030    2    1    2    0    0  0.00000000000E+00  0.00000000000E+00  0.16392639945E+04  0.33117590298E+04  0.28775964671E+04 0.  0.
        1    1    3    3  502    0  0.21034741985E+03  0.38324574185E+03 -0.75795818400E+03  0.87499939680E+03  0.50400001928E-02 0. -1.
       -1    1    3    3    0  502 -0.21034741985E+03 -0.38324574185E+03  0.23972221785E+04  0.24367596330E+04  0.50400001928E-02 0.  1.
</event>
<event>
 5   0  0.1511126E-06  0.2906060E+04  0.7818609E-02  0.8271077E-01
       -1   -1    0    0    0  501  0.00000000000E+00  0.00000000000E+00  0.79226866457E+03  0.79226866458E+03  0.50400001928E-02 0. -1.
        1   -1    0    0  501    0  0.00000000000E+00  0.00000000000E+00 -0.26648734568E+04  0.26648734568E+04  0.50400001928E-02 0.  1.
    10030    2    1    2    0    0  0.00000000000E+00  0.00000000000E+00 -0.18726047922E+04  0.34571421213E+04  0.29060596930E+04 0.  0.
        5    1    3    3  502    0 -0.69566794644E+03 -0.12705609815E+04 -0.10719128752E+04  0.18020261933E+04  0.46999998093E+01 0.  1.
       -5    1    3    3    0  502  0.69566794644E+03  0.12705609815E+04 -0.80069191694E+03  0.16551159280E+04  0.46999998093E+01 0. -1.
</event>
<event>
 5   0  0.1580212E-06  0.2892953E+04  0.7818609E-02  0.8274977E-01
        1   -1    0    0  501    0  0.00000000000E+00  0.00000000000E+00  0.18199111339E+04  0.18199111340E+04  0.50400001928E-02 0. -1.
       -1   -1    0    0    0  501  0.00000000000E+00  0.00000000000E+00 -0.11496682973E+04  0.11496682973E+04  0.50400001928E-02 0.  1.
    10030    2    1    2    0    0  0.00000000000E+00  0.00000000000E+00  0.67024283667E+03  0.29695794312E+04  0.28929529098E+04 0.  0.
        4    1    3    3  502    0 -0.22073770105E+03 -0.56705119759E+03 -0.10118944718E+04  0.11807642561E+04  0.12699999809E+01 0.  1.
       -4    1    3    3    0  502  0.22073770105E+03  0.56705119759E+03  0.16821373085E+04  0.17888151752E+04  0.12699999809E+01 0. -1.
</event>
<event>
 5   0  0.1602873E-06  0.2901779E+04  0.7818609E-02  0.8272348E-01
        1   -1    0    0  501    0  0.00000000000E+00  0.00000000000E+00  0.12306783609E+04  0.12306783609E+04  0.50400001928E-02 0. -1.
       -1   -1    0    0    0  501  0.00000000000E+00  0.00000000000E+00 -0.17105044363E+04  0.17105044363E+04  0.50400001928E-02 0.  1.
    10030    2    1    2    0    0  0.00000000000E+00  0.00000000000E+00 -0.47982607544E+03  0.29411827972E+04  0.29017793135E+04 0.  0.
        1    1    3    3  502    0 -0.31371505692E+03  0.13336488918E+03  0.11895128737E+04  0.12373941197E+04  0.50400001928E-02 0. -1.
       -1    1    3    3    0  502  0.31371505692E+03 -0.13336488918E+03 -0.16693389492E+04  0.17037886776E+04  0.50400001928E-02 0.  1.
</event>
<event>
 5   0  0.1602873E-06  0.2930918E+04  0.7818609E-02  0.8263738E-01
        1   -1    0    0  501    0  0.00000000000E+00  0.00000000000E+00  0.17539482331E+04  0.17539482331E+04  0.50400001928E-02 0. -1.
       -1   -1    0    0    0  501  0.00000000000E+00  0.00000000000E+00 -0.12244201405E+04  0.12244201405E+04  0.50400001928E-02 0.  1.
    10030    2    1    2    0    0  0.00000000000E+00  0.00000000000E+00  0.52952809259E+03  0.29783683736E+04  0.29309176324E+04 0.  0.
        1    1    3    3  502    0 -0.34465627515E+03 -0.10911325141E+04 -0.66559714781E+03  0.13237740270E+04  0.50400001928E-02 0.  1.
       -1    1    3    3    0  502  0.34465627515E+03  0.10911325141E+04  0.11951252404E+04  0.16545943466E+04  0.50400001928E-02 0. -1.
</event>
<event>
 5   0  0.1602873E-06  0.2906042E+04  0.7818609E-02  0.8271082E-01
       -1   -1    0    0    0  501  0.00000000000E+00  0.00000000000E+00  0.74606222054E+03  0.74606222056E+03  0.50400001928E-02 0.  1.
        1   -1    0    0  501    0  0.00000000000E+00  0.00000000000E+00 -0.28298850284E+04  0.28298850284E+04  0.50400001928E-02 0. -1.
    10030    2    1    2    0    0  0.00000000000E+00  0.00000000000E+00 -0.20838228079E+04  0.35759472490E+04  0.29060421939E+04 0.  0.
        1    1    3    3  502    0  0.53400677541E+03  0.11465113802E+04 -0.16174982978E+03  0.12750743463E+04  0.50400001928E-02 0.  1.
       -1    1    3    3    0  502 -0.53400677541E+03 -0.11465113802E+04 -0.19220729781E+04  0.23008729027E+04  0.50400001928E-02 0. -1.
</event>
<event>
 5   0  0.1550278E-06  0.2905505E+04  0.7818609E-02  0.8271242E-01
        1   -1    0    0  501    0  0.00000000000E+00  0.00000000000E+00  0.13201829766E+04  0.13201829766E+04  0.50400001928E-02 0. -1.
       -1   -1    0    0    0  501  0.00000000000E+00  0.00000000000E+00 -0.15986337973E+04  0.15986337973E+04  0.50400001928E-02 0.  1.
    10030    2    1    2    0    0  0.00000000000E+00  0.00000000000E+00 -0.27845082073E+03  0.29188167739E+04  0.29055045173E+04 0.  0.
        2    1    3    3  502    0  0.47528013096E+03  0.43702546907E+03  0.11681236378E+04  0.13346892135E+04  0.25500000920E-02 0. -1.
       -2    1    3    3    0  502 -0.47528013096E+03 -0.43702546907E+03 -0.14465744585E+04  0.15841275604E+04  0.25500000920E-02 0.  1.
</event>
<event>
 5   0  0.1511126E-06  0.2917279E+04  0.7818609E-02  0.8267755E-01
        1   -1    0    0  501    0  0.00000000000E+00  0.00000000000E+00  0.24952831571E+04  0.24952831571E+04  0.50400001928E-02 0. -1.
       -1   -1    0    0    0  501  0.00000000000E+00  0.00000000000E+00 -0.85266028980E+03  0.85266028981E+03  0.50400001928E-02 0.  1.
    10030    2    1    2    0    0  0.00000000000E+00  0.00000000000E+00  0.16426228673E+04  0.33479434469E+04  0.29172787730E+04 0.  0.
        5    1    3    3  502    0  0.80781761330E+03  0.42814553159E+03  0.21256365753E+04  0.23139210948E+04  0.46999998093E+01 0. -1.
       -5    1    3    3    0  502 -0.80781761330E+03 -0.42814553159E+03 -0.48301370801E+03  0.10340223521E+04  0.46999998093E+01 0.  1.
</event>
<event>
 5   0  0.4187518E-06  0.2901779E+04  0.7818609E-02  0.8272348E-01
        2   -1    0    0  501    0  0.00000000000E+00  0.00000000000E+00  0.18285105201E+04  0.18285105201E+04  0.25500000920E-02 0.  1.
       -2   -1    0    0    0  501  0.00000000000E+00  0.00000000000E+00 -0.11512545031E+04  0.11512545031E+04  0.25500000920E-02 0. -1.
    10030    2    1    2    0    0  0.00000000000E+00  0.00000000000E+00  0.67725601699E+03  0.29797650232E+04  0.29017794335E+04 0.  0.
        3    1    3    3  502    0  0.11092484867E+03  0.13858723713E+04 -0.87413060215E+02  0.13930497496E+04  0.10100000352E+00 0.  1.
       -3    1    3    3    0  502 -0.11092484867E+03 -0.13858723713E+04  0.76466907721E+03  0.15867152736E+04  0.10100000352E+00 0. -1.
</event>
<event>
 5   0  0.1543678E-06  0.2914072E+04  0.7818609E-02  0.8268703E-01
       -1   -1    0    0    0  501  0.00000000000E+00  0.00000000000E+00  0.11269838891E+04  0.11269838891E+04  0.50400001928E-02 0. -1.
        1   -1    0    0  501    0  0.00000000000E+00  0.00000000000E+00 -0.18837483158E+04  0.18837483158E+04  0.50400001928E-02 0.  1.
    10030    2    1    2    0    0  0.00000000000E+00  0.00000000000E+00 -0.75676442677E+03  0.30107322049E+04  0.29140720671E+04 0.  0.
        3    1    3    3  502    0  0.67394668378E+03 -0.30588866608E+03 -0.16750753381E+04  0.18312971924E+04  0.10100000352E+00 0.  1.
       -3    1    3    3    0  502 -0.67394668378E+03  0.30588866608E+03  0.91831091130E+03  0.11794350125E+04  0.10100000352E+00 0. -1.
</event>
<event>
 5   0  0.1550278E-06  0.2916851E+04  0.7818609E-02  0.8267882E-01
        1   -1    0    0  501    0  0.00000000000E+00  0.00000000000E+00  0.12770423457E+04  0.12770423457E+04  0.50400001928E-02 0. -1.
       -1   -1    0    0    0  501  0.00000000000E+00  0.00000000000E+00 -0.16655707331E+04  0.16655707331E+04  0.50400001928E-02 0.  1.
    10030    2    1    2    0    0  0.00000000000E+00  0.00000000000E+00 -0.38852838739E+03  0.29426130789E+04  0.29168506002E+04 0.  0.
        2    1    3    3  502    0  0.11642110280E+04  0.22131856807E+03  0.66332344158E+03  0.13580748192E+04  0.25500000920E-02 0. -1.
       -2    1    3    3    0  502 -0.11642110280E+04 -0.22131856807E+03 -0.10518518290E+04  0.15845382597E+04  0.25500000920E-02 0.  1.
</event>
<event>
 5   0  0.4148677E-06  0.2896561E+04  0.7818609E-02  0.8273901E-01
       -2   -1    0    0    0  501  0.00000000000E+00  0.00000000000E+00  0.85526629981E+03  0.85526629981E+03  0.25500000920E-02 0.  1.
        2   -1    0    0  501    0  0.00000000000E+00  0.00000000000E+00 -0.24524719719E+04  0.24524719719E+04  0.25500000920E-02 0. -1.
    10030    2    1    2    0    0  0.00000000000E+00  0.00000000000E+00 -0.15972056721E+04  0.33077382717E+04  0.28965611534E+04 0.  0.
        5    1    3    3  502    0 -0.12304231658E+04 -0.25812989821E+03  0.22431050010E+02  0.12574169767E+04  0.46999998093E+01 0.  1.
       -5    1    3    3    0  502  0.12304231658E+04  0.25812989821E+03 -0.16196367221E+04  0.20503212950E+04  0.46999998093E+01 0. -1.
</event>
<event>
 5   0  0.4187518E-06  0.2908757E+04  0.7818609E-02  0.8270277E-01
       -2   -1    0    0    0  501  0.00000000000E+00  0.00000000000E+00  0.13173644924E+04  0.13173644924E+04  0.25500000920E-02 0.  1.
        2   -1    0    0  501    0  0.00000000000E+00  0.00000000000E+00 -0.16056424014E+04  0.16056424014E+04  0.25500000920E-02 0. -1.
    10030    2    1    2    0    0  0.00000000000E+00  0.00000000000E+00 -0.28827790898E+03  0.29230068938E+04  0.29087566327E+04 0.  0.
        3    1    3    3  502    0 -0.14543616847E+03  0.12647275118E+04 -0.85081163079E+03  0.15311981582E+04  0.10100000352E+00 0. -1.
       -3    1    3    3    0  502  0.14543616847E+03 -0.12647275118E+04  0.56253372181E+03  0.13918087357E+04  0.10100000352E+00 0.  1.
</event>
<event>
 5   0  0.1602873E-06  0.2924112E+04  0.7818609E-02  0.8265739E-01
        1   -1    0    0  501    0  0.00000000000E+00  0.00000000000E+00  0.62130812014E+03  0.62130812016E+03  0.50400001928E-02 0.  1.
       -1   -1    0    0    0  501  0.00000000000E+00  0.00000000000E+00 -0.34404963780E+04  0.34404963780E+04  0.50400001928E-02 0. -1.
    10030    2    1    2    0    0  0.00000000000E+00  0.00000000000E+00 -0.28191882579E+04  0.40618044982E+04  0.29241124035E+04 0.  0.
        1    1    3    3  502    0 -0.10170093504E+04  0.53061291952E+03 -0.26687945932E+04  0.29048791145E+04  0.50400001928E-02 0. -1.
       -1    1    3    3    0  502  0.10170093504E+04 -0.53061291952E+03 -0.15039366470E+03  0.11569253837E+04  0.50400001928E-02 0.  1.
</event>
<event>
 5   0  0.4224163E-06  0.2945730E+04  0.7818609E-02  0.8259400E-01
        2   -1    0    0  501    0  0.00000000000E+00  0.00000000000E+00  0.18829085295E+04  0.18829085295E+04  0.25500000920E-02 0. -1.
       -2   -1    0    0    0  501  0.00000000000E+00  0.00000000000E+00 -0.11521172275E+04  0.11521172275E+04  0.25500000920E-02 0.  1.
    10030    2    1    2    0    0  0.00000000000E+00  0.00000000000E+00  0.73079130206E+03  0.30350257570E+04  0.29457300315E+04 0.  0.
        4    1    3    3  502    0 -0.57748749043E+03  0.80711963031E+03 -0.75589416013E+03  0.12475221415E+04  0.12699999809E+01 0.  1.
       -4    1    3    3    0  502  0.57748749043E+03 -0.80711963031E+03  0.14866854622E+04  0.17875036156E+04  0.12699999809E+01 0. -1.
</event>
<event>
 5   0  0.4115143E-06  0.2896318E+04  0.7818609E-02  0.8273974E-01
        2   -1    0    0  501    0  0.00000000000E+00  0.00000000000E+00  0.14739166605E+04  0.14739166605E+04  0.25500000920E-02 0.  1.
       -2   -1    0    0    0  501  0.00000000000E+00  0.00000000000E+00 -0.14228514764E+04  0.14228514764E+04  0.25500000920E-02 0. -1.
    10030    2    1    2    0    0  0.00000000000E+00  0.00000000000E+00  0.51065184129E+02  0.28967681369E+04  0.28963180050E+04 0.  0.
        1    1    3    3  502    0  0.74189234882E+03  0.43778388226E+03  0.11898035023E+04  0.14689082201E+04  0.50400001928E-02 0.  1.
       -1    1    3    3    0  502 -0.74189234882E+03 -0.43778388226E+03 -0.11387383182E+04  0.14278599169E+04  0.50400001928E-02 0. -1.
</event>
<event>
 5   0  0.4187518E-06  0.2895454E+04  0.7818609E-02  0.8274231E-01
       -2   -1    0    0    0  501  0.00000000000E+00  0.00000000000E+00  0.85625652269E+03  0.85625652269E+03  0.25500000920E-02 0.  1.
        2   -1    0    0  501    0  0.00000000000E+00  0.00000000000E+00 -0.24477629447E+04  0.24477629447E+04  0.25500000920E-02 0. -1.
    10030    2    1    2    0    0  0.00000000000E+00  0.00000000000E+00 -0.15915064221E+04  0.33040194674E+04  0.28954536691E+04 0.  0.
        3    1    3    3  502    0  0.40678592594E+02 -0.11711251346E+04 -0.17658437309E+04  0.21192906646E+04  0.10100000352E+00 0. -1.
       -3    1    3    3    0  502 -0.40678592594E+02  0.11711251346E+04  0.17433730884E+03  0.11847288029E+04  0.10100000352E+00 0.  1.
</event>
<event>
 5   0  0.1511126E-06  0.2907018E+04  0.7818609E-02  0.8270792E-01
       -1   -1    0    0    0  501  0.00000000000E+00  0.00000000000E+00  0.14961656591E+04  0.14961656591E+04  0.50400001928E-02 0. -1.
        1   -1    0    0  501    0  0.00000000000E+00  0.00000000000E+00 -0.14120687661E+04  0.14120687661E+04  0.50400001928E-02 0.  1.
    10030    2    1    2    0    0  0.00000000000E+00  0.00000000000E+00  0.84096893002E+02  0.29082344252E+04  0.29070182636E+04 0.  0.
        5    1    3    3  502    0  0.71859732253E+02  0.38067301003E+03 -0.13594626673E+04  0.14135899672E+04  0.46999998093E+01 0.  1.
       -5    1    3    3    0  502 -0.71859732253E+02 -0.38067301003E+03  0.14435595603E+04  0.14946444580E+04  0.46999998093E+01 0. -1.
</event>
<event>
 5   0  0.1550278E-06  0.2929270E+04  0.7818609E-02  0.8264222E-01
       -1   -1    0    0    0  501  0.00000000000E+00  0.00000000000E+00  0.99848237782E+03  0.99848237784E+03  0.50400001928E-02 0. -1.
        1   -1    0    0  501    0  0.00000000000E+00  0.00000000000E+00 -0.21484159531E+04  0.21484159531E+04  0.50400001928E-02 0.  1.
    10030    2    1    2    0    0  0.00000000000E+00  0.00000000000E+00 -0.11499335753E+04  0.31468983309E+04  0.29292698540E+04 0.  0.
        2    1    3    3  502    0 -0.51622901865E+03  0.48443677603E+03  0.80247144641E+03  0.10701083179E+04  0.25500000920E-02 0. -1.
       -2    1    3    3    0  502  0.51622901865E+03 -0.48443677603E+03 -0.19524050217E+04  0.20767900131E+04  0.25500000920E-02 0.  1.
</event>
<event>
 5   0  0.1543678E-06  0.2893817E+04  0.7818609E-02  0.8274719E-01
        1   -1    0    0  501    0  0.00000000000E+00  0.00000000000E+00  0.22619162971E+04  0.22619162971E+04  0.50400001928E-02 0. -1.
       -1   -1    0    0    0  501  0.00000000000E+00  0.00000000000E+00 -0.92556231074E+03  0.92556231075E+03  0.50400001928E-02 0.  1.
    10030    2    1    2    0    0  0.00000000000E+00  0.00000000000E+00  0.13363539864E+04  0.31874786079E+04  0.28938171848E+04 0.  0.
        3    1    3    3  502    0  0.26686452794E+03 -0.10325279748E+04  0.17452711851E+04  0.20453122537E+04  0.10100000352E+00 0. -1.
       -3    1    3    3    0  502 -0.26686452794E+03  0.10325279748E+04 -0.40891719875E+03  0.11421663542E+04  0.10100000352E+00 0.  1.
</event>
<event>
 5   0  0.4162450E-06  0.2898621E+04  0.7818609E-02  0.8273288E-01
       -2   -1    0    0    0  501  0.00000000000E+00  0.00000000000E+00  0.18560790062E+04  0.18560790062E+04  0.25500000920E-02 0. -1.
        2   -1    0    0  501    0  0.00000000000E+00  0.00000000000E+00 -0.11316873377E+04  0.11316873377E+04  0.25500000920E-02 0.  1.
    10030    2    1    2    0    0  0.00000000000E+00  0.00000000000E+00  0.72439166849E+03  0.29877663439E+04  0.28986211267E+04 0.  0.
        2    1    3    3  502    0  0.12191398050E+04 -0.74674255712E+03  0.60736547134E+03  0.15533251838E+04  0.25500000920E-02 0. -1.
       -2    1    3    3    0  502 -0.12191398050E+04  0.74674255712E+03  0.11702619715E+03  0.14344411601E+04  0.25500000920E-02 0.  1.
</event>
<event>
 5   0  0.4224163E-06  0.2902031E+04  0.7818609E-02  0.8272274E-01
       -2   -1    0    0    0  501  0.00000000000E+00  0.00000000000E+00  0.10427851207E+04  0.10427851207E+04  0.25500000920E-02 0.  1.
        2   -1    0    0  501    0  0.00000000000E+00  0.00000000000E+00 -0.20190596816E+04  0.20190596816E+04  0.25500000920E-02 0. -1.
    10030    2    1    2    0    0  0.00000000000E+00  0.00000000000E+00 -0.97627456090E+03  0.30618448023E+04  0.29020305951E+04 0.  0.
        4    1    3    3  502    0 -0.58234944599E+01 -0.14508619851E+04 -0.50948434357E+03  0.15377289495E+04  0.12699999809E+01 0. -1.
       -4    1    3    3    0  502  0.58234944599E+01  0.14508619851E+04 -0.46679021733E+03  0.15241158528E+04  0.12699999809E+01 0.  1.
</event>
<event>
 5   0  0.1550278E-06  0.2899757E+04  0.7818609E-02  0.8272950E-01
        1   -1    0    0  501    0  0.00000000000E+00  0.00000000000E+00  0.89240283103E+03  0.89240283104E+03  0.50400001928E-02 0. -1.
       -1   -1    0    0    0  501  0.00000000000E+00  0.00000000000E+00 -0.23556032095E+04  0.23556032095E+04  0.50400001928E-02 0.  1.
    10030    2    1    2    0    0  0.00000000000E+00  0.00000000000E+00 -0.14632003785E+04  0.32480060406E+04  0.28997565229E+04 0.  0.
        2    1    3    3  502    0 -0.36675320399E+03 -0.36299099842E+03  0.78606871842E+03  0.94030548635E+03  0.25500000920E-02 0. -1.
       -2    1    3    3    0  502  0.36675320399E+03  0.36299099842E+03 -0.22492690969E+04  0.23077005542E+04  0.25500000920E-02 0.  1.
</event>
<event>
 5   0  0.1511126E-06  0.2922361E+04  0.7818609E-02  0.8266255E-01
        1   -1    0    0  501    0  0.00000000000E+00  0.00000000000E+00  0.23178795024E+04  0.23178795024E+04  0.50400001928E-02 0. -1.
       -1   -1    0    0    0  501  0.00000000000E+00  0.00000000000E+00 -0.92112135614E+03  0.92112135615E+03  0.50400001928E-02 0.  1.
    10030    2    1    2    0    0  0.00000000000E+00  0.00000000000E+00  0.13967581462E+04  0.32390008585E+04  0.29223609022E+04 0.  0.
        5    1    3    3  502    0  0.10433297931E+04 -0.79335210454E+03 -0.17414394275E+02  0.13108279712E+04  0.46999998093E+01 0.  1.
       -5    1    3    3    0  502 -0.10433297931E+04  0.79335210454E+03  0.14141725405E+04  0.19281728873E+04  0.46999998093E+01 0. -1.
</event>
<event>
 5   0  0.1550278E-06  0.2925747E+04  0.7818609E-02  0.8265258E-01
       -1   -1    0    0    0  501  0.00000000000E+00  0.00000000000E+00  0.11873400075E+04  0.11873400075E+04  0.50400001928E-02 0.  1.
        1   -1    0    0  501    0  0.00000000000E+00  0.00000000000E+00 -0.18023472371E+04  0.18023472371E+04  0.50400001928E-02 0. -1.
    10030    2    1    2    0    0  0.00000000000E+00  0.00000000000E+00 -0.61500722959E+03  0.29896872446E+04  0.29257470718E+04 0.  0.
        2    1    3    3  502    0 -0.98272042545E+03 -0.50495002406E+03 -0.12872509056E+04  0.16963870005E+04  0.25500000920E-02 0. -1.
       -2    1    3    3    0  502  0.98272042545E+03  0.50495002406E+03  0.67224367602E+03  0.12933002441E+04  0.25500000920E-02 0.  1.
</event>
<event>
 5   0  0.4162450E-06  0.2905601E+04  0.7818609E-02  0.8271213E-01
        2   -1    0    0  501    0  0.00000000000E+00  0.00000000000E+00  0.14025686345E+04  0.14025686345E+04  0.25500000920E-02 0.  1.
       -2   -1    0    0    0  501  0.00000000000E+00  0.00000000000E+00 -0.15048308846E+04  0.15048308846E+04  0.25500000920E-02 0. -1.
    10030    2    1    2    0    0  0.00000000000E+00  0.00000000000E+00 -0.10226225009E+03  0.29073995191E+04  0.29056005224E+04 0.  0.
        2    1    3    3  502    0  0.86002754862E+03  0.29090270145E+03 -0.11860100686E+04  0.14936169686E+04  0.25500000920E-02 0. -1.
       -2    1    3    3    0  502 -0.86002754862E+03 -0.29090270145E+03  0.10837478185E+04  0.14137825505E+04  0.25500000920E-02 0.  1.
</event>
<event>
 5   0  0.4187518E-06  0.2899210E+04  0.7818609E-02  0.8273112E-01
        2   -1    0    0  501    0  0.00000000000E+00  0.00000000000E+00  0.19599361441E+04  0.19599361441E+04  0.25500000920E-02 0. -1.
       -2   -1    0    0    0  501  0.00000000000E+00  0.00000000000E+00 -0.10721548639E+04  0.10721548639E+04  0.25500000920E-02 0.  1.
    10030    2    1    2    0    0  0.00000000000E+00  0.00000000000E+00  0.88778128025E+03  0.30320910080E+04  0.28992102854E+04 0.  0.
        3    1    3    3  502    0  0.79440527868E+03  0.49783961644E+03 -0.71242046953E+03  0.11774833188E+04  0.10100000352E+00 0.  1.
       -3    1    3    3    0  502 -0.79440527868E+03 -0.49783961644E+03  0.16002017498E+04  0.18546076892E+04  0.10100000352E+00 0. -1.
</event>
<event>
 5   0  0.4162450E-06  0.2874606E+04  0.7818609E-02  0.8280473E-01
       -2   -1    0    0    0  501  0.00000000000E+00  0.00000000000E+00  0.15091885524E+04  0.15091885525E+04  0.25500000920E-02 0.  1.
        2   -1    0    0  501    0  0.00000000000E+00  0.00000000000E+00 -0.13688419081E+04  0.13688419081E+04  0.25500000920E-02 0. -1.
    10030    2    1    2    0    0  0.00000000000E+00  0.00000000000E+00  0.14034664434E+03  0.28780304606E+04  0.28746064342E+04 0.  0.
        2    1    3    3  502    0 -0.12572248761E+04  0.32244781045E+03  0.68836612649E+03  0.14691612926E+04  0.25500000920E-02 0.  1.
       -2    1    3    3    0  502  0.12572248761E+04 -0.32244781045E+03 -0.54801948216E+03  0.14088691680E+04  0.25500000920E-02 0. -1.
</event>
<event>
 5   0  0.1543678E-06  0.2899754E+04  0.7818609E-02  0.8272951E-01
        1   -1    0    0  501    0  0.00000000000E+00  0.00000000000E+00  0.16554134064E+04  0.16554134064E+04  0.50400001928E-02 0.  1.
       -1   -1    0    0    0  501  0.00000000000E+00  0.00000000000E+00 -0.12698602906E+04  0.12698602907E+04  0.50400001928E-02 0. -1.
    10030    2    1    2    0    0  0.00000000000E+00  0.00000000000E+00  0.38555311572E+03  0.29252736970E+04  0.28997542995E+04 0.  0.
        3    1    3    3  502    0  0.12062862109E+04 -0.64222732193E+03  0.68135416980E+03  0.15270317189E+04  0.10100000352E+00 0.  1.
       -3    1    3    3    0  502 -0.12062862109E+04  0.64222732193E+03 -0.29580105407E+03  0.13982419781E+04  0.10100000352E+00 0. -1.
</event>
<event>
 5   0  0.1511126E-06  0.2895537E+04  0.7818609E-02  0.8274207E-01
        1   -1    0    0  501    0  0.00000000000E+00  0.00000000000E+00  0.15545371650E+04  0.15545371650E+04  0.50400001928E-02 0. -1.
       -1   -1    0    0    0  501  0.00000000000E+00  0.00000000000E+00 -0.13483325637E+04  0.13483325637E+04  0.50400001928E-02 0.  1.
    10030    2    1    2    0    0  0.00000000000E+00  0.00000000000E+00  0.20620460136E+03  0.29028697287E+04  0.28955366211E+04 0.  0.
        5    1    3    3  502    0 -0.22065075556E+03 -0.13086732237E+04 -0.47689430383E+03  0.14102349554E+04  0.46999998093E+01 0.  1.
       -5    1    3    3    0  502  0.22065075556E+03  0.13086732237E+04  0.68309890519E+03  0.14926347734E+04  0.46999998093E+01 0. -1.
</event>
<event>
 5   0  0.4148677E-06  0.2902794E+04  0.7818609E-02  0.8272047E-01
        2   -1    0    0  501    0  0.00000000000E+00  0.00000000000E+00  0.10606589325E+04  0.10606589325E+04  0.25500000920E-02 0. -1.
       -2   -1    0    0    0  501  0.00000000000E+00  0.00000000000E+00 -0.19860796847E+04  0.19860796847E+04  0.25500000920E-02 0.  1.
    10030    2    1    2    0    0  0.00000000000E+00  0.00000000000E+00 -0.92542075218E+03  0.30467386172E+04  0.29027939357E+04 0.  0.
        5    1    3    3  502    0  0.25543182983E+02 -0.10159125251E+04 -0.15503393335E+04  0.18537272862E+04  0.46999998093E+01 0.  1.
       -5    1    3    3    0  502 -0.25543182983E+02  0.10159125251E+04  0.62491858128E+03  0.11930113310E+04  0.46999998093E+01 0. -1.
</event>
<event>
 5   0  0.1511126E-06  0.2910292E+04  0.7818609E-02  0.8269822E-01
        1   -1    0    0  501    0  0.00000000000E+00  0.00000000000E+00  0.14972523628E+04  0.14972523628E+04  0.50400001928E-02 0.  1.
       -1   -1    0    0    0  501  0.00000000000E+00  0.00000000000E+00 -0.14142242257E+04  0.14142242257E+04  0.50400001928E-02 0. -1.
    10030    2    1    2    0    0  0.00000000000E+00  0.00000000000E+00  0.83028137132E+02  0.29114765885E+04  0.29102924688E+04 0.  0.
        5    1    3    3  502    0 -0.12417210143E+04  0.32772875359E+03 -0.64298011985E+03  0.14362182069E+04  0.46999998093E+01 0. -1.
       -5    1    3    3    0  502  0.12417210143E+04 -0.32772875359E+03  0.72600825698E+03  0.14752583816E+04  0.46999998093E+01 0.  1.
</event>
<event>
 5   0  0.1550278E-06  0.2905467E+04  0.7818609E-02  0.8271253E-01
       -1   -1    0    0    0  501  0.00000000000E+00  0.00000000000E+00  0.25047894634E+04  0.25047894634E+04  0.50400001928E-02 0. -1.
        1   -1    0    0  501    0  0.00000000000E+00  0.00000000000E+00 -0.84255958803E+03  0.84255958804E+03  0.50400001928E-02 0.  1.
    10030    2    1    2    0    0  0.00000000000E+00  0.00000000000E+00  0.16622298754E+04  0.33473490515E+04  0.29054668323E+04 0.  0.
        2    1    3    3  502    0 -0.40113405014E+03  0.13512381995E+04  0.12362845731E+04  0.18748740607E+04  0.25500000920E-02 0.  1.
       -2    1    3    3    0  502  0.40113405014E+03 -0.13512381995E+04  0.42594530231E+03  0.14724749908E+04  0.25500000920E-02 0. -1.
</event>
<event>
 5   0  0.4148677E-06  0.2908498E+04  0.7818609E-02  0.8270353E-01
       -2   -1    0    0    0  501  0.00000000000E+00  0.00000000000E+00  0.33198716402E+04  0.33198716402E+04  0.25500000920E-02 0. -1.
        2   -1    0    0  501    0  0.00000000000E+00  0.00000000000E+00 -0.63702489316E+03  0.63702489317E+03  0.25500000920E-02 0.  1.
    10030    2    1    2    0    0  0.00000000000E+00  0.00000000000E+00  0.26828467471E+04  0.39568965334E+04  0.29084984971E+04 0.  0.
        5    1    3    3  502    0 -0.80366131834E+03  0.97321137058E+03  0.35867856205E+03  0.13121296762E+04  0.46999998093E+01 0.  1.
       -5    1    3    3    0  502  0.80366131834E+03 -0.97321137058E+03  0.23241681850E+04  0.26447668572E+04  0.46999998093E+01 0. -1.
</event>
<event>
 5   0  0.1602873E-06  0.2900866E+04  0.7818609E-02  0.8272620E-01
        1   -1    0    0  501    0  0.00000000000E+00  0.00000000000E+00  0.20417099803E+04  0.20417099803E+04  0.50400001928E-02 0. -1.
       -1   -1    0    0    0  501  0.00000000000E+00  0.00000000000E+00 -0.10303890762E+04  0.10303890762E+04  0.50400001928E-02 0.  1.
    10030    2    1    2    0    0  0.00000000000E+00  0.00000000000E+00  0.10113209041E+04  0.30720990565E+04  0.29008658435E+04 0.  0.
        1    1    3    3  502    0 -0.36005580556E+03 -0.65053778370E+03 -0.81320872444E+03  0.11018838508E+04  0.50400001928E-02 0.  1.
       -1    1    3    3    0  502  0.36005580556E+03  0.65053778370E+03  0.18245296286E+04  0.19702152057E+04  0.50400001928E-02 0. -1.
</event>
<event>
 5   0  0.4187518E-06  0.2892862E+04  0.7818609E-02  0.8275004E-01
        2   -1    0    0  501    0  0.00000000000E+00  0.00000000000E+00  0.19323423409E+04  0.19323423409E+04  0.25500000920E-02 0.  1.
       -2   -1    0    0    0  501  0.00000000000E+00  0.00000000000E+00 -0.10827079222E+04  0.10827079222E+04  0.25500000920E-02 0. -1.
    10030    2    1    2    0    0  0.00000000000E+00  0.00000000000E+00  0.84963441869E+03  0.30150502631E+04  0.28928618085E+04 0.  0.
        3    1    3    3  502    0 -0.35881286658E+03  0.47778022704E+03 -0.94806837912E+03  0.11206490442E+04  0.10100000352E+00 0. -1.
       -3    1    3    3    0  502  0.35881286658E+03 -0.47778022704E+03  0.17977027978E+04  0.18944012189E+04  0.10100000352E+00 0.  1.
</event>
<event>
 5   0  0.4115143E-06  0.2918910E+04  0.7818609E-02  0.8267273E-01
        2   -1    0    0  501    0  0.00000000000E+00  0.00000000000E+00  0.13295373747E+04  0.13295373747E+04  0.25500000920E-02 0. -1.
       -2   -1    0    0    0  501  0.00000000000E+00  0.00000000000E+00 -0.16020673208E+04  0.16020673208E+04  0.25500000920E-02 0.  1.
    10030    2    1    2    0    0  0.00000000000E+00  0.00000000000E+00 -0.27252994613E+03  0.29316046955E+04  0.29189096456E+04 0.  0.
        1    1    3    3  502    0 -0.32611360647E+03 -0.98476290449E+02  0.12890480537E+04  0.13333013721E+04  0.50400001928E-02 0. -1.
       -1    1    3    3    0  502  0.32611360647E+03  0.98476290449E+02 -0.15615779998E+04  0.15983033234E+04  0.50400001928E-02 0.  1.
</event>
<event>
 5   0  0.4187518E-06  0.2897570E+04  0.7818609E-02  0.8273601E-01
        2   -1    0    0  501    0  0.00000000000E+00  0.00000000000E+00  0.29074945763E+04  0.29074945763E+04  0.25500000920E-02 0.  1.
       -2   -1    0    0    0  501  0.00000000000E+00  0.00000000000E+00 -0.72191965431E+03  0.72191965431E+03  0.25500000920E-02 0. -1.
    10030    2    1    2    0    0  0.00000000000E+00  0.00000000000E+00  0.21855749220E+04  0.36294142306E+04  0.28975696571E+04 0.  0.
        3    1    3    3  502    0 -0.13179437850E+04  0.59179058124E+03  0.95680662575E+03  0.17328216416E+04  0.10100000352E+00 0.  1.
       -3    1    3    3    0  502  0.13179437850E+04 -0.59179058124E+03  0.12287682962E+04  0.18965925889E+04  0.10100000352E+00 0. -1.
</event>
<event>
 5   0  0.1550278E-06  0.2886735E+04  0.7818609E-02  0.8276835E-01
        1   -1    0    0  501    0  0.00000000000E+00  0.00000000000E+00  0.16375304296E+04  0.16375304296E+04  0.50400001928E-02 0.  1.
       -1   -1    0    0    0  501  0.00000000000E+00  0.00000000000E+00 -0.12722268039E+04  0.12722268040E+04  0.50400001928E-02 0. -1.
    10030    2    1    2    0    0  0.00000000000E+00  0.00000000000E+00  0.36530362568E+03  0.29097572336E+04  0.28867352528E+04 0.  0.
        2    1    3    3  502    0  0.82443399586E+03  0.39976283017E+03 -0.94150407206E+03  0.13137471795E+04  0.25500000920E-02 0. -1.
       -2    1    3    3    0  502 -0.82443399586E+03 -0.39976283017E+03  0.13068076977E+04  0.15960100541E+04  0.25500000920E-02 0.  1.
</event>
<event>
 5   0  0.4224163E-06  0.2940923E+04  0.7818609E-02  0.8260805E-01
       -2   -1    0    0    0  501  0.00000000000E+00  0.00000000000E+00  0.13778989772E+04  0.13778989772E+04  0.25500000920E-02 0. -1.
        2   -1    0    0  501    0  0.00000000000E+00  0.00000000000E+00 -0.15692419508E+04  0.15692419508E+04  0.25500000920E-02 0.  1.
    10030    2    1    2    0    0  0.00000000000E+00  0.00000000000E+00 -0.19134297359E+03  0.29471409280E+04  0.29409229021E+04 0.  0.
        4    1    3    3  502    0  0.95557893414E+02  0.48380536590E+03 -0.14839005262E+04  0.15637011632E+04  0.12699999809E+01 0.  1.
       -4    1    3    3    0  502 -0.95557893414E+02 -0.48380536590E+03  0.12925575527E+04  0.13834397648E+04  0.12699999809E+01 0. -1.
</event>
<event>
 5   0  0.1511126E-06  0.2902080E+04  0.7818609E-02  0.8272259E-01
        1   -1    0    0  501    0  0.00000000000E+00  0.00000000000E+00  0.20836193125E+04  0.20836193125E+04  0.50400001928E-02 0. -1.
       -1   -1    0    0    0  501  0.00000000000E+00  0.00000000000E+00 -0.10105095774E+04  0.10105095774E+04  0.50400001928E-02 0.  1.
    10030    2    1    2    0    0  0.00000000000E+00  0.00000000000E+00  0.10731097351E+04  0.30941288899E+04  0.29020801305E+04 0.  0.
        5    1    3    3  502    0  0.44340713872E+02  0.14362208873E+04  0.75190833582E+03  0.16217536100E+04  0.46999998093E+01 0.  1.
       -5    1    3    3    0  502 -0.44340713872E+02 -0.14362208873E+04  0.32120139928E+03  0.14723752799E+04  0.46999998093E+01 0. -1.
</event>
<event>
 5   0  0.1550278E-06  0.2901287E+04  0.7818609E-02  0.8272495E-01
        1   -1    0    0  501    0  0.00000000000E+00  0.00000000000E+00  0.15012264068E+04  0.15012264068E+04  0.50400001928E-02 0. -1.
       -1   -1    0    0    0  501  0.00000000000E+00  0.00000000000E+00 -0.14017650976E+04  0.14017650976E+04  0.50400001928E-02 0.  1.
    10030    2    1    2    0    0  0.00000000000E+00  0.00000000000E+00  0.99461309194E+02  0.29029915044E+04  0.29012871493E+04 0.  0.
        2    1    3    3  502    0  0.83276808648E+03 -0.89227999504E+03 -0.73475830417E+03  0.14246178579E+04  0.25500000920E-02 0.  1.
       -2    1    3    3    0  502 -0.83276808648E+03  0.89227999504E+03  0.83421961337E+03  0.14783736465E+04  0.25500000920E-02 0. -1.
</event>
<event>
 5   0  0.1550278E-06  0.2908515E+04  0.7818609E-02  0.8270348E-01
       -1   -1    0    0    0  501  0.00000000000E+00  0.00000000000E+00  0.92179313554E+03  0.92179313555E+03  0.50400001928E-02 0. -1.
        1   -1    0    0  501    0  0.00000000000E+00  0.00000000000E+00 -0.22942950986E+04  0.22942950986E+04  0.50400001928E-02 0.  1.
    10030    2    1    2    0    0  0.00000000000E+00  0.00000000000E+00 -0.13725019630E+04  0.32160882342E+04  0.29085154102E+04 0.  0.
        2    1    3    3  502    0  0.11337696969E+04  0.85638300398E+03 -0.10289259887E+04  0.17542845452E+04  0.25500000920E-02 0.  1.
       -2    1    3    3    0  502 -0.11337696969E+04 -0.85638300398E+03 -0.34357597430E+03  0.14618036890E+04  0.25500000920E-02 0. -1.
</event>
<event>
 5   0  0.1543678E-06  0.2943623E+04  0.7818609E-02  0.8260015E-01
       -1   -1    0    0    0  501  0.00000000000E+00  0.00000000000E+00  0.89607996350E+03  0.89607996352E+03  0.50400001928E-02 0.  1.
        1   -1    0    0  501    0  0.00000000000E+00  0.00000000000E+00 -0.24174509670E+04  0.24174509670E+04  0.50400001928E-02 0. -1.
    10030    2    1    2    0    0  0.00000000000E+00  0.00000000000E+00 -0.15213710035E+04  0.33135309306E+04  0.29436231922E+04 0.  0.
        3    1    3    3  502    0 -0.35600682926E+03 -0.87130635810E+03  0.51301410495E+03  0.10719604070E+04  0.10100000352E+00 0.  1.
       -3    1    3    3    0  502  0.35600682926E+03  0.87130635810E+03 -0.20343851085E+04  0.22415705235E+04  0.10100000352E+00 0. -1.
</event>
<event>
 5   0  0.1511126E-06  0.2908951E+04  0.7818609E-02  0.8270219E-01
       -1   -1    0    0    0  501  0.00000000000E+00  0.00000000000E+00  0.17843420795E+04  0.17843420795E+04  0.50400001928E-02 0. -1.
        1   -1    0    0  501    0  0.00000000000E+00  0.00000000000E+00 -0.11855908476E+04  0.11855908476E+04  0.50400001928E-02 0.  1.
    10030    2    1    2    0    0  0.00000000000E+00  0.00000000000E+00  0.59875123195E+03  0.29699329271E+04  0.29089514527E+04 0.  0.
        5    1    3    3  502    0  0.11588434894E+03 -0.67730433472E+03 -0.10094131168E+04  0.12211090347E+04  0.46999998093E+01 0.  1.
       -5    1    3    3    0  502 -0.11588434894E+03  0.67730433472E+03  0.16081643488E+04  0.17488238925E+04  0.46999998093E+01 0. -1.
</event>
<event>
 5   0  0.4148677E-06  0.2914406E+04  0.7818609E-02  0.8268604E-01
        2   -1    0    0  501    0  0.00000000000E+00  0.00000000000E+00  0.13572479646E+04  0.13572479646E+04  0.25500000920E-02 0. -1.
       -2   -1    0    0    0  501  0.00000000000E+00  0.00000000000E+00 -0.15645195457E+04  0.15645195457E+04  0.25500000920E-02 0.  1.
    10030    2    1    2    0    0  0.00000000000E+00  0.00000000000E+00 -0.20727158113E+03  0.29217675103E+04  0.29144062648E+04 0.  0.
        5    1    3    3  502    0 -0.10597324652E+04  0.94979092885E+03 -0.41792910827E+03  0.14831798731E+04  0.46999998093E+01 0.  1.
       -5    1    3    3    0  502  0.10597324652E+04 -0.94979092885E+03  0.21065752714E+03  0.14385876373E+04  0.46999998093E+01 0. -1.
</event>
<event>
 5   0  0.1543678E-06  0.2906862E+04  0.7818609E-02  0.8270839E-01
        1   -1    0    0  501    0  0.00000000000E+00  0.00000000000E+00  0.15749957007E+04  0.15749957007E+04  0.50400001928E-02 0. -1.
       -1   -1    0    0    0  501  0.00000000000E+00  0.00000000000E+00 -0.13412490956E+04  0.13412490956E+04  0.50400001928E-02 0.  1.
    10030    2    1    2    0    0  0.00000000000E+00  0.00000000000E+00  0.23374660513E+03  0.29162447963E+04  0.29068619225E+04 0.  0.
        3    1    3    3  502    0 -0.87223141708E+03 -0.22139268528E+03  0.12618983223E+04  0.15498999168E+04  0.10100000352E+00 0. -1.
       -3    1    3    3    0  502  0.87223141708E+03  0.22139268528E+03 -0.10281517172E+04  0.13663448795E+04  0.10100000352E+00 0.  1.
</event>
<event>
 5   0  0.1511126E-06  0.2924043E+04  0.7818609E-02  0.8265760E-01
       -1   -1    0    0    0  501  0.00000000000E+00  0.00000000000E+00  0.98716074705E+03  0.98716074707E+03  0.50400001928E-02 0.  1.
        1   -1    0    0  501    0  0.00000000000E+00  0.00000000000E+00 -0.21653082347E+04  0.21653082347E+04  0.50400001928E-02 0. -1.
    10030    2    1    2    0    0  0.00000000000E+00  0.00000000000E+00 -0.11781474876E+04  0.31524689817E+04  0.29240432928E+04 0.  0.
        5    1    3    3  502    0  0.56494918817E+03 -0.10558235762E+04  0.31523306794E+03  0.12382750044E+04  0.46999998093E+01 0.  1.
       -5    1    3    3    0  502 -0.56494918817E+03  0.10558235762E+04 -0.14933805556E+04  0.19141939774E+04  0.46999998093E+01 0. -1.
</event>
<event>
 5   0  0.1580212E-06  0.2763506E+04  0.7818609E-02  0.8314689E-01
       -1   -1    0    0    0  501  0.00000000000E+00  0.00000000000E+00  0.13182115808E+04  0.13182115808E+04  0.50400001928E-02 0.  1.
        1   -1    0    0  501    0  0.00000000000E+00  0.00000000000E+00 -0.14483572924E+04  0.14483572924E+04  0.50400001928E-02 0. -1.
    10030    2    1    2    0    0  0.00000000000E+00  0.00000000000E+00 -0.13014571158E+03  0.27665688733E+04  0.27635060022E+04 0.  0.
        4    1    3    3  502    0  0.10922267611E+04  0.31844992719E+03 -0.85007846094E+03  0.14202128912E+04  0.12699999809E+01 0. -1.
       -4    1    3    3    0  502 -0.10922267611E+04 -0.31844992719E+03  0.71993274937E+03  0.13463559820E+04  0.12699999809E+01 0.  1.
</event>
<event>
 5   0  0.1550278E-06  0.2962163E+04  0.7818609E-02  0.8254619E-01
        1   -1    0    0  501    0  0.00000000000E+00  0.00000000000E+00  0.19914051492E+04  0.19914051492E+04  0.50400001928E-02 0. -1.
       -1   -1    0    0    0  501  0.00000000000E+00  0.00000000000E+00 -0.11015347720E+04  0.11015347720E+04  0.50400001928E-02 0.  1.
    10030    2    1    2    0    0  0.00000000000E+00  0.00000000000E+00  0.88987037716E+03  0.30929399212E+04  0.29621627349E+04 0.  0.
        2    1    3    3  502    0  0.13252052213E+04  0.56159667927E+03  0.80970406589E+03  0.16514176889E+04  0.25500000920E-02 0. -1.
       -2    1    3    3    0  502 -0.13252052213E+04 -0.56159667927E+03  0.80166311274E+02  0.14415222323E+04  0.25500000920E-02 0.  1.
</event>
<event>
 5   0  0.4162450E-06  0.2884389E+04  0.7818609E-02  0.8277537E-01
        2   -1    0    0  501    0  0.00000000000E+00  0.00000000000E+00  0.20859427498E+04  0.20859427498E+04  0.25500000920E-02 0.  1.
       -2   -1    0    0    0  501  0.00000000000E+00  0.00000000000E+00 -0.99711531222E+03  0.99711531222E+03  0.25500000920E-02 0. -1.
    10030    2    1    2    0    0  0.00000000000E+00  0.00000000000E+00  0.10888274376E+04  0.30830580621E+04  0.28843893331E+04 0.  0.
        2    1    3    3  502    0 -0.19062548583E+03 -0.31037383866E+03 -0.94714133550E+03  0.10147643593E+04  0.25500000920E-02 0. -1.
       -2    1    3    3    0  502  0.19062548583E+03  0.31037383866E+03  0.20359687731E+04  0.20682937027E+04  0.25500000920E-02 0.  1.
</event>
<event>
 5   0  0.4187518E-06  0.2874806E+04  0.7818609E-02  0.8280413E-01
       -2   -1    0    0    0  501  0.00000000000E+00  0.00000000000E+00  0.11674933066E+04  0.11674933066E+04  0.25500000920E-02 0.  1.
        2   -1    0    0  501    0  0.00000000000E+00  0.00000000000E+00 -0.17697124301E+04  0.17697124301E+04  0.25500000920E-02 0. -1.
    10030    2    1    2    0    0  0.00000000000E+00  0.00000000000E+00 -0.60221912349E+03  0.29372057367E+04  0.28748060225E+04 0.  0.
        3    1    3    3  502    0  0.52986186218E+03  0.36888203823E+03  0.10110167133E+04  0.11995759067E+04  0.10100000352E+00 0.  1.
       -3    1    3    3    0  502 -0.52986186218E+03 -0.36888203823E+03 -0.16132358368E+04  0.17376298301E+04  0.10100000352E+00 0. -1.
</event>
<event>
 5   0  0.4224163E-06  0.2887883E+04  0.7818609E-02  0.8276492E-01
       -2   -1    0    0    0  501  0.00000000000E+00  0.00000000000E+00  0.22711630244E+04  0.22711630244E+04  0.25500000920E-02 0. -1.
        2   -1    0    0  501    0  0.00000000000E+00  0.00000000000E+00 -0.91801716510E+03  0.91801716510E+03  0.25500000920E-02 0.  1.
    10030    2    1    2    0    0  0.00000000000E+00  0.00000000000E+00  0.13531458593E+04  0.31891801895E+04  0.28878827131E+04 0.  0.
        4    1    3    3  502    0 -0.11673699302E+02  0.14412900802E+04  0.77228515256E+03  0.16352000918E+04  0.12699999809E+01 0.  1.
       -4    1    3    3    0  502  0.11673699302E+02 -0.14412900802E+04  0.58086070674E+03  0.15539800977E+04  0.12699999809E+01 0. -1.
</event>
<event>
 5   0  0.1511126E-06  0.2912418E+04  0.7818609E-02  0.8269192E-01
        1   -1    0    0  501    0  0.00000000000E+00  0.00000000000E+00  0.16957024681E+04  0.16957024681E+04  0.50400001928E-02 0.  1.
       -1   -1    0    0    0  501  0.00000000000E+00  0.00000000000E+00 -0.12505403146E+04  0.12505403147E+04  0.50400001928E-02 0. -1.
    10030    2    1    2    0    0  0.00000000000E+00  0.00000000000E+00  0.44516215342E+03  0.29462427827E+04  0.29124177571E+04 0.  0.
        5    1    3    3  502    0  0.95128782658E+03  0.10482373367E+04 -0.12310710112E+03  0.14208896830E+04  0.46999998093E+01 0.  1.
       -5    1    3    3    0  502 -0.95128782658E+03 -0.10482373367E+04  0.56826925454E+03  0.15253530997E+04  0.46999998093E+01 0. -1.
</event>
<event>
 5   0  0.4115143E-06  0.2889426E+04  0.7818609E-02  0.8276031E-01
        2   -1    0    0  501    0  0.00000000000E+00  0.00000000000E+00  0.21350661130E+04  0.21350661130E+04  0.25500000920E-02 0.  1.
       -2   -1    0    0    0  501  0.00000000000E+00  0.00000000000E+00 -0.97757883989E+03  0.97757883989E+03  0.25500000920E-02 0. -1.
    10030    2    1    2    0    0  0.00000000000E+00  0.00000000000E+00  0.11574872731E+04  0.31126449529E+04  0.28894258626E+04 0.  0.
        1    1    3    3  502    0 -0.65121399335E+03 -0.31881089626E+03  0.19248692967E+04  0.20569010336E+04  0.50400001928E-02 0.  1.
       -1    1    3    3    0  502  0.65121399335E+03  0.31881089626E+03 -0.76738202365E+03  0.10557439192E+04  0.50400001928E-02 0. -1.
</event>
<event>
 5   0  0.4148677E-06  0.2894760E+04  0.7818609E-02  0.8274438E-01
       -2   -1    0    0    0  501  0.00000000000E+00  0.00000000000E+00  0.11030412595E+04  0.11030412595E+04  0.25500000920E-02 0.  1.
        2   -1    0    0  501    0  0.00000000000E+00  0.00000000000E+00 -0.18992122486E+04  0.18992122486E+04  0.25500000920E-02 0. -1.
    10030    2    1    2    0    0  0.00000000000E+00  0.00000000000E+00 -0.79617098909E+03  0.30022535082E+04  0.28947604190E+04 0.  0.
        5    1    3    3  502    0 -0.14121191898E+04 -0.29041335816E+03 -0.53117385640E+03  0.15364206067E+04  0.46999998093E+01 0. -1.
       -5    1    3    3    0  502  0.14121191898E+04  0.29041335816E+03 -0.26499713269E+03  0.14658329015E+04  0.46999998093E+01 0.  1.
</event>
<event>
 5   0  0.1580212E-06  0.2933448E+04  0.7818609E-02  0.8262995E-01
       -1   -1    0    0    0  501  0.00000000000E+00  0.00000000000E+00  0.10113838323E+04  0.10113838324E+04  0.50400001928E-02 0. -1.
        1   -1    0    0  501    0  0.00000000000E+00  0.00000000000E+00 -0.21270645820E+04  0.21270645820E+04  0.50400001928E-02 0.  1.
    10030    2    1    2    0    0  0.00000000000E+00  0.00000000000E+00 -0.11156807497E+04  0.31384484144E+04  0.29334476158E+04 0.  0.
        4    1    3    3  502    0  0.82363087569E+03 -0.70613987812E+03  0.49819291335E+03  0.11938170457E+04  0.12699999809E+01 0. -1.
       -4    1    3    3    0  502 -0.82363087569E+03  0.70613987812E+03 -0.16138736630E+04  0.19446313687E+04  0.12699999809E+01 0.  1.
</event>
<event>
 5   0  0.1550278E-06  0.2873360E+04  0.7818609E-02  0.8280848E-01
       -1   -1    0    0    0  501  0.00000000000E+00  0.00000000000E+00  0.12340663445E+04  0.12340663445E+04  0.50400001928E-02 0.  1.
        1   -1    0    0  501    0  0.00000000000E+00  0.00000000000E+00 -0.16725593021E+04  0.16725593021E+04  0.50400001928E-02 0. -1.
    10030    2    1    2    0    0  0.00000000000E+00  0.00000000000E+00 -0.43849295760E+03  0.29066256465E+04  0.28733598061E+04 0.  0.
        2    1    3    3  502    0  0.29025251245E+03  0.40866194329E+03 -0.15812361066E+04  0.16587823033E+04  0.25500000920E-02 0. -1.
       -2    1    3    3    0  502 -0.29025251245E+03 -0.40866194329E+03  0.11427431490E+04  0.12478433433E+04  0.25500000920E-02 0.  1.
</event>
<event>
 5   0  0.1550278E-06  0.2879351E+04  0.7818609E-02  0.8279048E-01
       -1   -1    0    0    0  501  0.00000000000E+00  0.00000000000E+00  0.91289625403E+03  0.91289625404E+03  0.50400001928E-02 0. -1.
        1   -1    0    0  501    0  0.00000000000E+00  0.00000000000E+00 -0.22704288042E+04  0.22704288042E+04  0.50400001928E-02 0.  1.
    10030    2    1    2    0    0  0.00000000000E+00  0.00000000000E+00 -0.13575325502E+04  0.31833250583E+04  0.28793512814E+04 0.  0.
        2    1    3    3  502    0  0.61349504184E+03  0.79629543498E+03  0.46067034255E+03  0.11057485024E+04  0.25500000920E-02 0.  1.
       -2    1    3    3    0  502 -0.61349504184E+03 -0.79629543498E+03 -0.18182028927E+04  0.20775765558E+04  0.25500000920E-02 0. -1.
</event>
<event>
 5   0  0.1511126E-06  0.2864575E+04  0.7818609E-02  0.8283496E-01
       -1   -1    0    0    0  501  0.00000000000E+00  0.00000000000E+00  0.10776940110E+04  0.10776940110E+04  0.50400001928E-02 0. -1.
        1   -1    0    0  501    0  0.00000000000E+00  0.00000000000E+00 -0.19035525154E+04  0.19035525154E+04  0.50400001928E-02 0.  1.
    10030    2    1    2    0    0  0.00000000000E+00  0.00000000000E+00 -0.82585850436E+03  0.29812465264E+04  0.28645747646E+04 0.  0.
        5    1    3    3  502    0  0.10010996109E+04 -0.56401725903E+03 -0.13028039124E+04  0.17371344287E+04  0.46999998093E+01 0.  1.
       -5    1    3    3    0  502 -0.10010996109E+04  0.56401725903E+03  0.47694540802E+03  0.12441120977E+04  0.46999998093E+01 0. -1.
</event>
<event>
 5   0  0.1580212E-06  0.2902107E+04  0.7818609E-02  0.8272251E-01
        1   -1    0    0  501    0  0.00000000000E+00  0.00000000000E+00  0.18327453847E+04  0.18327453847E+04  0.50400001928E-02 0. -1.
       -1   -1    0    0    0  501  0.00000000000E+00  0.00000000000E+00 -0.11488537093E+04  0.11488537093E+04  0.50400001928E-02 0.  1.
    10030    2    1    2    0    0  0.00000000000E+00  0.00000000000E+00  0.68389167543E+03  0.29815990940E+04  0.29021070507E+04 0.  0.
        4    1    3    3  502    0 -0.10197788463E+04  0.99313738154E+03  0.52659113182E+02  0.14244456287E+04  0.12699999809E+01 0. -1.
       -4    1    3    3    0  502  0.10197788463E+04 -0.99313738154E+03  0.63123256225E+03  0.15571534653E+04  0.12699999809E+01 0.  1.
</event>
<event>
 5   0  0.4162450E-06  0.2889648E+04  0.7818609E-02  0.8275964E-01
       -2   -1    0    0    0  501  0.00000000000E+00  0.00000000000E+00  0.10026930159E+04  0.10026930159E+04  0.25500000920E-02 0. -1.
        2   -1    0    0  501    0  0.00000000000E+00  0.00000000000E+00 -0.20819094768E+04  0.20819094768E+04  0.25500000920E-02 0.  1.
    10030    2    1    2    0    0  0.00000000000E+00  0.00000000000E+00 -0.10792164609E+04  0.30846024926E+04  0.28896477931E+04 0.  0.
        2    1    3    3  502    0 -0.54148693049E+02  0.65192878598E+03  0.83554931675E+03  0.10611719388E+04  0.25500000920E-02 0. -1.
       -2    1    3    3    0  502  0.54148693049E+02 -0.65192878598E+03 -0.19147657777E+04  0.20234305539E+04  0.25500000920E-02 0.  1.
</event>
<event>
 5   0  0.4162450E-06  0.2893471E+04  0.7818609E-02  0.8274823E-01
        2   -1    0    0  501    0  0.00000000000E+00  0.00000000000E+00  0.12666937939E+04  0.12666937939E+04  0.25500000920E-02 0. -1.
       -2   -1    0    0    0  501  0.00000000000E+00  0.00000000000E+00 -0.16523674583E+04  0.16523674583E+04  0.25500000920E-02 0.  1.
    10030    2    1    2    0    0  0.00000000000E+00  0.00000000000E+00 -0.38567366440E+03  0.29190612521E+04  0.28934709983E+04 0.  0.
        2    1    3    3  502    0  0.69141197003E+03 -0.97627971023E+03 -0.10135865786E+04  0.15679701328E+04  0.25500000920E-02 0.  1.
       -2    1    3    3    0  502 -0.69141197003E+03  0.97627971023E+03  0.62791291423E+03  0.13510911193E+04  0.25500000920E-02 0. -1.
</event>
<event>
 5   0  0.4187518E-06  0.2905519E+04  0.7818609E-02  0.8271237E-01
        2   -1    0    0  501    0  0.00000000000E+00  0.00000000000E+00  0.11301167127E+04  0.11301167127E+04  0.25500000920E-02 0.  1.
       -2   -1    0    0    0  501  0.00000000000E+00  0.00000000000E+00 -0.18675147698E+04  0.18675147698E+04  0.25500000920E-02 0. -1.
    10030    2    1    2    0    0  0.00000000000E+00  0.00000000000E+00 -0.73739805703E+03  0.29976314825E+04  0.29055186474E+04 0.  0.
        3    1    3    3  502    0  0.55318072226E+03  0.78576231575E+03 -0.14927713647E+04  0.17753303033E+04  0.10100000352E+00 0. -1.
       -3    1    3    3    0  502 -0.55318072226E+03 -0.78576231575E+03  0.75537330771E+03  0.12223011791E+04  0.10100000352E+00 0.  1.
</event>
<event>
 5   0  0.1602873E-06  0.2913725E+04  0.7818609E-02  0.8268805E-01
       -1   -1    0    0    0  501  0.00000000000E+00  0.00000000000E+00  0.11768806285E+04  0.11768806285E+04  0.50400001928E-02 0.  1.
        1   -1    0    0  501    0  0.00000000000E+00  0.00000000000E+00 -0.18034528667E+04  0.18034528667E+04  0.50400001928E-02 0. -1.
    10030    2    1    2    0    0  0.00000000000E+00  0.00000000000E+00 -0.62657223824E+03  0.29803334952E+04  0.29137252741E+04 0.  0.
        1    1    3    3  502    0  0.10935812271E+04 -0.88247757637E+03 -0.70647198097E+03  0.15728284181E+04  0.50400001928E-02 0. -1.
       -1    1    3    3    0  502 -0.10935812271E+04  0.88247757637E+03  0.79899742732E+02  0.14075050770E+04  0.50400001928E-02 0.  1.
</event>
<event>
 5   0  0.1550278E-06  0.2890771E+04  0.7818609E-02  0.8275629E-01
       -1   -1    0    0    0  501  0.00000000000E+00  0.00000000000E+00  0.77378585272E+03  0.77378585274E+03  0.50400001928E-02 0.  1.
        1   -1    0    0  501    0  0.00000000000E+00  0.00000000000E+00 -0.26998932142E+04  0.26998932142E+04  0.50400001928E-02 0. -1.
    10030    2    1    2    0    0  0.00000000000E+00  0.00000000000E+00 -0.19261073615E+04  0.34736790670E+04  0.28907709512E+04 0.  0.
        2    1    3    3  502    0 -0.45290720063E+03 -0.26916484246E+03 -0.25803995875E+04  0.26336356384E+04  0.25500000920E-02 0. -1.
       -2    1    3    3    0  502  0.45290720063E+03  0.26916484246E+03  0.65429222601E+03  0.84004342853E+03  0.25500000920E-02 0.  1.
</event>
<event>
 5   0  0.1550278E-06  0.2888067E+04  0.7818609E-02  0.8276437E-01
        1   -1    0    0  501    0  0.00000000000E+00  0.00000000000E+00  0.13303892373E+04  0.13303892373E+04  0.50400001928E-02 0.  1.
       -1   -1    0    0    0  501  0.00000000000E+00  0.00000000000E+00 -0.15673852791E+04  0.15673852791E+04  0.50400001928E-02 0. -1.
    10030    2    1    2    0    0  0.00000000000E+00  0.00000000000E+00 -0.23699604185E+03  0.28977745164E+04  0.28880668317E+04 0.  0.
        2    1    3    3  502    0 -0.43728496859E+03 -0.13482263407E+04 -0.39565121880E+03  0.14715543810E+04  0.25500000920E-02 0. -1.
       -2    1    3    3    0  502  0.43728496859E+03  0.13482263407E+04  0.15865517695E+03  0.14262201354E+04  0.25500000920E-02 0.  1.
</event>
<event>
 5   0  0.4187518E-06  0.2889480E+04  0.7818609E-02  0.8276014E-01
        2   -1    0    0  501    0  0.00000000000E+00  0.00000000000E+00  0.21370039052E+04  0.21370039052E+04  0.25500000920E-02 0.  1.
       -2   -1    0    0    0  501  0.00000000000E+00  0.00000000000E+00 -0.97672921168E+03  0.97672921168E+03  0.25500000920E-02 0. -1.
    10030    2    1    2    0    0  0.00000000000E+00  0.00000000000E+00  0.11602746935E+04  0.31137331169E+04  0.28894803267E+04 0.  0.
        3    1    3    3  502    0  0.59411086660E+03 -0.11842554071E+04  0.12009057956E+04  0.17881843672E+04  0.10100000352E+00 0.  1.
       -3    1    3    3    0  502 -0.59411086660E+03  0.11842554071E+04 -0.40631102149E+02  0.13255487496E+04  0.10100000352E+00 0. -1.
</event>
<event>
 5   0  0.4162450E-06  0.3039383E+04  0.7818609E-02  0.8232573E-01
        2   -1    0    0  501    0  0.00000000000E+00  0.00000000000E+00  0.20199383650E+04  0.20199383650E+04  0.25500000920E-02 0.  1.
       -2   -1    0    0    0  501  0.00000000000E+00  0.00000000000E+00 -0.11433331756E+04  0.11433331757E+04  0.25500000920E-02 0. -1.
    10030    2    1    2    0    0  0.00000000000E+00  0.00000000000E+00  0.87660518930E+03  0.31632715406E+04  0.30393831910E+04 0.  0.
        2    1    3    3  502    0 -0.10217550171E+04  0.86368388159E+03 -0.31186115594E+03  0.13737505388E+04  0.25500000920E-02 0. -1.
       -2    1    3    3    0  502  0.10217550171E+04 -0.86368388159E+03  0.11884663452E+04  0.17895210018E+04  0.25500000920E-02 0.  1.
</event>
<event>
 5   0  0.4162450E-06  0.2873944E+04  0.7818609E-02  0.8280672E-01
       -2   -1    0    0    0  501  0.00000000000E+00  0.00000000000E+00  0.12080701507E+04  0.12080701507E+04  0.25500000920E-02 0.  1.
        2   -1    0    0  501    0  0.00000000000E+00  0.00000000000E+00 -0.17092460002E+04  0.17092460002E+04  0.25500000920E-02 0. -1.
    10030    2    1    2    0    0  0.00000000000E+00  0.00000000000E+00 -0.50117584950E+03  0.29173161509E+04  0.28739443788E+04 0.  0.
        2    1    3    3  502    0  0.92153747579E+03  0.28861244885E+03  0.82959551330E+03  0.12730896200E+04  0.25500000920E-02 0.  1.
       -2    1    3    3    0  502 -0.92153747579E+03 -0.28861244885E+03 -0.13307713628E+04  0.16442265309E+04  0.25500000920E-02 0. -1.
</event>
<event>
 5   0  0.1580212E-06  0.2898312E+04  0.7818609E-02  0.8273380E-01
        1   -1    0    0  501    0  0.00000000000E+00  0.00000000000E+00  0.17527227476E+04  0.17527227476E+04  0.50400001928E-02 0.  1.
       -1   -1    0    0    0  501  0.00000000000E+00  0.00000000000E+00 -0.11981661341E+04  0.11981661341E+04  0.50400001928E-02 0. -1.
    10030    2    1    2    0    0  0.00000000000E+00  0.00000000000E+00  0.55455661352E+03  0.29508888817E+04  0.28983119491E+04 0.  0.
        4    1    3    3  502    0  0.39220292381E+03 -0.14470414531E+03 -0.11354403928E+04  0.12099540990E+04  0.12699999809E+01 0. -1.
       -4    1    3    3    0  502 -0.39220292381E+03  0.14470414531E+03  0.16899970064E+04  0.17409347827E+04  0.12699999809E+01 0.  1.
</event>
<event>
 5   0  0.4115143E-06  0.2756532E+04  0.7818609E-02  0.8316892E-01
       -2   -1    0    0    0  501  0.00000000000E+00  0.00000000000E+00  0.10536856844E+04  0.10536856844E+04  0.25500000920E-02 0.  1.
        2   -1    0    0  501    0  0.00000000000E+00  0.00000000000E+00 -0.18028305746E+04  0.18028305746E+04  0.25500000920E-02 0. -1.
    10030    2    1    2    0    0  0.00000000000E+00  0.00000000000E+00 -0.74914489019E+03  0.28565162590E+04  0.27565317106E+04 0.  0.
        1    1    3    3  502    0  0.40445558939E+02 -0.49051188396E+02  0.10521654049E+04  0.10540843902E+04  0.50400001928E-02 0.  1.
       -1    1    3    3    0  502 -0.40445558939E+02  0.49051188396E+02 -0.18013102951E+04  0.18024318688E+04  0.50400001928E-02 0. -1.
</event>
<event>
 5   0  0.4187518E-06  0.3124968E+04  0.7818609E-02  0.8208919E-01
       -2   -1    0    0    0  501  0.00000000000E+00  0.00000000000E+00  0.12853105179E+04  0.12853105179E+04  0.25500000920E-02 0.  1.
        2   -1    0    0  501    0  0.00000000000E+00  0.00000000000E+00 -0.18994288002E+04  0.18994288002E+04  0.25500000920E-02 0. -1.
    10030    2    1    2    0    0  0.00000000000E+00  0.00000000000E+00 -0.61411828229E+03  0.31847393182E+04  0.31249677214E+04 0.  0.
        3    1    3    3  502    0 -0.10339088876E+04 -0.13413361152E+03  0.87898607959E+03  0.13636626973E+04  0.10100000352E+00 0.  1.
       -3    1    3    3    0  502  0.10339088876E+04  0.13413361152E+03 -0.14931043619E+04  0.18210766209E+04  0.10100000352E+00 0. -1.
</event>
<event>
 5   0  0.1550278E-06  0.2902422E+04  0.7818609E-02  0.8272157E-01
        1   -1    0    0  501    0  0.00000000000E+00  0.00000000000E+00  0.20859593753E+04  0.20859593753E+04  0.50400001928E-02 0. -1.
       -1   -1    0    0    0  501  0.00000000000E+00  0.00000000000E+00 -0.10096135192E+04  0.10096135192E+04  0.50400001928E-02 0.  1.
    10030    2    1    2    0    0  0.00000000000E+00  0.00000000000E+00  0.10763458560E+04  0.30955728945E+04  0.29024215999E+04 0.  0.
        2    1    3    3  502    0  0.59449483408E+03  0.13014912596E+04  0.79659734313E+03  0.16376418820E+04  0.25500000920E-02 0. -1.
       -2    1    3    3    0  502 -0.59449483408E+03 -0.13014912596E+04  0.27974851291E+03  0.14579310125E+04  0.25500000920E-02 0.  1.
</event>
<event>
 5   0  0.4187518E-06  0.2901711E+04  0.7818609E-02  0.8272369E-01
       -2   -1    0    0    0  501  0.00000000000E+00  0.00000000000E+00  0.10134032271E+04  0.10134032271E+04  0.25500000920E-02 0.  1.
        2   -1    0    0  501    0  0.00000000000E+00  0.00000000000E+00 -0.20771412961E+04  0.20771412961E+04  0.25500000920E-02 0. -1.
    10030    2    1    2    0    0  0.00000000000E+00  0.00000000000E+00 -0.10637380690E+04  0.30905445233E+04  0.29017110075E+04 0.  0.
        3    1    3    3  502    0 -0.86167869070E+03 -0.87424617781E+03 -0.13556251587E+04  0.18288018281E+04  0.10100000352E+00 0. -1.
       -3    1    3    3    0  502  0.86167869070E+03  0.87424617781E+03  0.29188708972E+03  0.12617426951E+04  0.10100000352E+00 0.  1.
</event>
<event>
 5   0  0.4162450E-06  0.2890766E+04  0.7818609E-02  0.8275630E-01
        2   -1    0    0  501    0  0.00000000000E+00  0.00000000000E+00  0.18873423463E+04  0.18873423463E+04  0.25500000920E-02 0.  1.
       -2   -1    0    0    0  501  0.00000000000E+00  0.00000000000E+00 -0.11069170136E+04  0.11069170136E+04  0.25500000920E-02 0. -1.
    10030    2    1    2    0    0  0.00000000000E+00  0.00000000000E+00  0.78042533279E+03  0.29942593599E+04  0.28907655412E+04 0.  0.
        2    1    3    3  502    0 -0.12968725869E+04  0.22134665216E+03  0.10101885584E+04  0.16587205222E+04  0.25500000920E-02 0. -1.
       -2    1    3    3    0  502  0.12968725869E+04 -0.22134665216E+03 -0.22976322566E+03  0.13355388377E+04  0.25500000920E-02 0.  1.
</event>
<event>
 5   0  0.4148677E-06  0.2915886E+04  0.7818609E-02  0.8268167E-01
        2   -1    0    0  501    0  0.00000000000E+00  0.00000000000E+00  0.14387636100E+04  0.14387636100E+04  0.25500000920E-02 0. -1.
       -2   -1    0    0    0  501  0.00000000000E+00  0.00000000000E+00 -0.14773781612E+04  0.14773781612E+04  0.25500000920E-02 0.  1.
    10030    2    1    2    0    0  0.00000000000E+00  0.00000000000E+00 -0.38614551207E+02  0.29161417711E+04  0.29158860996E+04 0.  0.
        5    1    3    3  502    0  0.10363209128E+04  0.86548644483E+03 -0.56939916301E+03  0.14653550141E+04  0.46999998093E+01 0.  1.
       -5    1    3    3    0  502 -0.10363209128E+04 -0.86548644483E+03  0.53078461180E+03  0.14507867571E+04  0.46999998093E+01 0. -1.
</event>
<event>
 5   0  0.1511126E-06  0.2904562E+04  0.7818609E-02  0.8271522E-01
       -1   -1    0    0    0  501  0.00000000000E+00  0.00000000000E+00  0.16504033245E+04  0.16504033245E+04  0.50400001928E-02 0. -1.
        1   -1    0    0  501    0  0.00000000000E+00  0.00000000000E+00 -0.12779419584E+04  0.12779419584E+04  0.50400001928E-02 0.  1.
    10030    2    1    2    0    0  0.00000000000E+00  0.00000000000E+00  0.37246136606E+03  0.29283452829E+04  0.29045616927E+04 0.  0.
        5    1    3    3  502    0  0.58401361360E+02 -0.10913286117E+04 -0.77799420506E+03  0.13415311889E+04  0.46999998093E+01 0.  1.
       -5    1    3    3    0  502 -0.58401361360E+02  0.10913286117E+04  0.11504555711E+04  0.15868140940E+04  0.46999998093E+01 0. -1.
</event>
<event>
 5   0  0.1511126E-06  0.2897678E+04  0.7818609E-02  0.8273569E-01
       -1   -1    0    0    0  501  0.00000000000E+00  0.00000000000E+00  0.15287513534E+04  0.15287513534E+04  0.50400001928E-02 0.  1.
        1   -1    0    0  501    0  0.00000000000E+00  0.00000000000E+00 -0.13731039463E+04  0.13731039463E+04  0.50400001928E-02 0. -1.
    10030    2    1    2    0    0  0.00000000000E+00  0.00000000000E+00  0.15564740714E+03  0.29018552997E+04  0.28976780471E+04 0.  0.
        5    1    3    3  502    0  0.78010155366E+03 -0.83290858341E+03  0.97175675548E+03  0.14988757201E+04  0.46999998093E+01 0.  1.
       -5    1    3    3    0  502 -0.78010155366E+03  0.83290858341E+03 -0.81610934834E+03  0.14029795796E+04  0.46999998093E+01 0. -1.
</event>
<event>
 5   0  0.4115143E-06  0.3046517E+04  0.7818609E-02  0.8230571E-01
       -2   -1    0    0    0  501  0.00000000000E+00  0.00000000000E+00  0.14382063571E+04  0.14382063571E+04  0.25500000920E-02 0.  1.
        2   -1    0    0  501    0  0.00000000000E+00  0.00000000000E+00 -0.16133401033E+04  0.16133401033E+04  0.25500000920E-02 0. -1.
    10030    2    1    2    0    0  0.00000000000E+00  0.00000000000E+00 -0.17513374618E+03  0.30515464604E+04  0.30465166946E+04 0.  0.
        1    1    3    3  502    0 -0.62383902481E+03  0.13826587890E+04  0.51930917446E+02  0.15177672008E+04  0.50400001928E-02 0.  1.
       -1    1    3    3    0  502  0.62383902481E+03 -0.13826587890E+04 -0.22706466362E+03  0.15337792596E+04  0.50400001928E-02 0. -1.
</event>
<event>
 5   0  0.1580212E-06  0.2866096E+04  0.7818609E-02  0.8283037E-01
       -1   -1    0    0    0  501  0.00000000000E+00  0.00000000000E+00  0.13055007495E+04  0.13055007495E+04  0.50400001928E-02 0.  1.
        1   -1    0    0  501    0  0.00000000000E+00  0.00000000000E+00 -0.15730571103E+04  0.15730571103E+04  0.50400001928E-02 0. -1.
    10030    2    1    2    0    0  0.00000000000E+00  0.00000000000E+00 -0.26755636087E+03  0.28785578598E+04  0.28660964649E+04 0.  0.
        4    1    3    3  502    0  0.14059664861E+04 -0.20745109953E+03  0.50999732136E+02  0.14221041819E+04  0.12699999809E+01 0.  1.
       -4    1    3    3    0  502 -0.14059664861E+04  0.20745109953E+03 -0.31855609300E+03  0.14564536779E+04  0.12699999809E+01 0. -1.
</event>
<event>
 5   0  0.4162450E-06  0.2840633E+04  0.7818609E-02  0.8290763E-01
       -2   -1    0    0    0  501  0.00000000000E+00  0.00000000000E+00  0.15319597795E+04  0.15319597795E+04  0.25500000920E-02 0.  1.
        2   -1    0    0  501    0  0.00000000000E+00  0.00000000000E+00 -0.13168092171E+04  0.13168092171E+04  0.25500000920E-02 0. -1.
    10030    2    1    2    0    0  0.00000000000E+00  0.00000000000E+00  0.21515056235E+03  0.28487689966E+04  0.28406328576E+04 0.  0.
        2    1    3    3  502    0  0.81605787276E+03 -0.86056031886E+03  0.89134059698E+03  0.14835776265E+04  0.25500000920E-02 0.  1.
       -2    1    3    3    0  502 -0.81605787276E+03  0.86056031886E+03 -0.67619003463E+03  0.13651913701E+04  0.25500000920E-02 0. -1.
</event>
<event>
 5   0  0.1602873E-06  0.2895496E+04  0.7818609E-02  0.8274219E-01
        1   -1    0    0  501    0  0.00000000000E+00  0.00000000000E+00  0.15742710911E+04  0.15742710911E+04  0.50400001928E-02 0.  1.
       -1   -1    0    0    0  501  0.00000000000E+00  0.00000000000E+00 -0.13313933551E+04  0.13313933551E+04  0.50400001928E-02 0. -1.
    10030    2    1    2    0    0  0.00000000000E+00  0.00000000000E+00  0.24287773595E+03  0.29056644462E+04  0.28954958607E+04 0.  0.
        1    1    3    3  502    0  0.11401132601E+04  0.88844241674E+03  0.20410471368E+03  0.14597420690E+04  0.50400001928E-02 0. -1.
       -1    1    3    3    0  502 -0.11401132601E+04 -0.88844241674E+03  0.38773022272E+02  0.14459223772E+04  0.50400001928E-02 0.  1.
</event>
<event>
 5   0  0.4224163E-06  0.2906076E+04  0.7818609E-02  0.8271072E-01
       -2   -1    0    0    0  501  0.00000000000E+00  0.00000000000E+00  0.15147953382E+04  0.15147953382E+04  0.25500000920E-02 0.  1.
        2   -1    0    0  501    0  0.00000000000E+00  0.00000000000E+00 -0.13937982019E+04  0.13937982019E+04  0.25500000920E-02 0. -1.
    10030    2    1    2    0    0  0.00000000000E+00  0.00000000000E+00  0.12099713634E+03  0.29085935401E+04  0.29060757172E+04 0.  0.
        4    1    3    3  502    0 -0.85753012271E+03 -0.31671804323E+03 -0.10699263859E+04  0.14072712299E+04  0.12699999809E+01 0. -1.
       -4    1    3    3    0  502  0.85753012271E+03  0.31671804323E+03  0.11909235223E+04  0.15013223102E+04  0.12699999809E+01 0.  1.
</event>
<event>
 5   0  0.1580212E-06  0.2590678E+04  0.7818609E-02  0.8371374E-01
        1   -1    0    0  501    0  0.00000000000E+00  0.00000000000E+00  0.20534694008E+04  0.20534694008E+04  0.50400001928E-02 0.  1.
       -1   -1    0    0    0  501  0.00000000000E+00  0.00000000000E+00 -0.81710675302E+03  0.81710675304E+03  0.50400001928E-02 0. -1.
    10030    2    1    2    0    0  0.00000000000E+00  0.00000000000E+00  0.12363626478E+04  0.28705761539E+04  0.25906784552E+04 0.  0.
        4    1    3    3  502    0  0.62181521437E+03  0.67408606501E+03  0.16318147069E+04  0.18718619165E+04  0.12699999809E+01 0.  1.
       -4    1    3    3    0  502 -0.62181521437E+03 -0.67408606501E+03 -0.39545205915E+03  0.99871423733E+03  0.12699999809E+01 0. -1.
</event>
<event>
 5   0  0.1360125E-06  0.2679766E+04  0.7818609E-02  0.8341600E-01
        4   -1    0    0  501    0  0.00000000000E+00  0.00000000000E+00  0.15292233134E+04  0.15292238407E+04  0.12699999809E+01 0. -1.
       -4   -1    0    0    0  501  0.00000000000E+00  0.00000000000E+00 -0.11739844817E+04  0.11739851687E+04  0.12699999809E+01 0.  1.
    10030    2    1    2    0    0  0.00000000000E+00  0.00000000000E+00  0.35523883165E+03  0.27032090094E+04  0.26797657213E+04 0.  0.
        3    1    3    3  502    0  0.98452187813E+01 -0.55175478229E+03  0.14092658473E+04  0.15134597803E+04  0.10100000352E+00 0. -1.
       -3    1    3    3    0  502 -0.98452187813E+01  0.55175478229E+03 -0.10540270156E+04  0.11897492291E+04  0.10100000352E+00 0.  1.
</event>
<event>
 5   0  0.1580212E-06  0.2871030E+04  0.7818609E-02  0.8281549E-01
        1   -1    0    0  501    0  0.00000000000E+00  0.00000000000E+00  0.34718219793E+04  0.34718219793E+04  0.50400001928E-02 0.  1.
       -1   -1    0    0    0  501  0.00000000000E+00  0.00000000000E+00 -0.59355100589E+03  0.59355100591E+03  0.50400001928E-02 0. -1.
    10030    2    1    2    0    0  0.00000000000E+00  0.00000000000E+00  0.28782709734E+04  0.40653729852E+04  0.28710300787E+04 0.  0.
        4    1    3    3  502    0 -0.11561933989E+04 -0.17639781294E+03  0.26177379983E+04  0.28671332729E+04  0.12699999809E+01 0.  1.
       -4    1    3    3    0  502  0.11561933989E+04  0.17639781294E+03  0.26053297517E+03  0.11982397123E+04  0.12699999809E+01 0. -1.
</event>
<event>
 5   0  0.1511126E-06  0.2874332E+04  0.7818609E-02  0.8280556E-01
        1   -1    0    0  501    0  0.00000000000E+00  0.00000000000E+00  0.21250881941E+04  0.21250881941E+04  0.50400001928E-02 0. -1.
       -1   -1    0    0    0  501  0.00000000000E+00  0.00000000000E+00 -0.97193438986E+03  0.97193438987E+03  0.50400001928E-02 0.  1.
    10030    2    1    2    0    0  0.00000000000E+00  0.00000000000E+00  0.11531538043E+04  0.30970225840E+04  0.28743321293E+04 0.  0.
        5    1    3    3  502    0  0.47605905383E+03  0.69009967233E+03 -0.68114421389E+03  0.10802079941E+04  0.46999998093E+01 0.  1.
       -5    1    3    3    0  502 -0.47605905383E+03 -0.69009967233E+03  0.18342980181E+04  0.20168145899E+04  0.46999998093E+01 0. -1.
</event>
<event>
 5   0  0.4115143E-06  0.2862091E+04  0.7818609E-02  0.8284247E-01
       -2   -1    0    0    0  501  0.00000000000E+00  0.00000000000E+00  0.86371023929E+03  0.86371023929E+03  0.25500000920E-02 0.  1.
        2   -1    0    0  501    0  0.00000000000E+00  0.00000000000E+00 -0.23710402841E+04  0.23710402841E+04  0.25500000920E-02 0. -1.
    10030    2    1    2    0    0  0.00000000000E+00  0.00000000000E+00 -0.15073300448E+04  0.32347505234E+04  0.28620913830E+04 0.  0.
        1    1    3    3  502    0 -0.10680393254E+04 -0.86725285237E+03 -0.11987079960E+04  0.18247565236E+04  0.50400001928E-02 0. -1.
       -1    1    3    3    0  502  0.10680393254E+04  0.86725285237E+03 -0.30862204880E+03  0.14099939998E+04  0.50400001928E-02 0.  1.
</event>
<event>
 5   0  0.1511126E-06  0.2905324E+04  0.7818609E-02  0.8271295E-01
       -1   -1    0    0    0  501  0.00000000000E+00  0.00000000000E+00  0.13593787781E+04  0.13593787781E+04  0.50400001928E-02 0. -1.
        1   -1    0    0  501    0  0.00000000000E+00  0.00000000000E+00 -0.15523459978E+04  0.15523459978E+04  0.50400001928E-02 0.  1.
    10030    2    1    2    0    0  0.00000000000E+00  0.00000000000E+00 -0.19296721974E+03  0.29117247759E+04  0.29053235315E+04 0.  0.
        5    1    3    3  502    0 -0.57167963626E+03 -0.65541154728E+03  0.10696186527E+04  0.13785819000E+04  0.46999998093E+01 0. -1.
       -5    1    3    3    0  502  0.57167963626E+03  0.65541154728E+03 -0.12625858724E+04  0.15331428759E+04  0.46999998093E+01 0.  1.
</event>
<event>
 5   0  0.4115143E-06  0.2815538E+04  0.7818609E-02  0.8298461E-01
       -2   -1    0    0    0  501  0.00000000000E+00  0.00000000000E+00  0.11468373458E+04  0.11468373458E+04  0.25500000920E-02 0.  1.
        2   -1    0    0  501    0  0.00000000000E+00  0.00000000000E+00 -0.17280686342E+04  0.17280686342E+04  0.25500000920E-02 0. -1.
    10030    2    1    2    0    0  0.00000000000E+00  0.00000000000E+00 -0.58123128837E+03  0.28749059799E+04  0.28155380628E+04 0.  0.
        1    1    3    3  502    0 -0.11798229987E+04  0.93306935017E+02 -0.10690053438E+04  0.15948231618E+04  0.50400001928E-02 0. -1.
       -1    1    3    3    0  502  0.11798229987E+04 -0.93306935017E+02  0.48777405539E+03  0.12800828182E+04  0.50400001928E-02 0.  1.
</event>
<event>
 5   0  0.1543678E-06  0.2911305E+04  0.7818609E-02  0.8269522E-01
        1   -1    0    0  501    0  0.00000000000E+00  0.00000000000E+00  0.27808418084E+04  0.27808418084E+04  0.50400001928E-02 0.  1.
       -1   -1    0    0    0  501  0.00000000000E+00  0.00000000000E+00 -0.76197208792E+03  0.76197208794E+03  0.50400001928E-02 0. -1.
    10030    2    1    2    0    0  0.00000000000E+00  0.00000000000E+00  0.20188697205E+04  0.35428138964E+04  0.29113047515E+04 0.  0.
        3    1    3    3  502    0 -0.13380490001E+04 -0.26731138733E+03  0.39240515802E+03  0.14197930563E+04  0.10100000352E+00 0. -1.
       -3    1    3    3    0  502  0.13380490001E+04  0.26731138733E+03  0.16264645625E+04  0.21230208401E+04  0.10100000352E+00 0.  1.
</event>
<event>
 5   0  0.1511126E-06  0.2877114E+04  0.7818609E-02  0.8279720E-01
        1   -1    0    0  501    0  0.00000000000E+00  0.00000000000E+00  0.83399035543E+03  0.83399035545E+03  0.50400001928E-02 0.  1.
       -1   -1    0    0    0  501  0.00000000000E+00  0.00000000000E+00 -0.24813785417E+04  0.24813785417E+04  0.50400001928E-02 0. -1.
    10030    2    1    2    0    0  0.00000000000E+00  0.00000000000E+00 -0.16473881863E+04  0.33153688972E+04  0.28771136731E+04 0.  0.
        5    1    3    3  502    0 -0.68330271948E+03 -0.69222798042E+03 -0.20450176656E+04  0.22645532729E+04  0.46999998093E+01 0. -1.
       -5    1    3    3    0  502  0.68330271948E+03  0.69222798042E+03  0.39762947932E+03  0.10508156242E+04  0.46999998093E+01 0.  1.
</event>
<event>
 5   0  0.4224163E-06  0.2893714E+04  0.7818609E-02  0.8274750E-01
       -2   -1    0    0    0  501  0.00000000000E+00  0.00000000000E+00  0.15665367842E+04  0.15665367843E+04  0.25500000920E-02 0. -1.
        2   -1    0    0  501    0  0.00000000000E+00  0.00000000000E+00 -0.13363200412E+04  0.13363200412E+04  0.25500000920E-02 0.  1.
    10030    2    1    2    0    0  0.00000000000E+00  0.00000000000E+00  0.23021674304E+03  0.29028568255E+04  0.28937135312E+04 0.  0.
        4    1    3    3  502    0 -0.12005794055E+04 -0.37146866944E+03 -0.60410397633E+03  0.13943898696E+04  0.12699999809E+01 0.  1.
       -4    1    3    3    0  502  0.12005794055E+04  0.37146866944E+03  0.83432071936E+03  0.15084669559E+04  0.12699999809E+01 0. -1.
</event>
<event>
 5   0  0.4162450E-06  0.2874620E+04  0.7818609E-02  0.8280469E-01
       -2   -1    0    0    0  501  0.00000000000E+00  0.00000000000E+00  0.19498983966E+04  0.19498983966E+04  0.25500000920E-02 0.  1.
        2   -1    0    0  501    0  0.00000000000E+00  0.00000000000E+00 -0.10594702693E+04  0.10594702693E+04  0.25500000920E-02 0. -1.
    10030    2    1    2    0    0  0.00000000000E+00  0.00000000000E+00  0.89042812735E+03  0.30093686659E+04  0.28746195430E+04 0.  0.
        2    1    3    3  502    0 -0.62000752088E+03  0.46798406876E+03 -0.82078735616E+03  0.11300930486E+04  0.25500000920E-02 0. -1.
       -2    1    3    3    0  502  0.62000752088E+03 -0.46798406876E+03  0.17112154835E+04  0.18792756172E+04  0.25500000920E-02 0.  1.
</event>
<event>
 5   0  0.1602873E-06  0.2897964E+04  0.7818609E-02  0.8273483E-01
        1   -1    0    0  501    0  0.00000000000E+00  0.00000000000E+00  0.16327728295E+04  0.16327728295E+04  0.50400001928E-02 0. -1.
       -1   -1    0    0    0  501  0.00000000000E+00  0.00000000000E+00 -0.12858795470E+04  0.12858795471E+04  0.50400001928E-02 0.  1.
    10030    2    1    2    0    0  0.00000000000E+00  0.00000000000E+00  0.34689328244E+03  0.29186523766E+04  0.28979642416E+04 0.  0.
        1    1    3    3  502    0  0.43692220786E+03  0.91231052317E+03  0.12183199169E+04  0.15835134753E+04  0.50400001928E-02 0. -1.
       -1    1    3    3    0  502 -0.43692220786E+03 -0.91231052317E+03 -0.87142663448E+03  0.13351389013E+04  0.50400001928E-02 0.  1.
</event>
<event>
 5   0  0.4148677E-06  0.2902812E+04  0.7818609E-02  0.8272041E-01
       -2   -1    0    0    0  501  0.00000000000E+00  0.00000000000E+00  0.10472449702E+04  0.10472449702E+04  0.25500000920E-02 0. -1.
        2   -1    0    0  501    0  0.00000000000E+00  0.00000000000E+00 -0.20115444666E+04  0.20115444666E+04  0.25500000920E-02 0.  1.
    10030    2    1    2    0    0  0.00000000000E+00  0.00000000000E+00 -0.96429949643E+03  0.30587894368E+04  0.29028123088E+04 0.  0.
        5    1    3    3  502    0  0.37060254988E+03 -0.12613336781E+04  0.16591653445E+03  0.13250884061E+04  0.46999998093E+01 0.  1.
       -5    1    3    3    0  502 -0.37060254988E+03  0.12613336781E+04 -0.11302160309E+04  0.17337010307E+04  0.46999998093E+01 0. -1.
</event>
<event>
 5   0  0.1602873E-06  0.2876013E+04  0.7818609E-02  0.8280050E-01
       -1   -1    0    0    0  501  0.00000000000E+00  0.00000000000E+00  0.11460893454E+04  0.11460893454E+04  0.50400001928E-02 0.  1.
        1   -1    0    0  501    0  0.00000000000E+00  0.00000000000E+00 -0.18042775464E+04  0.18042775464E+04  0.50400001928E-02 0. -1.
    10030    2    1    2    0    0  0.00000000000E+00  0.00000000000E+00 -0.65818820100E+03  0.29503668917E+04  0.28760134019E+04 0.  0.
        1    1    3    3  502    0 -0.13356119180E+04 -0.11859490084E+03 -0.86208304403E+03  0.15940862965E+04  0.50400001928E-02 0.  1.
       -1    1    3    3    0  502  0.13356119180E+04  0.11859490084E+03  0.20389484303E+03  0.13562805952E+04  0.50400001928E-02 0. -1.
</event>
<event>
 5   0  0.4224163E-06  0.2908115E+04  0.7818609E-02  0.8270467E-01
        2   -1    0    0  501    0  0.00000000000E+00  0.00000000000E+00  0.78090635681E+03  0.78090635681E+03  0.25500000920E-02 0. -1.
       -2   -1    0    0    0  501  0.00000000000E+00  0.00000000000E+00 -0.27074725617E+04  0.27074725617E+04  0.25500000920E-02 0.  1.
    10030    2    1    2    0    0  0.00000000000E+00  0.00000000000E+00 -0.19265662049E+04  0.34883789185E+04  0.29081145330E+04 0.  0.
        4    1    3    3  502    0  0.11577872570E+04  0.55691631539E+03 -0.14649564278E+03  0.12930930752E+04  0.12699999809E+01 0. -1.
       -4    1    3    3    0  502 -0.11577872570E+04 -0.55691631539E+03 -0.17800705621E+04  0.21952858433E+04  0.12699999809E+01 0.  1.
</event>
<event>
 5   0  0.1550278E-06  0.2910040E+04  0.7818609E-02  0.8269896E-01
        1   -1    0    0  501    0  0.00000000000E+00  0.00000000000E+00  0.14056215227E+04  0.14056215228E+04  0.50400001928E-02 0. -1.
       -1   -1    0    0    0  501  0.00000000000E+00  0.00000000000E+00 -0.15061548117E+04  0.15061548117E+04  0.50400001928E-02 0.  1.
    10030    2    1    2    0    0  0.00000000000E+00  0.00000000000E+00 -0.10053328895E+03  0.29117763345E+04  0.29100402883E+04 0.  0.
        2    1    3    3  502    0 -0.11364336238E+04  0.66807624691E+03  0.56595493313E+03  0.14346122261E+04  0.25500000920E-02 0. -1.
       -2    1    3    3    0  502  0.11364336238E+04 -0.66807624691E+03 -0.66648822208E+03  0.14771641084E+04  0.25500000920E-02 0.  1.
</event>
<event>
 5   0  0.1550278E-06  0.2885552E+04  0.7818609E-02  0.8277189E-01
        1   -1    0    0  501    0  0.00000000000E+00  0.00000000000E+00  0.10396121478E+04  0.10396121478E+04  0.50400001928E-02 0. -1.
       -1   -1    0    0    0  501  0.00000000000E+00  0.00000000000E+00 -0.20022877717E+04  0.20022877717E+04  0.50400001928E-02 0.  1.
    10030    2    1    2    0    0  0.00000000000E+00  0.00000000000E+00 -0.96267562397E+03  0.30418999195E+04  0.28855520725E+04 0.  0.
        2    1    3    3  502    0  0.54766486266E+02  0.17370070321E+03  0.10274449599E+04  0.10434627199E+04  0.25500000920E-02 0. -1.
       -2    1    3    3    0  502 -0.54766486266E+02 -0.17370070321E+03 -0.19901205838E+04  0.19984371996E+04  0.25500000920E-02 0.  1.
</event>
<event>
 5   0  0.4162450E-06  0.2875094E+04  0.7818609E-02  0.8280327E-01
        2   -1    0    0  501    0  0.00000000000E+00  0.00000000000E+00  0.15791096371E+04  0.15791096371E+04  0.25500000920E-02 0. -1.
       -2   -1    0    0    0  501  0.00000000000E+00  0.00000000000E+00 -0.13086749251E+04  0.13086749251E+04  0.25500000920E-02 0.  1.
    10030    2    1    2    0    0  0.00000000000E+00  0.00000000000E+00  0.27043471200E+03  0.28877845621E+04  0.28750938669E+04 0.  0.
        2    1    3    3  502    0 -0.39865291230E+03  0.17023699616E+03 -0.12414662138E+04  0.13149688740E+04  0.25500000920E-02 0.  1.
       -2    1    3    3    0  502  0.39865291230E+03 -0.17023699616E+03  0.15119009258E+04  0.15728156882E+04  0.25500000920E-02 0. -1.
</event>
<event>
 5   0  0.1360125E-06  0.2893332E+04  0.7818609E-02  0.8274864E-01
       -3   -1    0    0    0  501  0.00000000000E+00  0.00000000000E+00  0.14946045058E+04  0.14946045092E+04  0.10100000352E+00 0. -1.
        3   -1    0    0  501    0  0.00000000000E+00  0.00000000000E+00 -0.14002654026E+04  0.14002654062E+04  0.10100000352E+00 0.  1.
    10030    2    1    2    0    0  0.00000000000E+00  0.00000000000E+00  0.94339103190E+02  0.28948699154E+04  0.28933323281E+04 0.  0.
        2    1    3    3  502    0 -0.15663872977E+03  0.49206092916E+03  0.13992512107E+04  0.14914971004E+04  0.25500000920E-02 0. -1.
       -2    1    3    3    0  502  0.15663872977E+03 -0.49206092916E+03 -0.13049121075E+04  0.14033728151E+04  0.25500000920E-02 0.  1.
</event>
<event>
 5   0  0.1602873E-06  0.2880381E+04  0.7818609E-02  0.8278739E-01
        1   -1    0    0  501    0  0.00000000000E+00  0.00000000000E+00  0.14185463721E+04  0.14185463721E+04  0.50400001928E-02 0.  1.
       -1   -1    0    0    0  501  0.00000000000E+00  0.00000000000E+00 -0.14621645647E+04  0.14621645647E+04  0.50400001928E-02 0. -1.
    10030    2    1    2    0    0  0.00000000000E+00  0.00000000000E+00 -0.43618192588E+02  0.28807109369E+04  0.28803806962E+04 0.  0.
        1    1    3    3  502    0  0.68993837214E+03 -0.12581145966E+04 -0.14543938177E+03  0.14422274124E+04  0.50400001928E-02 0.  1.
       -1    1    3    3    0  502 -0.68993837214E+03  0.12581145966E+04  0.10182118918E+03  0.14384835244E+04  0.50400001928E-02 0. -1.
</event>
<event>
 5   0  0.1511126E-06  0.2819285E+04  0.7818609E-02  0.8297306E-01
        1   -1    0    0  501    0  0.00000000000E+00  0.00000000000E+00  0.12802199017E+04  0.12802199017E+04  0.50400001928E-02 0.  1.
       -1   -1    0    0    0  501  0.00000000000E+00  0.00000000000E+00 -0.15521494430E+04  0.15521494430E+04  0.50400001928E-02 0. -1.
    10030    2    1    2    0    0  0.00000000000E+00  0.00000000000E+00 -0.27192954129E+03  0.28323693447E+04  0.28192854466E+04 0.  0.
        5    1    3    3  502    0 -0.78613530167E+03 -0.11699461180E+04 -0.11891883089E+03  0.14145481292E+04  0.46999998093E+01 0.  1.
       -5    1    3    3    0  502  0.78613530167E+03  0.11699461180E+04 -0.15301071040E+03  0.14178212155E+04  0.46999998093E+01 0. -1.
</event>
<event>
 5   0  0.4162450E-06  0.2934732E+04  0.7818609E-02  0.8262618E-01
        2   -1    0    0  501    0  0.00000000000E+00  0.00000000000E+00  0.12280796763E+04  0.12280796763E+04  0.25500000920E-02 0.  1.
       -2   -1    0    0    0  501  0.00000000000E+00  0.00000000000E+00 -0.17532757134E+04  0.17532757134E+04  0.25500000920E-02 0. -1.
    10030    2    1    2    0    0  0.00000000000E+00  0.00000000000E+00 -0.52519603716E+03  0.29813553897E+04  0.29347315179E+04 0.  0.
        2    1    3    3  502    0 -0.12998648441E+04  0.16712248242E+03 -0.93307087289E+03  0.16087882990E+04  0.25500000920E-02 0. -1.
       -2    1    3    3    0  502  0.12998648441E+04 -0.16712248242E+03  0.40787483573E+03  0.13725670908E+04  0.25500000920E-02 0.  1.
</event>
<event>
 5   0  0.4162450E-06  0.2895073E+04  0.7818609E-02  0.8274345E-01
        2   -1    0    0  501    0  0.00000000000E+00  0.00000000000E+00  0.13193770922E+04  0.13193770922E+04  0.25500000920E-02 0.  1.
       -2   -1    0    0    0  501  0.00000000000E+00  0.00000000000E+00 -0.15881452295E+04  0.15881452295E+04  0.25500000920E-02 0. -1.
    10030    2    1    2    0    0  0.00000000000E+00  0.00000000000E+00 -0.26876813725E+03  0.29075223217E+04  0.28950733565E+04 0.  0.
        2    1    3    3  502    0 -0.78772269950E+03  0.63400552274E+03  0.90587513201E+03  0.13576007546E+04  0.25500000920E-02 0.  1.
       -2    1    3    3    0  502  0.78772269950E+03 -0.63400552274E+03 -0.11746432693E+04  0.15499215671E+04  0.25500000920E-02 0. -1.
</event>
<event>
 5   0  0.1602873E-06  0.2894322E+04  0.7818609E-02  0.8274569E-01
       -1   -1    0    0    0  501  0.00000000000E+00  0.00000000000E+00  0.15429024067E+04  0.15429024067E+04  0.50400001928E-02 0.  1.
        1   -1    0    0  501    0  0.00000000000E+00  0.00000000000E+00 -0.13573603474E+04  0.13573603474E+04  0.50400001928E-02 0. -1.
    10030    2    1    2    0    0  0.00000000000E+00  0.00000000000E+00  0.18554205929E+03  0.29002627541E+04  0.28943217145E+04 0.  0.
        1    1    3    3  502    0  0.12767806375E+04 -0.55842225532E+03  0.48379032991E+03  0.14751465334E+04  0.50400001928E-02 0.  1.
       -1    1    3    3    0  502 -0.12767806375E+04  0.55842225532E+03 -0.29824827062E+03  0.14251162207E+04  0.50400001928E-02 0. -1.
</event>
<event>
 5   0  0.4187518E-06  0.2896652E+04  0.7818609E-02  0.8273874E-01
        2   -1    0    0  501    0  0.00000000000E+00  0.00000000000E+00  0.19143467638E+04  0.19143467638E+04  0.25500000920E-02 0. -1.
       -2   -1    0    0    0  501  0.00000000000E+00  0.00000000000E+00 -0.10957517024E+04  0.10957517024E+04  0.25500000920E-02 0.  1.
    10030    2    1    2    0    0  0.00000000000E+00  0.00000000000E+00  0.81859506137E+03  0.30100984662E+04  0.28966523612E+04 0.  0.
        3    1    3    3  502    0 -0.13791402285E+03 -0.46658354927E+03  0.18268826232E+04  0.18905609261E+04  0.10100000352E+00 0. -1.
       -3    1    3    3    0  502  0.13791402285E+03  0.46658354927E+03 -0.10082875618E+04  0.11195375401E+04  0.10100000352E+00 0.  1.
</event>
<event>
 5   0  0.4187518E-06  0.2861942E+04  0.7818609E-02  0.8284292E-01
       -2   -1    0    0    0  501  0.00000000000E+00  0.00000000000E+00  0.12263414118E+04  0.12263414118E+04  0.25500000920E-02 0. -1.
        2   -1    0    0  501    0  0.00000000000E+00  0.00000000000E+00 -0.16697453349E+04  0.16697453349E+04  0.25500000920E-02 0.  1.
    10030    2    1    2    0    0  0.00000000000E+00  0.00000000000E+00 -0.44340392313E+03  0.28960867467E+04  0.28619418942E+04 0.  0.
        3    1    3    3  502    0 -0.91107259608E+03  0.21079924330E+03 -0.13177626601E+04  0.16158552023E+04  0.10100000352E+00 0.  1.
       -3    1    3    3    0  502  0.91107259608E+03 -0.21079924330E+03  0.87435873694E+03  0.12802315444E+04  0.10100000352E+00 0. -1.
</event>
<event>
 5   0  0.4224163E-06  0.2905529E+04  0.7818609E-02  0.8271234E-01
        2   -1    0    0  501    0  0.00000000000E+00  0.00000000000E+00  0.12186213685E+04  0.12186213685E+04  0.25500000920E-02 0. -1.
       -2   -1    0    0    0  501  0.00000000000E+00  0.00000000000E+00 -0.17318957131E+04  0.17318957131E+04  0.25500000920E-02 0.  1.
    10030    2    1    2    0    0  0.00000000000E+00  0.00000000000E+00 -0.51327434459E+03  0.29505170817E+04  0.29055292971E+04 0.  0.
        4    1    3    3  502    0 -0.26144413778E+03  0.17229027242E+03 -0.16972237570E+04  0.17258641515E+04  0.12699999809E+01 0.  1.
       -4    1    3    3    0  502  0.26144413778E+03 -0.17229027242E+03  0.11839494125E+04  0.12246529301E+04  0.12699999809E+01 0. -1.
</event>
<event>
 5   0  0.1580212E-06  0.2907374E+04  0.7818609E-02  0.8270687E-01
        1   -1    0    0  501    0  0.00000000000E+00  0.00000000000E+00  0.15562790512E+04  0.15562790512E+04  0.50400001928E-02 0. -1.
       -1   -1    0    0    0  501  0.00000000000E+00  0.00000000000E+00 -0.13578578603E+04  0.13578578604E+04  0.50400001928E-02 0.  1.
    10030    2    1    2    0    0  0.00000000000E+00  0.00000000000E+00  0.19842119082E+03  0.29141369115E+04  0.29073738958E+04 0.  0.
        4    1    3    3  502    0  0.42945696686E+03  0.88089906590E+03 -0.97696645923E+03  0.13837924433E+04  0.12699999809E+01 0.  1.
       -4    1    3    3    0  502 -0.42945696686E+03 -0.88089906590E+03  0.11753876501E+04  0.15303444682E+04  0.12699999809E+01 0. -1.
</event>
<event>
 5   0  0.1580212E-06  0.2864828E+04  0.7818609E-02  0.8283420E-01
       -1   -1    0    0    0  501  0.00000000000E+00  0.00000000000E+00  0.15418469873E+04  0.15418469873E+04  0.50400001928E-02 0. -1.
        1   -1    0    0  501    0  0.00000000000E+00  0.00000000000E+00 -0.13307484386E+04  0.13307484386E+04  0.50400001928E-02 0.  1.
    10030    2    1    2    0    0  0.00000000000E+00  0.00000000000E+00  0.21109854870E+03  0.28725954260E+04  0.28648284214E+04 0.  0.
        4    1    3    3  502    0 -0.11880431537E+04  0.65781528681E+03  0.56246151448E+03  0.14698748432E+04  0.12699999809E+01 0. -1.
       -4    1    3    3    0  502  0.11880431537E+04 -0.65781528681E+03 -0.35136296579E+03  0.14027205827E+04  0.12699999809E+01 0.  1.
</event>
<event>
 5   0  0.4148677E-06  0.2900783E+04  0.7818609E-02  0.8272644E-01
       -2   -1    0    0    0  501  0.00000000000E+00  0.00000000000E+00  0.15329458358E+04  0.15329458358E+04  0.25500000920E-02 0.  1.
        2   -1    0    0  501    0  0.00000000000E+00  0.00000000000E+00 -0.13722832264E+04  0.13722832264E+04  0.25500000920E-02 0. -1.
    10030    2    1    2    0    0  0.00000000000E+00  0.00000000000E+00  0.16066260940E+03  0.29052290622E+04  0.29007832442E+04 0.  0.
        5    1    3    3  502    0 -0.13557054301E+04 -0.71345806097E+02 -0.43092763693E+03  0.14243413059E+04  0.46999998093E+01 0. -1.
       -5    1    3    3    0  502  0.13557054301E+04  0.71345806097E+02  0.59159024634E+03  0.14808877563E+04  0.46999998093E+01 0.  1.
</event>
<event>
 5   0  0.1580212E-06  0.2944180E+04  0.7818609E-02  0.8259853E-01
        1   -1    0    0  501    0  0.00000000000E+00  0.00000000000E+00  0.18813201161E+04  0.18813201161E+04  0.50400001928E-02 0.  1.
       -1   -1    0    0    0  501  0.00000000000E+00  0.00000000000E+00 -0.11518766653E+04  0.11518766654E+04  0.50400001928E-02 0. -1.
    10030    2    1    2    0    0  0.00000000000E+00  0.00000000000E+00  0.72944345073E+03  0.30331967814E+04  0.29441798463E+04 0.  0.
        4    1    3    3  502    0 -0.11956899206E+04 -0.22259447249E+03 -0.48970545183E+03  0.13111200280E+04  0.12699999809E+01 0. -1.
       -4    1    3    3    0  502  0.11956899206E+04  0.22259447249E+03  0.12191489026E+04  0.17220767535E+04  0.12699999809E+01 0.  1.
</event>
<event>
 5   0  0.4187518E-06  0.2887950E+04  0.7818609E-02  0.8276472E-01
        2   -1    0    0  501    0  0.00000000000E+00  0.00000000000E+00  0.15948754550E+04  0.15948754550E+04  0.25500000920E-02 0. -1.
       -2   -1    0    0    0  501  0.00000000000E+00  0.00000000000E+00 -0.13073518941E+04  0.13073518941E+04  0.25500000920E-02 0.  1.
    10030    2    1    2    0    0  0.00000000000E+00  0.00000000000E+00  0.28752356098E+03  0.29022273491E+04  0.28879497551E+04 0.  0.
        3    1    3    3  502    0  0.35675024191E+03 -0.11900053488E+04  0.88338951221E+03  0.15243885678E+04  0.10100000352E+00 0. -1.
       -3    1    3    3    0  502 -0.35675024191E+03  0.11900053488E+04 -0.59586595123E+03  0.13778387813E+04  0.10100000352E+00 0.  1.
</event>
<event>
 5   0  0.4148677E-06  0.2920958E+04  0.7818609E-02  0.8266669E-01
        2   -1    0    0  501    0  0.00000000000E+00  0.00000000000E+00  0.15365445852E+04  0.15365445852E+04  0.25500000920E-02 0. -1.
       -2   -1    0    0    0  501  0.00000000000E+00  0.00000000000E+00 -0.13881793503E+04  0.13881793503E+04  0.25500000920E-02 0.  1.
    10030    2    1    2    0    0  0.00000000000E+00  0.00000000000E+00  0.14836523492E+03  0.29247239355E+04  0.29209583797E+04 0.  0.
        5    1    3    3  502    0 -0.10629159171E+04 -0.76730706083E+03 -0.57040733599E+03  0.14296632441E+04  0.46999998093E+01 0. -1.
       -5    1    3    3    0  502  0.10629159171E+04  0.76730706083E+03  0.71877257092E+03  0.14950606915E+04  0.46999998093E+01 0.  1.
</event>
<event>
 5   0  0.1580212E-06  0.2924353E+04  0.7818609E-02  0.8265668E-01
       -1   -1    0    0    0  501  0.00000000000E+00  0.00000000000E+00  0.99604444259E+03  0.99604444260E+03  0.50400001928E-02 0. -1.
        1   -1    0    0  501    0  0.00000000000E+00  0.00000000000E+00 -0.21464502896E+04  0.21464502896E+04  0.50400001928E-02 0.  1.
    10030    2    1    2    0    0  0.00000000000E+00  0.00000000000E+00 -0.11504058470E+04  0.31424947322E+04  0.29243528393E+04 0.  0.
        4    1    3    3  502    0 -0.22494926775E+03  0.13979139276E+04 -0.18302325476E+03  0.14276780613E+04  0.12699999809E+01 0. -1.
       -4    1    3    3    0  502  0.22494926775E+03 -0.13979139276E+04 -0.96738259221E+03  0.17148166709E+04  0.12699999809E+01 0.  1.
</event>
<event>
 5   0  0.1543678E-06  0.2917660E+04  0.7818609E-02  0.8267642E-01
       -1   -1    0    0    0  501  0.00000000000E+00  0.00000000000E+00  0.13526923282E+04  0.13526923282E+04  0.50400001928E-02 0.  1.
        1   -1    0    0  501    0  0.00000000000E+00  0.00000000000E+00 -0.15732956740E+04  0.15732956740E+04  0.50400001928E-02 0. -1.
    10030    2    1    2    0    0  0.00000000000E+00  0.00000000000E+00 -0.22060334579E+03  0.29259880023E+04  0.29176600133E+04 0.  0.
        3    1    3    3  502    0  0.79722826544E+03  0.30158814856E+03  0.10769934395E+04  0.13734785028E+04  0.10100000352E+00 0.  1.
       -3    1    3    3    0  502 -0.79722826544E+03 -0.30158814856E+03 -0.12975967853E+04  0.15525094995E+04  0.10100000352E+00 0. -1.
</event>
<event>
 5   0  0.1580212E-06  0.2921574E+04  0.7818609E-02  0.8266487E-01
        1   -1    0    0  501    0  0.00000000000E+00  0.00000000000E+00  0.12569021765E+04  0.12569021765E+04  0.50400001928E-02 0. -1.
       -1   -1    0    0    0  501  0.00000000000E+00  0.00000000000E+00 -0.16977448097E+04  0.16977448097E+04  0.50400001928E-02 0.  1.
    10030    2    1    2    0    0  0.00000000000E+00  0.00000000000E+00 -0.44084263320E+03  0.29546469862E+04  0.29215743334E+04 0.  0.
        4    1    3    3  502    0  0.11618046261E+04 -0.67532699476E+03 -0.79965354684E+03  0.15637467656E+04  0.12699999809E+01 0.  1.
       -4    1    3    3    0  502 -0.11618046261E+04  0.67532699476E+03  0.35881091363E+03  0.13909002206E+04  0.12699999809E+01 0. -1.
</event>
<event>
 5   0  0.4148677E-06  0.2904124E+04  0.7818609E-02  0.8271652E-01
       -2   -1    0    0    0  501  0.00000000000E+00  0.00000000000E+00  0.19323985991E+04  0.19323985991E+04  0.25500000920E-02 0.  1.
        2   -1    0    0  501    0  0.00000000000E+00  0.00000000000E+00 -0.10911227359E+04  0.10911227359E+04  0.25500000920E-02 0. -1.
    10030    2    1    2    0    0  0.00000000000E+00  0.00000000000E+00  0.84127586325E+03  0.30235213350E+04  0.29041239962E+04 0.  0.
        5    1    3    3  502    0  0.11320961102E+04 -0.90649805712E+03  0.49485422026E+03  0.15324108847E+04  0.46999998093E+01 0.  1.
       -5    1    3    3    0  502 -0.11320961102E+04  0.90649805712E+03  0.34642164299E+03  0.14911104503E+04  0.46999998093E+01 0. -1.
</event>
<event>
 5   0  0.1580212E-06  0.2966249E+04  0.7818609E-02  0.8253435E-01
       -1   -1    0    0    0  501  0.00000000000E+00  0.00000000000E+00  0.14696115654E+04  0.14696115654E+04  0.50400001928E-02 0. -1.
        1   -1    0    0  501    0  0.00000000000E+00  0.00000000000E+00 -0.14967620910E+04  0.14967620911E+04  0.50400001928E-02 0.  1.
    10030    2    1    2    0    0  0.00000000000E+00  0.00000000000E+00 -0.27150525652E+02  0.29663736565E+04  0.29662494027E+04 0.  0.
        4    1    3    3  502    0  0.66470226375E+02 -0.99819456724E+03  0.10813891299E+04  0.14731648747E+04  0.12699999809E+01 0. -1.
       -4    1    3    3    0  502 -0.66470226375E+02  0.99819456724E+03 -0.11085396555E+04  0.14932087817E+04  0.12699999809E+01 0.  1.
</event>
<event>
 5   0  0.1550278E-06  0.3022149E+04  0.7818609E-02  0.8237434E-01
        1   -1    0    0  501    0  0.00000000000E+00  0.00000000000E+00  0.93651995343E+03  0.93651995344E+03  0.50400001928E-02 0.  1.
       -1   -1    0    0    0  501  0.00000000000E+00  0.00000000000E+00 -0.24381176110E+04  0.24381176110E+04  0.50400001928E-02 0. -1.
    10030    2    1    2    0    0  0.00000000000E+00  0.00000000000E+00 -0.15015976576E+04  0.33746375645E+04  0.30221487664E+04 0.  0.
        2    1    3    3  502    0  0.11944959917E+04 -0.51159526821E+03  0.11038347654E+03  0.13041222736E+04  0.25500000920E-02 0.  1.
       -2    1    3    3    0  502 -0.11944959917E+04  0.51159526821E+03 -0.16119811342E+04  0.20705152908E+04  0.25500000920E-02 0. -1.
</event>
<event>
 5   0  0.1360125E-06  0.2894890E+04  0.7818609E-02  0.8274400E-01
       -3   -1    0    0    0  501  0.00000000000E+00  0.00000000000E+00  0.21199046137E+04  0.21199046161E+04  0.10100000352E+00 0. -1.
        3   -1    0    0  501    0  0.00000000000E+00  0.00000000000E+00 -0.98829751133E+03  0.98829751649E+03  0.10100000352E+00 0.  1.
    10030    2    1    2    0    0  0.00000000000E+00  0.00000000000E+00  0.11316071024E+04  0.31082021326E+04  0.28948896115E+04 0.  0.
        2    1    3    3  502    0 -0.29630665911E+03  0.82013968775E+03  0.18062103856E+04  0.20056975596E+04  0.25500000920E-02 0. -1.
       -2    1    3    3    0  502  0.29630665911E+03 -0.82013968775E+03 -0.67460328322E+03  0.11025045730E+04  0.25500000920E-02 0.  1.
</event>
<event>
 5   0  0.4162450E-06  0.2888742E+04  0.7818609E-02  0.8276235E-01
        2   -1    0    0  501    0  0.00000000000E+00  0.00000000000E+00  0.31659260597E+04  0.31659260597E+04  0.25500000920E-02 0. -1.
       -2   -1    0    0    0  501  0.00000000000E+00  0.00000000000E+00 -0.65895655705E+03  0.65895655706E+03  0.25500000920E-02 0.  1.
    10030    2    1    2    0    0  0.00000000000E+00  0.00000000000E+00  0.25069695026E+04  0.38248826167E+04  0.28887421042E+04 0.  0.
        2    1    3    3  502    0  0.26775885957E+03  0.10357972121E+04  0.25383308568E+04  0.27545769566E+04  0.25500000920E-02 0. -1.
       -2    1    3    3    0  502 -0.26775885957E+03 -0.10357972121E+04 -0.31361354159E+02  0.10703056601E+04  0.25500000920E-02 0.  1.
</event>
<event>
 5   0  0.4224163E-06  0.2885786E+04  0.7818609E-02  0.8277119E-01
       -2   -1    0    0    0  501  0.00000000000E+00  0.00000000000E+00  0.17467407835E+04  0.17467407835E+04  0.25500000920E-02 0. -1.
        2   -1    0    0  501    0  0.00000000000E+00  0.00000000000E+00 -0.11919002513E+04  0.11919002513E+04  0.25500000920E-02 0.  1.
    10030    2    1    2    0    0  0.00000000000E+00  0.00000000000E+00  0.55484053219E+03  0.29386410348E+04  0.28857863946E+04 0.  0.
        4    1    3    3  502    0 -0.64573711297E+03  0.11822387937E+04  0.80387478933E+03  0.15687196289E+04  0.12699999809E+01 0. -1.
       -4    1    3    3    0  502  0.64573711297E+03 -0.11822387937E+04 -0.24903425713E+03  0.13699214059E+04  0.12699999809E+01 0.  1.
</event>
<event>
 5   0  0.4187518E-06  0.2891529E+04  0.7818609E-02  0.8275402E-01
        2   -1    0    0  501    0  0.00000000000E+00  0.00000000000E+00  0.18452075258E+04  0.18452075258E+04  0.25500000920E-02 0.  1.
       -2   -1    0    0    0  501  0.00000000000E+00  0.00000000000E+00 -0.11327914541E+04  0.11327914541E+04  0.25500000920E-02 0. -1.
    10030    2    1    2    0    0  0.00000000000E+00  0.00000000000E+00  0.71241607163E+03  0.29779989799E+04  0.28915292261E+04 0.  0.
        3    1    3    3  502    0  0.36525319063E+02 -0.12554529175E+04  0.10936794829E+04  0.16654221532E+04  0.10100000352E+00 0.  1.
       -3    1    3    3    0  502 -0.36525319063E+02  0.12554529175E+04 -0.38126341127E+03  0.13125768267E+04  0.10100000352E+00 0. -1.
</event>
<event>
 5   0  0.1602873E-06  0.2907486E+04  0.7818609E-02  0.8270654E-01
       -1   -1    0    0    0  501  0.00000000000E+00  0.00000000000E+00  0.17954985767E+04  0.17954985767E+04  0.50400001928E-02 0.  1.
        1   -1    0    0  501    0  0.00000000000E+00  0.00000000000E+00 -0.11770371502E+04  0.11770371502E+04  0.50400001928E-02 0. -1.
    10030    2    1    2    0    0  0.00000000000E+00  0.00000000000E+00  0.61846142649E+03  0.29725357269E+04  0.29074858747E+04 0.  0.
        1    1    3    3  502    0 -0.10971794222E+04 -0.62711526716E+02  0.12821697194E+04  0.16886961270E+04  0.50400001928E-02 0.  1.
       -1    1    3    3    0  502  0.10971794222E+04  0.62711526716E+02 -0.66370829289E+03  0.12838395999E+04  0.50400001928E-02 0. -1.
</event>
<event>
 5   0  0.1543678E-06  0.2888402E+04  0.7818609E-02  0.8276337E-01
        1   -1    0    0  501    0  0.00000000000E+00  0.00000000000E+00  0.94385152982E+03  0.94385152984E+03  0.50400001928E-02 0. -1.
       -1   -1    0    0    0  501  0.00000000000E+00  0.00000000000E+00 -0.22097924466E+04  0.22097924466E+04  0.50400001928E-02 0.  1.
    10030    2    1    2    0    0  0.00000000000E+00  0.00000000000E+00 -0.12659409168E+04  0.31536439764E+04  0.28884016212E+04 0.  0.
        3    1    3    3  502    0 -0.11768494991E+04 -0.83252932134E+03 -0.53756076490E+03  0.15385224732E+04  0.10100000352E+00 0. -1.
       -3    1    3    3    0  502  0.11768494991E+04  0.83252932134E+03 -0.72838015186E+03  0.16151215032E+04  0.10100000352E+00 0.  1.
</event>
<event>
 5   0  0.1511126E-06  0.2918626E+04  0.7818609E-02  0.8267357E-01
       -1   -1    0    0    0  501  0.00000000000E+00  0.00000000000E+00  0.12937531021E+04  0.12937531021E+04  0.50400001928E-02 0.  1.
        1   -1    0    0  501    0  0.00000000000E+00  0.00000000000E+00 -0.16460597647E+04  0.16460597647E+04  0.50400001928E-02 0. -1.
    10030    2    1    2    0    0  0.00000000000E+00  0.00000000000E+00 -0.35230666268E+03  0.29398128668E+04  0.29186263391E+04 0.  0.
        5    1    3    3  502    0  0.84031164635E+03  0.10947865654E+04  0.30151643940E+03  0.14126625712E+04  0.46999998093E+01 0.  1.
       -5    1    3    3    0  502 -0.84031164635E+03 -0.10947865654E+04 -0.65382310209E+03  0.15271502957E+04  0.46999998093E+01 0. -1.
</event>
<event>
 5   0  0.1511126E-06  0.2890680E+04  0.7818609E-02  0.8275656E-01
        1   -1    0    0  501    0  0.00000000000E+00  0.00000000000E+00  0.18518211824E+04  0.18518211824E+04  0.50400001928E-02 0. -1.
       -1   -1    0    0    0  501  0.00000000000E+00  0.00000000000E+00 -0.11280825282E+04  0.11280825282E+04  0.50400001928E-02 0.  1.
    10030    2    1    2    0    0  0.00000000000E+00  0.00000000000E+00  0.72373865417E+03  0.29799037106E+04  0.28906795887E+04 0.  0.
        5    1    3    3  502    0 -0.26296281613E+03 -0.14326921809E+03  0.18194825253E+04  0.18439669903E+04  0.46999998093E+01 0. -1.
       -5    1    3    3    0  502  0.26296281613E+03  0.14326921809E+03 -0.10957438711E+04  0.11359367203E+04  0.46999998093E+01 0.  1.
</event>
<event>
 5   0  0.4162450E-06  0.2894261E+04  0.7818609E-02  0.8274587E-01
        2   -1    0    0  501    0  0.00000000000E+00  0.00000000000E+00  0.26412216357E+04  0.26412216357E+04  0.25500000920E-02 0. -1.
       -2   -1    0    0    0  501  0.00000000000E+00  0.00000000000E+00 -0.79288574377E+03  0.79288574378E+03  0.25500000920E-02 0.  1.
    10030    2    1    2    0    0  0.00000000000E+00  0.00000000000E+00  0.18483358920E+04  0.34341073795E+04  0.28942612053E+04 0.  0.
        2    1    3    3  502    0 -0.24108868450E+03 -0.10665902649E+04 -0.20049587712E+03  0.11117270995E+04  0.25500000920E-02 0.  1.
       -2    1    3    3    0  502  0.24108868450E+03  0.10665902649E+04  0.20488317691E+04  0.23223802800E+04  0.25500000920E-02 0. -1.
</event>
<event>
 5   0  0.4162450E-06  0.2906081E+04  0.7818609E-02  0.8271070E-01
       -2   -1    0    0    0  501  0.00000000000E+00  0.00000000000E+00  0.11612134165E+04  0.11612134165E+04  0.25500000920E-02 0. -1.
        2   -1    0    0  501    0  0.00000000000E+00  0.00000000000E+00 -0.18182078639E+04  0.18182078639E+04  0.25500000920E-02 0.  1.
    10030    2    1    2    0    0  0.00000000000E+00  0.00000000000E+00 -0.65699444746E+03  0.29794212804E+04  0.29060814617E+04 0.  0.
        2    1    3    3  502    0  0.37056416919E+03 -0.13113076655E+04  0.18869557401E+03  0.13756640639E+04  0.25500000920E-02 0. -1.
       -2    1    3    3    0  502 -0.37056416919E+03  0.13113076655E+04 -0.84569002148E+03  0.16037572165E+04  0.25500000920E-02 0.  1.
</event>
<event>
 5   0  0.1543678E-06  0.2901165E+04  0.7818609E-02  0.8272531E-01
        1   -1    0    0  501    0  0.00000000000E+00  0.00000000000E+00  0.24306224088E+04  0.24306224088E+04  0.50400001928E-02 0.  1.
       -1   -1    0    0    0  501  0.00000000000E+00  0.00000000000E+00 -0.86569963200E+03  0.86569963202E+03  0.50400001928E-02 0. -1.
    10030    2    1    2    0    0  0.00000000000E+00  0.00000000000E+00  0.15649227768E+04  0.32963220408E+04  0.29011645419E+04 0.  0.
        3    1    3    3  502    0  0.61696156129E+03  0.12980856092E+04  0.10054622808E+04  0.17540302806E+04  0.10100000352E+00 0.  1.
       -3    1    3    3    0  502 -0.61696156129E+03 -0.12980856092E+04  0.55946049599E+03  0.15422917602E+04  0.10100000352E+00 0. -1.
</event>
<event>
 5   0  0.1602873E-06  0.2907038E+04  0.7818609E-02  0.8270787E-01
       -1   -1    0    0    0  501  0.00000000000E+00  0.00000000000E+00  0.13883122967E+04  0.13883122967E+04  0.50400001928E-02 0.  1.
        1   -1    0    0  501    0  0.00000000000E+00  0.00000000000E+00 -0.15217881343E+04  0.15217881343E+04  0.50400001928E-02 0. -1.
    10030    2    1    2    0    0  0.00000000000E+00  0.00000000000E+00 -0.13347583757E+03  0.29101004310E+04  0.29070377911E+04 0.  0.
        1    1    3    3  502    0  0.77968416031E+03 -0.12216699022E+04  0.44430596521E+02  0.14499513156E+04  0.50400001928E-02 0.  1.
       -1    1    3    3    0  502 -0.77968416031E+03  0.12216699022E+04 -0.17790643409E+03  0.14601491153E+04  0.50400001928E-02 0. -1.
</event>
<event>
 5   0  0.4187518E-06  0.2983418E+04  0.7818609E-02  0.8248482E-01
       -2   -1    0    0    0  501  0.00000000000E+00  0.00000000000E+00  0.13338436085E+04  0.13338436085E+04  0.25500000920E-02 0.  1.
        2   -1    0    0  501    0  0.00000000000E+00  0.00000000000E+00 -0.16682585420E+04  0.16682585420E+04  0.25500000920E-02 0. -1.
    10030    2    1    2    0    0  0.00000000000E+00  0.00000000000E+00 -0.33441493351E+03  0.30021021506E+04  0.29834181696E+04 0.  0.
        3    1    3    3  502    0  0.35591378202E+03 -0.10212411605E+04 -0.12010598370E+04  0.16162156014E+04  0.10100000352E+00 0. -1.
       -3    1    3    3    0  502 -0.35591378202E+03  0.10212411605E+04  0.86664490348E+03  0.13858865491E+04  0.10100000352E+00 0.  1.
</event>
<event>
 5   0  0.4148677E-06  0.2568230E+04  0.7818609E-02  0.8379073E-01
        2   -1    0    0  501    0  0.00000000000E+00  0.00000000000E+00  0.27590419635E+04  0.27590419635E+04  0.25500000920E-02 0. -1.
       -2   -1    0    0    0  501  0.00000000000E+00  0.00000000000E+00 -0.59765377010E+03  0.59765377010E+03  0.25500000920E-02 0.  1.
    10030    2    1    2    0    0  0.00000000000E+00  0.00000000000E+00  0.21613881934E+04  0.33566957336E+04  0.25682303879E+04 0.  0.
        5    1    3    3  502    0  0.12581328353E+04  0.24335479665E+02  0.74634719709E+03  0.14630607217E+04  0.46999998093E+01 0.  1.
       -5    1    3    3    0  502 -0.12581328353E+04 -0.24335479665E+02  0.14150409964E+04  0.18936350119E+04  0.46999998093E+01 0. -1.
</event>
<event>
 5   0  0.1550278E-06  0.2854377E+04  0.7818609E-02  0.8286583E-01
       -1   -1    0    0    0  501  0.00000000000E+00  0.00000000000E+00  0.10885034818E+04  0.10885034818E+04  0.50400001928E-02 0. -1.
        1   -1    0    0  501    0  0.00000000000E+00  0.00000000000E+00 -0.18712539020E+04  0.18712539020E+04  0.50400001928E-02 0.  1.
    10030    2    1    2    0    0  0.00000000000E+00  0.00000000000E+00 -0.78275042024E+03  0.29597573838E+04  0.28543765607E+04 0.  0.
        2    1    3    3  502    0 -0.63808278469E+03 -0.62432583550E+03  0.76325822791E+03  0.11745192682E+04  0.25500000920E-02 0. -1.
       -2    1    3    3    0  502  0.63808278469E+03  0.62432583550E+03 -0.15460086481E+04  0.17852381155E+04  0.25500000920E-02 0.  1.
</event>
<event>
 5   0  0.1550278E-06  0.2890695E+04  0.7818609E-02  0.8275651E-01
       -1   -1    0    0    0  501  0.00000000000E+00  0.00000000000E+00  0.11229106723E+04  0.11229106723E+04  0.50400001928E-02 0.  1.
        1   -1    0    0  501    0  0.00000000000E+00  0.00000000000E+00 -0.18603703417E+04  0.18603703417E+04  0.50400001928E-02 0. -1.
    10030    2    1    2    0    0  0.00000000000E+00  0.00000000000E+00 -0.73745966941E+03  0.29832810140E+04  0.28906952182E+04 0.  0.
        2    1    3    3  502    0  0.67296791799E+02 -0.13867432107E+04 -0.78340017856E+03  0.15941459878E+04  0.25500000920E-02 0.  1.
       -2    1    3    3    0  502 -0.67296791799E+02  0.13867432107E+04  0.45940509149E+02  0.13891350262E+04  0.25500000920E-02 0. -1.
</event>
<event>
 5   0  0.1543678E-06  0.2903504E+04  0.7818609E-02  0.8271836E-01
        1   -1    0    0  501    0  0.00000000000E+00  0.00000000000E+00  0.28114477791E+04  0.28114477791E+04  0.50400001928E-02 0.  1.
       -1   -1    0    0    0  501  0.00000000000E+00  0.00000000000E+00 -0.74964376491E+03  0.74964376493E+03  0.50400001928E-02 0. -1.
    10030    2    1    2    0    0  0.00000000000E+00  0.00000000000E+00  0.20618040142E+04  0.35610915440E+04  0.29035042952E+04 0.  0.
        3    1    3    3  502    0 -0.42188921469E+03  0.51535522605E+03 -0.55121167984E+03  0.86453215364E+03  0.10100000352E+00 0. -1.
       -3    1    3    3    0  502  0.42188921469E+03 -0.51535522605E+03  0.26130156940E+04  0.26965593904E+04  0.10100000352E+00 0.  1.
</event>
<event>
 5   0  0.4187518E-06  0.3010402E+04  0.7818609E-02  0.8240767E-01
       -2   -1    0    0    0  501  0.00000000000E+00  0.00000000000E+00  0.11834521580E+04  0.11834521580E+04  0.25500000920E-02 0.  1.
        2   -1    0    0  501    0  0.00000000000E+00  0.00000000000E+00 -0.19144249805E+04  0.19144249805E+04  0.25500000920E-02 0. -1.
    10030    2    1    2    0    0  0.00000000000E+00  0.00000000000E+00 -0.73097282249E+03  0.30978771384E+04  0.30104022152E+04 0.  0.
        3    1    3    3  502    0  0.85921523496E+03 -0.10875535727E+04  0.23860347913E+03  0.14063979608E+04  0.10100000352E+00 0.  1.
       -3    1    3    3    0  502 -0.85921523496E+03  0.10875535727E+04 -0.96957630163E+03  0.16914791777E+04  0.10100000352E+00 0. -1.
</event>
<event>
 5   0  0.1511126E-06  0.3075817E+04  0.7818609E-02  0.8222406E-01
        1   -1    0    0  501    0  0.00000000000E+00  0.00000000000E+00  0.21931707790E+04  0.21931707790E+04  0.50400001928E-02 0.  1.
       -1   -1    0    0    0  501  0.00000000000E+00  0.00000000000E+00 -0.10784216268E+04  0.10784216269E+04  0.50400001928E-02 0. -1.
    10030    2    1    2    0    0  0.00000000000E+00  0.00000000000E+00  0.11147491522E+04  0.32715924059E+04  0.30758171594E+04 0.  0.
        5    1    3    3  502    0 -0.79612045722E+03  0.11747542277E+04 -0.73043628194E+02  0.14209900561E+04  0.46999998093E+01 0. -1.
       -5    1    3    3    0  502  0.79612045722E+03 -0.11747542277E+04  0.11877927804E+04  0.18506023498E+04  0.46999998093E+01 0.  1.
</event>
<event>
 5   0  0.1580212E-06  0.2898693E+04  0.7818609E-02  0.8273266E-01
       -1   -1    0    0    0  501  0.00000000000E+00  0.00000000000E+00  0.13175706677E+04  0.13175706677E+04  0.50400001928E-02 0. -1.
        1   -1    0    0  501    0  0.00000000000E+00  0.00000000000E+00 -0.15943019538E+04  0.15943019538E+04  0.50400001928E-02 0.  1.
    10030    2    1    2    0    0  0.00000000000E+00  0.00000000000E+00 -0.27673128603E+03  0.29118726215E+04  0.28986931468E+04 0.  0.
        4    1    3    3  502    0  0.50793730442E+03  0.79458689591E+03 -0.12439308881E+04  0.15610042625E+04  0.12699999809E+01 0.  1.
       -4    1    3    3    0  502 -0.50793730442E+03 -0.79458689591E+03  0.96719960202E+03  0.13508683590E+04  0.12699999809E+01 0. -1.
</event>
<event>
 5   0  0.4187518E-06  0.2917192E+04  0.7818609E-02  0.8267781E-01
       -2   -1    0    0    0  501  0.00000000000E+00  0.00000000000E+00  0.10748324769E+04  0.10748324769E+04  0.25500000920E-02 0.  1.
        2   -1    0    0  501    0  0.00000000000E+00  0.00000000000E+00 -0.19793809414E+04  0.19793809414E+04  0.25500000920E-02 0. -1.
    10030    2    1    2    0    0  0.00000000000E+00  0.00000000000E+00 -0.90454846449E+03  0.30542134184E+04  0.29171924312E+04 0.  0.
        3    1    3    3  502    0 -0.34120101228E+03  0.40563344865E+03  0.97042927361E+03  0.11057529610E+04  0.10100000352E+00 0.  1.
       -3    1    3    3    0  502  0.34120101228E+03 -0.40563344865E+03 -0.18749777381E+04  0.19484604574E+04  0.10100000352E+00 0. -1.
</event>
<event>
 5   0  0.4148677E-06  0.2921536E+04  0.7818609E-02  0.8266499E-01
       -2   -1    0    0    0  501  0.00000000000E+00  0.00000000000E+00  0.25974245002E+04  0.25974245002E+04  0.25500000920E-02 0. -1.
        2   -1    0    0  501    0  0.00000000000E+00  0.00000000000E+00 -0.82152272241E+03  0.82152272241E+03  0.25500000920E-02 0.  1.
    10030    2    1    2    0    0  0.00000000000E+00  0.00000000000E+00  0.17759017778E+04  0.34189472226E+04  0.29215360663E+04 0.  0.
        5    1    3    3  502    0 -0.31247587252E+03 -0.11907901161E+04  0.18080725471E+04  0.21874118719E+04  0.46999998093E+01 0. -1.
       -5    1    3    3    0  502  0.31247587252E+03  0.11907901161E+04 -0.32170769369E+02  0.12315353507E+04  0.46999998093E+01 0.  1.
</event>
<event>
 5   0  0.4148677E-06  0.2631819E+04  0.7818609E-02  0.8357473E-01
        2   -1    0    0  501    0  0.00000000000E+00  0.00000000000E+00  0.16516919818E+04  0.16516919818E+04  0.25500000920E-02 0. -1.
       -2   -1    0    0    0  501  0.00000000000E+00  0.00000000000E+00 -0.10483899071E+04  0.10483899071E+04  0.25500000920E-02 0.  1.
    10030    2    1    2    0    0  0.00000000000E+00  0.00000000000E+00  0.60330207469E+03  0.27000818890E+04  0.26318185374E+04 0.  0.
        5    1    3    3  502    0  0.11397872278E+03  0.11983423934E+03  0.16409787197E+04  0.16492982273E+04  0.46999998093E+01 0. -1.
       -5    1    3    3    0  502 -0.11397872278E+03 -0.11983423934E+03 -0.10376766450E+04  0.10507836617E+04  0.46999998093E+01 0.  1.
</event>
<event>
 5   0  0.4148677E-06  0.2906767E+04  0.7818609E-02  0.8270867E-01
        2   -1    0    0  501    0  0.00000000000E+00  0.00000000000E+00  0.12868697313E+04  0.12868697313E+04  0.25500000920E-02 0.  1.
       -2   -1    0    0    0  501  0.00000000000E+00  0.00000000000E+00 -0.16414429900E+04  0.16414429900E+04  0.25500000920E-02 0. -1.
    10030    2    1    2    0    0  0.00000000000E+00  0.00000000000E+00 -0.35457325865E+03  0.29283127213E+04  0.29067667946E+04 0.  0.
        5    1    3    3  502    0 -0.11719725951E+04  0.85910971999E+03 -0.20416651332E+03  0.14674110978E+04  0.46999998093E+01 0. -1.
       -5    1    3    3    0  502  0.11719725951E+04 -0.85910971999E+03 -0.15040674532E+03  0.14609016236E+04  0.46999998093E+01 0.  1.
</event>
<event>
 5   0  0.4162450E-06  0.2900984E+04  0.7818609E-02  0.8272585E-01
        2   -1    0    0  501    0  0.00000000000E+00  0.00000000000E+00  0.16874513108E+04  0.16874513108E+04  0.25500000920E-02 0.  1.
       -2   -1    0    0    0  501  0.00000000000E+00  0.00000000000E+00 -0.12468077883E+04  0.12468077883E+04  0.25500000920E-02 0. -1.
    10030    2    1    2    0    0  0.00000000000E+00  0.00000000000E+00  0.44064352245E+03  0.29342590991E+04  0.29009842721E+04 0.  0.
        2    1    3    3  502    0 -0.49919366564E+03  0.63618635836E+03  0.14382931673E+04  0.16500347370E+04  0.25500000920E-02 0.  1.
       -2    1    3    3    0  502  0.49919366564E+03 -0.63618635836E+03 -0.99764964483E+03  0.12842243621E+04  0.25500000920E-02 0. -1.
</event>
<event>
 5   0  0.4224163E-06  0.2882133E+04  0.7818609E-02  0.8278213E-01
        2   -1    0    0  501    0  0.00000000000E+00  0.00000000000E+00  0.18115460600E+04  0.18115460600E+04  0.25500000920E-02 0. -1.
       -2   -1    0    0    0  501  0.00000000000E+00  0.00000000000E+00 -0.11463539004E+04  0.11463539004E+04  0.25500000920E-02 0.  1.
    10030    2    1    2    0    0  0.00000000000E+00  0.00000000000E+00  0.66519215965E+03  0.29578999604E+04  0.28821331625E+04 0.  0.
        4    1    3    3  502    0  0.73781437597E+02  0.63681632729E+03  0.16571415137E+04  0.17768225416E+04  0.12699999809E+01 0. -1.
       -4    1    3    3    0  502 -0.73781437597E+02 -0.63681632729E+03 -0.99194935403E+03  0.11810774188E+04  0.12699999809E+01 0.  1.
</event>
<event>
 5   0  0.4148677E-06  0.2853648E+04  0.7818609E-02  0.8286804E-01
        2   -1    0    0  501    0  0.00000000000E+00  0.00000000000E+00  0.15871085737E+04  0.15871085737E+04  0.25500000920E-02 0.  1.
       -2   -1    0    0    0  501  0.00000000000E+00  0.00000000000E+00 -0.12827264139E+04  0.12827264139E+04  0.25500000920E-02 0. -1.
    10030    2    1    2    0    0  0.00000000000E+00  0.00000000000E+00  0.30438215982E+03  0.28698349876E+04  0.28536475530E+04 0.  0.
        5    1    3    3  502    0 -0.98875954632E+03 -0.99803556462E+03 -0.98388072129E+02  0.14083404175E+04  0.46999998093E+01 0.  1.
       -5    1    3    3    0  502  0.98875954632E+03  0.99803556462E+03  0.40277023195E+03  0.14614945701E+04  0.46999998093E+01 0. -1.
</event>
<event>
 5   0  0.4148677E-06  0.2895553E+04  0.7818609E-02  0.8274202E-01
       -2   -1    0    0    0  501  0.00000000000E+00  0.00000000000E+00  0.10620059663E+04  0.10620059663E+04  0.25500000920E-02 0.  1.
        2   -1    0    0  501    0  0.00000000000E+00  0.00000000000E+00 -0.19736774456E+04  0.19736774456E+04  0.25500000920E-02 0. -1.
    10030    2    1    2    0    0  0.00000000000E+00  0.00000000000E+00 -0.91167147927E+03  0.30356834119E+04  0.28955532962E+04 0.  0.
        5    1    3    3  502    0 -0.81323452319E+03  0.18434515099E+03  0.78495267018E+03  0.11452101592E+04  0.46999998093E+01 0.  1.
       -5    1    3    3    0  502  0.81323452319E+03 -0.18434515099E+03 -0.16966241494E+04  0.18904732526E+04  0.46999998093E+01 0. -1.
</event>
<event>
 5   0  0.4115143E-06  0.2887649E+04  0.7818609E-02  0.8276562E-01
       -2   -1    0    0    0  501  0.00000000000E+00  0.00000000000E+00  0.11175457744E+04  0.11175457744E+04  0.25500000920E-02 0.  1.
        2   -1    0    0  501    0  0.00000000000E+00  0.00000000000E+00 -0.18653640369E+04  0.18653640369E+04  0.25500000920E-02 0. -1.
    10030    2    1    2    0    0  0.00000000000E+00  0.00000000000E+00 -0.74781826252E+03  0.29829098113E+04  0.28876493534E+04 0.  0.
        1    1    3    3  502    0  0.10051884730E+03 -0.12558614338E+04  0.35457712919E+03  0.13088227230E+04  0.50400001928E-02 0.  1.
       -1    1    3    3    0  502 -0.10051884730E+03  0.12558614338E+04 -0.11023953917E+04  0.16740870883E+04  0.50400001928E-02 0. -1.
</event>
<event>
 5   0  0.4115143E-06  0.2822241E+04  0.7818609E-02  0.8296397E-01
       -2   -1    0    0    0  501  0.00000000000E+00  0.00000000000E+00  0.83932330505E+03  0.83932330506E+03  0.25500000920E-02 0. -1.
        2   -1    0    0  501    0  0.00000000000E+00  0.00000000000E+00 -0.23724596689E+04  0.23724596689E+04  0.25500000920E-02 0.  1.
    10030    2    1    2    0    0  0.00000000000E+00  0.00000000000E+00 -0.15331363639E+04  0.32117829740E+04  0.28222407342E+04 0.  0.
        1    1    3    3  502    0  0.75670886445E+02  0.13206233277E+04 -0.13258110867E+04  0.18728446530E+04  0.50400001928E-02 0.  1.
       -1    1    3    3    0  502 -0.75670886445E+02 -0.13206233277E+04 -0.20732527715E+03  0.13389383209E+04  0.50400001928E-02 0. -1.
</event>
<event>
 5   0  0.1550278E-06  0.2906026E+04  0.7818609E-02  0.8271087E-01
       -1   -1    0    0    0  501  0.00000000000E+00  0.00000000000E+00  0.74669855387E+03  0.74669855389E+03  0.50400001928E-02 0. -1.
        1   -1    0    0  501    0  0.00000000000E+00  0.00000000000E+00 -0.28274422601E+04  0.28274422601E+04  0.50400001928E-02 0.  1.
    10030    2    1    2    0    0  0.00000000000E+00  0.00000000000E+00 -0.20807437062E+04  0.35741408140E+04  0.29060261849E+04 0.  0.
        2    1    3    3  502    0  0.13077525313E+04  0.60180124574E+03 -0.12828401487E+04  0.19282272349E+04  0.25500000920E-02 0.  1.
       -2    1    3    3    0  502 -0.13077525313E+04 -0.60180124574E+03 -0.79790355752E+03  0.16459135790E+04  0.25500000920E-02 0. -1.
</event>
<event>
 5   0  0.4187518E-06  0.2902968E+04  0.7818609E-02  0.8271995E-01
        2   -1    0    0  501    0  0.00000000000E+00  0.00000000000E+00  0.16008195842E+04  0.16008195842E+04  0.25500000920E-02 0. -1.
       -2   -1    0    0    0  501  0.00000000000E+00  0.00000000000E+00 -0.13160792542E+04  0.13160792542E+04  0.25500000920E-02 0.  1.
    10030    2    1    2    0    0  0.00000000000E+00  0.00000000000E+00  0.28474032997E+03  0.29168988384E+04  0.29029677535E+04 0.  0.
        3    1    3    3  502    0 -0.65136617945E+03 -0.10416550304E+04 -0.63430906192E+03  0.13826319461E+04  0.10100000352E+00 0.  1.
       -3    1    3    3    0  502  0.65136617945E+03  0.10416550304E+04  0.91904939189E+03  0.15342668924E+04  0.10100000352E+00 0. -1.
</event>
<event>
 5   0  0.1580212E-06  0.2866882E+04  0.7818609E-02  0.8282800E-01
       -1   -1    0    0    0  501  0.00000000000E+00  0.00000000000E+00  0.15369368580E+04  0.15369368580E+04  0.50400001928E-02 0.  1.
        1   -1    0    0  501    0  0.00000000000E+00  0.00000000000E+00 -0.13369145890E+04  0.13369145890E+04  0.50400001928E-02 0. -1.
    10030    2    1    2    0    0  0.00000000000E+00  0.00000000000E+00  0.20002226899E+03  0.28738514471E+04  0.28668821447E+04 0.  0.
        4    1    3    3  502    0  0.77121028528E+03  0.14082148504E+03 -0.11029710597E+04  0.13531972384E+04  0.12699999809E+01 0. -1.
       -4    1    3    3    0  502 -0.77121028528E+03 -0.14082148504E+03  0.13029933287E+04  0.15206542086E+04  0.12699999809E+01 0.  1.
</event>
<event>
 5   0  0.1602873E-06  0.2931456E+04  0.7818609E-02  0.8263580E-01
        1   -1    0    0  501    0  0.00000000000E+00  0.00000000000E+00  0.13068732973E+04  0.13068732973E+04  0.50400001928E-02 0. -1.
       -1   -1    0    0    0  501  0.00000000000E+00  0.00000000000E+00 -0.16438916731E+04  0.16438916731E+04  0.50400001928E-02 0.  1.
    10030    2    1    2    0    0  0.00000000000E+00  0.00000000000E+00 -0.33701837580E+03  0.29507649703E+04  0.29314557006E+04 0.  0.
        1    1    3    3  502    0 -0.83579277035E+03  0.82126158903E+03  0.71782359381E+03  0.13741509613E+04  0.50400001928E-02 0. -1.
       -1    1    3    3    0  502  0.83579277035E+03 -0.82126158903E+03 -0.10548419696E+04  0.15766140090E+04  0.50400001928E-02 0.  1.
</event>
<event>
 5   0  0.1360125E-06  0.2889049E+04  0.7818609E-02  0.8276143E-01
       -3   -1    0    0    0  501  0.00000000000E+00  0.00000000000E+00  0.89195339699E+03  0.89195340271E+03  0.10100000352E+00 0. -1.
        3   -1    0    0  501    0  0.00000000000E+00  0.00000000000E+00 -0.23394162977E+04  0.23394162999E+04  0.10100000352E+00 0.  1.
    10030    2    1    2    0    0  0.00000000000E+00  0.00000000000E+00 -0.14474629007E+04  0.32313697026E+04  0.28890485122E+04 0.  0.
        2    1    3    3  502    0  0.13581161193E+04 -0.25539272455E+03 -0.25324018831E+03  0.14049325358E+04  0.25500000920E-02 0. -1.
       -2    1    3    3    0  502 -0.13581161193E+04  0.25539272455E+03 -0.11942227124E+04  0.18264371667E+04  0.25500000920E-02 0.  1.
</event>
<event>
 5   0  0.4224163E-06  0.2895435E+04  0.7818609E-02  0.8274237E-01
        2   -1    0    0  501    0  0.00000000000E+00  0.00000000000E+00  0.87042693521E+03  0.87042693521E+03  0.25500000920E-02 0.  1.
       -2   -1    0    0    0  501  0.00000000000E+00  0.00000000000E+00 -0.24078831742E+04  0.24078831742E+04  0.25500000920E-02 0. -1.
    10030    2    1    2    0    0  0.00000000000E+00  0.00000000000E+00 -0.15374562390E+04  0.32783101094E+04  0.28954352845E+04 0.  0.
        4    1    3    3  502    0  0.46256091131E+03  0.94080214850E+03  0.36170044097E+03  0.11090086119E+04  0.12699999809E+01 0.  1.
       -4    1    3    3    0  502 -0.46256091131E+03 -0.94080214850E+03 -0.18991566799E+04  0.21693014975E+04  0.12699999809E+01 0. -1.
</event>
<event>
 5   0  0.1580212E-06  0.2901870E+04  0.7818609E-02  0.8272321E-01
        1   -1    0    0  501    0  0.00000000000E+00  0.00000000000E+00  0.25749876537E+04  0.25749876537E+04  0.50400001928E-02 0. -1.
       -1   -1    0    0    0  501  0.00000000000E+00  0.00000000000E+00 -0.81756204927E+03  0.81756204929E+03  0.50400001928E-02 0.  1.
    10030    2    1    2    0    0  0.00000000000E+00  0.00000000000E+00  0.17574256044E+04  0.33925497030E+04  0.29018698682E+04 0.  0.
        4    1    3    3  502    0 -0.64569051681E+03  0.12828604569E+04  0.11199066987E+04  0.18212193229E+04  0.12699999809E+01 0. -1.
       -4    1    3    3    0  502  0.64569051681E+03 -0.12828604569E+04  0.63751890577E+03  0.15713303801E+04  0.12699999809E+01 0.  1.
</event>
<event>
 5   0  0.4162450E-06  0.2889456E+04  0.7818609E-02  0.8276022E-01
        2   -1    0    0  501    0  0.00000000000E+00  0.00000000000E+00  0.13312556435E+04  0.13312556435E+04  0.25500000920E-02 0.  1.
       -2   -1    0    0    0  501  0.00000000000E+00  0.00000000000E+00 -0.15678721684E+04  0.15678721684E+04  0.25500000920E-02 0. -1.
    10030    2    1    2    0    0  0.00000000000E+00  0.00000000000E+00 -0.23661652489E+03  0.28991278119E+04  0.28894557774E+04 0.  0.
        2    1    3    3  502    0 -0.24395028632E+03 -0.12023278220E+04 -0.88383976725E+03  0.15120438710E+04  0.25500000920E-02 0. -1.
       -2    1    3    3    0  502  0.24395028632E+03  0.12023278220E+04  0.64722324235E+03  0.13870839409E+04  0.25500000920E-02 0.  1.
</event>
<event>
 5   0  0.4115143E-06  0.2894419E+04  0.7818609E-02  0.8274540E-01
        2   -1    0    0  501    0  0.00000000000E+00  0.00000000000E+00  0.74640428328E+03  0.74640428328E+03  0.25500000920E-02 0.  1.
       -2   -1    0    0    0  501  0.00000000000E+00  0.00000000000E+00 -0.28060057229E+04  0.28060057229E+04  0.25500000920E-02 0. -1.
    10030    2    1    2    0    0  0.00000000000E+00  0.00000000000E+00 -0.20596014396E+04  0.35524100062E+04  0.28944185533E+04 0.  0.
        1    1    3    3  502    0 -0.10783308682E+04 -0.96513894181E+03 -0.10161308685E+04  0.17682795538E+04  0.50400001928E-02 0. -1.
       -1    1    3    3    0  502  0.10783308682E+04  0.96513894181E+03 -0.10434705711E+04  0.17841304524E+04  0.50400001928E-02 0.  1.
</event>
<event>
 5   0  0.4148677E-06  0.2881711E+04  0.7818609E-02  0.8278340E-01
        2   -1    0    0  501    0  0.00000000000E+00  0.00000000000E+00  0.13670455181E+04  0.13670455181E+04  0.25500000920E-02 0. -1.
       -2   -1    0    0    0  501  0.00000000000E+00  0.00000000000E+00 -0.15186508495E+04  0.15186508495E+04  0.25500000920E-02 0.  1.
    10030    2    1    2    0    0  0.00000000000E+00  0.00000000000E+00 -0.15160533137E+03  0.28856963676E+04  0.28817111843E+04 0.  0.
        5    1    3    3  502    0  0.11105546499E+04  0.68560662054E+02 -0.99249779645E+03  0.14910084375E+04  0.46999998093E+01 0.  1.
       -5    1    3    3    0  502 -0.11105546499E+04 -0.68560662054E+02  0.84089246508E+03  0.13946879302E+04  0.46999998093E+01 0. -1.
</event>
<event>
 5   0  0.1550278E-06  0.2766715E+04  0.7818609E-02  0.8313677E-01
        1   -1    0    0  501    0  0.00000000000E+00  0.00000000000E+00  0.16085033114E+04  0.16085033114E+04  0.50400001928E-02 0. -1.
       -1   -1    0    0    0  501  0.00000000000E+00  0.00000000000E+00 -0.11897257273E+04  0.11897257273E+04  0.50400001928E-02 0.  1.
    10030    2    1    2    0    0  0.00000000000E+00  0.00000000000E+00  0.41877758410E+03  0.27982290386E+04  0.27667148548E+04 0.  0.
        2    1    3    3  502    0  0.11486387770E+04  0.76662172748E+03  0.12723637068E+03  0.13868197457E+04  0.25500000920E-02 0. -1.
       -2    1    3    3    0  502 -0.11486387770E+04 -0.76662172748E+03  0.29154121343E+03  0.14114092929E+04  0.25500000920E-02 0.  1.
</event>
<event>
 5   0  0.1580212E-06  0.2847746E+04  0.7818609E-02  0.8288596E-01
        1   -1    0    0  501    0  0.00000000000E+00  0.00000000000E+00  0.17700938268E+04  0.17700938268E+04  0.50400001928E-02 0. -1.
       -1   -1    0    0    0  501  0.00000000000E+00  0.00000000000E+00 -0.11453712942E+04  0.11453712942E+04  0.50400001928E-02 0.  1.
    10030    2    1    2    0    0  0.00000000000E+00  0.00000000000E+00  0.62472253257E+03  0.29154651210E+04  0.28477462368E+04 0.  0.
        4    1    3    3  502    0  0.72908726407E+03  0.69008696004E+03  0.13461380083E+04  0.16792490588E+04  0.12699999809E+01 0. -1.
       -4    1    3    3    0  502 -0.72908726407E+03 -0.69008696004E+03 -0.72141547575E+03  0.12362160623E+04  0.12699999809E+01 0.  1.
</event>
<event>
 5   0  0.4224163E-06  0.2893147E+04  0.7818609E-02  0.8274919E-01
       -2   -1    0    0    0  501  0.00000000000E+00  0.00000000000E+00  0.97401253160E+03  0.97401253160E+03  0.25500000920E-02 0. -1.
        2   -1    0    0  501    0  0.00000000000E+00  0.00000000000E+00 -0.21484070863E+04  0.21484070863E+04  0.25500000920E-02 0.  1.
    10030    2    1    2    0    0  0.00000000000E+00  0.00000000000E+00 -0.11743945547E+04  0.31224196179E+04  0.28931473692E+04 0.  0.
        4    1    3    3  502    0  0.91765109557E+03  0.15400613905E+01  0.61967263136E+03  0.11072857300E+04  0.12699999809E+01 0. -1.
       -4    1    3    3    0  502 -0.91765109557E+03 -0.15400613905E+01 -0.17940671861E+04  0.20151338879E+04  0.12699999809E+01 0.  1.
</event>
<event>
 5   0  0.4187518E-06  0.2905348E+04  0.7818609E-02  0.8271288E-01
       -2   -1    0    0    0  501  0.00000000000E+00  0.00000000000E+00  0.12711319516E+04  0.12711319516E+04  0.25500000920E-02 0.  1.
        2   -1    0    0  501    0  0.00000000000E+00  0.00000000000E+00 -0.16601441484E+04  0.16601441484E+04  0.25500000920E-02 0. -1.
    10030    2    1    2    0    0  0.00000000000E+00  0.00000000000E+00 -0.38901219680E+03  0.29312761001E+04  0.29053483588E+04 0.  0.
        3    1    3    3  502    0  0.62514035589E+03  0.10223783721E+04  0.63392093151E+03  0.13556967795E+04  0.10100000352E+00 0.  1.
       -3    1    3    3    0  502 -0.62514035589E+03 -0.10223783721E+04 -0.10229331283E+04  0.15755793206E+04  0.10100000352E+00 0. -1.
</event>
<event>
 5   0  0.1602873E-06  0.2734800E+04  0.7818609E-02  0.8323801E-01
       -1   -1    0    0    0  501  0.00000000000E+00  0.00000000000E+00  0.19684988207E+04  0.19684988207E+04  0.50400001928E-02 0. -1.
        1   -1    0    0  501    0  0.00000000000E+00  0.00000000000E+00 -0.94985191363E+03  0.94985191365E+03  0.50400001928E-02 0.  1.
    10030    2    1    2    0    0  0.00000000000E+00  0.00000000000E+00  0.10186469070E+04  0.29183507343E+04  0.27347997161E+04 0.  0.
        1    1    3    3  502    0  0.10383285293E+04 -0.16178619394E+03 -0.42431622113E+03  0.11332895318E+04  0.50400001928E-02 0.  1.
       -1    1    3    3    0  502 -0.10383285293E+04  0.16178619394E+03  0.14429631282E+04  0.17850612025E+04  0.50400001928E-02 0. -1.
</event>
<event>
 5   0  0.1543678E-06  0.2926132E+04  0.7818609E-02  0.8265145E-01
       -1   -1    0    0    0  501  0.00000000000E+00  0.00000000000E+00  0.12377492047E+04  0.12377492048E+04  0.50400001928E-02 0. -1.
        1   -1    0    0  501    0  0.00000000000E+00  0.00000000000E+00 -0.17293991012E+04  0.17293991012E+04  0.50400001928E-02 0.  1.
    10030    2    1    2    0    0  0.00000000000E+00  0.00000000000E+00 -0.49164989647E+03  0.29671483060E+04  0.29261321653E+04 0.  0.
        3    1    3    3  502    0  0.11054614777E+04 -0.52458771671E+03  0.56749332623E+03  0.13488091179E+04  0.10100000352E+00 0. -1.
       -3    1    3    3    0  502 -0.11054614777E+04  0.52458771671E+03 -0.10591432227E+04  0.16183391880E+04  0.10100000352E+00 0.  1.
</event>
<event>
 5   0  0.1550278E-06  0.2907647E+04  0.7818609E-02  0.8270606E-01
        1   -1    0    0  501    0  0.00000000000E+00  0.00000000000E+00  0.11632567543E+04  0.11632567543E+04  0.50400001928E-02 0.  1.
       -1   -1    0    0    0  501  0.00000000000E+00  0.00000000000E+00 -0.18169700454E+04  0.18169700454E+04  0.50400001928E-02 0. -1.
    10030    2    1    2    0    0  0.00000000000E+00  0.00000000000E+00 -0.65371329112E+03  0.29802267998E+04  0.29076469371E+04 0.  0.
        2    1    3    3  502    0 -0.28332098201E+03  0.12398576615E+04 -0.10487709368E+04  0.16484654311E+04  0.25500000920E-02 0. -1.
       -2    1    3    3    0  502  0.28332098201E+03 -0.12398576615E+04  0.39505764564E+03  0.13317613687E+04  0.25500000920E-02 0.  1.
</event>
<event>
 5   0  0.1550278E-06  0.2891183E+04  0.7818609E-02  0.8275506E-01
        1   -1    0    0  501    0  0.00000000000E+00  0.00000000000E+00  0.18081722367E+04  0.18081722367E+04  0.50400001928E-02 0. -1.
       -1   -1    0    0    0  501  0.00000000000E+00  0.00000000000E+00 -0.11557165670E+04  0.11557165670E+04  0.50400001928E-02 0.  1.
    10030    2    1    2    0    0  0.00000000000E+00  0.00000000000E+00  0.65245566973E+03  0.29638888038E+04  0.28911828790E+04 0.  0.
        2    1    3    3  502    0 -0.35642449370E+02  0.89066921175E+03  0.14929035653E+04  0.17387705669E+04  0.25500000920E-02 0. -1.
       -2    1    3    3    0  502  0.35642449370E+02 -0.89066921175E+03 -0.84044789561E+03  0.12251182368E+04  0.25500000920E-02 0.  1.
</event>
<event>
 5   0  0.4148677E-06  0.2828628E+04  0.7818609E-02  0.8294435E-01
       -2   -1    0    0    0  501  0.00000000000E+00  0.00000000000E+00  0.10518135740E+04  0.10518135740E+04  0.25500000920E-02 0.  1.
        2   -1    0    0  501    0  0.00000000000E+00  0.00000000000E+00 -0.19017472002E+04  0.19017472002E+04  0.25500000920E-02 0. -1.
    10030    2    1    2    0    0  0.00000000000E+00  0.00000000000E+00 -0.84993362619E+03  0.29535607743E+04  0.28286275963E+04 0.  0.
        5    1    3    3  502    0  0.10151067059E+04  0.85325857644E+03  0.88451067602E+02  0.13290363065E+04  0.46999998093E+01 0.  1.
       -5    1    3    3    0  502 -0.10151067059E+04 -0.85325857644E+03 -0.93838469379E+03  0.16245244677E+04  0.46999998093E+01 0. -1.
</event>
<event>
 5   0  0.1511126E-06  0.2809141E+04  0.7818609E-02  0.8300436E-01
       -1   -1    0    0    0  501  0.00000000000E+00  0.00000000000E+00  0.16684955812E+04  0.16684955812E+04  0.50400001928E-02 0. -1.
        1   -1    0    0  501    0  0.00000000000E+00  0.00000000000E+00 -0.11823931500E+04  0.11823931501E+04  0.50400001928E-02 0.  1.
    10030    2    1    2    0    0  0.00000000000E+00  0.00000000000E+00  0.48610243117E+03  0.28508887313E+04  0.28091406132E+04 0.  0.
        5    1    3    3  502    0  0.58748303027E+03  0.20147102876E+01  0.15378074332E+04  0.16462120646E+04  0.46999998093E+01 0. -1.
       -5    1    3    3    0  502 -0.58748303027E+03 -0.20147102876E+01 -0.10517050021E+04  0.12046766667E+04  0.46999998093E+01 0.  1.
</event>
<event>
 5   0  0.1543678E-06  0.2895413E+04  0.7818609E-02  0.8274243E-01
       -1   -1    0    0    0  501  0.00000000000E+00  0.00000000000E+00  0.13075313204E+04  0.13075313204E+04  0.50400001928E-02 0.  1.
        1   -1    0    0  501    0  0.00000000000E+00  0.00000000000E+00 -0.16029095120E+04  0.16029095120E+04  0.50400001928E-02 0. -1.
    10030    2    1    2    0    0  0.00000000000E+00  0.00000000000E+00 -0.29537819165E+03  0.29104408324E+04  0.28954131938E+04 0.  0.
        3    1    3    3  502    0 -0.80367671854E+03 -0.46925714349E+03  0.96701006343E+03  0.13420905363E+04  0.10100000352E+00 0.  1.
       -3    1    3    3    0  502  0.80367671854E+03  0.46925714349E+03 -0.12623882551E+04  0.15683502961E+04  0.10100000352E+00 0. -1.
</event>
<event>
 5   0  0.1511126E-06  0.2892751E+04  0.7818609E-02  0.8275038E-01
       -1   -1    0    0    0  501  0.00000000000E+00  0.00000000000E+00  0.12154080591E+04  0.12154080591E+04  0.50400001928E-02 0. -1.
        1   -1    0    0  501    0  0.00000000000E+00  0.00000000000E+00 -0.17212344414E+04  0.17212344414E+04  0.50400001928E-02 0.  1.
    10030    2    1    2    0    0  0.00000000000E+00  0.00000000000E+00 -0.50582638231E+03  0.29366425005E+04  0.28927510862E+04 0.  0.
        5    1    3    3  502    0 -0.12736407837E+04 -0.60870991202E+03 -0.57279982320E+03  0.15234206019E+04  0.46999998093E+01 0.  1.
       -5    1    3    3    0  502  0.12736407837E+04  0.60870991202E+03  0.66973440889E+02  0.14132218986E+04  0.46999998093E+01 0. -1.
</event>
<event>
 5   0  0.1602873E-06  0.2897019E+04  0.7818609E-02  0.8273765E-01
       -1   -1    0    0    0  501  0.00000000000E+00  0.00000000000E+00  0.10970961140E+04  0.10970961140E+04  0.50400001928E-02 0.  1.
        1   -1    0    0  501    0  0.00000000000E+00  0.00000000000E+00 -0.19124852927E+04  0.19124852927E+04  0.50400001928E-02 0. -1.
    10030    2    1    2    0    0  0.00000000000E+00  0.00000000000E+00 -0.81538917868E+03  0.30095814068E+04  0.28970192839E+04 0.  0.
        1    1    3    3  502    0 -0.13732295981E+04  0.35709646567E+03 -0.71039682846E+03  0.15868021517E+04  0.50400001928E-02 0. -1.
       -1    1    3    3    0  502  0.13732295981E+04 -0.35709646567E+03 -0.10499235022E+03  0.14227792550E+04  0.50400001928E-02 0.  1.
</event>
<event>
 5   0  0.4162450E-06  0.2894323E+04  0.7818609E-02  0.8274568E-01
       -2   -1    0    0    0  501  0.00000000000E+00  0.00000000000E+00  0.17293138575E+04  0.17293138575E+04  0.25500000920E-02 0. -1.
        2   -1    0    0  501    0  0.00000000000E+00  0.00000000000E+00 -0.12110451149E+04  0.12110451149E+04  0.25500000920E-02 0.  1.
    10030    2    1    2    0    0  0.00000000000E+00  0.00000000000E+00  0.51826874256E+03  0.29403589724E+04  0.28943234783E+04 0.  0.
        2    1    3    3  502    0  0.12173972081E+04  0.77493318431E+03  0.14924882009E+03  0.14508110190E+04  0.25500000920E-02 0.  1.
       -2    1    3    3    0  502 -0.12173972081E+04 -0.77493318431E+03  0.36901992248E+03  0.14895479535E+04  0.25500000920E-02 0. -1.
</event>
<event>
 5   0  0.4115143E-06  0.2882595E+04  0.7818609E-02  0.8278075E-01
       -2   -1    0    0    0  501  0.00000000000E+00  0.00000000000E+00  0.25046079039E+04  0.25046079039E+04  0.25500000920E-02 0. -1.
        2   -1    0    0  501    0  0.00000000000E+00  0.00000000000E+00 -0.82940649028E+03  0.82940649028E+03  0.25500000920E-02 0.  1.
    10030    2    1    2    0    0  0.00000000000E+00  0.00000000000E+00  0.16752014136E+04  0.33340143942E+04  0.28825947000E+04 0.  0.
        1    1    3    3  502    0  0.57811343604E+03 -0.27627535313E+03 -0.65562328707E+03  0.91672520978E+03  0.50400001928E-02 0.  1.
       -1    1    3    3    0  502 -0.57811343604E+03  0.27627535313E+03  0.23308247007E+04  0.24172891844E+04  0.50400001928E-02 0. -1.
</event>
<event>
 5   0  0.1360125E-06  0.2922505E+04  0.7818609E-02  0.8266213E-01
       -3   -1    0    0    0  501  0.00000000000E+00  0.00000000000E+00  0.12070749823E+04  0.12070749865E+04  0.10100000352E+00 0. -1.
        3   -1    0    0  501    0  0.00000000000E+00  0.00000000000E+00 -0.17689532616E+04  0.17689532645E+04  0.10100000352E+00 0.  1.
    10030    2    1    2    0    0  0.00000000000E+00  0.00000000000E+00 -0.56187827932E+03  0.29760282509E+04  0.29225052523E+04 0.  0.
        1    1    3    3  502    0 -0.33955318538E+03  0.10147861990E+04  0.73235850974E+03  0.12967021178E+04  0.50400001928E-02 0. -1.
       -1    1    3    3    0  502  0.33955318538E+03 -0.10147861990E+04 -0.12942367891E+04  0.16793261332E+04  0.50400001928E-02 0.  1.
</event>
<event>
 5   0  0.1550278E-06  0.2901525E+04  0.7818609E-02  0.8272424E-01
       -1   -1    0    0    0  501  0.00000000000E+00  0.00000000000E+00  0.10533970734E+04  0.10533970734E+04  0.50400001928E-02 0.  1.
        1   -1    0    0  501    0  0.00000000000E+00  0.00000000000E+00 -0.19980227977E+04  0.19980227977E+04  0.50400001928E-02 0. -1.
    10030    2    1    2    0    0  0.00000000000E+00  0.00000000000E+00 -0.94462572431E+03  0.30514198711E+04  0.29015246804E+04 0.  0.
        2    1    3    3  502    0 -0.11596855784E+03  0.14041614793E+04 -0.83600084137E+03  0.16382965462E+04  0.25500000920E-02 0. -1.
       -2    1    3    3    0  502  0.11596855784E+03 -0.14041614793E+04 -0.10862488293E+03  0.14131233250E+04  0.25500000920E-02 0.  1.
</event>
<event>
 5   0  0.1543678E-06  0.2897042E+04  0.7818609E-02  0.8273758E-01
       -1   -1    0    0    0  501  0.00000000000E+00  0.00000000000E+00  0.14862616716E+04  0.14862616716E+04  0.50400001928E-02 0. -1.
        1   -1    0    0  501    0  0.00000000000E+00  0.00000000000E+00 -0.14117390210E+04  0.14117390210E+04  0.50400001928E-02 0.  1.
    10030    2    1    2    0    0  0.00000000000E+00  0.00000000000E+00  0.74522650576E+02  0.28980006925E+04  0.28970423519E+04 0.  0.
        3    1    3    3  502    0  0.70674139518E+03  0.12506498949E+04 -0.14882447792E+03  0.14442151137E+04  0.10100000352E+00 0.  1.
       -3    1    3    3    0  502 -0.70674139518E+03 -0.12506498949E+04  0.22334712850E+03  0.14537855788E+04  0.10100000352E+00 0. -1.
</event>
<event>
 5   0  0.4162450E-06  0.2940901E+04  0.7818609E-02  0.8260811E-01
        2   -1    0    0  501    0  0.00000000000E+00  0.00000000000E+00  0.18697793268E+04  0.18697793268E+04  0.25500000920E-02 0.  1.
       -2   -1    0    0    0  501  0.00000000000E+00  0.00000000000E+00 -0.11564062260E+04  0.11564062260E+04  0.25500000920E-02 0. -1.
    10030    2    1    2    0    0  0.00000000000E+00  0.00000000000E+00  0.71337310084E+03  0.30261855528E+04  0.29409008516E+04 0.  0.
        2    1    3    3  502    0 -0.21404166207E+03  0.82511293875E+03 -0.87622460858E+03  0.12224543998E+04  0.25500000920E-02 0. -1.
       -2    1    3    3    0  502  0.21404166207E+03 -0.82511293875E+03  0.15895977094E+04  0.18037311531E+04  0.25500000920E-02 0.  1.
</event>
<event>
 5   0  0.4187518E-06  0.2928778E+04  0.7818609E-02  0.8264366E-01
       -2   -1    0    0    0  501  0.00000000000E+00  0.00000000000E+00  0.14408485817E+04  0.14408485817E+04  0.25500000920E-02 0. -1.
        2   -1    0    0  501    0  0.00000000000E+00  0.00000000000E+00 -0.14883142463E+04  0.14883142463E+04  0.25500000920E-02 0.  1.
    10030    2    1    2    0    0  0.00000000000E+00  0.00000000000E+00 -0.47465664616E+02  0.29291628280E+04  0.29287782237E+04 0.  0.
        3    1    3    3  502    0 -0.36292170631E+03 -0.75621341517E+02 -0.14406068066E+04  0.14875411704E+04  0.10100000352E+00 0.  1.
       -3    1    3    3    0  502  0.36292170631E+03  0.75621341517E+02  0.13931411420E+04  0.14416216577E+04  0.10100000352E+00 0. -1.
</event>
<event>
 5   0  0.1602873E-06  0.2903855E+04  0.7818609E-02  0.8271732E-01
        1   -1    0    0  501    0  0.00000000000E+00  0.00000000000E+00  0.12793985672E+04  0.12793985672E+04  0.50400001928E-02 0. -1.
       -1   -1    0    0    0  501  0.00000000000E+00  0.00000000000E+00 -0.16477216937E+04  0.16477216937E+04  0.50400001928E-02 0.  1.
    10030    2    1    2    0    0  0.00000000000E+00  0.00000000000E+00 -0.36832312655E+03  0.29271202610E+04  0.29038545240E+04 0.  0.
        1    1    3    3  502    0 -0.12135235359E+04  0.25458613517E+03 -0.94562060881E+03  0.15593754545E+04  0.50400001928E-02 0.  1.
       -1    1    3    3    0  502  0.12135235359E+04 -0.25458613517E+03  0.57729748227E+03  0.13677448064E+04  0.50400001928E-02 0. -1.
</event>
<event>
 5   0  0.4162450E-06  0.2920195E+04  0.7818609E-02  0.8266894E-01
       -2   -1    0    0    0  501  0.00000000000E+00  0.00000000000E+00  0.11967799576E+04  0.11967799576E+04  0.25500000920E-02 0. -1.
        2   -1    0    0  501    0  0.00000000000E+00  0.00000000000E+00 -0.17813510887E+04  0.17813510887E+04  0.25500000920E-02 0.  1.
    10030    2    1    2    0    0  0.00000000000E+00  0.00000000000E+00 -0.58457113111E+03  0.29781310462E+04  0.29201953909E+04 0.  0.
        2    1    3    3  502    0 -0.61928307309E+03  0.29193982215E+03  0.10229299892E+04  0.12309046052E+04  0.25500000920E-02 0. -1.
       -2    1    3    3    0  502  0.61928307309E+03 -0.29193982215E+03 -0.16075011203E+04  0.17472264410E+04  0.25500000920E-02 0.  1.
</event>
<event>
 5   0  0.1580212E-06  0.2873140E+04  0.7818609E-02  0.8280914E-01
       -1   -1    0    0    0  501  0.00000000000E+00  0.00000000000E+00  0.17076133684E+04  0.17076133684E+04  0.50400001928E-02 0.  1.
        1   -1    0    0  501    0  0.00000000000E+00  0.00000000000E+00 -0.12085481039E+04  0.12085481039E+04  0.50400001928E-02 0. -1.
    10030    2    1    2    0    0  0.00000000000E+00  0.00000000000E+00  0.49906526448E+03  0.29161614722E+04  0.28731396753E+04 0.  0.
        4    1    3    3  502    0 -0.26973383902E+03 -0.91545599083E+03  0.13393494969E+04  0.16445895241E+04  0.12699999809E+01 0.  1.
       -4    1    3    3    0  502  0.26973383902E+03  0.91545599083E+03 -0.84028423244E+03  0.12715719481E+04  0.12699999809E+01 0. -1.
</event>
<event>
 5   0  0.1543678E-06  0.2898273E+04  0.7818609E-02  0.8273391E-01
        1   -1    0    0  501    0  0.00000000000E+00  0.00000000000E+00  0.19147857299E+04  0.19147857299E+04  0.50400001928E-02 0.  1.
       -1   -1    0    0    0  501  0.00000000000E+00  0.00000000000E+00 -0.10967270043E+04  0.10967270043E+04  0.50400001928E-02 0. -1.
    10030    2    1    2    0    0  0.00000000000E+00  0.00000000000E+00  0.81805872561E+03  0.30115127342E+04  0.28982734291E+04 0.  0.
        3    1    3    3  502    0 -0.84516594262E+03 -0.89572368615E+03 -0.38459994553E+03  0.12901718958E+04  0.10100000352E+00 0. -1.
       -3    1    3    3    0  502  0.84516594262E+03  0.89572368615E+03  0.12026586711E+04  0.17213408384E+04  0.10100000352E+00 0.  1.
</event>
<event>
 5   0  0.4148677E-06  0.2892202E+04  0.7818609E-02  0.8275201E-01
       -2   -1    0    0    0  501  0.00000000000E+00  0.00000000000E+00  0.10545457074E+04  0.10545457074E+04  0.25500000920E-02 0.  1.
        2   -1    0    0  501    0  0.00000000000E+00  0.00000000000E+00 -0.19830411738E+04  0.19830411738E+04  0.25500000920E-02 0. -1.
    10030    2    1    2    0    0  0.00000000000E+00  0.00000000000E+00 -0.92849546642E+03  0.30375868812E+04  0.28922016233E+04 0.  0.
        5    1    3    3  502    0  0.56154196887E+03  0.11459716625E+04  0.25009284318E+03  0.13004418304E+04  0.46999998093E+01 0.  1.
       -5    1    3    3    0  502 -0.56154196887E+03 -0.11459716625E+04 -0.11785883096E+04  0.17371450508E+04  0.46999998093E+01 0. -1.
</event>
<event>
 5   0  0.4162450E-06  0.3032044E+04  0.7818609E-02  0.8234639E-01
       -2   -1    0    0    0  501  0.00000000000E+00  0.00000000000E+00  0.94379978252E+03  0.94379978253E+03  0.25500000920E-02 0.  1.
        2   -1    0    0  501    0  0.00000000000E+00  0.00000000000E+00 -0.24351810519E+04  0.24351810519E+04  0.25500000920E-02 0. -1.
    10030    2    1    2    0    0  0.00000000000E+00  0.00000000000E+00 -0.14913812693E+04  0.33789808344E+04  0.30320444239E+04 0.  0.
        2    1    3    3  502    0 -0.11056541160E+04 -0.92698892938E+03 -0.22710188244E+03  0.14606008231E+04  0.25500000920E-02 0.  1.
       -2    1    3    3    0  502  0.11056541160E+04  0.92698892938E+03 -0.12642793869E+04  0.19183800113E+04  0.25500000920E-02 0. -1.
</event>
<event>
 5   0  0.1360125E-06  0.2893434E+04  0.7818609E-02  0.8274834E-01
       -3   -1    0    0    0  501  0.00000000000E+00  0.00000000000E+00  0.11847697686E+04  0.11847697729E+04  0.10100000352E+00 0. -1.
        3   -1    0    0  501    0  0.00000000000E+00  0.00000000000E+00 -0.17665797463E+04  0.17665797492E+04  0.10100000352E+00 0.  1.
    10030    2    1    2    0    0  0.00000000000E+00  0.00000000000E+00 -0.58180997770E+03  0.29513495220E+04  0.28934341449E+04 0.  0.
        4    1    3    3  502    0  0.71002789782E+03 -0.18150070916E+03  0.98142217018E+03  0.12248564047E+04  0.12699999809E+01 0. -1.
       -4    1    3    3    0  502 -0.71002789782E+03  0.18150070916E+03 -0.15632321479E+04  0.17264931173E+04  0.12699999809E+01 0.  1.
</event>
<event>
 5   0  0.1550278E-06  0.2875930E+04  0.7818609E-02  0.8280075E-01
        1   -1    0    0  501    0  0.00000000000E+00  0.00000000000E+00  0.19841079414E+04  0.19841079414E+04  0.50400001928E-02 0. -1.
       -1   -1    0    0    0  501  0.00000000000E+00  0.00000000000E+00 -0.10421525874E+04  0.10421525875E+04  0.50400001928E-02 0.  1.
    10030    2    1    2    0    0  0.00000000000E+00  0.00000000000E+00  0.94195535395E+03  0.30262605289E+04  0.28759299191E+04 0.  0.
        2    1    3    3  502    0  0.11558496294E+03  0.21160150225E+03 -0.10207299344E+04  0.10488206131E+04  0.25500000920E-02 0.  1.
       -2    1    3    3    0  502 -0.11558496294E+03 -0.21160150225E+03  0.19626852883E+04  0.19774399158E+04  0.25500000920E-02 0. -1.
</event>
<event>
 5   0  0.1602873E-06  0.2858270E+04  0.7818609E-02  0.8285403E-01
       -1   -1    0    0    0  501  0.00000000000E+00  0.00000000000E+00  0.15005669938E+04  0.15005669938E+04  0.50400001928E-02 0.  1.
        1   -1    0    0  501    0  0.00000000000E+00  0.00000000000E+00 -0.13611038690E+04  0.13611038690E+04  0.50400001928E-02 0. -1.
    10030    2    1    2    0    0  0.00000000000E+00  0.00000000000E+00  0.13946312478E+03  0.28616708628E+04  0.28582704848E+04 0.  0.
        1    1    3    3  502    0  0.12463148057E+04  0.54461564256E+03 -0.36956229144E+03  0.14094265076E+04  0.50400001928E-02 0.  1.
       -1    1    3    3    0  502 -0.12463148057E+04 -0.54461564256E+03  0.50902541622E+03  0.14522443553E+04  0.50400001928E-02 0. -1.
</event>
<event>
 5   0  0.4162450E-06  0.2897613E+04  0.7818609E-02  0.8273588E-01
       -2   -1    0    0    0  501  0.00000000000E+00  0.00000000000E+00  0.12609043823E+04  0.12609043823E+04  0.25500000920E-02 0.  1.
        2   -1    0    0  501    0  0.00000000000E+00  0.00000000000E+00 -0.16647095840E+04  0.16647095840E+04  0.25500000920E-02 0. -1.
    10030    2    1    2    0    0  0.00000000000E+00  0.00000000000E+00 -0.40380520170E+03  0.29256139664E+04  0.28976125413E+04 0.  0.
        2    1    3    3  502    0  0.58489166901E+02  0.47590679399E+03 -0.15822761187E+04  0.16533317801E+04  0.25500000920E-02 0. -1.
       -2    1    3    3    0  502 -0.58489166901E+02 -0.47590679399E+03  0.11784709170E+04  0.12722821863E+04  0.25500000920E-02 0.  1.
</event>
<event>
 5   0  0.1602873E-06  0.2930460E+04  0.7818609E-02  0.8263872E-01
       -1   -1    0    0    0  501  0.00000000000E+00  0.00000000000E+00  0.14419790430E+04  0.14419790430E+04  0.50400001928E-02 0. -1.
        1   -1    0    0  501    0  0.00000000000E+00  0.00000000000E+00 -0.14888563407E+04  0.14888563407E+04  0.50400001928E-02 0.  1.
    10030    2    1    2    0    0  0.00000000000E+00  0.00000000000E+00 -0.46877297779E+02  0.29308353837E+04  0.29304604699E+04 0.  0.
        1    1    3    3  502    0  0.50309218965E+03 -0.89350022422E+03  0.10233352309E+04  0.14486750487E+04  0.50400001928E-02 0. -1.
       -1    1    3    3    0  502 -0.50309218965E+03  0.89350022422E+03 -0.10702125287E+04  0.14821603350E+04  0.50400001928E-02 0.  1.
</event>
<event>
 5   0  0.1360125E-06  0.2910683E+04  0.7818609E-02  0.8269706E-01
        4   -1    0    0  501    0  0.00000000000E+00  0.00000000000E+00  0.14816676517E+04  0.14816681959E+04  0.12699999809E+01 0.  1.
       -4   -1    0    0    0  501  0.00000000000E+00  0.00000000000E+00 -0.14294821593E+04  0.14294827235E+04  0.12699999809E+01 0. -1.
    10030    2    1    2    0    0  0.00000000000E+00  0.00000000000E+00  0.52185492312E+02  0.29111509194E+04  0.29106831415E+04 0.  0.
        2    1    3    3  502    0 -0.26364126622E+02 -0.84321093926E+03  0.12121666856E+04  0.14768371030E+04  0.25500000920E-02 0.  1.
       -2    1    3    3    0  502  0.26364126622E+02  0.84321093926E+03 -0.11599811933E+04  0.14343138164E+04  0.25500000920E-02 0. -1.
</event>
<event>
 5   0  0.1543678E-06  0.2890982E+04  0.7818609E-02  0.8275566E-01
        1   -1    0    0  501    0  0.00000000000E+00  0.00000000000E+00  0.19674332134E+04  0.19674332134E+04  0.50400001928E-02 0.  1.
       -1   -1    0    0    0  501  0.00000000000E+00  0.00000000000E+00 -0.10620155328E+04  0.10620155329E+04  0.50400001928E-02 0. -1.
    10030    2    1    2    0    0  0.00000000000E+00  0.00000000000E+00  0.90541768051E+03  0.30294487462E+04  0.28909822777E+04 0.  0.
        3    1    3    3  502    0  0.45466802378E+02  0.13699150608E+04  0.93372633859E+03  0.16584870785E+04  0.10100000352E+00 0.  1.
       -3    1    3    3    0  502 -0.45466802378E+02 -0.13699150608E+04 -0.28308658083E+02  0.13709616677E+04  0.10100000352E+00 0. -1.
</event>
<event>
 5   0  0.1511126E-06  0.2899758E+04  0.7818609E-02  0.8272950E-01
       -1   -1    0    0    0  501  0.00000000000E+00  0.00000000000E+00  0.10343383448E+04  0.10343383448E+04  0.50400001928E-02 0. -1.
        1   -1    0    0  501    0  0.00000000000E+00  0.00000000000E+00 -0.20323608277E+04  0.20323608277E+04  0.50400001928E-02 0.  1.
    10030    2    1    2    0    0  0.00000000000E+00  0.00000000000E+00 -0.99802248288E+03  0.30666991725E+04  0.28997577379E+04 0.  0.
        5    1    3    3  502    0 -0.53551295111E+03 -0.14555435112E+03  0.91756784630E+03  0.10723399799E+04  0.46999998093E+01 0. -1.
       -5    1    3    3    0  502  0.53551295111E+03  0.14555435112E+03 -0.19155903292E+04  0.19943591926E+04  0.46999998093E+01 0.  1.
</event>
<event>
 5   0  0.4162450E-06  0.2903438E+04  0.7818609E-02  0.8271855E-01
       -2   -1    0    0    0  501  0.00000000000E+00  0.00000000000E+00  0.17041642450E+04  0.17041642450E+04  0.25500000920E-02 0.  1.
        2   -1    0    0  501    0  0.00000000000E+00  0.00000000000E+00 -0.12366698215E+04  0.12366698215E+04  0.25500000920E-02 0. -1.
    10030    2    1    2    0    0  0.00000000000E+00  0.00000000000E+00  0.46749442346E+03  0.29408340665E+04  0.29034383015E+04 0.  0.
        2    1    3    3  502    0 -0.10194816909E+04  0.63253414031E+03  0.10616153093E+04  0.16020204186E+04  0.25500000920E-02 0.  1.
       -2    1    3    3    0  502  0.10194816909E+04 -0.63253414031E+03 -0.59412088585E+03  0.13388136479E+04  0.25500000920E-02 0. -1.
</event>
<event>
 5   0  0.1602873E-06  0.2910711E+04  0.7818609E-02  0.8269698E-01
        1   -1    0    0  501    0  0.00000000000E+00  0.00000000000E+00  0.29919539404E+04  0.29919539404E+04  0.50400001928E-02 0.  1.
       -1   -1    0    0    0  501  0.00000000000E+00  0.00000000000E+00 -0.70791867852E+03  0.70791867854E+03  0.50400001928E-02 0. -1.
    10030    2    1    2    0    0  0.00000000000E+00  0.00000000000E+00  0.22840352618E+04  0.36998726189E+04  0.29107113080E+04 0.  0.
        1    1    3    3  502    0  0.42782008059E+03 -0.77657804468E+03 -0.32499102378E+03  0.94431067260E+03  0.50400001928E-02 0. -1.
       -1    1    3    3    0  502 -0.42782008059E+03  0.77657804468E+03  0.26090262856E+04  0.27555619463E+04  0.50400001928E-02 0.  1.
</event>
<event>
 5   0  0.4162450E-06  0.2913010E+04  0.7818609E-02  0.8269017E-01
       -2   -1    0    0    0  501  0.00000000000E+00  0.00000000000E+00  0.92067808943E+03  0.92067808944E+03  0.25500000920E-02 0.  1.
        2   -1    0    0  501    0  0.00000000000E+00  0.00000000000E+00 -0.23041783064E+04  0.23041783064E+04  0.25500000920E-02 0. -1.
    10030    2    1    2    0    0  0.00000000000E+00  0.00000000000E+00 -0.13835002169E+04  0.32248563958E+04  0.29130097705E+04 0.  0.
        2    1    3    3  502    0 -0.50041539724E+03  0.13431546621E+04 -0.97814639385E+03  0.17352954746E+04  0.25500000920E-02 0.  1.
       -2    1    3    3    0  502  0.50041539724E+03 -0.13431546621E+04 -0.40535382307E+03  0.14895609212E+04  0.25500000920E-02 0. -1.
</event>
<event>
 5   0  0.1550278E-06  0.2901734E+04  0.7818609E-02  0.8272362E-01
        1   -1    0    0  501    0  0.00000000000E+00  0.00000000000E+00  0.19139275001E+04  0.19139275001E+04  0.50400001928E-02 0. -1.
       -1   -1    0    0    0  501  0.00000000000E+00  0.00000000000E+00 -0.10998407463E+04  0.10998407463E+04  0.50400001928E-02 0.  1.
    10030    2    1    2    0    0  0.00000000000E+00  0.00000000000E+00  0.81408675381E+03  0.30137682464E+04  0.29017342746E+04 0.  0.
        2    1    3    3  502    0 -0.13397102022E+04 -0.27431803829E+03 -0.96378644708E+02  0.13708984847E+04  0.25500000920E-02 0.  1.
       -2    1    3    3    0  502  0.13397102022E+04  0.27431803829E+03  0.91046539852E+03  0.16428697617E+04  0.25500000920E-02 0. -1.
</event>
<event>
 5   0  0.1550278E-06  0.2896161E+04  0.7818609E-02  0.8274021E-01
        1   -1    0    0  501    0  0.00000000000E+00  0.00000000000E+00  0.23222183984E+04  0.23222183984E+04  0.50400001928E-02 0. -1.
       -1   -1    0    0    0  501  0.00000000000E+00  0.00000000000E+00 -0.90298889791E+03  0.90298889793E+03  0.50400001928E-02 0.  1.
    10030    2    1    2    0    0  0.00000000000E+00  0.00000000000E+00  0.14192295005E+04  0.32252072963E+04  0.28961612057E+04 0.  0.
        2    1    3    3  502    0 -0.63654057235E+03  0.10894343635E+04 -0.81667993621E+02  0.12644053123E+04  0.25500000920E-02 0.  1.
       -2    1    3    3    0  502  0.63654057235E+03 -0.10894343635E+04  0.15008974941E+04  0.19608019840E+04  0.25500000920E-02 0. -1.
</event>
<event>
 5   0  0.1580212E-06  0.2894160E+04  0.7818609E-02  0.8274617E-01
       -1   -1    0    0    0  501  0.00000000000E+00  0.00000000000E+00  0.16115117868E+04  0.16115117868E+04  0.50400001928E-02 0.  1.
        1   -1    0    0  501    0  0.00000000000E+00  0.00000000000E+00 -0.12994263119E+04  0.12994263119E+04  0.50400001928E-02 0. -1.
    10030    2    1    2    0    0  0.00000000000E+00  0.00000000000E+00  0.31208547488E+03  0.29109380987E+04  0.28941602013E+04 0.  0.
        4    1    3    3  502    0 -0.71145499336E+03  0.43333258148E+03  0.13461578783E+04  0.15830628477E+04  0.12699999809E+01 0.  1.
       -4    1    3    3    0  502  0.71145499336E+03 -0.43333258148E+03 -0.10340724034E+04  0.13278752510E+04  0.12699999809E+01 0. -1.
</event>
<event>
 5   0  0.1580212E-06  0.3034755E+04  0.7818609E-02  0.8233875E-01
       -1   -1    0    0    0  501  0.00000000000E+00  0.00000000000E+00  0.11771697602E+04  0.11771697602E+04  0.50400001928E-02 0. -1.
        1   -1    0    0  501    0  0.00000000000E+00  0.00000000000E+00 -0.19559069691E+04  0.19559069691E+04  0.50400001928E-02 0.  1.
    10030    2    1    2    0    0  0.00000000000E+00  0.00000000000E+00 -0.77873720891E+03  0.31330767293E+04  0.30347550398E+04 0.  0.
        4    1    3    3  502    0  0.83182200942E+03 -0.96609070294E+03  0.46019807443E+03  0.13553755872E+04  0.12699999809E+01 0. -1.
       -4    1    3    3    0  502 -0.83182200942E+03  0.96609070294E+03 -0.12389352833E+04  0.17777011422E+04  0.12699999809E+01 0.  1.
</event>
<event>
 5   0  0.1511126E-06  0.2895381E+04  0.7818609E-02  0.8274253E-01
        1   -1    0    0  501    0  0.00000000000E+00  0.00000000000E+00  0.16038757731E+04  0.16038757731E+04  0.50400001928E-02 0.  1.
       -1   -1    0    0    0  501  0.00000000000E+00  0.00000000000E+00 -0.13067149376E+04  0.13067149376E+04  0.50400001928E-02 0. -1.
    10030    2    1    2    0    0  0.00000000000E+00  0.00000000000E+00  0.29716083554E+03  0.29105907107E+04  0.28953814469E+04 0.  0.
        5    1    3    3  502    0 -0.83839048709E+03 -0.88669214954E+03  0.93155873836E+03  0.15352346237E+04  0.46999998093E+01 0.  1.
       -5    1    3    3    0  502  0.83839048709E+03  0.88669214954E+03 -0.63439790282E+03  0.13753560870E+04  0.46999998093E+01 0. -1.
</event>
<event>
 5   0  0.1543678E-06  0.2894595E+04  0.7818609E-02  0.8274487E-01
       -1   -1    0    0    0  501  0.00000000000E+00  0.00000000000E+00  0.15459587092E+04  0.15459587092E+04  0.50400001928E-02 0. -1.
        1   -1    0    0  501    0  0.00000000000E+00  0.00000000000E+00 -0.13549328645E+04  0.13549328645E+04  0.50400001928E-02 0.  1.
    10030    2    1    2    0    0  0.00000000000E+00  0.00000000000E+00  0.19102584467E+03  0.29008915737E+04  0.28945951442E+04 0.  0.
        3    1    3    3  502    0 -0.54784259129E+03  0.12239282849E+04  0.64125075843E+03  0.14863830249E+04  0.10100000352E+00 0.  1.
       -3    1    3    3    0  502  0.54784259129E+03 -0.12239282849E+04 -0.45022491376E+03  0.14145085488E+04  0.10100000352E+00 0. -1.
</event>
<event>
 5   0  0.4148677E-06  0.2914867E+04  0.7818609E-02  0.8268468E-01
        2   -1    0    0  501    0  0.00000000000E+00  0.00000000000E+00  0.13907709473E+04  0.13907709473E+04  0.25500000920E-02 0. -1.
       -2   -1    0    0    0  501  0.00000000000E+00  0.00000000000E+00 -0.15272913281E+04  0.15272913281E+04  0.25500000920E-02 0.  1.
    10030    2    1    2    0    0  0.00000000000E+00  0.00000000000E+00 -0.13652038085E+03  0.29180622754E+04  0.29148670002E+04 0.  0.
        5    1    3    3  502    0 -0.61245069331E+03  0.10904958164E+04 -0.81728712359E+03  0.14940740643E+04  0.46999998093E+01 0.  1.
       -5    1    3    3    0  502  0.61245069331E+03 -0.10904958164E+04  0.68076674274E+03  0.14239882111E+04  0.46999998093E+01 0. -1.
</event>
<event>
 5   0  0.1511126E-06  0.2904901E+04  0.7818609E-02  0.8271421E-01
        1   -1    0    0  501    0  0.00000000000E+00  0.00000000000E+00  0.15342296782E+04  0.15342296782E+04  0.50400001928E-02 0. -1.
       -1   -1    0    0    0  501  0.00000000000E+00  0.00000000000E+00 -0.13750300295E+04  0.13750300295E+04  0.50400001928E-02 0.  1.
    10030    2    1    2    0    0  0.00000000000E+00  0.00000000000E+00  0.15919964868E+03  0.29092597078E+04  0.29049006040E+04 0.  0.
        5    1    3    3  502    0 -0.93362445554E+03  0.11109822259E+04  0.14013603831E+03  0.14579424987E+04  0.46999998093E+01 0. -1.
       -5    1    3    3    0  502  0.93362445554E+03 -0.11109822259E+04  0.19063610361E+02  0.14513172091E+04  0.46999998093E+01 0.  1.
</event>
<event>
 5   0  0.4115143E-06  0.2897234E+04  0.7818609E-02  0.8273701E-01
       -2   -1    0    0    0  501  0.00000000000E+00  0.00000000000E+00  0.20286167615E+04  0.20286167615E+04  0.25500000920E-02 0. -1.
        2   -1    0    0  501    0  0.00000000000E+00  0.00000000000E+00 -0.10344443548E+04  0.10344443548E+04  0.25500000920E-02 0.  1.
    10030    2    1    2    0    0  0.00000000000E+00  0.00000000000E+00  0.99417240661E+03  0.30630611163E+04  0.28972339616E+04 0.  0.
        1    1    3    3  502    0  0.29958909690E+03  0.14121411231E+04  0.62481058929E+03  0.15729858394E+04  0.50400001928E-02 0. -1.
       -1    1    3    3    0  502 -0.29958909690E+03 -0.14121411231E+04  0.36936181732E+03  0.14900752769E+04  0.50400001928E-02 0.  1.
</event>
<event>
 5   0  0.1543678E-06  0.2883788E+04  0.7818609E-02  0.8277718E-01
        1   -1    0    0  501    0  0.00000000000E+00  0.00000000000E+00  0.14061760697E+04  0.14061760697E+04  0.50400001928E-02 0.  1.
       -1   -1    0    0    0  501  0.00000000000E+00  0.00000000000E+00 -0.14785187960E+04  0.14785187960E+04  0.50400001928E-02 0. -1.
    10030    2    1    2    0    0  0.00000000000E+00  0.00000000000E+00 -0.72342726268E+02  0.28846948657E+04  0.28837876132E+04 0.  0.
        3    1    3    3  502    0 -0.89261907045E+03  0.10949608391E+04 -0.32496566347E+03  0.14495898512E+04  0.10100000352E+00 0. -1.
       -3    1    3    3    0  502  0.89261907045E+03 -0.10949608391E+04  0.25262293721E+03  0.14351050145E+04  0.10100000352E+00 0.  1.
</event>
<event>
 5   0  0.1580212E-06  0.2903586E+04  0.7818609E-02  0.8271811E-01
       -1   -1    0    0    0  501  0.00000000000E+00  0.00000000000E+00  0.10921680908E+04  0.10921680909E+04  0.50400001928E-02 0.  1.
        1   -1    0    0  501    0  0.00000000000E+00  0.00000000000E+00 -0.19298336021E+04  0.19298336021E+04  0.50400001928E-02 0. -1.
    10030    2    1    2    0    0  0.00000000000E+00  0.00000000000E+00 -0.83766551122E+03  0.30220016929E+04  0.29035858388E+04 0.  0.
        4    1    3    3  502    0 -0.33156321910E+03 -0.13521807165E+04  0.95023544347E+01  0.13922710821E+04  0.12699999809E+01 0.  1.
       -4    1    3    3    0  502  0.33156321910E+03  0.13521807165E+04 -0.84716786566E+03  0.16297306108E+04  0.12699999809E+01 0. -1.
</event>
<event>
 5   0  0.4115143E-06  0.2900473E+04  0.7818609E-02  0.8272737E-01
        2   -1    0    0  501    0  0.00000000000E+00  0.00000000000E+00  0.24435183375E+04  0.24435183375E+04  0.25500000920E-02 0. -1.
       -2   -1    0    0    0  501  0.00000000000E+00  0.00000000000E+00 -0.86072047375E+03  0.86072047376E+03  0.25500000920E-02 0.  1.
    10030    2    1    2    0    0  0.00000000000E+00  0.00000000000E+00  0.15827978637E+04  0.33042388112E+04  0.29004732449E+04 0.  0.
        1    1    3    3  502    0  0.12238822955E+03 -0.24928370937E+03 -0.83014699267E+03  0.87536579551E+03  0.50400001928E-02 0.  1.
       -1    1    3    3    0  502 -0.12238822955E+03  0.24928370937E+03  0.24129448564E+04  0.24288730157E+04  0.50400001928E-02 0. -1.
</event>
<event>
 5   0  0.4187518E-06  0.2889841E+04  0.7818609E-02  0.8275907E-01
        2   -1    0    0  501    0  0.00000000000E+00  0.00000000000E+00  0.21243618295E+04  0.21243618295E+04  0.25500000920E-02 0.  1.
       -2   -1    0    0    0  501  0.00000000000E+00  0.00000000000E+00 -0.98278698332E+03  0.98278698332E+03  0.25500000920E-02 0. -1.
    10030    2    1    2    0    0  0.00000000000E+00  0.00000000000E+00  0.11415748462E+04  0.31071488129E+04  0.28898409326E+04 0.  0.
        3    1    3    3  502    0 -0.13502826666E+04 -0.36395929021E+03  0.96152286312E+03  0.16971316599E+04  0.10100000352E+00 0.  1.
       -3    1    3    3    0  502  0.13502826666E+04  0.36395929021E+03  0.18005198309E+03  0.14100171529E+04  0.10100000352E+00 0. -1.
</event>
<event>
 5   0  0.4115143E-06  0.2897941E+04  0.7818609E-02  0.8273490E-01
        2   -1    0    0  501    0  0.00000000000E+00  0.00000000000E+00  0.13104981069E+04  0.13104981069E+04  0.25500000920E-02 0. -1.
       -2   -1    0    0    0  501  0.00000000000E+00  0.00000000000E+00 -0.16020739003E+04  0.16020739003E+04  0.25500000920E-02 0.  1.
    10030    2    1    2    0    0  0.00000000000E+00  0.00000000000E+00 -0.29157579344E+03  0.29125720072E+04  0.28979405194E+04 0.  0.
        1    1    3    3  502    0 -0.10274973587E+04 -0.92680404373E+03  0.28626422067E+03  0.14130335317E+04  0.50400001928E-02 0.  1.
       -1    1    3    3    0  502  0.10274973587E+04  0.92680404373E+03 -0.57784001411E+03  0.14995384755E+04  0.50400001928E-02 0. -1.
</event>
<event>
 5   0  0.4187518E-06  0.2898528E+04  0.7818609E-02  0.8273316E-01
        2   -1    0    0  501    0  0.00000000000E+00  0.00000000000E+00  0.24310528929E+04  0.24310528929E+04  0.25500000920E-02 0. -1.
       -2   -1    0    0    0  501  0.00000000000E+00  0.00000000000E+00 -0.86397385218E+03  0.86397385219E+03  0.25500000920E-02 0.  1.
    10030    2    1    2    0    0  0.00000000000E+00  0.00000000000E+00  0.15670790407E+04  0.32950267451E+04  0.28985279938E+04 0.  0.
        3    1    3    3  502    0  0.19148452462E+03  0.11599244259E+03 -0.84419803675E+03  0.87337901587E+03  0.10100000352E+00 0.  1.
       -3    1    3    3    0  502 -0.19148452462E+03 -0.11599244259E+03  0.24112770775E+04  0.24216477292E+04  0.10100000352E+00 0. -1.
</event>
<event>
 5   0  0.4162450E-06  0.2910213E+04  0.7818609E-02  0.8269845E-01
        2   -1    0    0  501    0  0.00000000000E+00  0.00000000000E+00  0.31317162931E+04  0.31317162931E+04  0.25500000920E-02 0. -1.
       -2   -1    0    0    0  501  0.00000000000E+00  0.00000000000E+00 -0.67609399083E+03  0.67609399083E+03  0.25500000920E-02 0.  1.
    10030    2    1    2    0    0  0.00000000000E+00  0.00000000000E+00  0.24556223022E+04  0.38078102839E+04  0.29102127529E+04 0.  0.
        2    1    3    3  502    0 -0.38586212894E+03  0.91131754499E+03  0.26235727941E+04  0.28040191612E+04  0.25500000920E-02 0. -1.
       -2    1    3    3    0  502  0.38586212894E+03 -0.91131754499E+03 -0.16795049185E+03  0.10037911227E+04  0.25500000920E-02 0.  1.
</event>
<event>
 5   0  0.4115143E-06  0.2942508E+04  0.7818609E-02  0.8260341E-01
        2   -1    0    0  501    0  0.00000000000E+00  0.00000000000E+00  0.26845167496E+04  0.26845167496E+04  0.25500000920E-02 0. -1.
       -2   -1    0    0    0  501  0.00000000000E+00  0.00000000000E+00 -0.80632305518E+03  0.80632305518E+03  0.25500000920E-02 0.  1.
    10030    2    1    2    0    0  0.00000000000E+00  0.00000000000E+00  0.18781936945E+04  0.34908398048E+04  0.29425076022E+04 0.  0.
        1    1    3    3  502    0 -0.12656995037E+04 -0.70032489203E+01  0.49301011175E+02  0.12666786762E+04  0.50400001928E-02 0.  1.
       -1    1    3    3    0  502  0.12656995037E+04  0.70032489203E+01  0.18288926833E+04  0.22241611286E+04  0.50400001928E-02 0. -1.
</event>
<event>
 5   0  0.1511126E-06  0.2917341E+04  0.7818609E-02  0.8267737E-01
        1   -1    0    0  501    0  0.00000000000E+00  0.00000000000E+00  0.86296989328E+03  0.86296989329E+03  0.50400001928E-02 0. -1.
       -1   -1    0    0    0  501  0.00000000000E+00  0.00000000000E+00 -0.24655779209E+04  0.24655779209E+04  0.50400001928E-02 0.  1.
    10030    2    1    2    0    0  0.00000000000E+00  0.00000000000E+00 -0.16026080276E+04  0.33285478142E+04  0.29173409230E+04 0.  0.
        5    1    3    3  502    0 -0.67676361179E+02  0.52344303670E+03  0.75019219385E+03  0.91726938259E+03  0.46999998093E+01 0. -1.
       -5    1    3    3    0  502  0.67676361179E+02 -0.52344303670E+03 -0.23528002214E+04  0.24112784316E+04  0.46999998093E+01 0.  1.
</event>
<event>
 5   0  0.1511126E-06  0.2891510E+04  0.7818609E-02  0.8275408E-01
       -1   -1    0    0    0  501  0.00000000000E+00  0.00000000000E+00  0.14415017065E+04  0.14415017065E+04  0.50400001928E-02 0. -1.
        1   -1    0    0  501    0  0.00000000000E+00  0.00000000000E+00 -0.14500208927E+04  0.14500208927E+04  0.50400001928E-02 0.  1.
    10030    2    1    2    0    0  0.00000000000E+00  0.00000000000E+00 -0.85191862329E+01  0.28915225992E+04  0.28915100493E+04 0.  0.
        5    1    3    3  502    0 -0.83754287428E+03 -0.11771310663E+04 -0.59666402065E+02  0.14459245426E+04  0.46999998093E+01 0. -1.
       -5    1    3    3    0  502  0.83754287428E+03  0.11771310663E+04  0.51147215832E+02  0.14455980566E+04  0.46999998093E+01 0.  1.
</event>
<event>
 5   0  0.4162450E-06  0.2889199E+04  0.7818609E-02  0.8276098E-01
        2   -1    0    0  501    0  0.00000000000E+00  0.00000000000E+00  0.25040525593E+04  0.25040525593E+04  0.25500000920E-02 0. -1.
       -2   -1    0    0    0  501  0.00000000000E+00  0.00000000000E+00 -0.83339639544E+03  0.83339639544E+03  0.25500000920E-02 0.  1.
    10030    2    1    2    0    0  0.00000000000E+00  0.00000000000E+00  0.16706561639E+04  0.33374489548E+04  0.28891994579E+04 0.  0.
        2    1    3    3  502    0  0.24898915439E+03 -0.14225101077E+04  0.87757821463E+03  0.16898739977E+04  0.25500000920E-02 0. -1.
       -2    1    3    3    0  502 -0.24898915439E+03  0.14225101077E+04  0.79307794923E+03  0.16475749570E+04  0.25500000920E-02 0.  1.
</event>
<event>
 5   0  0.1543678E-06  0.2646186E+04  0.7818609E-02  0.8352680E-01
        1   -1    0    0  501    0  0.00000000000E+00  0.00000000000E+00  0.15639021649E+04  0.15639021649E+04  0.50400001928E-02 0.  1.
       -1   -1    0    0    0  501  0.00000000000E+00  0.00000000000E+00 -0.11193634766E+04  0.11193634766E+04  0.50400001928E-02 0. -1.
    10030    2    1    2    0    0  0.00000000000E+00  0.00000000000E+00  0.44453868826E+03  0.26832656415E+04  0.26461859076E+04 0.  0.
        3    1    3    3  502    0 -0.51631912922E+03  0.35803883444E+03 -0.95843392164E+03  0.11460248001E+04  0.10100000352E+00 0. -1.
       -3    1    3    3    0  502  0.51631912922E+03 -0.35803883444E+03  0.14029726099E+04  0.15372408414E+04  0.10100000352E+00 0.  1.
</event>
<event>
 5   0  0.1511126E-06  0.2888695E+04  0.7818609E-02  0.8276249E-01
        1   -1    0    0  501    0  0.00000000000E+00  0.00000000000E+00  0.14146436476E+04  0.14146436476E+04  0.50400001928E-02 0.  1.
       -1   -1    0    0    0  501  0.00000000000E+00  0.00000000000E+00 -0.14746746480E+04  0.14746746480E+04  0.50400001928E-02 0. -1.
    10030    2    1    2    0    0  0.00000000000E+00  0.00000000000E+00 -0.60031000444E+02  0.28893182956E+04  0.28886946000E+04 0.  0.
        5    1    3    3  502    0  0.57304334065E+03 -0.13132482830E+04 -0.21203641194E+03  0.14484409732E+04  0.46999998093E+01 0.  1.
       -5    1    3    3    0  502 -0.57304334065E+03  0.13132482830E+04  0.15200541150E+03  0.14408773223E+04  0.46999998093E+01 0. -1.
</event>
<event>
 5   0  0.1360125E-06  0.3038939E+04  0.7818609E-02  0.8232698E-01
        4   -1    0    0  501    0  0.00000000000E+00  0.00000000000E+00  0.10048194320E+04  0.10048202346E+04  0.12699999809E+01 0.  1.
       -4   -1    0    0    0  501  0.00000000000E+00  0.00000000000E+00 -0.22977126068E+04  0.22977129577E+04  0.12699999809E+01 0. -1.
    10030    2    1    2    0    0  0.00000000000E+00  0.00000000000E+00 -0.12928931747E+04  0.33025331923E+04  0.30389394080E+04 0.  0.
        5    1    3    3  502    0  0.99899847193E+03 -0.85881851827E+01 -0.18906055433E+04  0.21383365297E+04  0.46999998093E+01 0. -1.
       -5    1    3    3    0  502 -0.99899847193E+03  0.85881851827E+01  0.59771236855E+03  0.11641966627E+04  0.46999998093E+01 0.  1.
</event>
<event>
 5   0  0.4187518E-06  0.2866261E+04  0.7818609E-02  0.8282987E-01
       -2   -1    0    0    0  501  0.00000000000E+00  0.00000000000E+00  0.10221160375E+04  0.10221160375E+04  0.25500000920E-02 0. -1.
        2   -1    0    0  501    0  0.00000000000E+00  0.00000000000E+00 -0.20094225524E+04  0.20094225524E+04  0.25500000920E-02 0.  1.
    10030    2    1    2    0    0  0.00000000000E+00  0.00000000000E+00 -0.98730651486E+03  0.30315385899E+04  0.28662609909E+04 0.  0.
        3    1    3    3  502    0  0.30351376492E+03  0.27659478028E+03 -0.19458666219E+04  0.19887237612E+04  0.10100000352E+00 0.  1.
       -3    1    3    3    0  502 -0.30351376492E+03 -0.27659478028E+03  0.95856010705E+03  0.10428148287E+04  0.10100000352E+00 0. -1.
</event>
<event>
 5   0  0.1360125E-06  0.2910279E+04  0.7818609E-02  0.8269826E-01
       -3   -1    0    0    0  501  0.00000000000E+00  0.00000000000E+00  0.18423257767E+04  0.18423257795E+04  0.10100000352E+00 0.  1.
        3   -1    0    0  501    0  0.00000000000E+00  0.00000000000E+00 -0.11493249448E+04  0.11493249493E+04  0.10100000352E+00 0. -1.
    10030    2    1    2    0    0  0.00000000000E+00  0.00000000000E+00  0.69300083190E+03  0.29916507288E+04  0.29102790124E+04 0.  0.
        1    1    3    3  502    0  0.73914590124E+03 -0.84843163718E+02 -0.93902358641E+03  0.11980402003E+04  0.50400001928E-02 0. -1.
       -1    1    3    3    0  502 -0.73914590124E+03  0.84843163718E+02  0.16320244183E+04  0.17936105284E+04  0.50400001928E-02 0.  1.
</event>
<event>
 5   0  0.4162450E-06  0.2894083E+04  0.7818609E-02  0.8274640E-01
        2   -1    0    0  501    0  0.00000000000E+00  0.00000000000E+00  0.19333549268E+04  0.19333549268E+04  0.25500000920E-02 0.  1.
       -2   -1    0    0    0  501  0.00000000000E+00  0.00000000000E+00 -0.10830544527E+04  0.10830544527E+04  0.25500000920E-02 0. -1.
    10030    2    1    2    0    0  0.00000000000E+00  0.00000000000E+00  0.85030047402E+03  0.30164093795E+04  0.28940826956E+04 0.  0.
        2    1    3    3  502    0  0.63896536568E+03 -0.12531099974E+04  0.77916439531E+03  0.16079983082E+04  0.25500000920E-02 0.  1.
       -2    1    3    3    0  502 -0.63896536568E+03  0.12531099974E+04  0.71136078713E+02  0.14084110713E+04  0.25500000920E-02 0. -1.
</event>
<event>
 5   0  0.1543678E-06  0.2934178E+04  0.7818609E-02  0.8262781E-01
       -1   -1    0    0    0  501  0.00000000000E+00  0.00000000000E+00  0.77094708323E+03  0.77094708325E+03  0.50400001928E-02 0.  1.
        1   -1    0    0  501    0  0.00000000000E+00  0.00000000000E+00 -0.27918261001E+04  0.27918261001E+04  0.50400001928E-02 0. -1.
    10030    2    1    2    0    0  0.00000000000E+00  0.00000000000E+00 -0.20208790168E+04  0.35627731833E+04  0.29341780374E+04 0.  0.
        3    1    3    3  502    0  0.25043924497E+03 -0.12347091002E+04 -0.97643962946E+02  0.12636299820E+04  0.10100000352E+00 0.  1.
       -3    1    3    3    0  502 -0.25043924497E+03  0.12347091002E+04 -0.19232350539E+04  0.22991432013E+04  0.10100000352E+00 0. -1.
</event>
<event>
 5   0  0.4187518E-06  0.2889803E+04  0.7818609E-02  0.8275918E-01
        2   -1    0    0  501    0  0.00000000000E+00  0.00000000000E+00  0.27185705173E+04  0.27185705173E+04  0.25500000920E-02 0. -1.
       -2   -1    0    0    0  501  0.00000000000E+00  0.00000000000E+00 -0.76795533216E+03  0.76795533216E+03  0.25500000920E-02 0.  1.
    10030    2    1    2    0    0  0.00000000000E+00  0.00000000000E+00  0.19506151851E+04  0.34865258494E+04  0.28898032629E+04 0.  0.
        3    1    3    3  502    0  0.10535007217E+04  0.51605450604E+03 -0.42420603967E+02  0.11738720295E+04  0.10100000352E+00 0.  1.
       -3    1    3    3    0  502 -0.10535007217E+04 -0.51605450604E+03  0.19930357891E+04  0.23126538199E+04  0.10100000352E+00 0. -1.
</event>
<event>
 5   0  0.1550278E-06  0.2897492E+04  0.7818609E-02  0.8273624E-01
       -1   -1    0    0    0  501  0.00000000000E+00  0.00000000000E+00  0.10671278471E+04  0.10671278471E+04  0.50400001928E-02 0. -1.
        1   -1    0    0  501    0  0.00000000000E+00  0.00000000000E+00 -0.19668352665E+04  0.19668352665E+04  0.50400001928E-02 0.  1.
    10030    2    1    2    0    0  0.00000000000E+00  0.00000000000E+00 -0.89970741933E+03  0.30339631136E+04  0.28974918006E+04 0.  0.
        2    1    3    3  502    0 -0.12598294079E+04 -0.66521162107E+02 -0.11956280700E+04  0.17381374180E+04  0.25500000920E-02 0.  1.
       -2    1    3    3    0  502  0.12598294079E+04  0.66521162107E+02  0.29592065066E+03  0.12958256956E+04  0.25500000920E-02 0. -1.
</event>
<event>
 5   0  0.1511126E-06  0.2911785E+04  0.7818609E-02  0.8269380E-01
        1   -1    0    0  501    0  0.00000000000E+00  0.00000000000E+00  0.24058150013E+04  0.24058150013E+04  0.50400001928E-02 0.  1.
       -1   -1    0    0    0  501  0.00000000000E+00  0.00000000000E+00 -0.88104131406E+03  0.88104131407E+03  0.50400001928E-02 0. -1.
    10030    2    1    2    0    0  0.00000000000E+00  0.00000000000E+00  0.15247736872E+04  0.32868563154E+04  0.29117846144E+04 0.  0.
        5    1    3    3  502    0  0.17049260466E+03  0.71452142068E+03 -0.65650365159E+03  0.98520440691E+03  0.46999998093E+01 0. -1.
       -5    1    3    3    0  502 -0.17049260466E+03 -0.71452142068E+03  0.21812773388E+04  0.23016519085E+04  0.46999998093E+01 0.  1.
</event>
<event>
 5   0  0.1511126E-06  0.2904998E+04  0.7818609E-02  0.8271392E-01
        1   -1    0    0  501    0  0.00000000000E+00  0.00000000000E+00  0.22411854612E+04  0.22411854612E+04  0.50400001928E-02 0.  1.
       -1   -1    0    0    0  501  0.00000000000E+00  0.00000000000E+00 -0.94135592598E+03  0.94135592599E+03  0.50400001928E-02 0. -1.
    10030    2    1    2    0    0  0.00000000000E+00  0.00000000000E+00  0.12998295352E+04  0.31825413872E+04  0.29049979106E+04 0.  0.
        5    1    3    3  502    0 -0.74074698054E+03  0.11388493749E+04  0.12128636580E+04  0.18211931064E+04  0.46999998093E+01 0.  1.
       -5    1    3    3    0  502  0.74074698054E+03 -0.11388493749E+04  0.86965877204E+02  0.13613482808E+04  0.46999998093E+01 0. -1.
</event>
<event>
 5   0  0.1550278E-06  0.2918481E+04  0.7818609E-02  0.8267400E-01
        1   -1    0    0  501    0  0.00000000000E+00  0.00000000000E+00  0.16377005589E+04  0.16377005589E+04  0.50400001928E-02 0. -1.
       -1   -1    0    0    0  501  0.00000000000E+00  0.00000000000E+00 -0.13002270211E+04  0.13002270211E+04  0.50400001928E-02 0.  1.
    10030    2    1    2    0    0  0.00000000000E+00  0.00000000000E+00  0.33747353776E+03  0.29379275800E+04  0.29184807823E+04 0.  0.
        2    1    3    3  502    0 -0.12475586321E+04 -0.11826977609E+03 -0.58390295660E+03  0.13825096539E+04  0.25500000920E-02 0.  1.
       -2    1    3    3    0  502  0.12475586321E+04  0.11826977609E+03  0.92137649437E+03  0.15554179261E+04  0.25500000920E-02 0. -1.
</event>
<event>
 5   0  0.4224163E-06  0.2896458E+04  0.7818609E-02  0.8273932E-01
       -2   -1    0    0    0  501  0.00000000000E+00  0.00000000000E+00  0.14640829517E+04  0.14640829517E+04  0.25500000920E-02 0. -1.
        2   -1    0    0  501    0  0.00000000000E+00  0.00000000000E+00 -0.14325463483E+04  0.14325463483E+04  0.25500000920E-02 0.  1.
    10030    2    1    2    0    0  0.00000000000E+00  0.00000000000E+00  0.31536603328E+02  0.28966293000E+04  0.28964576200E+04 0.  0.
        4    1    3    3  502    0  0.90380421885E+03 -0.10600462110E+04  0.41177793107E+03  0.14526261436E+04  0.12699999809E+01 0. -1.
       -4    1    3    3    0  502 -0.90380421885E+03  0.10600462110E+04 -0.38024132774E+03  0.14440031564E+04  0.12699999809E+01 0.  1.
</event>
<event>
 5   0  0.1580212E-06  0.2812840E+04  0.7818609E-02  0.8299293E-01
        1   -1    0    0  501    0  0.00000000000E+00  0.00000000000E+00  0.18920404017E+04  0.18920404017E+04  0.50400001928E-02 0.  1.
       -1   -1    0    0    0  501  0.00000000000E+00  0.00000000000E+00 -0.10454411187E+04  0.10454411188E+04  0.50400001928E-02 0. -1.
    10030    2    1    2    0    0  0.00000000000E+00  0.00000000000E+00  0.84659928298E+03  0.29374815205E+04  0.28128397283E+04 0.  0.
        4    1    3    3  502    0  0.11489049029E+04 -0.69036692139E+03  0.86811546587E+03  0.15969392716E+04  0.12699999809E+01 0.  1.
       -4    1    3    3    0  502 -0.11489049029E+04  0.69036692139E+03 -0.21516182892E+02  0.13405422489E+04  0.12699999809E+01 0. -1.
</event>
<event>
 5   0  0.1511126E-06  0.2888053E+04  0.7818609E-02  0.8276441E-01
       -1   -1    0    0    0  501  0.00000000000E+00  0.00000000000E+00  0.18132138012E+04  0.18132138012E+04  0.50400001928E-02 0. -1.
        1   -1    0    0  501    0  0.00000000000E+00  0.00000000000E+00 -0.11500094649E+04  0.11500094649E+04  0.50400001928E-02 0.  1.
    10030    2    1    2    0    0  0.00000000000E+00  0.00000000000E+00  0.66320433629E+03  0.29632232661E+04  0.28880533466E+04 0.  0.
        5    1    3    3  502    0 -0.48452923079E+03  0.15736210331E+03 -0.10547356126E+04  0.11713328774E+04  0.46999998093E+01 0.  1.
       -5    1    3    3    0  502  0.48452923079E+03 -0.15736210331E+03  0.17179399489E+04  0.17918903887E+04  0.46999998093E+01 0. -1.
</event>
<event>
 5   0  0.1550278E-06  0.2948370E+04  0.7818609E-02  0.8258630E-01
        1   -1    0    0  501    0  0.00000000000E+00  0.00000000000E+00  0.22204513004E+04  0.22204513004E+04  0.50400001928E-02 0. -1.
       -1   -1    0    0    0  501  0.00000000000E+00  0.00000000000E+00 -0.97872952575E+03  0.97872952576E+03  0.50400001928E-02 0.  1.
    10030    2    1    2    0    0  0.00000000000E+00  0.00000000000E+00  0.12417217747E+04  0.31991808262E+04  0.29483698874E+04 0.  0.
        2    1    3    3  502    0  0.65295488681E+03  0.12737513933E+04  0.10036123376E+04  0.17481505714E+04  0.25500000920E-02 0. -1.
       -2    1    3    3    0  502 -0.65295488681E+03 -0.12737513933E+04  0.23810943707E+03  0.14510302548E+04  0.25500000920E-02 0.  1.
</event>
<event>
 5   0  0.4115143E-06  0.2991010E+04  0.7818609E-02  0.8246303E-01
       -2   -1    0    0    0  501  0.00000000000E+00  0.00000000000E+00  0.29526784042E+04  0.29526784042E+04  0.25500000920E-02 0. -1.
        2   -1    0    0  501    0  0.00000000000E+00  0.00000000000E+00 -0.75745999625E+03  0.75745999625E+03  0.25500000920E-02 0.  1.
    10030    2    1    2    0    0  0.00000000000E+00  0.00000000000E+00  0.21952184079E+04  0.37101384004E+04  0.29910103798E+04 0.  0.
        1    1    3    3  502    0 -0.10123327283E+04  0.10991282516E+04  0.10228193453E+04  0.18108174616E+04  0.50400001928E-02 0.  1.
       -1    1    3    3    0  502  0.10123327283E+04 -0.10991282516E+04  0.11723990627E+04  0.18993209388E+04  0.50400001928E-02 0. -1.
</event>
<event>
 5   0  0.4187518E-06  0.2899643E+04  0.7818609E-02  0.8272984E-01
       -2   -1    0    0    0  501  0.00000000000E+00  0.00000000000E+00  0.17215341516E+04  0.17215341516E+04  0.25500000920E-02 0. -1.
        2   -1    0    0  501    0  0.00000000000E+00  0.00000000000E+00 -0.12209933301E+04  0.12209933301E+04  0.25500000920E-02 0.  1.
    10030    2    1    2    0    0  0.00000000000E+00  0.00000000000E+00  0.50054082155E+03  0.29425274817E+04  0.28996425412E+04 0.  0.
        3    1    3    3  502    0 -0.21442071731E+03  0.86904017247E+03  0.14076534019E+04  0.16681412337E+04  0.10100000352E+00 0. -1.
       -3    1    3    3    0  502  0.21442071731E+03 -0.86904017247E+03 -0.90711258038E+03  0.12743862480E+04  0.10100000352E+00 0.  1.
</event>
<event>
 5   0  0.4187518E-06  0.3217495E+04  0.7818609E-02  0.8184212E-01
       -2   -1    0    0    0  501  0.00000000000E+00  0.00000000000E+00  0.10714363925E+04  0.10714363925E+04  0.25500000920E-02 0. -1.
        2   -1    0    0  501    0  0.00000000000E+00  0.00000000000E+00 -0.24155128478E+04  0.24155128478E+04  0.25500000920E-02 0.  1.
    10030    2    1    2    0    0  0.00000000000E+00  0.00000000000E+00 -0.13440764553E+04  0.34869492403E+04  0.32174949086E+04 0.  0.
        3    1    3    3  502    0 -0.40885326262E+03 -0.76504558329E+03  0.79627352590E+03  0.11775004344E+04  0.10100000352E+00 0. -1.
       -3    1    3    3    0  502  0.40885326262E+03  0.76504558329E+03 -0.21403499812E+04  0.23094488059E+04  0.10100000352E+00 0.  1.
</event>
<event>
 5   0  0.1580212E-06  0.2899445E+04  0.7818609E-02  0.8273043E-01
       -1   -1    0    0    0  501  0.00000000000E+00  0.00000000000E+00  0.10306639312E+04  0.10306639312E+04  0.50400001928E-02 0.  1.
        1   -1    0    0  501    0  0.00000000000E+00  0.00000000000E+00 -0.20391667032E+04  0.20391667032E+04  0.50400001928E-02 0. -1.
    10030    2    1    2    0    0  0.00000000000E+00  0.00000000000E+00 -0.10085027720E+04  0.30698306344E+04  0.28994451681E+04 0.  0.
        4    1    3    3  502    0  0.20713582319E+02  0.92313043361E+03 -0.16875579381E+04  0.19236559612E+04  0.12699999809E+01 0. -1.
       -4    1    3    3    0  502 -0.20713582319E+02 -0.92313043361E+03  0.67905516607E+03  0.11461746732E+04  0.12699999809E+01 0.  1.
</event>
<event>
 5   0  0.4115143E-06  0.2966445E+04  0.7818609E-02  0.8253378E-01
        2   -1    0    0  501    0  0.00000000000E+00  0.00000000000E+00  0.23752721541E+04  0.23752721541E+04  0.25500000920E-02 0.  1.
       -2   -1    0    0    0  501  0.00000000000E+00  0.00000000000E+00 -0.92618814642E+03  0.92618814642E+03  0.25500000920E-02 0. -1.
    10030    2    1    2    0    0  0.00000000000E+00  0.00000000000E+00  0.14490840077E+04  0.33014603006E+04  0.29664449523E+04 0.  0.
        1    1    3    3  502    0  0.73564688225E+03 -0.10615380748E+04 -0.87145120176E+02  0.12944627039E+04  0.50400001928E-02 0. -1.
       -1    1    3    3    0  502 -0.73564688225E+03  0.10615380748E+04  0.15362291279E+04  0.20069975967E+04  0.50400001928E-02 0.  1.
</event>
<event>
 5   0  0.1550278E-06  0.2689086E+04  0.7818609E-02  0.8338555E-01
       -1   -1    0    0    0  501  0.00000000000E+00  0.00000000000E+00  0.10312583072E+04  0.10312583072E+04  0.50400001928E-02 0.  1.
        1   -1    0    0  501    0  0.00000000000E+00  0.00000000000E+00 -0.17529999677E+04  0.17529999677E+04  0.50400001928E-02 0. -1.
    10030    2    1    2    0    0  0.00000000000E+00  0.00000000000E+00 -0.72174166056E+03  0.27842582749E+04  0.26890859259E+04 0.  0.
        2    1    3    3  502    0  0.23815303565E+03  0.26679867113E+03  0.98110970213E+03  0.10442579408E+04  0.25500000920E-02 0.  1.
       -2    1    3    3    0  502 -0.23815303565E+03 -0.26679867113E+03 -0.17028513627E+04  0.17400003341E+04  0.25500000920E-02 0. -1.
</event>
<event>
 5   0  0.1543678E-06  0.2881199E+04  0.7818609E-02  0.8278494E-01
       -1   -1    0    0    0  501  0.00000000000E+00  0.00000000000E+00  0.87584918818E+03  0.87584918819E+03  0.50400001928E-02 0.  1.
        1   -1    0    0  501    0  0.00000000000E+00  0.00000000000E+00 -0.23695018202E+04  0.23695018202E+04  0.50400001928E-02 0. -1.
    10030    2    1    2    0    0  0.00000000000E+00  0.00000000000E+00 -0.14936526320E+04  0.32453510084E+04  0.28811985323E+04 0.  0.
        3    1    3    3  502    0 -0.99482502664E+03  0.33557785568E+03  0.36427368249E+03  0.11112986353E+04  0.10100000352E+00 0.  1.
       -3    1    3    3    0  502  0.99482502664E+03 -0.33557785568E+03 -0.18579263145E+04  0.21340523731E+04  0.10100000352E+00 0. -1.
</event>
<event>
 5   0  0.1511126E-06  0.2924955E+04  0.7818609E-02  0.8265491E-01
        1   -1    0    0  501    0  0.00000000000E+00  0.00000000000E+00  0.83944967001E+03  0.83944967003E+03  0.50400001928E-02 0.  1.
       -1   -1    0    0    0  501  0.00000000000E+00  0.00000000000E+00 -0.25479076816E+04  0.25479076816E+04  0.50400001928E-02 0. -1.
    10030    2    1    2    0    0  0.00000000000E+00  0.00000000000E+00 -0.17084580116E+04  0.33873573517E+04  0.29249548801E+04 0.  0.
        5    1    3    3  502    0 -0.24775181627E+03  0.71635417838E+03  0.59420343725E+03  0.96314281713E+03  0.46999998093E+01 0.  1.
       -5    1    3    3    0  502  0.24775181627E+03 -0.71635417838E+03 -0.23026614489E+04  0.24242145345E+04  0.46999998093E+01 0. -1.
</event>
<event>
 5   0  0.4162450E-06  0.2908231E+04  0.7818609E-02  0.8270433E-01
        2   -1    0    0  501    0  0.00000000000E+00  0.00000000000E+00  0.17172302471E+04  0.17172302471E+04  0.25500000920E-02 0.  1.
       -2   -1    0    0    0  501  0.00000000000E+00  0.00000000000E+00 -0.12313154606E+04  0.12313154606E+04  0.25500000920E-02 0. -1.
    10030    2    1    2    0    0  0.00000000000E+00  0.00000000000E+00  0.48591478657E+03  0.29485457077E+04  0.29082311825E+04 0.  0.
        2    1    3    3  502    0  0.44532031824E+03 -0.68657013375E+03  0.14616026604E+04  0.16751033017E+04  0.25500000920E-02 0.  1.
       -2    1    3    3    0  502 -0.44532031824E+03  0.68657013375E+03 -0.97568787383E+03  0.12734424061E+04  0.25500000920E-02 0. -1.
</event>
<event>
 5   0  0.4115143E-06  0.2896251E+04  0.7818609E-02  0.8273994E-01
       -2   -1    0    0    0  501  0.00000000000E+00  0.00000000000E+00  0.12473268375E+04  0.12473268375E+04  0.25500000920E-02 0. -1.
        2   -1    0    0  501    0  0.00000000000E+00  0.00000000000E+00 -0.16812497945E+04  0.16812497945E+04  0.25500000920E-02 0.  1.
    10030    2    1    2    0    0  0.00000000000E+00  0.00000000000E+00 -0.43392295708E+03  0.29285766320E+04  0.28962513629E+04 0.  0.
        1    1    3    3  502    0 -0.19498613842E+03 -0.32869900309E+02  0.12336117119E+04  0.12493589878E+04  0.50400001928E-02 0. -1.
       -1    1    3    3    0  502  0.19498613842E+03  0.32869900309E+02 -0.16675346690E+04  0.16792176443E+04  0.50400001928E-02 0.  1.
</event>
<event>
 5   0  0.4148677E-06  0.2899493E+04  0.7818609E-02  0.8273028E-01
        2   -1    0    0  501    0  0.00000000000E+00  0.00000000000E+00  0.14436204960E+04  0.14436204960E+04  0.25500000920E-02 0.  1.
       -2   -1    0    0    0  501  0.00000000000E+00  0.00000000000E+00 -0.14558989615E+04  0.14558989615E+04  0.25500000920E-02 0. -1.
    10030    2    1    2    0    0  0.00000000000E+00  0.00000000000E+00 -0.12278465559E+02  0.28995194575E+04  0.28994934599E+04 0.  0.
        5    1    3    3  502    0 -0.44924053776E+03  0.13738048167E+04  0.10605248450E+03  0.14492846355E+04  0.46999998093E+01 0.  1.
       -5    1    3    3    0  502  0.44924053776E+03 -0.13738048167E+04 -0.11833095006E+03  0.14502348220E+04  0.46999998093E+01 0. -1.
</event>
<event>
 5   0  0.1550278E-06  0.2899557E+04  0.7818609E-02  0.8273009E-01
        1   -1    0    0  501    0  0.00000000000E+00  0.00000000000E+00  0.27746776707E+04  0.27746776707E+04  0.50400001928E-02 0.  1.
       -1   -1    0    0    0  501  0.00000000000E+00  0.00000000000E+00 -0.75751415470E+03  0.75751415472E+03  0.50400001928E-02 0. -1.
    10030    2    1    2    0    0  0.00000000000E+00  0.00000000000E+00  0.20171635160E+04  0.35321918254E+04  0.28995569388E+04 0.  0.
        2    1    3    3  502    0  0.73687268761E+03  0.23874644889E+03 -0.48431485967E+03  0.91353276236E+03  0.25500000920E-02 0. -1.
       -2    1    3    3    0  502 -0.73687268761E+03 -0.23874644889E+03  0.25014783757E+04  0.26186590631E+04  0.25500000920E-02 0.  1.
</event>
<event>
 5   0  0.4224163E-06  0.2905229E+04  0.7818609E-02  0.8271323E-01
       -2   -1    0    0    0  501  0.00000000000E+00  0.00000000000E+00  0.98294839062E+03  0.98294839062E+03  0.25500000920E-02 0. -1.
        2   -1    0    0  501    0  0.00000000000E+00  0.00000000000E+00 -0.21466940927E+04  0.21466940927E+04  0.25500000920E-02 0.  1.
    10030    2    1    2    0    0  0.00000000000E+00  0.00000000000E+00 -0.11637457020E+04  0.31296424833E+04  0.29052294254E+04 0.  0.
        4    1    3    3  502    0  0.13179782479E+03  0.11063464341E+04  0.42217151252E+03  0.11914711485E+04  0.12699999809E+01 0. -1.
       -4    1    3    3    0  502 -0.13179782479E+03 -0.11063464341E+04 -0.15859172146E+04  0.19381713348E+04  0.12699999809E+01 0.  1.
</event>
<event>
 5   0  0.4115143E-06  0.2850117E+04  0.7818609E-02  0.8287876E-01
        2   -1    0    0  501    0  0.00000000000E+00  0.00000000000E+00  0.12291411924E+04  0.12291411924E+04  0.25500000920E-02 0.  1.
       -2   -1    0    0    0  501  0.00000000000E+00  0.00000000000E+00 -0.16522034049E+04  0.16522034049E+04  0.25500000920E-02 0. -1.
    10030    2    1    2    0    0  0.00000000000E+00  0.00000000000E+00 -0.42306221255E+03  0.28813445973E+04  0.28501166735E+04 0.  0.
        1    1    3    3  502    0 -0.63862095806E+03 -0.73262577963E+02  0.10742481172E+04  0.12518838408E+04  0.50400001928E-02 0.  1.
       -1    1    3    3    0  502  0.63862095806E+03  0.73262577963E+02 -0.14973103298E+04  0.16294607565E+04  0.50400001928E-02 0. -1.
</event>
<event>
 5   0  0.1602873E-06  0.2901062E+04  0.7818609E-02  0.8272562E-01
        1   -1    0    0  501    0  0.00000000000E+00  0.00000000000E+00  0.68245616940E+03  0.68245616942E+03  0.50400001928E-02 0.  1.
       -1   -1    0    0    0  501  0.00000000000E+00  0.00000000000E+00 -0.30830404113E+04  0.30830404113E+04  0.50400001928E-02 0. -1.
    10030    2    1    2    0    0  0.00000000000E+00  0.00000000000E+00 -0.24005842419E+04  0.37654965808E+04  0.29010618396E+04 0.  0.
        1    1    3    3  502    0 -0.89836157749E+03  0.72329346530E+02 -0.26755071509E+04  0.28232292810E+04  0.50400001928E-02 0. -1.
       -1    1    3    3    0  502  0.89836157749E+03 -0.72329346530E+02  0.27492290901E+03  0.94226729976E+03  0.50400001928E-02 0.  1.
</event>
<event>
 5   0  0.1511126E-06  0.2869234E+04  0.7818609E-02  0.8282090E-01
        1   -1    0    0  501    0  0.00000000000E+00  0.00000000000E+00  0.12662835350E+04  0.12662835350E+04  0.50400001928E-02 0.  1.
       -1   -1    0    0    0  501  0.00000000000E+00  0.00000000000E+00 -0.16253282631E+04  0.16253282631E+04  0.50400001928E-02 0. -1.
    10030    2    1    2    0    0  0.00000000000E+00  0.00000000000E+00 -0.35904472818E+03  0.28916117981E+04  0.28692343359E+04 0.  0.
        5    1    3    3  502    0  0.60552803447E+03  0.98222180552E+03 -0.10386262981E+04  0.15524788413E+04  0.46999998093E+01 0. -1.
       -5    1    3    3    0  502 -0.60552803447E+03 -0.98222180552E+03  0.67958156989E+03  0.13391329568E+04  0.46999998093E+01 0.  1.
</event>
<event>
 5   0  0.4148677E-06  0.2895882E+04  0.7818609E-02  0.8274104E-01
       -2   -1    0    0    0  501  0.00000000000E+00  0.00000000000E+00  0.23343717415E+04  0.23343717415E+04  0.25500000920E-02 0. -1.
        2   -1    0    0  501    0  0.00000000000E+00  0.00000000000E+00 -0.89811448343E+03  0.89811448344E+03  0.25500000920E-02 0.  1.
    10030    2    1    2    0    0  0.00000000000E+00  0.00000000000E+00  0.14362572581E+04  0.32324862250E+04  0.28958819526E+04 0.  0.
        5    1    3    3  502    0  0.29596903220E+03  0.19736778058E+03  0.22848236102E+04  0.23123565315E+04  0.46999998093E+01 0. -1.
       -5    1    3    3    0  502 -0.29596903220E+03 -0.19736778058E+03 -0.84856635214E+03  0.92012969348E+03  0.46999998093E+01 0.  1.
</event>
<event>
 5   0  0.4148677E-06  0.2895339E+04  0.7818609E-02  0.8274266E-01
        2   -1    0    0  501    0  0.00000000000E+00  0.00000000000E+00  0.21597133058E+04  0.21597133058E+04  0.25500000920E-02 0. -1.
       -2   -1    0    0    0  501  0.00000000000E+00  0.00000000000E+00 -0.97038176471E+03  0.97038176471E+03  0.25500000920E-02 0.  1.
    10030    2    1    2    0    0  0.00000000000E+00  0.00000000000E+00  0.11893315411E+04  0.31300950705E+04  0.28953386047E+04 0.  0.
        5    1    3    3  502    0 -0.11765128159E+04 -0.74917489327E+02  0.15029855391E+04  0.19101786977E+04  0.46999998093E+01 0. -1.
       -5    1    3    3    0  502  0.11765128159E+04  0.74917489327E+02 -0.31365399804E+03  0.12199163728E+04  0.46999998093E+01 0.  1.
</event>
<event>
 5   0  0.4148677E-06  0.2818381E+04  0.7818609E-02  0.8297584E-01
        2   -1    0    0  501    0  0.00000000000E+00  0.00000000000E+00  0.22397800363E+04  0.22397800363E+04  0.25500000920E-02 0. -1.
       -2   -1    0    0    0  501  0.00000000000E+00  0.00000000000E+00 -0.88661317134E+03  0.88661317134E+03  0.25500000920E-02 0.  1.
    10030    2    1    2    0    0  0.00000000000E+00  0.00000000000E+00  0.13531668649E+04  0.31263932076E+04  0.28183814370E+04 0.  0.
        5    1    3    3  502    0 -0.54606283990E+03 -0.78602687137E+03 -0.47075027072E+03  0.10666071325E+04  0.46999998093E+01 0.  1.
       -5    1    3    3    0  502  0.54606283990E+03  0.78602687137E+03  0.18239171356E+04  0.20597860751E+04  0.46999998093E+01 0. -1.
</event>
<event>
 5   0  0.4224163E-06  0.2901298E+04  0.7818609E-02  0.8272491E-01
       -2   -1    0    0    0  501  0.00000000000E+00  0.00000000000E+00  0.12349566721E+04  0.12349566721E+04  0.25500000920E-02 0.  1.
        2   -1    0    0  501    0  0.00000000000E+00  0.00000000000E+00 -0.17040130716E+04  0.17040130716E+04  0.25500000920E-02 0. -1.
    10030    2    1    2    0    0  0.00000000000E+00  0.00000000000E+00 -0.46905639943E+03  0.29389697437E+04  0.29012978559E+04 0.  0.
        4    1    3    3  502    0  0.57737394515E+03 -0.13072426326E+04  0.17980870218E+02  0.14291846968E+04  0.12699999809E+01 0. -1.
       -4    1    3    3    0  502 -0.57737394515E+03  0.13072426326E+04 -0.48703726965E+03  0.15097850469E+04  0.12699999809E+01 0.  1.
</event>
<event>
 5   0  0.4224163E-06  0.2924660E+04  0.7818609E-02  0.8265578E-01
        2   -1    0    0  501    0  0.00000000000E+00  0.00000000000E+00  0.18274424182E+04  0.18274424182E+04  0.25500000920E-02 0. -1.
       -2   -1    0    0    0  501  0.00000000000E+00  0.00000000000E+00 -0.11701649796E+04  0.11701649796E+04  0.25500000920E-02 0.  1.
    10030    2    1    2    0    0  0.00000000000E+00  0.00000000000E+00  0.65727743859E+03  0.29976073978E+04  0.29246600623E+04 0.  0.
        4    1    3    3  502    0 -0.75960074450E+03 -0.55374347189E+03 -0.81947144981E+03  0.12470606215E+04  0.12699999809E+01 0.  1.
       -4    1    3    3    0  502  0.75960074450E+03  0.55374347189E+03  0.14767488884E+04  0.17505467763E+04  0.12699999809E+01 0. -1.
</event>
<event>
 5   0  0.1511126E-06  0.2894974E+04  0.7818609E-02  0.8274374E-01
       -1   -1    0    0    0  501  0.00000000000E+00  0.00000000000E+00  0.23264060820E+04  0.23264060820E+04  0.50400001928E-02 0. -1.
        1   -1    0    0  501    0  0.00000000000E+00  0.00000000000E+00 -0.90062490631E+03  0.90062490632E+03  0.50400001928E-02 0.  1.
    10030    2    1    2    0    0  0.00000000000E+00  0.00000000000E+00  0.14257811757E+04  0.32270309884E+04  0.28949744453E+04 0.  0.
        5    1    3    3  502    0  0.42607298557E+03  0.28455574746E+03  0.22219368428E+04  0.22802490184E+04  0.46999998093E+01 0. -1.
       -5    1    3    3    0  502 -0.42607298557E+03 -0.28455574746E+03 -0.79615566708E+03  0.94678196997E+03  0.46999998093E+01 0.  1.
</event>
<event>
 5   0  0.4187518E-06  0.2894752E+04  0.7818609E-02  0.8274441E-01
        2   -1    0    0  501    0  0.00000000000E+00  0.00000000000E+00  0.22258190213E+04  0.22258190213E+04  0.25500000920E-02 0.  1.
       -2   -1    0    0    0  501  0.00000000000E+00  0.00000000000E+00 -0.94118048035E+03  0.94118048036E+03  0.25500000920E-02 0. -1.
    10030    2    1    2    0    0  0.00000000000E+00  0.00000000000E+00  0.12846385410E+04  0.31669995017E+04  0.28947520900E+04 0.  0.
        3    1    3    3  502    0  0.14560561098E+02  0.92930269655E+03  0.18562113867E+04  0.20758940806E+04  0.10100000352E+00 0.  1.
       -3    1    3    3    0  502 -0.14560561098E+02 -0.92930269655E+03 -0.57157284569E+03  0.10911054211E+04  0.10100000352E+00 0. -1.
</event>
<event>
 5   0  0.4162450E-06  0.2903614E+04  0.7818609E-02  0.8271803E-01
       -2   -1    0    0    0  501  0.00000000000E+00  0.00000000000E+00  0.17087915277E+04  0.17087915277E+04  0.25500000920E-02 0.  1.
        2   -1    0    0  501    0  0.00000000000E+00  0.00000000000E+00 -0.12334702055E+04  0.12334702055E+04  0.25500000920E-02 0. -1.
    10030    2    1    2    0    0  0.00000000000E+00  0.00000000000E+00  0.47532132222E+03  0.29422617331E+04  0.29036139115E+04 0.  0.
        2    1    3    3  502    0 -0.31364012334E+03 -0.10054669691E+04  0.12501647454E+04  0.16347005363E+04  0.25500000920E-02 0.  1.
       -2    1    3    3    0  502  0.31364012334E+03  0.10054669691E+04 -0.77484342316E+03  0.13075611968E+04  0.25500000920E-02 0. -1.
</event>
<event>
 5   0  0.1543678E-06  0.2866826E+04  0.7818609E-02  0.8282817E-01
        1   -1    0    0  501    0  0.00000000000E+00  0.00000000000E+00  0.23646097343E+04  0.23646097343E+04  0.50400001928E-02 0.  1.
       -1   -1    0    0    0  501  0.00000000000E+00  0.00000000000E+00 -0.86892652329E+03  0.86892652330E+03  0.50400001928E-02 0. -1.
    10030    2    1    2    0    0  0.00000000000E+00  0.00000000000E+00  0.14956832110E+04  0.32335362576E+04  0.28668255025E+04 0.  0.
        3    1    3    3  502    0  0.41841183682E+03 -0.11746921650E+04 -0.49477188513E+02  0.12479656046E+04  0.10100000352E+00 0. -1.
       -3    1    3    3    0  502 -0.41841183682E+03  0.11746921650E+04  0.15451603995E+04  0.19855706531E+04  0.10100000352E+00 0.  1.
</event>
<event>
 5   0  0.4148677E-06  0.2886177E+04  0.7818609E-02  0.8277002E-01
       -2   -1    0    0    0  501  0.00000000000E+00  0.00000000000E+00  0.80860435649E+03  0.80860435649E+03  0.25500000920E-02 0. -1.
        2   -1    0    0  501    0  0.00000000000E+00  0.00000000000E+00 -0.25754306989E+04  0.25754306989E+04  0.25500000920E-02 0.  1.
    10030    2    1    2    0    0  0.00000000000E+00  0.00000000000E+00 -0.17668263424E+04  0.33840350554E+04  0.28861770444E+04 0.  0.
        5    1    3    3  502    0 -0.84112856796E+03 -0.11658598371E+04 -0.73623805274E+03  0.16151764572E+04  0.46999998093E+01 0.  1.
       -5    1    3    3    0  502  0.84112856796E+03  0.11658598371E+04 -0.10305882897E+04  0.17688585982E+04  0.46999998093E+01 0. -1.
</event>
<event>
 5   0  0.4162450E-06  0.2920465E+04  0.7818609E-02  0.8266814E-01
        2   -1    0    0  501    0  0.00000000000E+00  0.00000000000E+00  0.20609634664E+04  0.20609634664E+04  0.25500000920E-02 0.  1.
       -2   -1    0    0    0  501  0.00000000000E+00  0.00000000000E+00 -0.10346033199E+04  0.10346033200E+04  0.25500000920E-02 0. -1.
    10030    2    1    2    0    0  0.00000000000E+00  0.00000000000E+00  0.10263601465E+04  0.30955667864E+04  0.29204654730E+04 0.  0.
        2    1    3    3  502    0 -0.97963957610E+03 -0.10670988440E+04  0.70829849417E+03  0.16124764801E+04  0.25500000920E-02 0. -1.
       -2    1    3    3    0  502  0.97963957610E+03  0.10670988440E+04  0.31806165232E+03  0.14830903063E+04  0.25500000920E-02 0.  1.
</event>
<event>
 5   0  0.1602873E-06  0.2878905E+04  0.7818609E-02  0.8279182E-01
        1   -1    0    0  501    0  0.00000000000E+00  0.00000000000E+00  0.21251427900E+04  0.21251427900E+04  0.50400001928E-02 0.  1.
       -1   -1    0    0    0  501  0.00000000000E+00  0.00000000000E+00 -0.97500434983E+03  0.97500434984E+03  0.50400001928E-02 0. -1.
    10030    2    1    2    0    0  0.00000000000E+00  0.00000000000E+00  0.11501384402E+04  0.31001471399E+04  0.28789049754E+04 0.  0.
        1    1    3    3  502    0 -0.22161065283E+03  0.14187474249E+04  0.46701916120E+03  0.15099875609E+04  0.50400001928E-02 0. -1.
       -1    1    3    3    0  502  0.22161065283E+03 -0.14187474249E+04  0.68311927900E+03  0.15901595790E+04  0.50400001928E-02 0.  1.
</event>
<event>
 5   0  0.4148677E-06  0.2905873E+04  0.7818609E-02  0.8271132E-01
        2   -1    0    0  501    0  0.00000000000E+00  0.00000000000E+00  0.25918784216E+04  0.25918784216E+04  0.25500000920E-02 0. -1.
       -2   -1    0    0    0  501  0.00000000000E+00  0.00000000000E+00 -0.81447647254E+03  0.81447647255E+03  0.25500000920E-02 0.  1.
    10030    2    1    2    0    0  0.00000000000E+00  0.00000000000E+00  0.17774019491E+04  0.34063548942E+04  0.29058726704E+04 0.  0.
        5    1    3    3  502    0 -0.45030769185E+03 -0.11536612702E+04 -0.19561392367E+01  0.12384414641E+04  0.46999998093E+01 0.  1.
       -5    1    3    3    0  502  0.45030769185E+03  0.11536612702E+04  0.17793580883E+04  0.21679134300E+04  0.46999998093E+01 0. -1.
</event>
<event>
 5   0  0.1360125E-06  0.2875288E+04  0.7818609E-02  0.8280268E-01
        4   -1    0    0  501    0  0.00000000000E+00  0.00000000000E+00  0.15219392861E+04  0.15219398159E+04  0.12699999809E+01 0.  1.
       -4   -1    0    0    0  501  0.00000000000E+00  0.00000000000E+00 -0.13580163931E+04  0.13580169870E+04  0.12699999809E+01 0. -1.
    10030    2    1    2    0    0  0.00000000000E+00  0.00000000000E+00  0.16392289293E+03  0.28799568029E+04  0.28752878937E+04 0.  0.
        5    1    3    3  502    0  0.39620898215E+03  0.92175137810E+03 -0.94936621779E+03  0.13812767522E+04  0.46999998093E+01 0. -1.
       -5    1    3    3    0  502 -0.39620898215E+03 -0.92175137810E+03  0.11132891107E+04  0.14986800508E+04  0.46999998093E+01 0.  1.
</event>
<event>
 5   0  0.4187518E-06  0.2850606E+04  0.7818609E-02  0.8287727E-01
       -2   -1    0    0    0  501  0.00000000000E+00  0.00000000000E+00  0.94807207495E+03  0.94807207495E+03  0.25500000920E-02 0.  1.
        2   -1    0    0  501    0  0.00000000000E+00  0.00000000000E+00 -0.21427575212E+04  0.21427575212E+04  0.25500000920E-02 0. -1.
    10030    2    1    2    0    0  0.00000000000E+00  0.00000000000E+00 -0.11946854462E+04  0.30908295961E+04  0.28506059491E+04 0.  0.
        3    1    3    3  502    0 -0.73459421293E+03  0.65267406849E+03  0.52207276325E+03  0.11127318085E+04  0.10100000352E+00 0. -1.
       -3    1    3    3    0  502  0.73459421293E+03 -0.65267406849E+03 -0.17167582095E+04  0.19780977876E+04  0.10100000352E+00 0.  1.
</event>
<event>
 5   0  0.1550278E-06  0.2879970E+04  0.7818609E-02  0.8278862E-01
        1   -1    0    0  501    0  0.00000000000E+00  0.00000000000E+00  0.15737092792E+04  0.15737092792E+04  0.50400001928E-02 0.  1.
       -1   -1    0    0    0  501  0.00000000000E+00  0.00000000000E+00 -0.13176235913E+04  0.13176235913E+04  0.50400001928E-02 0. -1.
    10030    2    1    2    0    0  0.00000000000E+00  0.00000000000E+00  0.25608568794E+03  0.28913328705E+04  0.28799697722E+04 0.  0.
        2    1    3    3  502    0  0.76878147258E+02  0.12082640235E+04  0.91069827144E+03  0.15149863173E+04  0.25500000920E-02 0.  1.
       -2    1    3    3    0  502 -0.76878147258E+02 -0.12082640235E+04 -0.65461258351E+03  0.13763465532E+04  0.25500000920E-02 0. -1.
</event>
<event>
 5   0  0.1511126E-06  0.2868944E+04  0.7818609E-02  0.8282178E-01
       -1   -1    0    0    0  501  0.00000000000E+00  0.00000000000E+00  0.76444058080E+03  0.76444058082E+03  0.50400001928E-02 0.  1.
        1   -1    0    0  501    0  0.00000000000E+00  0.00000000000E+00 -0.26917844127E+04  0.26917844127E+04  0.50400001928E-02 0. -1.
    10030    2    1    2    0    0  0.00000000000E+00  0.00000000000E+00 -0.19273438319E+04  0.34562249935E+04  0.28689435267E+04 0.  0.
        5    1    3    3  502    0 -0.12700759121E+04  0.56743030415E+03 -0.13855195949E+04  0.19633534095E+04  0.46999998093E+01 0.  1.
       -5    1    3    3    0  502  0.12700759121E+04 -0.56743030415E+03 -0.54182423700E+03  0.14928715840E+04  0.46999998093E+01 0. -1.
</event>
<event>
 5   0  0.4162450E-06  0.2901665E+04  0.7818609E-02  0.8272382E-01
       -2   -1    0    0    0  501  0.00000000000E+00  0.00000000000E+00  0.94349538404E+03  0.94349538405E+03  0.25500000920E-02 0.  1.
        2   -1    0    0  501    0  0.00000000000E+00  0.00000000000E+00 -0.22309746907E+04  0.22309746907E+04  0.25500000920E-02 0. -1.
    10030    2    1    2    0    0  0.00000000000E+00  0.00000000000E+00 -0.12874793066E+04  0.31744700747E+04  0.29016645723E+04 0.  0.
        2    1    3    3  502    0  0.32401884419E+03  0.46978811672E+03  0.81554325246E+03  0.99538931210E+03  0.25500000920E-02 0.  1.
       -2    1    3    3    0  502 -0.32401884419E+03 -0.46978811672E+03 -0.21030225591E+04  0.21790807626E+04  0.25500000920E-02 0. -1.
</event>
<event>
 5   0  0.4115143E-06  0.2857885E+04  0.7818609E-02  0.8285519E-01
       -2   -1    0    0    0  501  0.00000000000E+00  0.00000000000E+00  0.11791274339E+04  0.11791274339E+04  0.25500000920E-02 0. -1.
        2   -1    0    0  501    0  0.00000000000E+00  0.00000000000E+00 -0.17316847257E+04  0.17316847257E+04  0.25500000920E-02 0.  1.
    10030    2    1    2    0    0  0.00000000000E+00  0.00000000000E+00 -0.55255729180E+03  0.29108121595E+04  0.28578852089E+04 0.  0.
        1    1    3    3  502    0  0.88367470017E+03 -0.20425258785E+03  0.84837958903E+03  0.12419130495E+04  0.50400001928E-02 0. -1.
       -1    1    3    3    0  502 -0.88367470017E+03  0.20425258785E+03 -0.14009368808E+04  0.16688991100E+04  0.50400001928E-02 0.  1.
</event>
<event>
 5   0  0.1580212E-06  0.2931027E+04  0.7818609E-02  0.8263705E-01
       -1   -1    0    0    0  501  0.00000000000E+00  0.00000000000E+00  0.13600438858E+04  0.13600438858E+04  0.50400001928E-02 0. -1.
        1   -1    0    0  501    0  0.00000000000E+00  0.00000000000E+00 -0.15791621284E+04  0.15791621284E+04  0.50400001928E-02 0.  1.
    10030    2    1    2    0    0  0.00000000000E+00  0.00000000000E+00 -0.21911824263E+03  0.29392060143E+04  0.29310269855E+04 0.  0.
        4    1    3    3  502    0 -0.43811983277E+03  0.70624910161E+03  0.11008681650E+04  0.13793654741E+04  0.12699999809E+01 0. -1.
       -4    1    3    3    0  502  0.43811983277E+03 -0.70624910161E+03 -0.13199864077E+04  0.15598405402E+04  0.12699999809E+01 0.  1.
</event>
<event>
 5   0  0.1543678E-06  0.2907614E+04  0.7818609E-02  0.8270616E-01
       -1   -1    0    0    0  501  0.00000000000E+00  0.00000000000E+00  0.22964222337E+04  0.22964222337E+04  0.50400001928E-02 0.  1.
        1   -1    0    0  501    0  0.00000000000E+00  0.00000000000E+00 -0.92036827718E+03  0.92036827720E+03  0.50400001928E-02 0. -1.
    10030    2    1    2    0    0  0.00000000000E+00  0.00000000000E+00  0.13760539565E+04  0.32167905109E+04  0.29076135747E+04 0.  0.
        3    1    3    3  502    0  0.12173068647E+04 -0.31642995834E+03 -0.11860343375E+03  0.12633410885E+04  0.10100000352E+00 0.  1.
       -3    1    3    3    0  502 -0.12173068647E+04  0.31642995834E+03  0.14946573902E+04  0.19534494224E+04  0.10100000352E+00 0. -1.
</event>
<event>
 5   0  0.4162450E-06  0.3044662E+04  0.7818609E-02  0.8231091E-01
       -2   -1    0    0    0  501  0.00000000000E+00  0.00000000000E+00  0.11339817373E+04  0.11339817373E+04  0.25500000920E-02 0.  1.
        2   -1    0    0  501    0  0.00000000000E+00  0.00000000000E+00 -0.20436758512E+04  0.20436758512E+04  0.25500000920E-02 0. -1.
    10030    2    1    2    0    0  0.00000000000E+00  0.00000000000E+00 -0.90969411386E+03  0.31776575885E+04  0.30446616181E+04 0.  0.
        2    1    3    3  502    0  0.14958804550E+04  0.28119373063E+03 -0.42602098316E+03  0.15805765176E+04  0.25500000920E-02 0.  1.
       -2    1    3    3    0  502 -0.14958804550E+04 -0.28119373063E+03 -0.48367313070E+03  0.15970810709E+04  0.25500000920E-02 0. -1.
</event>
<event>
 5   0  0.1543678E-06  0.2897258E+04  0.7818609E-02  0.8273694E-01
       -1   -1    0    0    0  501  0.00000000000E+00  0.00000000000E+00  0.91101807130E+03  0.91101807131E+03  0.50400001928E-02 0. -1.
        1   -1    0    0  501    0  0.00000000000E+00  0.00000000000E+00 -0.23034953770E+04  0.23034953770E+04  0.50400001928E-02 0.  1.
    10030    2    1    2    0    0  0.00000000000E+00  0.00000000000E+00 -0.13924773057E+04  0.32145134483E+04  0.28972579558E+04 0.  0.
        3    1    3    3  502    0 -0.14140970398E+04 -0.30244546447E+03 -0.60091048719E+03  0.15659620432E+04  0.10100000352E+00 0.  1.
       -3    1    3    3    0  502  0.14140970398E+04  0.30244546447E+03 -0.79156681846E+03  0.16485514051E+04  0.10100000352E+00 0. -1.
</event>
<event>
 5   0  0.1602873E-06  0.2906084E+04  0.7818609E-02  0.8271070E-01
       -1   -1    0    0    0  501  0.00000000000E+00  0.00000000000E+00  0.11541176862E+04  0.11541176862E+04  0.50400001928E-02 0.  1.
        1   -1    0    0  501    0  0.00000000000E+00  0.00000000000E+00 -0.18293896517E+04  0.18293896517E+04  0.50400001928E-02 0. -1.
    10030    2    1    2    0    0  0.00000000000E+00  0.00000000000E+00 -0.67527196546E+03  0.29835073379E+04  0.29060839300E+04 0.  0.
        1    1    3    3  502    0  0.35824164870E+03  0.14071784078E+04 -0.28289756585E+03  0.14793644524E+04  0.50400001928E-02 0. -1.
       -1    1    3    3    0  502 -0.35824164870E+03 -0.14071784078E+04 -0.39237439961E+03  0.15041428855E+04  0.50400001928E-02 0.  1.
</event>
<event>
 5   0  0.1550278E-06  0.2772301E+04  0.7818609E-02  0.8311920E-01
       -1   -1    0    0    0  501  0.00000000000E+00  0.00000000000E+00  0.11822722120E+04  0.11822722120E+04  0.50400001928E-02 0. -1.
        1   -1    0    0  501    0  0.00000000000E+00  0.00000000000E+00 -0.16251872668E+04  0.16251872668E+04  0.50400001928E-02 0.  1.
    10030    2    1    2    0    0  0.00000000000E+00  0.00000000000E+00 -0.44291505484E+03  0.28074594788E+04  0.27723013868E+04 0.  0.
        2    1    3    3  502    0 -0.21444461141E+03  0.13121132621E+04  0.17567139092E+03  0.13410772317E+04  0.25500000920E-02 0. -1.
       -2    1    3    3    0  502  0.21444461141E+03 -0.13121132621E+04 -0.61858644575E+03  0.14663822471E+04  0.25500000920E-02 0.  1.
</event>
<event>
 5   0  0.4224163E-06  0.2925746E+04  0.7818609E-02  0.8265258E-01
       -2   -1    0    0    0  501  0.00000000000E+00  0.00000000000E+00  0.15032800909E+04  0.15032800909E+04  0.25500000920E-02 0. -1.
        2   -1    0    0  501    0  0.00000000000E+00  0.00000000000E+00 -0.14235524429E+04  0.14235524429E+04  0.25500000920E-02 0.  1.
    10030    2    1    2    0    0  0.00000000000E+00  0.00000000000E+00  0.79727648014E+02  0.29268325338E+04  0.29257464317E+04 0.  0.
        4    1    3    3  502    0 -0.50961405402E+03  0.14768341196E+03 -0.13239028835E+04  0.14262669217E+04  0.12699999809E+01 0.  1.
       -4    1    3    3    0  502  0.50961405402E+03 -0.14768341196E+03  0.14036305315E+04  0.15005656120E+04  0.12699999809E+01 0. -1.
</event>
<event>
 5   0  0.1550278E-06  0.2911253E+04  0.7818609E-02  0.8269537E-01
       -1   -1    0    0    0  501  0.00000000000E+00  0.00000000000E+00  0.90950205232E+03  0.90950205234E+03  0.50400001928E-02 0. -1.
        1   -1    0    0  501    0  0.00000000000E+00  0.00000000000E+00 -0.23296800885E+04  0.23296800886E+04  0.50400001928E-02 0.  1.
    10030    2    1    2    0    0  0.00000000000E+00  0.00000000000E+00 -0.14201780362E+04  0.32391821409E+04  0.29112532159E+04 0.  0.
        2    1    3    3  502    0  0.16778742243E+03  0.13792237417E+04 -0.11930807709E+04  0.18313526353E+04  0.25500000920E-02 0.  1.
       -2    1    3    3    0  502 -0.16778742243E+03 -0.13792237417E+04 -0.22709726534E+03  0.14078295056E+04  0.25500000920E-02 0. -1.
</event>
<event>
 5   0  0.4224163E-06  0.2920975E+04  0.7818609E-02  0.8266664E-01
       -2   -1    0    0    0  501  0.00000000000E+00  0.00000000000E+00  0.10960876388E+04  0.10960876388E+04  0.25500000920E-02 0.  1.
        2   -1    0    0  501    0  0.00000000000E+00  0.00000000000E+00 -0.19460345202E+04  0.19460345202E+04  0.25500000920E-02 0. -1.
    10030    2    1    2    0    0  0.00000000000E+00  0.00000000000E+00 -0.84994688148E+03  0.30421221590E+04  0.29209754414E+04 0.  0.
        4    1    3    3  502    0  0.61043022768E+03  0.13252240147E+04 -0.35764697296E+03  0.15022505524E+04  0.12699999809E+01 0.  1.
       -4    1    3    3    0  502 -0.61043022768E+03 -0.13252240147E+04 -0.49229990852E+03  0.15398716066E+04  0.12699999809E+01 0. -1.
</event>
<event>
 5   0  0.4115143E-06  0.2913816E+04  0.7818609E-02  0.8268779E-01
        2   -1    0    0  501    0  0.00000000000E+00  0.00000000000E+00  0.10211012365E+04  0.10211012365E+04  0.25500000920E-02 0.  1.
       -2   -1    0    0    0  501  0.00000000000E+00  0.00000000000E+00 -0.20787181146E+04  0.20787181146E+04  0.25500000920E-02 0. -1.
    10030    2    1    2    0    0  0.00000000000E+00  0.00000000000E+00 -0.10576168781E+04  0.30998193511E+04  0.29138164919E+04 0.  0.
        1    1    3    3  502    0  0.58068883796E+03  0.40052956276E+03 -0.18849195750E+04  0.20125966465E+04  0.50400001928E-02 0. -1.
       -1    1    3    3    0  502 -0.58068883796E+03 -0.40052956276E+03  0.82730269686E+03  0.10872227046E+04  0.50400001928E-02 0.  1.
</event>
<event>
 5   0  0.1360125E-06  0.2876527E+04  0.7818609E-02  0.8279896E-01
        4   -1    0    0  501    0  0.00000000000E+00  0.00000000000E+00  0.94993182825E+03  0.94993267721E+03  0.12699999809E+01 0.  1.
       -4   -1    0    0    0  501  0.00000000000E+00  0.00000000000E+00 -0.21776300082E+04  0.21776303786E+04  0.12699999809E+01 0. -1.
    10030    2    1    2    0    0  0.00000000000E+00  0.00000000000E+00 -0.12276981800E+04  0.31275630558E+04  0.28765270461E+04 0.  0.
        1    1    3    3  502    0  0.95533470052E+03 -0.10286437024E+04 -0.27377543826E+03  0.14302885188E+04  0.50400001928E-02 0.  1.
       -1    1    3    3    0  502 -0.95533470052E+03  0.10286437024E+04 -0.95392274171E+03  0.16972745369E+04  0.50400001928E-02 0. -1.
</event>
<event>
 5   0  0.4187518E-06  0.2825251E+04  0.7818609E-02  0.8295471E-01
        2   -1    0    0  501    0  0.00000000000E+00  0.00000000000E+00  0.10909139185E+04  0.10909139185E+04  0.25500000920E-02 0.  1.
       -2   -1    0    0    0  501  0.00000000000E+00  0.00000000000E+00 -0.18292106212E+04  0.18292106212E+04  0.25500000920E-02 0. -1.
    10030    2    1    2    0    0  0.00000000000E+00  0.00000000000E+00 -0.73829670264E+03  0.29201245397E+04  0.28252513704E+04 0.  0.
        3    1    3    3  502    0  0.45598212990E+03  0.62467841724E+03 -0.15909473150E+04  0.17689703777E+04  0.10100000352E+00 0. -1.
       -3    1    3    3    0  502 -0.45598212990E+03 -0.62467841724E+03  0.85265061236E+03  0.11511541620E+04  0.10100000352E+00 0.  1.
</event>
<event>
 5   0  0.4224163E-06  0.2936570E+04  0.7818609E-02  0.8262079E-01
       -2   -1    0    0    0  501  0.00000000000E+00  0.00000000000E+00  0.98871631518E+03  0.98871631518E+03  0.25500000920E-02 0. -1.
        2   -1    0    0  501    0  0.00000000000E+00  0.00000000000E+00 -0.21804647326E+04  0.21804647326E+04  0.25500000920E-02 0.  1.
    10030    2    1    2    0    0  0.00000000000E+00  0.00000000000E+00 -0.11917484174E+04  0.31691810477E+04  0.29365701461E+04 0.  0.
        4    1    3    3  502    0 -0.48357076332E+03 -0.63152601010E+03 -0.19278128919E+04  0.20854567710E+04  0.12699999809E+01 0.  1.
       -4    1    3    3    0  502  0.48357076332E+03  0.63152601010E+03  0.73606447449E+03  0.10837242768E+04  0.12699999809E+01 0. -1.
</event>
<event>
 5   0  0.1543678E-06  0.2891737E+04  0.7818609E-02  0.8275340E-01
       -1   -1    0    0    0  501  0.00000000000E+00  0.00000000000E+00  0.13896028009E+04  0.13896028009E+04  0.50400001928E-02 0.  1.
        1   -1    0    0  501    0  0.00000000000E+00  0.00000000000E+00 -0.15044123341E+04  0.15044123341E+04  0.50400001928E-02 0. -1.
    10030    2    1    2    0    0  0.00000000000E+00  0.00000000000E+00 -0.11480953326E+03  0.28940151350E+04  0.28917369128E+04 0.  0.
        3    1    3    3  502    0 -0.55461408484E+03  0.25607739535E+03  0.12541097181E+04  0.13949779966E+04  0.10100000352E+00 0.  1.
       -3    1    3    3    0  502  0.55461408484E+03 -0.25607739535E+03 -0.13689192514E+04  0.14990371385E+04  0.10100000352E+00 0. -1.
</event>
<event>
 5   0  0.1550278E-06  0.2902675E+04  0.7818609E-02  0.8272082E-01
        1   -1    0    0  501    0  0.00000000000E+00  0.00000000000E+00  0.20211672590E+04  0.20211672590E+04  0.50400001928E-02 0.  1.
       -1   -1    0    0    0  501  0.00000000000E+00  0.00000000000E+00 -0.10421602044E+04  0.10421602044E+04  0.50400001928E-02 0. -1.
    10030    2    1    2    0    0  0.00000000000E+00  0.00000000000E+00  0.97900705454E+03  0.30633274634E+04  0.29026746864E+04 0.  0.
        2    1    3    3  502    0  0.10532452948E+04 -0.30750668995E+03 -0.51307231788E+03  0.12112510965E+04  0.25500000920E-02 0.  1.
       -2    1    3    3    0  502 -0.10532452948E+04  0.30750668995E+03  0.14920793724E+04  0.18520763669E+04  0.25500000920E-02 0. -1.
</event>
<event>
 5   0  0.1511126E-06  0.2927981E+04  0.7818609E-02  0.8264601E-01
       -1   -1    0    0    0  501  0.00000000000E+00  0.00000000000E+00  0.13411230926E+04  0.13411230926E+04  0.50400001928E-02 0. -1.
        1   -1    0    0  501    0  0.00000000000E+00  0.00000000000E+00 -0.15981141770E+04  0.15981141770E+04  0.50400001928E-02 0.  1.
    10030    2    1    2    0    0  0.00000000000E+00  0.00000000000E+00 -0.25699108439E+03  0.29392372696E+04  0.29279807564E+04 0.  0.
        5    1    3    3  502    0 -0.33100236458E+03 -0.43362740814E+03  0.12352745230E+04  0.13503779217E+04  0.46999998093E+01 0. -1.
       -5    1    3    3    0  502  0.33100236458E+03  0.43362740814E+03 -0.14922656074E+04  0.15888593479E+04  0.46999998093E+01 0.  1.
</event>
<event>
 5   0  0.4224163E-06  0.2913729E+04  0.7818609E-02  0.8268804E-01
        2   -1    0    0  501    0  0.00000000000E+00  0.00000000000E+00  0.21314505454E+04  0.21314505454E+04  0.25500000920E-02 0. -1.
       -2   -1    0    0    0  501  0.00000000000E+00  0.00000000000E+00 -0.99577951086E+03  0.99577951086E+03  0.25500000920E-02 0.  1.
    10030    2    1    2    0    0  0.00000000000E+00  0.00000000000E+00  0.11356710346E+04  0.31272300563E+04  0.29137294188E+04 0.  0.
        4    1    3    3  502    0 -0.67838137506E+03  0.10478239902E+04  0.13740899004E+04  0.18564108036E+04  0.12699999809E+01 0. -1.
       -4    1    3    3    0  502  0.67838137506E+03 -0.10478239902E+04 -0.23841886581E+03  0.12708192527E+04  0.12699999809E+01 0.  1.
</event>
<event>
 5   0  0.1602873E-06  0.2905880E+04  0.7818609E-02  0.8271130E-01
        1   -1    0    0  501    0  0.00000000000E+00  0.00000000000E+00  0.89281806102E+03  0.89281806104E+03  0.50400001928E-02 0. -1.
       -1   -1    0    0    0  501  0.00000000000E+00  0.00000000000E+00 -0.23644628291E+04  0.23644628291E+04  0.50400001928E-02 0.  1.
    10030    2    1    2    0    0  0.00000000000E+00  0.00000000000E+00 -0.14716447681E+04  0.32572808901E+04  0.29058803268E+04 0.  0.
        1    1    3    3  502    0 -0.12040812565E+04  0.80387614001E+03 -0.87313758173E+03  0.16906796732E+04  0.50400001928E-02 0. -1.
       -1    1    3    3    0  502  0.12040812565E+04 -0.80387614001E+03 -0.59850718634E+03  0.15666012169E+04  0.50400001928E-02 0.  1.
</event>
<event>
 5   0  0.1511126E-06  0.2916325E+04  0.7818609E-02  0.8268037E-01
        1   -1    0    0  501    0  0.00000000000E+00  0.00000000000E+00  0.23341191814E+04  0.23341191814E+04  0.50400001928E-02 0.  1.
       -1   -1    0    0    0  501  0.00000000000E+00  0.00000000000E+00 -0.91093818403E+03  0.91093818404E+03  0.50400001928E-02 0. -1.
    10030    2    1    2    0    0  0.00000000000E+00  0.00000000000E+00  0.14231809973E+04  0.32450573654E+04  0.29163252825E+04 0.  0.
        5    1    3    3  502    0 -0.27073981751E+02 -0.39894609122E+03  0.22719119879E+04  0.23068370456E+04  0.46999998093E+01 0.  1.
       -5    1    3    3    0  502  0.27073981751E+02  0.39894609122E+03 -0.84873099056E+03  0.93822031982E+03  0.46999998093E+01 0. -1.
</event>
<event>
 5   0  0.1602873E-06  0.2933230E+04  0.7818609E-02  0.8263059E-01
        1   -1    0    0  501    0  0.00000000000E+00  0.00000000000E+00  0.14987778207E+04  0.14987778207E+04  0.50400001928E-02 0.  1.
       -1   -1    0    0    0  501  0.00000000000E+00  0.00000000000E+00 -0.14351420850E+04  0.14351420850E+04  0.50400001928E-02 0. -1.
    10030    2    1    2    0    0  0.00000000000E+00  0.00000000000E+00  0.63635735659E+02  0.29339199057E+04  0.29332297056E+04 0.  0.
        1    1    3    3  502    0 -0.11018041585E+04 -0.92483062374E+03  0.31767356846E+03  0.14731600668E+04  0.50400001928E-02 0. -1.
       -1    1    3    3    0  502  0.11018041585E+04  0.92483062374E+03 -0.25403783281E+03  0.14607598389E+04  0.50400001928E-02 0.  1.
</event>
<event>
 5   0  0.1550278E-06  0.2893670E+04  0.7818609E-02  0.8274763E-01
        1   -1    0    0  501    0  0.00000000000E+00  0.00000000000E+00  0.18673975234E+04  0.18673975234E+04  0.50400001928E-02 0.  1.
       -1   -1    0    0    0  501  0.00000000000E+00  0.00000000000E+00 -0.11209885316E+04  0.11209885317E+04  0.50400001928E-02 0. -1.
    10030    2    1    2    0    0  0.00000000000E+00  0.00000000000E+00  0.74640899177E+03  0.29883860551E+04  0.28936697861E+04 0.  0.
        2    1    3    3  502    0  0.71109427435E+03 -0.12408809920E+04  0.59920657667E+03  0.15506415526E+04  0.25500000920E-02 0. -1.
       -2    1    3    3    0  502 -0.71109427435E+03  0.12408809920E+04  0.14720241510E+03  0.14377445024E+04  0.25500000920E-02 0.  1.
</event>
<event>
 5   0  0.4148677E-06  0.2900279E+04  0.7818609E-02  0.8272794E-01
       -2   -1    0    0    0  501  0.00000000000E+00  0.00000000000E+00  0.10305688125E+04  0.10305688125E+04  0.25500000920E-02 0. -1.
        2   -1    0    0  501    0  0.00000000000E+00  0.00000000000E+00 -0.20405282101E+04  0.20405282101E+04  0.25500000920E-02 0.  1.
    10030    2    1    2    0    0  0.00000000000E+00  0.00000000000E+00 -0.10099593976E+04  0.30710970226E+04  0.29002791137E+04 0.  0.
        5    1    3    3  502    0  0.43904114459E+03  0.29617032415E+02 -0.19681165669E+04  0.20167149541E+04  0.46999998093E+01 0.  1.
       -5    1    3    3    0  502 -0.43904114459E+03 -0.29617032415E+02  0.95815716928E+03  0.10543820685E+04  0.46999998093E+01 0. -1.
</event>
<event>
 5   0  0.4224163E-06  0.2899708E+04  0.7818609E-02  0.8272964E-01
       -2   -1    0    0    0  501  0.00000000000E+00  0.00000000000E+00  0.12899502711E+04  0.12899502711E+04  0.25500000920E-02 0.  1.
        2   -1    0    0  501    0  0.00000000000E+00  0.00000000000E+00 -0.16295790937E+04  0.16295790937E+04  0.25500000920E-02 0. -1.
    10030    2    1    2    0    0  0.00000000000E+00  0.00000000000E+00 -0.33962882266E+03  0.29195293648E+04  0.28997075671E+04 0.  0.
        4    1    3    3  502    0  0.39404377081E+03  0.10078138405E+04  0.80172482019E+03  0.13467455330E+04  0.12699999809E+01 0. -1.
       -4    1    3    3    0  502 -0.39404377081E+03 -0.10078138405E+04 -0.11413536428E+04  0.15727838318E+04  0.12699999809E+01 0.  1.
</event>
<event>
 5   0  0.1511126E-06  0.2863828E+04  0.7818609E-02  0.8283722E-01
        1   -1    0    0  501    0  0.00000000000E+00  0.00000000000E+00  0.18854590262E+04  0.18854590263E+04  0.50400001928E-02 0. -1.
       -1   -1    0    0    0  501  0.00000000000E+00  0.00000000000E+00 -0.10874687726E+04  0.10874687726E+04  0.50400001928E-02 0.  1.
    10030    2    1    2    0    0  0.00000000000E+00  0.00000000000E+00  0.79799025366E+03  0.29729277988E+04  0.28638280766E+04 0.  0.
        5    1    3    3  502    0 -0.97716151250E+03  0.10462352952E+04  0.43018655591E+03  0.14948362711E+04  0.46999998093E+01 0. -1.
       -5    1    3    3    0  502  0.97716151250E+03 -0.10462352952E+04  0.36780369774E+03  0.14780915278E+04  0.46999998093E+01 0.  1.
</event>
<event>
 5   0  0.1550278E-06  0.2902617E+04  0.7818609E-02  0.8272099E-01
       -1   -1    0    0    0  501  0.00000000000E+00  0.00000000000E+00  0.11422265121E+04  0.11422265121E+04  0.50400001928E-02 0.  1.
        1   -1    0    0  501    0  0.00000000000E+00  0.00000000000E+00 -0.18440268090E+04  0.18440268091E+04  0.50400001928E-02 0. -1.
    10030    2    1    2    0    0  0.00000000000E+00  0.00000000000E+00 -0.70180029696E+03  0.29862533212E+04  0.29026169643E+04 0.  0.
        2    1    3    3  502    0 -0.12289892802E+04 -0.66313816819E+03  0.55617404602E+02  0.13975908474E+04  0.25500000920E-02 0.  1.
       -2    1    3    3    0  502  0.12289892802E+04  0.66313816819E+03 -0.75741770156E+03  0.15886624738E+04  0.25500000920E-02 0. -1.
</event>
<event>
 5   0  0.4224163E-06  0.2936498E+04  0.7818609E-02  0.8262100E-01
        2   -1    0    0  501    0  0.00000000000E+00  0.00000000000E+00  0.18963358093E+04  0.18963358093E+04  0.25500000920E-02 0. -1.
       -2   -1    0    0    0  501  0.00000000000E+00  0.00000000000E+00 -0.11368006752E+04  0.11368006752E+04  0.25500000920E-02 0.  1.
    10030    2    1    2    0    0  0.00000000000E+00  0.00000000000E+00  0.75953513409E+03  0.30331364845E+04  0.29364984784E+04 0.  0.
        4    1    3    3  502    0  0.81255181320E+03  0.93950754388E+03 -0.42883569957E+03  0.13140839183E+04  0.12699999809E+01 0.  1.
       -4    1    3    3    0  502 -0.81255181320E+03 -0.93950754388E+03  0.11883708337E+04  0.17190525662E+04  0.12699999809E+01 0. -1.
</event>
<event>
 5   0  0.1602873E-06  0.2893838E+04  0.7818609E-02  0.8274713E-01
       -1   -1    0    0    0  501  0.00000000000E+00  0.00000000000E+00  0.10877356841E+04  0.10877356841E+04  0.50400001928E-02 0. -1.
        1   -1    0    0  501    0  0.00000000000E+00  0.00000000000E+00 -0.19247082828E+04  0.19247082828E+04  0.50400001928E-02 0.  1.
    10030    2    1    2    0    0  0.00000000000E+00  0.00000000000E+00 -0.83697259870E+03  0.30124439669E+04  0.28938375080E+04 0.  0.
        1    1    3    3  502    0  0.30802499016E+03 -0.14105074665E+04 -0.51813411444E+03  0.15339079725E+04  0.50400001928E-02 0. -1.
       -1    1    3    3    0  502 -0.30802499016E+03  0.14105074665E+04 -0.31883848427E+03  0.14785359944E+04  0.50400001928E-02 0.  1.
</event>
<event>
 5   0  0.4115143E-06  0.2917148E+04  0.7818609E-02  0.8267794E-01
       -2   -1    0    0    0  501  0.00000000000E+00  0.00000000000E+00  0.84156359025E+03  0.84156359025E+03  0.25500000920E-02 0. -1.
        2   -1    0    0  501    0  0.00000000000E+00  0.00000000000E+00 -0.25279590246E+04  0.25279590246E+04  0.25500000920E-02 0.  1.
    10030    2    1    2    0    0  0.00000000000E+00  0.00000000000E+00 -0.16863954344E+04  0.33695226149E+04  0.29171481092E+04 0.  0.
        1    1    3    3  502    0  0.50283263921E+03  0.31229946672E+03 -0.23829886379E+04  0.24554035246E+04  0.50400001928E-02 0.  1.
       -1    1    3    3    0  502 -0.50283263921E+03 -0.31229946672E+03  0.69659320357E+03  0.91411909030E+03  0.50400001928E-02 0. -1.
</event>
<event>
 5   0  0.1602873E-06  0.2913384E+04  0.7818609E-02  0.8268906E-01
        1   -1    0    0  501    0  0.00000000000E+00  0.00000000000E+00  0.13585783638E+04  0.13585783638E+04  0.50400001928E-02 0.  1.
       -1   -1    0    0    0  501  0.00000000000E+00  0.00000000000E+00 -0.15618912995E+04  0.15618912995E+04  0.50400001928E-02 0. -1.
    10030    2    1    2    0    0  0.00000000000E+00  0.00000000000E+00 -0.20331293562E+03  0.29204696633E+04  0.29133840983E+04 0.  0.
        1    1    3    3  502    0 -0.97618458217E+03  0.13782299617E+03  0.97334161573E+03  0.13853972057E+04  0.50400001928E-02 0.  1.
       -1    1    3    3    0  502  0.97618458217E+03 -0.13782299617E+03 -0.11766545513E+04  0.15350724576E+04  0.50400001928E-02 0. -1.
</event>
<event>
 5   0  0.1602873E-06  0.2900381E+04  0.7818609E-02  0.8272764E-01
       -1   -1    0    0    0  501  0.00000000000E+00  0.00000000000E+00  0.14321800563E+04  0.14321800563E+04  0.50400001928E-02 0. -1.
        1   -1    0    0  501    0  0.00000000000E+00  0.00000000000E+00 -0.14684278601E+04  0.14684278601E+04  0.50400001928E-02 0.  1.
    10030    2    1    2    0    0  0.00000000000E+00  0.00000000000E+00 -0.36247803791E+02  0.29006079163E+04  0.29003814199E+04 0.  0.
        1    1    3    3  502    0 -0.13280760612E+04  0.57421594990E+03  0.79572589187E+02  0.14490830820E+04  0.50400001928E-02 0. -1.
       -1    1    3    3    0  502  0.13280760612E+04 -0.57421594990E+03 -0.11582039298E+03  0.14515248344E+04  0.50400001928E-02 0.  1.
</event>
<event>
 5   0  0.4148677E-06  0.2905080E+04  0.7818609E-02  0.8271368E-01
        2   -1    0    0  501    0  0.00000000000E+00  0.00000000000E+00  0.11073776975E+04  0.11073776975E+04  0.25500000920E-02 0. -1.
       -2   -1    0    0    0  501  0.00000000000E+00  0.00000000000E+00 -0.19052873610E+04  0.19052873610E+04  0.25500000920E-02 0.  1.
    10030    2    1    2    0    0  0.00000000000E+00  0.00000000000E+00 -0.79790966346E+03  0.30126650585E+04  0.29050801923E+04 0.  0.
        5    1    3    3  502    0  0.35516238330E+03  0.72701404912E+02  0.10596998894E+04  0.11200052492E+04  0.46999998093E+01 0. -1.
       -5    1    3    3    0  502 -0.35516238330E+03 -0.72701404912E+02 -0.18576095528E+04  0.18926598093E+04  0.46999998093E+01 0.  1.
</event>
<event>
 5   0  0.1360125E-06  0.3007024E+04  0.7818609E-02  0.8241728E-01
       -3   -1    0    0    0  501  0.00000000000E+00  0.00000000000E+00  0.17430377316E+04  0.17430377345E+04  0.10100000352E+00 0. -1.
        3   -1    0    0  501    0  0.00000000000E+00  0.00000000000E+00 -0.12969012593E+04  0.12969012632E+04  0.10100000352E+00 0.  1.
    10030    2    1    2    0    0  0.00000000000E+00  0.00000000000E+00  0.44613647230E+03  0.30399389978E+04  0.30070236710E+04 0.  0.
        1    1    3    3  502    0 -0.13737554925E+04 -0.59604776093E+03  0.35896720106E+03  0.15399138086E+04  0.50400001928E-02 0.  1.
       -1    1    3    3    0  502  0.13737554925E+04  0.59604776093E+03  0.87169271234E+02  0.15000251892E+04  0.50400001928E-02 0. -1.
</event>
<event>
 5   0  0.4187518E-06  0.2890805E+04  0.7818609E-02  0.8275618E-01
       -2   -1    0    0    0  501  0.00000000000E+00  0.00000000000E+00  0.83526774404E+03  0.83526774404E+03  0.25500000920E-02 0.  1.
        2   -1    0    0  501    0  0.00000000000E+00  0.00000000000E+00 -0.25012201720E+04  0.25012201720E+04  0.25500000920E-02 0. -1.
    10030    2    1    2    0    0  0.00000000000E+00  0.00000000000E+00 -0.16659524280E+04  0.33364879161E+04  0.28908050992E+04 0.  0.
        3    1    3    3  502    0 -0.48566518850E+03  0.12387193821E+02  0.73821021315E+03  0.88372984949E+03  0.10100000352E+00 0.  1.
       -3    1    3    3    0  502  0.48566518850E+03 -0.12387193821E+02 -0.24041626411E+04  0.24527580666E+04  0.10100000352E+00 0. -1.
</event>
<event>
 5   0  0.4224163E-06  0.2910883E+04  0.7818609E-02  0.8269647E-01
       -2   -1    0    0    0  501  0.00000000000E+00  0.00000000000E+00  0.13627950138E+04  0.13627950138E+04  0.25500000920E-02 0.  1.
        2   -1    0    0  501    0  0.00000000000E+00  0.00000000000E+00 -0.15543860871E+04  0.15543860871E+04  0.25500000920E-02 0. -1.
    10030    2    1    2    0    0  0.00000000000E+00  0.00000000000E+00 -0.19159107333E+03  0.29171811009E+04  0.29108827589E+04 0.  0.
        4    1    3    3  502    0 -0.14117895022E+04  0.26869703366E+03  0.13483345628E+03  0.14434435799E+04  0.12699999809E+01 0. -1.
       -4    1    3    3    0  502  0.14117895022E+04 -0.26869703366E+03 -0.32642452961E+03  0.14737375210E+04  0.12699999809E+01 0.  1.
</event>
<event>
 5   0  0.4187518E-06  0.2901393E+04  0.7818609E-02  0.8272463E-01
       -2   -1    0    0    0  501  0.00000000000E+00  0.00000000000E+00  0.92487444196E+03  0.92487444196E+03  0.25500000920E-02 0.  1.
        2   -1    0    0  501    0  0.00000000000E+00  0.00000000000E+00 -0.22754652385E+04  0.22754652385E+04  0.25500000920E-02 0. -1.
    10030    2    1    2    0    0  0.00000000000E+00  0.00000000000E+00 -0.13505907965E+04  0.32003396804E+04  0.29013925227E+04 0.  0.
        3    1    3    3  502    0 -0.17651269644E+03  0.77048816528E+03 -0.20170652315E+04  0.21664166042E+04  0.10100000352E+00 0. -1.
       -3    1    3    3    0  502  0.17651269644E+03 -0.77048816528E+03  0.66647443497E+03  0.10339230762E+04  0.10100000352E+00 0.  1.
</event>
<event>
 5   0  0.4115143E-06  0.2918056E+04  0.7818609E-02  0.8267526E-01
       -2   -1    0    0    0  501  0.00000000000E+00  0.00000000000E+00  0.12698412847E+04  0.12698412847E+04  0.25500000920E-02 0. -1.
        2   -1    0    0  501    0  0.00000000000E+00  0.00000000000E+00 -0.16764002434E+04  0.16764002434E+04  0.25500000920E-02 0.  1.
    10030    2    1    2    0    0  0.00000000000E+00  0.00000000000E+00 -0.40655895871E+03  0.29462415281E+04  0.29180556806E+04 0.  0.
        1    1    3    3  502    0 -0.23743223560E+03  0.14250092034E+04  0.29900548355E+01  0.14446571346E+04  0.50400001928E-02 0.  1.
       -1    1    3    3    0  502  0.23743223560E+03 -0.14250092034E+04 -0.40954901354E+03  0.15015843935E+04  0.50400001928E-02 0. -1.
</event>
<event>
 5   0  0.1550278E-06  0.2959089E+04  0.7818609E-02  0.8255511E-01
        1   -1    0    0  501    0  0.00000000000E+00  0.00000000000E+00  0.15734898559E+04  0.15734898560E+04  0.50400001928E-02 0. -1.
       -1   -1    0    0    0  501  0.00000000000E+00  0.00000000000E+00 -0.13912082007E+04  0.13912082007E+04  0.50400001928E-02 0.  1.
    10030    2    1    2    0    0  0.00000000000E+00  0.00000000000E+00  0.18228165529E+03  0.29646980566E+04  0.29590890431E+04 0.  0.
        2    1    3    3  502    0  0.12364466888E+04 -0.79874663148E+03  0.24060602990E+03  0.14915387549E+04  0.25500000920E-02 0.  1.
       -2    1    3    3    0  502 -0.12364466888E+04  0.79874663148E+03 -0.58324374613E+02  0.14731593017E+04  0.25500000920E-02 0. -1.
</event>
<event>
 5   0  0.1580212E-06  0.2909084E+04  0.7818609E-02  0.8270180E-01
        1   -1    0    0  501    0  0.00000000000E+00  0.00000000000E+00  0.18076676644E+04  0.18076676645E+04  0.50400001928E-02 0. -1.
       -1   -1    0    0    0  501  0.00000000000E+00  0.00000000000E+00 -0.11703988707E+04  0.11703988707E+04  0.50400001928E-02 0.  1.
    10030    2    1    2    0    0  0.00000000000E+00  0.00000000000E+00  0.63726879378E+03  0.29780665351E+04  0.29090838373E+04 0.  0.
        4    1    3    3  502    0 -0.84746920489E+03  0.34725846270E+03  0.14754290622E+04  0.17365727810E+04  0.12699999809E+01 0. -1.
       -4    1    3    3    0  502  0.84746920489E+03 -0.34725846270E+03 -0.83816026843E+03  0.12414937542E+04  0.12699999809E+01 0.  1.
</event>
<event>
 5   0  0.4148677E-06  0.2892771E+04  0.7818609E-02  0.8275032E-01
       -2   -1    0    0    0  501  0.00000000000E+00  0.00000000000E+00  0.89038684421E+03  0.89038684421E+03  0.25500000920E-02 0.  1.
        2   -1    0    0  501    0  0.00000000000E+00  0.00000000000E+00 -0.23495752807E+04  0.23495752807E+04  0.25500000920E-02 0. -1.
    10030    2    1    2    0    0  0.00000000000E+00  0.00000000000E+00 -0.14591884365E+04  0.32399621249E+04  0.28927709342E+04 0.  0.
        5    1    3    3  502    0 -0.80714874790E+03  0.10260868939E+04 -0.32238419193E+02  0.13059114904E+04  0.46999998093E+01 0.  1.
       -5    1    3    3    0  502  0.80714874790E+03 -0.10260868939E+04 -0.14269500173E+04  0.19340506346E+04  0.46999998093E+01 0. -1.
</event>
<event>
 5   0  0.1602873E-06  0.2938035E+04  0.7818609E-02  0.8261650E-01
        1   -1    0    0  501    0  0.00000000000E+00  0.00000000000E+00  0.86736044296E+03  0.86736044297E+03  0.50400001928E-02 0. -1.
       -1   -1    0    0    0  501  0.00000000000E+00  0.00000000000E+00 -0.24880234429E+04  0.24880234429E+04  0.50400001928E-02 0.  1.
    10030    2    1    2    0    0  0.00000000000E+00  0.00000000000E+00 -0.16206630000E+04  0.33553838859E+04  0.29380354767E+04 0.  0.
        1    1    3    3  502    0  0.20581911692E+03 -0.37023040814E+03 -0.24167625940E+04  0.24536041857E+04  0.50400001928E-02 0.  1.
       -1    1    3    3    0  502 -0.20581911692E+03  0.37023040814E+03  0.79609959408E+03  0.90177970021E+03  0.50400001928E-02 0. -1.
</event>
<event>
 5   0  0.1580212E-06  0.2885071E+04  0.7818609E-02  0.8277333E-01
       -1   -1    0    0    0  501  0.00000000000E+00  0.00000000000E+00  0.17437814274E+04  0.17437814274E+04  0.50400001928E-02 0. -1.
        1   -1    0    0  501    0  0.00000000000E+00  0.00000000000E+00 -0.11933313219E+04  0.11933313219E+04  0.50400001928E-02 0.  1.
    10030    2    1    2    0    0  0.00000000000E+00  0.00000000000E+00  0.55045010554E+03  0.29371127493E+04  0.28850712267E+04 0.  0.
        4    1    3    3  502    0 -0.89428221401E+03  0.42402028987E+03 -0.79316882331E+03  0.12683265667E+04  0.12699999809E+01 0.  1.
       -4    1    3    3    0  502  0.89428221401E+03 -0.42402028987E+03  0.13436189288E+04  0.16687861826E+04  0.12699999809E+01 0. -1.
</event>
<event>
 5   0  0.1511126E-06  0.2915678E+04  0.7818609E-02  0.8268228E-01
        1   -1    0    0  501    0  0.00000000000E+00  0.00000000000E+00  0.15985494647E+04  0.15985494647E+04  0.50400001928E-02 0.  1.
       -1   -1    0    0    0  501  0.00000000000E+00  0.00000000000E+00 -0.13295142005E+04  0.13295142005E+04  0.50400001928E-02 0. -1.
    10030    2    1    2    0    0  0.00000000000E+00  0.00000000000E+00  0.26903526418E+03  0.29280636652E+04  0.29156777693E+04 0.  0.
        5    1    3    3  502    0  0.59526455698E+03  0.76811134152E+03  0.12258433532E+04  0.15643046194E+04  0.46999998093E+01 0.  1.
       -5    1    3    3    0  502 -0.59526455698E+03 -0.76811134152E+03 -0.95680808904E+03  0.13637590458E+04  0.46999998093E+01 0. -1.
</event>
<event>
 5   0  0.4224163E-06  0.2888160E+04  0.7818609E-02  0.8276409E-01
        2   -1    0    0  501    0  0.00000000000E+00  0.00000000000E+00  0.19410827293E+04  0.19410827293E+04  0.25500000920E-02 0. -1.
       -2   -1    0    0    0  501  0.00000000000E+00  0.00000000000E+00 -0.10743316160E+04  0.10743316160E+04  0.25500000920E-02 0.  1.
    10030    2    1    2    0    0  0.00000000000E+00  0.00000000000E+00  0.86675111334E+03  0.30154143453E+04  0.28881596531E+04 0.  0.
        4    1    3    3  502    0 -0.72770705705E+03  0.48094102308E+03  0.16349544474E+04  0.18530891740E+04  0.12699999809E+01 0. -1.
       -4    1    3    3    0  502  0.72770705705E+03 -0.48094102308E+03 -0.76820333410E+03  0.11623251714E+04  0.12699999809E+01 0.  1.
</event>
<event>
 5   0  0.1602873E-06  0.2895081E+04  0.7818609E-02  0.8274342E-01
        1   -1    0    0  501    0  0.00000000000E+00  0.00000000000E+00  0.89167196491E+03  0.89167196492E+03  0.50400001928E-02 0. -1.
       -1   -1    0    0    0  501  0.00000000000E+00  0.00000000000E+00 -0.23499380021E+04  0.23499380021E+04  0.50400001928E-02 0.  1.
    10030    2    1    2    0    0  0.00000000000E+00  0.00000000000E+00 -0.14582660372E+04  0.32416099670E+04  0.28950812326E+04 0.  0.
        1    1    3    3  502    0 -0.21133233738E+03 -0.10025892102E+04  0.41576737568E+03  0.11057617248E+04  0.50400001928E-02 0. -1.
       -1    1    3    3    0  502  0.21133233738E+03  0.10025892102E+04 -0.18740334129E+04  0.21358482423E+04  0.50400001928E-02 0.  1.
</event>
<event>
 5   0  0.4162450E-06  0.2869334E+04  0.7818609E-02  0.8282060E-01
        2   -1    0    0  501    0  0.00000000000E+00  0.00000000000E+00  0.22627845753E+04  0.22627845753E+04  0.25500000920E-02 0. -1.
       -2   -1    0    0    0  501  0.00000000000E+00  0.00000000000E+00 -0.90961790076E+03  0.90961790076E+03  0.25500000920E-02 0.  1.
    10030    2    1    2    0    0  0.00000000000E+00  0.00000000000E+00  0.13531666745E+04  0.31724024760E+04  0.28693339682E+04 0.  0.
        2    1    3    3  502    0  0.37345392896E+03  0.10890524619E+04  0.16230164153E+04  0.19898958230E+04  0.25500000920E-02 0.  1.
       -2    1    3    3    0  502 -0.37345392896E+03 -0.10890524619E+04 -0.26984974081E+03  0.11825066531E+04  0.25500000920E-02 0. -1.
</event>
<event>
 5   0  0.4148677E-06  0.2893333E+04  0.7818609E-02  0.8274864E-01
        2   -1    0    0  501    0  0.00000000000E+00  0.00000000000E+00  0.19166871549E+04  0.19166871549E+04  0.25500000920E-02 0. -1.
       -2   -1    0    0    0  501  0.00000000000E+00  0.00000000000E+00 -0.10919068931E+04  0.10919068931E+04  0.25500000920E-02 0.  1.
    10030    2    1    2    0    0  0.00000000000E+00  0.00000000000E+00  0.82478026186E+03  0.30085940480E+04  0.28933329682E+04 0.  0.
        5    1    3    3  502    0 -0.42737923111E+03  0.12409333542E+04 -0.22033430014E+03  0.13308410463E+04  0.46999998093E+01 0.  1.
       -5    1    3    3    0  502  0.42737923111E+03 -0.12409333542E+04  0.10451145620E+04  0.16777530016E+04  0.46999998093E+01 0. -1.
</event>
<event>
 5   0  0.1543678E-06  0.2899405E+04  0.7818609E-02  0.8273055E-01
       -1   -1    0    0    0  501  0.00000000000E+00  0.00000000000E+00  0.12701092478E+04  0.12701092478E+04  0.50400001928E-02 0. -1.
        1   -1    0    0  501    0  0.00000000000E+00  0.00000000000E+00 -0.16546897281E+04  0.16546897282E+04  0.50400001928E-02 0.  1.
    10030    2    1    2    0    0  0.00000000000E+00  0.00000000000E+00 -0.38458048036E+03  0.29247989759E+04  0.28994045775E+04 0.  0.
        3    1    3    3  502    0  0.10024644143E+04  0.80837064996E+03  0.47930257443E+03  0.13740920558E+04  0.10100000352E+00 0. -1.
       -3    1    3    3    0  502 -0.10024644143E+04 -0.80837064996E+03 -0.86388305479E+03  0.15507069202E+04  0.10100000352E+00 0.  1.
</event>
<event>
 5   0  0.1511126E-06  0.2904659E+04  0.7818609E-02  0.8271493E-01
       -1   -1    0    0    0  501  0.00000000000E+00  0.00000000000E+00  0.96742720624E+03  0.96742720625E+03  0.50400001928E-02 0.  1.
        1   -1    0    0  501    0  0.00000000000E+00  0.00000000000E+00 -0.21802789337E+04  0.21802789337E+04  0.50400001928E-02 0. -1.
    10030    2    1    2    0    0  0.00000000000E+00  0.00000000000E+00 -0.12128517275E+04  0.31477061400E+04  0.29046591247E+04 0.  0.
        5    1    3    3  502    0  0.82911171209E+03 -0.87400633844E+03  0.27257125674E+03  0.12351641554E+04  0.46999998093E+01 0.  1.
       -5    1    3    3    0  502 -0.82911171209E+03  0.87400633844E+03 -0.14854229842E+04  0.19125419846E+04  0.46999998093E+01 0. -1.
</event>
<event>
 5   0  0.4162450E-06  0.2937484E+04  0.7818609E-02  0.8261811E-01
        2   -1    0    0  501    0  0.00000000000E+00  0.00000000000E+00  0.16615444572E+04  0.16615444572E+04  0.25500000920E-02 0. -1.
       -2   -1    0    0    0  501  0.00000000000E+00  0.00000000000E+00 -0.12983119515E+04  0.12983119515E+04  0.25500000920E-02 0.  1.
    10030    2    1    2    0    0  0.00000000000E+00  0.00000000000E+00  0.36323250571E+03  0.29598564087E+04  0.29374839756E+04 0.  0.
        2    1    3    3  502    0  0.49770844257E+03 -0.26235356324E+03  0.15486584390E+04  0.16476911260E+04  0.25500000920E-02 0. -1.
       -2    1    3    3    0  502 -0.49770844257E+03  0.26235356324E+03 -0.11854259333E+04  0.13121652828E+04  0.25500000920E-02 0.  1.
</event>
<event>
 5   0  0.1580212E-06  0.2900127E+04  0.7818609E-02  0.8272840E-01
       -1   -1    0    0    0  501  0.00000000000E+00  0.00000000000E+00  0.20698790800E+04  0.20698790800E+04  0.50400001928E-02 0. -1.
        1   -1    0    0  501    0  0.00000000000E+00  0.00000000000E+00 -0.10158490878E+04  0.10158490879E+04  0.50400001928E-02 0.  1.
    10030    2    1    2    0    0  0.00000000000E+00  0.00000000000E+00  0.10540299921E+04  0.30857281679E+04  0.29001274285E+04 0.  0.
        4    1    3    3  502    0  0.38856533307E+03 -0.12299154313E+04 -0.17796515358E+03  0.13020553732E+04  0.12699999809E+01 0. -1.
       -4    1    3    3    0  502 -0.38856533307E+03  0.12299154313E+04  0.12319951457E+04  0.17836727946E+04  0.12699999809E+01 0.  1.
</event>
<event>
 5   0  0.4187518E-06  0.2896185E+04  0.7818609E-02  0.8274013E-01
        2   -1    0    0  501    0  0.00000000000E+00  0.00000000000E+00  0.17874900509E+04  0.17874900509E+04  0.25500000920E-02 0.  1.
       -2   -1    0    0    0  501  0.00000000000E+00  0.00000000000E+00 -0.11731375803E+04  0.11731375803E+04  0.25500000920E-02 0. -1.
    10030    2    1    2    0    0  0.00000000000E+00  0.00000000000E+00  0.61435247062E+03  0.29606276312E+04  0.28961849065E+04 0.  0.
        3    1    3    3  502    0 -0.75229728446E+03 -0.15546598553E+03 -0.94767614321E+03  0.12199225219E+04  0.10100000352E+00 0. -1.
       -3    1    3    3    0  502  0.75229728446E+03  0.15546598553E+03  0.15620286138E+04  0.17407051093E+04  0.10100000352E+00 0.  1.
</event>
<event>
 5   0  0.4148677E-06  0.2893572E+04  0.7818609E-02  0.8274793E-01
        2   -1    0    0  501    0  0.00000000000E+00  0.00000000000E+00  0.15462674029E+04  0.15462674029E+04  0.25500000920E-02 0.  1.
       -2   -1    0    0    0  501  0.00000000000E+00  0.00000000000E+00 -0.13537047749E+04  0.13537047749E+04  0.25500000920E-02 0. -1.
    10030    2    1    2    0    0  0.00000000000E+00  0.00000000000E+00  0.19256262797E+03  0.28999721778E+04  0.28935718871E+04 0.  0.
        5    1    3    3  502    0  0.13371229103E+04  0.47690324131E+03  0.37588424041E+03  0.14685521547E+04  0.46999998093E+01 0.  1.
       -5    1    3    3    0  502 -0.13371229103E+04 -0.47690324131E+03 -0.18332161244E+03  0.14314200231E+04  0.46999998093E+01 0. -1.
</event>
<event>
 5   0  0.4115143E-06  0.2885174E+04  0.7818609E-02  0.8277302E-01
       -2   -1    0    0    0  501  0.00000000000E+00  0.00000000000E+00  0.13099822710E+04  0.13099822710E+04  0.25500000920E-02 0. -1.
        2   -1    0    0  501    0  0.00000000000E+00  0.00000000000E+00 -0.15886145702E+04  0.15886145702E+04  0.25500000920E-02 0.  1.
    10030    2    1    2    0    0  0.00000000000E+00  0.00000000000E+00 -0.27863229919E+03  0.28985968412E+04  0.28851737711E+04 0.  0.
        1    1    3    3  502    0  0.13477367513E+04  0.36374779325E+03 -0.50480825430E+03  0.14844319390E+04  0.50400001928E-02 0.  1.
       -1    1    3    3    0  502 -0.13477367513E+04 -0.36374779325E+03  0.22617595512E+03  0.14141649022E+04  0.50400001928E-02 0. -1.
</event>
<event>
 5   0  0.1602873E-06  0.2886357E+04  0.7818609E-02  0.8276948E-01
       -1   -1    0    0    0  501  0.00000000000E+00  0.00000000000E+00  0.12010765696E+04  0.12010765696E+04  0.50400001928E-02 0. -1.
        1   -1    0    0  501    0  0.00000000000E+00  0.00000000000E+00 -0.17340814309E+04  0.17340814309E+04  0.50400001928E-02 0.  1.
    10030    2    1    2    0    0  0.00000000000E+00  0.00000000000E+00 -0.53300486129E+03  0.29351580005E+04  0.28863572727E+04 0.  0.
        1    1    3    3  502    0 -0.39588475507E+03  0.10107902457E+04  0.70054542890E+03  0.12919696429E+04  0.50400001928E-02 0. -1.
       -1    1    3    3    0  502  0.39588475507E+03 -0.10107902457E+04 -0.12335502902E+04  0.16431883576E+04  0.50400001928E-02 0.  1.
</event>
<event>
 5   0  0.4115143E-06  0.2870318E+04  0.7818609E-02  0.8281764E-01
       -2   -1    0    0    0  501  0.00000000000E+00  0.00000000000E+00  0.10023248422E+04  0.10023248422E+04  0.25500000920E-02 0. -1.
        2   -1    0    0  501    0  0.00000000000E+00  0.00000000000E+00 -0.20549038079E+04  0.20549038079E+04  0.25500000920E-02 0.  1.
    10030    2    1    2    0    0  0.00000000000E+00  0.00000000000E+00 -0.10525789657E+04  0.30572286501E+04  0.28703178465E+04 0.  0.
        1    1    3    3  502    0  0.54809930470E+03 -0.85854150722E+03 -0.16031526127E+04  0.18993695446E+04  0.50400001928E-02 0.  1.
       -1    1    3    3    0  502 -0.54809930470E+03  0.85854150722E+03  0.55057364695E+03  0.11578591055E+04  0.50400001928E-02 0. -1.
</event>
<event>
 5   0  0.1602873E-06  0.2897655E+04  0.7818609E-02  0.8273575E-01
        1   -1    0    0  501    0  0.00000000000E+00  0.00000000000E+00  0.24190286673E+04  0.24190286673E+04  0.50400001928E-02 0.  1.
       -1   -1    0    0    0  501  0.00000000000E+00  0.00000000000E+00 -0.86774558438E+03  0.86774558439E+03  0.50400001928E-02 0. -1.
    10030    2    1    2    0    0  0.00000000000E+00  0.00000000000E+00  0.15512830829E+04  0.32867742517E+04  0.28976552207E+04 0.  0.
        1    1    3    3  502    0  0.12736083090E+04 -0.60319653939E+02 -0.47819764256E+01  0.12750448826E+04  0.50400001928E-02 0. -1.
       -1    1    3    3    0  502 -0.12736083090E+04  0.60319653939E+02  0.15560650593E+04  0.20117293691E+04  0.50400001928E-02 0.  1.
</event>
<event>
 5   0  0.4224163E-06  0.2890933E+04  0.7818609E-02  0.8275580E-01
       -2   -1    0    0    0  501  0.00000000000E+00  0.00000000000E+00  0.14619808840E+04  0.14619808840E+04  0.25500000920E-02 0. -1.
        2   -1    0    0  501    0  0.00000000000E+00  0.00000000000E+00 -0.14291389630E+04  0.14291389630E+04  0.25500000920E-02 0.  1.
    10030    2    1    2    0    0  0.00000000000E+00  0.00000000000E+00  0.32841921002E+02  0.28911198470E+04  0.28909333057E+04 0.  0.
        4    1    3    3  502    0  0.40577123779E+02  0.91672457596E+03 -0.11004956695E+04  0.14328722144E+04  0.12699999809E+01 0.  1.
       -4    1    3    3    0  502 -0.40577123779E+02 -0.91672457596E+03  0.11333375905E+04  0.14582476327E+04  0.12699999809E+01 0. -1.
</event>
<event>
 5   0  0.1602873E-06  0.2896799E+04  0.7818609E-02  0.8273831E-01
       -1   -1    0    0    0  501  0.00000000000E+00  0.00000000000E+00  0.92787867693E+03  0.92787867694E+03  0.50400001928E-02 0. -1.
        1   -1    0    0  501    0  0.00000000000E+00  0.00000000000E+00 -0.22609212790E+04  0.22609212790E+04  0.50400001928E-02 0.  1.
    10030    2    1    2    0    0  0.00000000000E+00  0.00000000000E+00 -0.13330426021E+04  0.31887999559E+04  0.28967986779E+04 0.  0.
        1    1    3    3  502    0 -0.77466508840E+03 -0.68914586434E+03 -0.17798188361E+04  0.20598017164E+04  0.50400001928E-02 0.  1.
       -1    1    3    3    0  502  0.77466508840E+03  0.68914586434E+03  0.44677623404E+03  0.11289982395E+04  0.50400001928E-02 0. -1.
</event>
<event>
 5   0  0.4148677E-06  0.2911119E+04  0.7818609E-02  0.8269577E-01
       -2   -1    0    0    0  501  0.00000000000E+00  0.00000000000E+00  0.14601734784E+04  0.14601734784E+04  0.25500000920E-02 0. -1.
        2   -1    0    0  501    0  0.00000000000E+00  0.00000000000E+00 -0.14509601376E+04  0.14509601376E+04  0.25500000920E-02 0.  1.
    10030    2    1    2    0    0  0.00000000000E+00  0.00000000000E+00  0.92133408557E+01  0.29111336160E+04  0.29111190365E+04 0.  0.
        5    1    3    3  502    0  0.13010797529E+04  0.62621370483E+03 -0.17891344010E+03  0.14549859919E+04  0.46999998093E+01 0.  1.
       -5    1    3    3    0  502 -0.13010797529E+04 -0.62621370483E+03  0.18812678095E+03  0.14561476241E+04  0.46999998093E+01 0. -1.
</event>
<event>
 5   0  0.4148677E-06  0.2900885E+04  0.7818609E-02  0.8272614E-01
        2   -1    0    0  501    0  0.00000000000E+00  0.00000000000E+00  0.30505614748E+04  0.30505614748E+04  0.25500000920E-02 0.  1.
       -2   -1    0    0    0  501  0.00000000000E+00  0.00000000000E+00 -0.68963823656E+03  0.68963823657E+03  0.25500000920E-02 0. -1.
    10030    2    1    2    0    0  0.00000000000E+00  0.00000000000E+00  0.23609232383E+04  0.37401997114E+04  0.29008852690E+04 0.  0.
        5    1    3    3  502    0 -0.20907493964E+03  0.74622848892E+03  0.27612419874E+04  0.28679345688E+04  0.46999998093E+01 0.  1.
       -5    1    3    3    0  502  0.20907493964E+03 -0.74622848892E+03 -0.40031874913E+03  0.87226514258E+03  0.46999998093E+01 0. -1.
</event>
<event>
 5   0  0.4162450E-06  0.2880807E+04  0.7818609E-02  0.8278611E-01
       -2   -1    0    0    0  501  0.00000000000E+00  0.00000000000E+00  0.98471835112E+03  0.98471835112E+03  0.25500000920E-02 0.  1.
        2   -1    0    0  501    0  0.00000000000E+00  0.00000000000E+00 -0.21069607710E+04  0.21069607710E+04  0.25500000920E-02 0. -1.
    10030    2    1    2    0    0  0.00000000000E+00  0.00000000000E+00 -0.11222424199E+04  0.30916791221E+04  0.28808074815E+04 0.  0.
        2    1    3    3  502    0 -0.17740433217E+03  0.10134557265E+04  0.52073457729E+03  0.11531388930E+04  0.25500000920E-02 0.  1.
       -2    1    3    3    0  502  0.17740433217E+03 -0.10134557265E+04 -0.16429769972E+04  0.19385402291E+04  0.25500000920E-02 0. -1.
</event>
<event>
 5   0  0.4162450E-06  0.2901125E+04  0.7818609E-02  0.8272543E-01
       -2   -1    0    0    0  501  0.00000000000E+00  0.00000000000E+00  0.14480672065E+04  0.14480672065E+04  0.25500000920E-02 0.  1.
        2   -1    0    0  501    0  0.00000000000E+00  0.00000000000E+00 -0.14530620965E+04  0.14530620965E+04  0.25500000920E-02 0. -1.
    10030    2    1    2    0    0  0.00000000000E+00  0.00000000000E+00 -0.49948899750E+01  0.29011293030E+04  0.29011250031E+04 0.  0.
        2    1    3    3  502    0  0.13280575566E+04 -0.57563448936E+03 -0.97574565162E+02  0.14507283463E+04  0.25500000920E-02 0. -1.
       -2    1    3    3    0  502 -0.13280575566E+04  0.57563448936E+03  0.92579675187E+02  0.14504009567E+04  0.25500000920E-02 0.  1.
</event>
<event>
 5   0  0.4115143E-06  0.2893263E+04  0.7818609E-02  0.8274885E-01
        2   -1    0    0  501    0  0.00000000000E+00  0.00000000000E+00  0.10909602646E+04  0.10909602646E+04  0.25500000920E-02 0. -1.
       -2   -1    0    0    0  501  0.00000000000E+00  0.00000000000E+00 -0.19182575249E+04  0.19182575249E+04  0.25500000920E-02 0.  1.
    10030    2    1    2    0    0  0.00000000000E+00  0.00000000000E+00 -0.82729726030E+03  0.30092177896E+04  0.28932630278E+04 0.  0.
        1    1    3    3  502    0 -0.34641976247E+03 -0.12121350834E+04  0.32434087131E+03  0.13017200594E+04  0.50400001928E-02 0. -1.
       -1    1    3    3    0  502  0.34641976247E+03  0.12121350834E+04 -0.11516381316E+04  0.17074977301E+04  0.50400001928E-02 0.  1.
</event>
<event>
 5   0  0.1511126E-06  0.2894924E+04  0.7818609E-02  0.8274389E-01
       -1   -1    0    0    0  501  0.00000000000E+00  0.00000000000E+00  0.91615749320E+03  0.91615749321E+03  0.50400001928E-02 0.  1.
        1   -1    0    0  501    0  0.00000000000E+00  0.00000000000E+00 -0.22868841530E+04  0.22868841530E+04  0.50400001928E-02 0. -1.
    10030    2    1    2    0    0  0.00000000000E+00  0.00000000000E+00 -0.13707266598E+04  0.32030416462E+04  0.28949238697E+04 0.  0.
        5    1    3    3  502    0  0.10483660969E+04  0.45660289509E+03 -0.16672672560E+04  0.20217220061E+04  0.46999998093E+01 0. -1.
       -5    1    3    3    0  502 -0.10483660969E+04 -0.45660289509E+03  0.29654059626E+03  0.11813196401E+04  0.46999998093E+01 0.  1.
</event>
<event>
 5   0  0.1543678E-06  0.2860430E+04  0.7818609E-02  0.8284749E-01
        1   -1    0    0  501    0  0.00000000000E+00  0.00000000000E+00  0.20138358153E+04  0.20138358153E+04  0.50400001928E-02 0. -1.
       -1   -1    0    0    0  501  0.00000000000E+00  0.00000000000E+00 -0.10157307511E+04  0.10157307511E+04  0.50400001928E-02 0.  1.
    10030    2    1    2    0    0  0.00000000000E+00  0.00000000000E+00  0.99810506419E+03  0.30295665663E+04  0.28604300133E+04 0.  0.
        3    1    3    3  502    0  0.12365530682E+04  0.71850812634E+03  0.48416669701E+03  0.15098790743E+04  0.10100000352E+00 0.  1.
       -3    1    3    3    0  502 -0.12365530682E+04 -0.71850812634E+03  0.51393836718E+03  0.15196874921E+04  0.10100000352E+00 0. -1.
</event>
<event>
 5   0  0.4187518E-06  0.2945811E+04  0.7818609E-02  0.8259376E-01
       -2   -1    0    0    0  501  0.00000000000E+00  0.00000000000E+00  0.19620668072E+04  0.19620668072E+04  0.25500000920E-02 0.  1.
        2   -1    0    0  501    0  0.00000000000E+00  0.00000000000E+00 -0.11056965550E+04  0.11056965550E+04  0.25500000920E-02 0. -1.
    10030    2    1    2    0    0  0.00000000000E+00  0.00000000000E+00  0.85637025220E+03  0.30677633622E+04  0.29458109304E+04 0.  0.
        3    1    3    3  502    0  0.81665680433E+03 -0.11354144298E+04 -0.52842099079E+02  0.13996022868E+04  0.10100000352E+00 0. -1.
       -3    1    3    3    0  502 -0.81665680433E+03  0.11354144298E+04  0.90921235128E+03  0.16681610754E+04  0.10100000352E+00 0.  1.
</event>
<event>
 5   0  0.1602873E-06  0.2894948E+04  0.7818609E-02  0.8274382E-01
        1   -1    0    0  501    0  0.00000000000E+00  0.00000000000E+00  0.21603620686E+04  0.21603620686E+04  0.50400001928E-02 0. -1.
       -1   -1    0    0    0  501  0.00000000000E+00  0.00000000000E+00 -0.96982834274E+03  0.96982834276E+03  0.50400001928E-02 0.  1.
    10030    2    1    2    0    0  0.00000000000E+00  0.00000000000E+00  0.11905337258E+04  0.31301904113E+04  0.28949475745E+04 0.  0.
        1    1    3    3  502    0 -0.49222329865E+02  0.10788755314E+04 -0.44678102255E+03  0.11687636767E+04  0.50400001928E-02 0.  1.
       -1    1    3    3    0  502  0.49222329865E+02 -0.10788755314E+04  0.16373147484E+04  0.19614267346E+04  0.50400001928E-02 0. -1.
</event>
<event>
 5   0  0.4162450E-06  0.2823292E+04  0.7818609E-02  0.8296073E-01
        2   -1    0    0  501    0  0.00000000000E+00  0.00000000000E+00  0.21983789766E+04  0.21983789766E+04  0.25500000920E-02 0.  1.
       -2   -1    0    0    0  501  0.00000000000E+00  0.00000000000E+00 -0.90646102994E+03  0.90646102994E+03  0.25500000920E-02 0. -1.
    10030    2    1    2    0    0  0.00000000000E+00  0.00000000000E+00  0.12919179467E+04  0.31048400065E+04  0.28232923131E+04 0.  0.
        2    1    3    3  502    0  0.77528183046E+03 -0.87565676862E+03 -0.22338467268E+03  0.11906877866E+04  0.25500000920E-02 0. -1.
       -2    1    3    3    0  502 -0.77528183046E+03  0.87565676862E+03  0.15153026193E+04  0.19141522200E+04  0.25500000920E-02 0.  1.
</event>
<event>
 5   0  0.1580212E-06  0.2912189E+04  0.7818609E-02  0.8269260E-01
        1   -1    0    0  501    0  0.00000000000E+00  0.00000000000E+00  0.18171980592E+04  0.18171980592E+04  0.50400001928E-02 0. -1.
       -1   -1    0    0    0  501  0.00000000000E+00  0.00000000000E+00 -0.11667473584E+04  0.11667473584E+04  0.50400001928E-02 0.  1.
    10030    2    1    2    0    0  0.00000000000E+00  0.00000000000E+00  0.65045070080E+03  0.29839454176E+04  0.29121888917E+04 0.  0.
        4    1    3    3  502    0  0.14942880624E+03 -0.13679507063E+04 -0.16251980894E+03  0.13856523388E+04  0.12699999809E+01 0.  1.
       -4    1    3    3    0  502 -0.14942880624E+03  0.13679507063E+04  0.81297050973E+03  0.15982930787E+04  0.12699999809E+01 0. -1.
</event>
<event>
 5   0  0.1602873E-06  0.2911844E+04  0.7818609E-02  0.8269362E-01
       -1   -1    0    0    0  501  0.00000000000E+00  0.00000000000E+00  0.11707647996E+04  0.11707647996E+04  0.50400001928E-02 0.  1.
        1   -1    0    0  501    0  0.00000000000E+00  0.00000000000E+00 -0.18105330926E+04  0.18105330926E+04  0.50400001928E-02 0. -1.
    10030    2    1    2    0    0  0.00000000000E+00  0.00000000000E+00 -0.63976829300E+03  0.29812978921E+04  0.29118436862E+04 0.  0.
        1    1    3    3  502    0 -0.24325507234E+02  0.14480328851E+04 -0.47283769837E+03  0.15234718428E+04  0.50400001928E-02 0. -1.
       -1    1    3    3    0  502  0.24325507234E+02 -0.14480328851E+04 -0.16693059463E+03  0.14578260494E+04  0.50400001928E-02 0.  1.
</event>
<event>
 5   0  0.1550278E-06  0.2926021E+04  0.7818609E-02  0.8265177E-01
       -1   -1    0    0    0  501  0.00000000000E+00  0.00000000000E+00  0.12811351663E+04  0.12811351663E+04  0.50400001928E-02 0.  1.
        1   -1    0    0  501    0  0.00000000000E+00  0.00000000000E+00 -0.16707060269E+04  0.16707060269E+04  0.50400001928E-02 0. -1.
    10030    2    1    2    0    0  0.00000000000E+00  0.00000000000E+00 -0.38957086067E+03  0.29518411932E+04  0.29260213558E+04 0.  0.
        2    1    3    3  502    0 -0.13841459424E+04  0.31891422013E+03  0.15878403268E+03  0.14292580728E+04  0.25500000920E-02 0. -1.
       -2    1    3    3    0  502  0.13841459424E+04 -0.31891422013E+03 -0.54835489335E+03  0.15225831204E+04  0.25500000920E-02 0.  1.
</event>
<event>
 5   0  0.1511126E-06  0.2898350E+04  0.7818609E-02  0.8273368E-01
        1   -1    0    0  501    0  0.00000000000E+00  0.00000000000E+00  0.11938780643E+04  0.11938780643E+04  0.50400001928E-02 0. -1.
       -1   -1    0    0    0  501  0.00000000000E+00  0.00000000000E+00 -0.17590646996E+04  0.17590646996E+04  0.50400001928E-02 0.  1.
    10030    2    1    2    0    0  0.00000000000E+00  0.00000000000E+00 -0.56518663533E+03  0.29529427639E+04  0.28983503988E+04 0.  0.
        5    1    3    3  502    0 -0.74049136559E+01 -0.70360422078E+03 -0.15733310239E+04  0.17235156898E+04  0.46999998093E+01 0.  1.
       -5    1    3    3    0  502  0.74049136559E+01  0.70360422078E+03  0.10081443886E+04  0.12294270741E+04  0.46999998093E+01 0. -1.
</event>
<event>
 5   0  0.4224163E-06  0.2896997E+04  0.7818609E-02  0.8273772E-01
       -2   -1    0    0    0  501  0.00000000000E+00  0.00000000000E+00  0.84280243163E+03  0.84280243164E+03  0.25500000920E-02 0.  1.
        2   -1    0    0  501    0  0.00000000000E+00  0.00000000000E+00 -0.24894892673E+04  0.24894892673E+04  0.25500000920E-02 0. -1.
    10030    2    1    2    0    0  0.00000000000E+00  0.00000000000E+00 -0.16466868357E+04  0.33322916990E+04  0.28969967953E+04 0.  0.
        4    1    3    3  502    0 -0.11615920924E+03  0.15595989714E+03  0.82771842813E+03  0.85025634992E+03  0.12699999809E+01 0.  1.
       -4    1    3    3    0  502  0.11615920924E+03 -0.15595989714E+03 -0.24744052638E+04  0.24820353491E+04  0.12699999809E+01 0. -1.
</event>
<event>
 5   0  0.4224163E-06  0.2885844E+04  0.7818609E-02  0.8277102E-01
        2   -1    0    0  501    0  0.00000000000E+00  0.00000000000E+00  0.22332427403E+04  0.22332427403E+04  0.25500000920E-02 0. -1.
       -2   -1    0    0    0  501  0.00000000000E+00  0.00000000000E+00 -0.93228739103E+03  0.93228739104E+03  0.25500000920E-02 0.  1.
    10030    2    1    2    0    0  0.00000000000E+00  0.00000000000E+00  0.13009553492E+04  0.31655301313E+04  0.28858441038E+04 0.  0.
        4    1    3    3  502    0 -0.90057985318E+03  0.55869037549E+03  0.17245843933E+04  0.20241966185E+04  0.12699999809E+01 0. -1.
       -4    1    3    3    0  502  0.90057985318E+03 -0.55869037549E+03 -0.42362904409E+03  0.11413335128E+04  0.12699999809E+01 0.  1.
</event>
<event>
 5   0  0.1550278E-06  0.2897458E+04  0.7818609E-02  0.8273634E-01
        1   -1    0    0  501    0  0.00000000000E+00  0.00000000000E+00  0.22600506417E+04  0.22600506417E+04  0.50400001928E-02 0.  1.
       -1   -1    0    0    0  501  0.00000000000E+00  0.00000000000E+00 -0.92865895126E+03  0.92865895128E+03  0.50400001928E-02 0. -1.
    10030    2    1    2    0    0  0.00000000000E+00  0.00000000000E+00  0.13313916905E+04  0.31887095930E+04  0.28974583751E+04 0.  0.
        2    1    3    3  502    0  0.69169579802E+03 -0.29641893177E+03  0.20280790447E+04  0.21631948298E+04  0.25500000920E-02 0.  1.
       -2    1    3    3    0  502 -0.69169579802E+03  0.29641893177E+03 -0.69668735421E+03  0.10255147632E+04  0.25500000920E-02 0. -1.
</event>
<event>
 5   0  0.4224163E-06  0.2913551E+04  0.7818609E-02  0.8268857E-01
       -2   -1    0    0    0  501  0.00000000000E+00  0.00000000000E+00  0.94430919733E+03  0.94430919734E+03  0.25500000920E-02 0. -1.
        2   -1    0    0  501    0  0.00000000000E+00  0.00000000000E+00 -0.22473510321E+04  0.22473510321E+04  0.25500000920E-02 0.  1.
    10030    2    1    2    0    0  0.00000000000E+00  0.00000000000E+00 -0.13030418347E+04  0.31916602294E+04  0.29135505825E+04 0.  0.
        4    1    3    3  502    0 -0.60871123086E+03  0.74670507324E+03 -0.18485742347E+04  0.20845445889E+04  0.12699999809E+01 0.  1.
       -4    1    3    3    0  502  0.60871123086E+03 -0.74670507324E+03  0.54553240002E+03  0.11071156405E+04  0.12699999809E+01 0. -1.
</event>
<event>
 5   0  0.4115143E-06  0.2896889E+04  0.7818609E-02  0.8273804E-01
        2   -1    0    0  501    0  0.00000000000E+00  0.00000000000E+00  0.11643363748E+04  0.11643363748E+04  0.25500000920E-02 0. -1.
       -2   -1    0    0    0  501  0.00000000000E+00  0.00000000000E+00 -0.18018774878E+04  0.18018774878E+04  0.25500000920E-02 0.  1.
    10030    2    1    2    0    0  0.00000000000E+00  0.00000000000E+00 -0.63754111300E+03  0.29662138626E+04  0.28968890224E+04 0.  0.
        1    1    3    3  502    0 -0.34914188122E+03 -0.14036881322E+04 -0.39642121910E+03  0.14997967225E+04  0.50400001928E-02 0.  1.
       -1    1    3    3    0  502  0.34914188122E+03  0.14036881322E+04 -0.24111989389E+03  0.14664171402E+04  0.50400001928E-02 0. -1.
</event>
<event>
 5   0  0.4224163E-06  0.2907425E+04  0.7818609E-02  0.8270672E-01
       -2   -1    0    0    0  501  0.00000000000E+00  0.00000000000E+00  0.89315956094E+03  0.89315956094E+03  0.25500000920E-02 0.  1.
        2   -1    0    0  501    0  0.00000000000E+00  0.00000000000E+00 -0.23660724374E+04  0.23660724374E+04  0.25500000920E-02 0. -1.
    10030    2    1    2    0    0  0.00000000000E+00  0.00000000000E+00 -0.14729128764E+04  0.32592319983E+04  0.29074251284E+04 0.  0.
        4    1    3    3  502    0 -0.54415597984E+03  0.45588111012E+03  0.68564754352E+03  0.98693843972E+03  0.12699999809E+01 0.  1.
       -4    1    3    3    0  502  0.54415597984E+03 -0.45588111012E+03 -0.21585604199E+04  0.22722935586E+04  0.12699999809E+01 0. -1.
</event>
<event>
 5   0  0.1511126E-06  0.2905606E+04  0.7818609E-02  0.8271211E-01
        1   -1    0    0  501    0  0.00000000000E+00  0.00000000000E+00  0.19066934371E+04  0.19066934371E+04  0.50400001928E-02 0.  1.
       -1   -1    0    0    0  501  0.00000000000E+00  0.00000000000E+00 -0.11069619644E+04  0.11069619644E+04  0.50400001928E-02 0. -1.
    10030    2    1    2    0    0  0.00000000000E+00  0.00000000000E+00  0.79973147263E+03  0.30136554015E+04  0.29056063826E+04 0.  0.
        5    1    3    3  502    0  0.13427304589E+02 -0.49164626273E+03  0.18177107951E+04  0.18830801801E+04  0.46999998093E+01 0.  1.
       -5    1    3    3    0  502 -0.13427304589E+02  0.49164626273E+03 -0.10179793225E+04  0.11305752214E+04  0.46999998093E+01 0. -1.
</event>
<event>
 5   0  0.4148677E-06  0.2897375E+04  0.7818609E-02  0.8273659E-01
       -2   -1    0    0    0  501  0.00000000000E+00  0.00000000000E+00  0.11253476339E+04  0.11253476339E+04  0.25500000920E-02 0.  1.
        2   -1    0    0  501    0  0.00000000000E+00  0.00000000000E+00 -0.18649311040E+04  0.18649311040E+04  0.25500000920E-02 0. -1.
    10030    2    1    2    0    0  0.00000000000E+00  0.00000000000E+00 -0.73958347005E+03  0.29902787379E+04  0.28973752296E+04 0.  0.
        5    1    3    3  502    0 -0.36329673547E+03 -0.13140190735E+04 -0.87544348879E+03  0.16202018502E+04  0.46999998093E+01 0.  1.
       -5    1    3    3    0  502  0.36329673547E+03  0.13140190735E+04  0.13586001874E+03  0.13700768877E+04  0.46999998093E+01 0. -1.
</event>
<event>
 5   0  0.1511126E-06  0.2686480E+04  0.7818609E-02  0.8339405E-01
        1   -1    0    0  501    0  0.00000000000E+00  0.00000000000E+00  0.16964550529E+04  0.16964550529E+04  0.50400001928E-02 0.  1.
       -1   -1    0    0    0  501  0.00000000000E+00  0.00000000000E+00 -0.10635669821E+04  0.10635669821E+04  0.50400001928E-02 0. -1.
    10030    2    1    2    0    0  0.00000000000E+00  0.00000000000E+00  0.63288807082E+03  0.27600220351E+04  0.26864799132E+04 0.  0.
        5    1    3    3  502    0 -0.23051109987E+03  0.33453378943E+03  0.16318142596E+04  0.16816325673E+04  0.46999998093E+01 0.  1.
       -5    1    3    3    0  502  0.23051109987E+03 -0.33453378943E+03 -0.99892618882E+03  0.10783894678E+04  0.46999998093E+01 0. -1.
</event>
<event>
 5   0  0.1543678E-06  0.2904695E+04  0.7818609E-02  0.8271482E-01
       -1   -1    0    0    0  501  0.00000000000E+00  0.00000000000E+00  0.10772743933E+04  0.10772743933E+04  0.50400001928E-02 0.  1.
        1   -1    0    0  501    0  0.00000000000E+00  0.00000000000E+00 -0.19580095194E+04  0.19580095194E+04  0.50400001928E-02 0. -1.
    10030    2    1    2    0    0  0.00000000000E+00  0.00000000000E+00 -0.88073512605E+03  0.30352839127E+04  0.29046951765E+04 0.  0.
        3    1    3    3  502    0 -0.33561161947E+03 -0.71557769168E+03  0.83286407412E+03  0.11481938722E+04  0.10100000352E+00 0.  1.
       -3    1    3    3    0  502  0.33561161947E+03  0.71557769168E+03 -0.17135992002E+04  0.18870900405E+04  0.10100000352E+00 0. -1.
</event>
<event>
 5   0  0.4148677E-06  0.2769794E+04  0.7818609E-02  0.8312708E-01
       -2   -1    0    0    0  501  0.00000000000E+00  0.00000000000E+00  0.99726477349E+03  0.99726477349E+03  0.25500000920E-02 0. -1.
        2   -1    0    0  501    0  0.00000000000E+00  0.00000000000E+00 -0.19231995058E+04  0.19231995058E+04  0.25500000920E-02 0.  1.
    10030    2    1    2    0    0  0.00000000000E+00  0.00000000000E+00 -0.92593473227E+03  0.29204642793E+04  0.27697935804E+04 0.  0.
        5    1    3    3  502    0 -0.12602996398E+04 -0.49442656560E+03 -0.15537182291E+03  0.13627088112E+04  0.46999998093E+01 0. -1.
       -5    1    3    3    0  502  0.12602996398E+04  0.49442656560E+03 -0.77056290936E+03  0.15577554680E+04  0.46999998093E+01 0.  1.
</event>
<event>
 5   0  0.1602873E-06  0.2992272E+04  0.7818609E-02  0.8245941E-01
        1   -1    0    0  501    0  0.00000000000E+00  0.00000000000E+00  0.21165501084E+04  0.21165501085E+04  0.50400001928E-02 0.  1.
       -1   -1    0    0    0  501  0.00000000000E+00  0.00000000000E+00 -0.10575805997E+04  0.10575805997E+04  0.50400001928E-02 0. -1.
    10030    2    1    2    0    0  0.00000000000E+00  0.00000000000E+00  0.10589695087E+04  0.31741307082E+04  0.29922716006E+04 0.  0.
        1    1    3    3  502    0 -0.13894337186E+04 -0.50661063458E+03  0.28936019771E+03  0.15069537874E+04  0.50400001928E-02 0. -1.
       -1    1    3    3    0  502  0.13894337186E+04  0.50661063458E+03  0.76960931104E+03  0.16671769207E+04  0.50400001928E-02 0.  1.
</event>
<event>
 5   0  0.1580212E-06  0.2918870E+04  0.7818609E-02  0.8267285E-01
       -1   -1    0    0    0  501  0.00000000000E+00  0.00000000000E+00  0.10899274058E+04  0.10899274058E+04  0.50400001928E-02 0.  1.
        1   -1    0    0  501    0  0.00000000000E+00  0.00000000000E+00 -0.19542134306E+04  0.19542134306E+04  0.50400001928E-02 0. -1.
    10030    2    1    2    0    0  0.00000000000E+00  0.00000000000E+00 -0.86428602476E+03  0.30441408365E+04  0.29188701752E+04 0.  0.
        4    1    3    3  502    0  0.99619765121E+03  0.46779250946E+03 -0.14317725542E+04  0.18058831225E+04  0.12699999809E+01 0. -1.
       -4    1    3    3    0  502 -0.99619765121E+03 -0.46779250946E+03  0.56748652945E+03  0.12382577140E+04  0.12699999809E+01 0.  1.
</event>
<event>
 5   0  0.1511126E-06  0.2861247E+04  0.7818609E-02  0.8284502E-01
       -1   -1    0    0    0  501  0.00000000000E+00  0.00000000000E+00  0.80335332151E+03  0.80335332152E+03  0.50400001928E-02 0. -1.
        1   -1    0    0  501    0  0.00000000000E+00  0.00000000000E+00 -0.25476762351E+04  0.25476762351E+04  0.50400001928E-02 0.  1.
    10030    2    1    2    0    0  0.00000000000E+00  0.00000000000E+00 -0.17443229136E+04  0.33510295566E+04  0.28612473962E+04 0.  0.
        5    1    3    3  502    0 -0.12847439841E+04  0.20831871179E+03 -0.17661759548E+03  0.13134609455E+04  0.46999998093E+01 0. -1.
       -5    1    3    3    0  502  0.12847439841E+04 -0.20831871179E+03 -0.15677053181E+04  0.20375686110E+04  0.46999998093E+01 0.  1.
</event>
<event>
 5   0  0.1602873E-06  0.2893723E+04  0.7818609E-02  0.8274748E-01
        1   -1    0    0  501    0  0.00000000000E+00  0.00000000000E+00  0.16241364845E+04  0.16241364846E+04  0.50400001928E-02 0. -1.
       -1   -1    0    0    0  501  0.00000000000E+00  0.00000000000E+00 -0.12889357698E+04  0.12889357698E+04  0.50400001928E-02 0.  1.
    10030    2    1    2    0    0  0.00000000000E+00  0.00000000000E+00  0.33520071472E+03  0.29130722544E+04  0.28937225921E+04 0.  0.
        1    1    3    3  502    0 -0.10308946718E+03 -0.67398668596E+03  0.14522692042E+04  0.16043601007E+04  0.50400001928E-02 0. -1.
       -1    1    3    3    0  502  0.10308946718E+03  0.67398668596E+03 -0.11170684895E+04  0.13087121537E+04  0.50400001928E-02 0.  1.
</event>
<event>
 5   0  0.1602873E-06  0.2931725E+04  0.7818609E-02  0.8263500E-01
       -1   -1    0    0    0  501  0.00000000000E+00  0.00000000000E+00  0.11127979942E+04  0.11127979942E+04  0.50400001928E-02 0. -1.
        1   -1    0    0  501    0  0.00000000000E+00  0.00000000000E+00 -0.19309459047E+04  0.19309459047E+04  0.50400001928E-02 0.  1.
    10030    2    1    2    0    0  0.00000000000E+00  0.00000000000E+00 -0.81814791050E+03  0.30437438988E+04  0.29317249049E+04 0.  0.
        1    1    3    3  502    0  0.12092944076E+04  0.82738710784E+03 -0.36514483334E+03  0.15100639523E+04  0.50400001928E-02 0. -1.
       -1    1    3    3    0  502 -0.12092944076E+04 -0.82738710784E+03 -0.45300307716E+03  0.15336799466E+04  0.50400001928E-02 0.  1.
</event>
<event>
 5   0  0.4224163E-06  0.2900807E+04  0.7818609E-02  0.8272638E-01
        2   -1    0    0  501    0  0.00000000000E+00  0.00000000000E+00  0.18583840718E+04  0.18583840718E+04  0.25500000920E-02 0.  1.
       -2   -1    0    0    0  501  0.00000000000E+00  0.00000000000E+00 -0.11319887319E+04  0.11319887319E+04  0.25500000920E-02 0. -1.
    10030    2    1    2    0    0  0.00000000000E+00  0.00000000000E+00  0.72639533984E+03  0.29903728037E+04  0.29008066663E+04 0.  0.
        4    1    3    3  502    0  0.45389274871E+02 -0.44964619138E+03 -0.10575526965E+04  0.11500700859E+04  0.12699999809E+01 0. -1.
       -4    1    3    3    0  502 -0.45389274871E+02  0.44964619138E+03  0.17839480364E+04  0.18403027178E+04  0.12699999809E+01 0.  1.
</event>
<event>
 5   0  0.1580212E-06  0.2906913E+04  0.7818609E-02  0.8270823E-01
        1   -1    0    0  501    0  0.00000000000E+00  0.00000000000E+00  0.19124638543E+04  0.19124638543E+04  0.50400001928E-02 0. -1.
       -1   -1    0    0    0  501  0.00000000000E+00  0.00000000000E+00 -0.11046150979E+04  0.11046150979E+04  0.50400001928E-02 0.  1.
    10030    2    1    2    0    0  0.00000000000E+00  0.00000000000E+00  0.80784875644E+03  0.30170789522E+04  0.29069134474E+04 0.  0.
        4    1    3    3  502    0 -0.10534532915E+04 -0.42581688283E+03 -0.53676318035E+03  0.12566623173E+04  0.12699999809E+01 0.  1.
       -4    1    3    3    0  502  0.10534532915E+04  0.42581688283E+03  0.13446119368E+04  0.17604166349E+04  0.12699999809E+01 0. -1.
</event>
<event>
 5   0  0.1602873E-06  0.2894735E+04  0.7818609E-02  0.8274446E-01
       -1   -1    0    0    0  501  0.00000000000E+00  0.00000000000E+00  0.11232540761E+04  0.11232540761E+04  0.50400001928E-02 0. -1.
        1   -1    0    0  501    0  0.00000000000E+00  0.00000000000E+00 -0.18650035971E+04  0.18650035971E+04  0.50400001928E-02 0.  1.
    10030    2    1    2    0    0  0.00000000000E+00  0.00000000000E+00 -0.74174952100E+03  0.29882576732E+04  0.28947351467E+04 0.  0.
        1    1    3    3  502    0 -0.59984912331E+03  0.69541424562E+03  0.78395102412E+03  0.12074763567E+04  0.50400001928E-02 0. -1.
       -1    1    3    3    0  502  0.59984912331E+03 -0.69541424562E+03 -0.15257005451E+04  0.17807813165E+04  0.50400001928E-02 0.  1.
</event>
<event>
 5   0  0.1543678E-06  0.2885528E+04  0.7818609E-02  0.8277196E-01
        1   -1    0    0  501    0  0.00000000000E+00  0.00000000000E+00  0.88906116239E+03  0.88906116241E+03  0.50400001928E-02 0. -1.
       -1   -1    0    0    0  501  0.00000000000E+00  0.00000000000E+00 -0.23413101141E+04  0.23413101141E+04  0.50400001928E-02 0.  1.
    10030    2    1    2    0    0  0.00000000000E+00  0.00000000000E+00 -0.14522489517E+04  0.32303712765E+04  0.28855279528E+04 0.  0.
        3    1    3    3  502    0 -0.11475880972E+04 -0.79162501171E+03 -0.31033725820E+03  0.14282639196E+04  0.10100000352E+00 0. -1.
       -3    1    3    3    0  502  0.11475880972E+04  0.79162501171E+03 -0.11419116935E+04  0.18021073569E+04  0.10100000352E+00 0.  1.
</event>
<event>
 5   0  0.1511126E-06  0.2924725E+04  0.7818609E-02  0.8265559E-01
        1   -1    0    0  501    0  0.00000000000E+00  0.00000000000E+00  0.15241470444E+04  0.15241470444E+04  0.50400001928E-02 0. -1.
       -1   -1    0    0    0  501  0.00000000000E+00  0.00000000000E+00 -0.14030821523E+04  0.14030821523E+04  0.50400001928E-02 0.  1.
    10030    2    1    2    0    0  0.00000000000E+00  0.00000000000E+00  0.12106489211E+03  0.29272291967E+04  0.29247246130E+04 0.  0.
        5    1    3    3  502    0  0.11654078963E+04  0.89165673230E+02 -0.81905764065E+03  0.14272363472E+04  0.46999998093E+01 0.  1.
       -5    1    3    3    0  502 -0.11654078963E+04 -0.89165673230E+02  0.94012253275E+03  0.14999928495E+04  0.46999998093E+01 0. -1.
</event>
<event>
 5   0  0.4224163E-06  0.2900582E+04  0.7818609E-02  0.8272704E-01
        2   -1    0    0  501    0  0.00000000000E+00  0.00000000000E+00  0.24548822577E+04  0.24548822578E+04  0.25500000920E-02 0. -1.
       -2   -1    0    0    0  501  0.00000000000E+00  0.00000000000E+00 -0.85680018377E+03  0.85680018377E+03  0.25500000920E-02 0.  1.
    10030    2    1    2    0    0  0.00000000000E+00  0.00000000000E+00  0.15980820740E+04  0.33116824415E+04  0.29005817138E+04 0.  0.
        4    1    3    3  502    0  0.14020825012E+04  0.77304512398E+02  0.38496792624E+03  0.14560265262E+04  0.12699999809E+01 0. -1.
       -4    1    3    3    0  502 -0.14020825012E+04 -0.77304512398E+02  0.12131141477E+04  0.18556559153E+04  0.12699999809E+01 0.  1.
</event>
<event>
 5   0  0.1550278E-06  0.2891276E+04  0.7818609E-02  0.8275478E-01
        1   -1    0    0  501    0  0.00000000000E+00  0.00000000000E+00  0.11108159783E+04  0.11108159783E+04  0.50400001928E-02 0. -1.
       -1   -1    0    0    0  501  0.00000000000E+00  0.00000000000E+00 -0.18813816484E+04  0.18813816484E+04  0.50400001928E-02 0.  1.
    10030    2    1    2    0    0  0.00000000000E+00  0.00000000000E+00 -0.77056567007E+03  0.29921976267E+04  0.28912757021E+04 0.  0.
        2    1    3    3  502    0  0.15759585442E+03  0.13109538003E+04 -0.99441294387E+03  0.16529650398E+04  0.25500000920E-02 0.  1.
       -2    1    3    3    0  502 -0.15759585442E+03 -0.13109538003E+04  0.22384727380E+03  0.13392325869E+04  0.25500000920E-02 0. -1.
</event>
<event>
 5   0  0.1580212E-06  0.2896551E+04  0.7818609E-02  0.8273904E-01
        1   -1    0    0  501    0  0.00000000000E+00  0.00000000000E+00  0.15247705209E+04  0.15247705209E+04  0.50400001928E-02 0. -1.
       -1   -1    0    0    0  501  0.00000000000E+00  0.00000000000E+00 -0.13756180990E+04  0.13756180990E+04  0.50400001928E-02 0.  1.
    10030    2    1    2    0    0  0.00000000000E+00  0.00000000000E+00  0.14915242190E+03  0.29003886199E+04  0.28965510011E+04 0.  0.
        4    1    3    3  502    0 -0.10282225969E+04  0.64632093242E+03 -0.71547347980E+03  0.14095660218E+04  0.12699999809E+01 0.  1.
       -4    1    3    3    0  502  0.10282225969E+04 -0.64632093242E+03  0.86462590170E+03  0.14908225982E+04  0.12699999809E+01 0. -1.
</event>
<event>
 5   0  0.4224163E-06  0.2885002E+04  0.7818609E-02  0.8277354E-01
        2   -1    0    0  501    0  0.00000000000E+00  0.00000000000E+00  0.19137559935E+04  0.19137559935E+04  0.25500000920E-02 0.  1.
       -2   -1    0    0    0  501  0.00000000000E+00  0.00000000000E+00 -0.10872903876E+04  0.10872903876E+04  0.25500000920E-02 0. -1.
    10030    2    1    2    0    0  0.00000000000E+00  0.00000000000E+00  0.82646560581E+03  0.30010463811E+04  0.28850015570E+04 0.  0.
        4    1    3    3  502    0 -0.87389424379E+03 -0.35485648603E+03  0.15485511349E+04  0.18131813217E+04  0.12699999809E+01 0.  1.
       -4    1    3    3    0  502  0.87389424379E+03  0.35485648603E+03 -0.72208552912E+03  0.11878650594E+04  0.12699999809E+01 0. -1.
</event>
<event>
 5   0  0.4148677E-06  0.2890052E+04  0.7818609E-02  0.8275843E-01
        2   -1    0    0  501    0  0.00000000000E+00  0.00000000000E+00  0.18184650775E+04  0.18184650775E+04  0.25500000920E-02 0. -1.
       -2   -1    0    0    0  501  0.00000000000E+00  0.00000000000E+00 -0.11482762370E+04  0.11482762370E+04  0.25500000920E-02 0.  1.
    10030    2    1    2    0    0  0.00000000000E+00  0.00000000000E+00  0.67018884058E+03  0.29667413145E+04  0.28900520662E+04 0.  0.
        5    1    3    3  502    0  0.13369992199E+03  0.60128373613E+03  0.16769379703E+04  0.17864940097E+04  0.46999998093E+01 0. -1.
       -5    1    3    3    0  502 -0.13369992199E+03 -0.60128373613E+03 -0.10067491297E+04  0.11802473048E+04  0.46999998093E+01 0.  1.
</event>
<event>
 5   0  0.1580212E-06  0.2786855E+04  0.7818609E-02  0.8307361E-01
       -1   -1    0    0    0  501  0.00000000000E+00  0.00000000000E+00  0.12610766515E+04  0.12610766515E+04  0.50400001928E-02 0. -1.
        1   -1    0    0  501    0  0.00000000000E+00  0.00000000000E+00 -0.15396683828E+04  0.15396683829E+04  0.50400001928E-02 0.  1.
    10030    2    1    2    0    0  0.00000000000E+00  0.00000000000E+00 -0.27859173137E+03  0.28007450343E+04  0.27868547495E+04 0.  0.
        4    1    3    3  502    0 -0.12124947366E+04 -0.32662479737E+03 -0.74630216479E+03  0.14607517855E+04  0.12699999809E+01 0.  1.
       -4    1    3    3    0  502  0.12124947366E+04  0.32662479737E+03  0.46771043342E+03  0.13399932489E+04  0.12699999809E+01 0. -1.
</event>
<event>
 5   0  0.4224163E-06  0.2937980E+04  0.7818609E-02  0.8261666E-01
        2   -1    0    0  501    0  0.00000000000E+00  0.00000000000E+00  0.26563310883E+04  0.26563310883E+04  0.25500000920E-02 0. -1.
       -2   -1    0    0    0  501  0.00000000000E+00  0.00000000000E+00 -0.81237310987E+03  0.81237310987E+03  0.25500000920E-02 0.  1.
    10030    2    1    2    0    0  0.00000000000E+00  0.00000000000E+00  0.18439579784E+04  0.34687041981E+04  0.29379802225E+04 0.  0.
        4    1    3    3  502    0 -0.43018718435E+00 -0.10480187527E+04 -0.29332990564E+03  0.10882957031E+04  0.12699999809E+01 0.  1.
       -4    1    3    3    0  502  0.43018718435E+00  0.10480187527E+04  0.21372878840E+04  0.23804084950E+04  0.12699999809E+01 0. -1.
</event>
<event>
 5   0  0.4187518E-06  0.2913827E+04  0.7818609E-02  0.8268776E-01
       -2   -1    0    0    0  501  0.00000000000E+00  0.00000000000E+00  0.12813438054E+04  0.12813438054E+04  0.25500000920E-02 0. -1.
        2   -1    0    0  501    0  0.00000000000E+00  0.00000000000E+00 -0.16565392771E+04  0.16565392771E+04  0.25500000920E-02 0.  1.
    10030    2    1    2    0    0  0.00000000000E+00  0.00000000000E+00 -0.37519547171E+03  0.29378830825E+04  0.29138265845E+04 0.  0.
        3    1    3    3  502    0  0.29630811208E+03 -0.14225832706E+04 -0.29360697918E+03  0.14824799248E+04  0.10100000352E+00 0.  1.
       -3    1    3    3    0  502 -0.29630811208E+03  0.14225832706E+04 -0.81588492529E+02  0.14554031577E+04  0.10100000352E+00 0. -1.
</event>
<event>
 5   0  0.1511126E-06  0.2909505E+04  0.7818609E-02  0.8270055E-01
        1   -1    0    0  501    0  0.00000000000E+00  0.00000000000E+00  0.19692665548E+04  0.19692665548E+04  0.50400001928E-02 0. -1.
       -1   -1    0    0    0  501  0.00000000000E+00  0.00000000000E+00 -0.10746664495E+04  0.10746664495E+04  0.50400001928E-02 0.  1.
    10030    2    1    2    0    0  0.00000000000E+00  0.00000000000E+00  0.89460010533E+03  0.30439330043E+04  0.29095049040E+04 0.  0.
        5    1    3    3  502    0  0.12452690062E+04 -0.74825243612E+03  0.36827188749E+03  0.14987404309E+04  0.46999998093E+01 0.  1.
       -5    1    3    3    0  502 -0.12452690062E+04  0.74825243612E+03  0.52632821785E+03  0.15451925734E+04  0.46999998093E+01 0. -1.
</event>
<event>
 5   0  0.4162450E-06  0.2891602E+04  0.7818609E-02  0.8275381E-01
        2   -1    0    0  501    0  0.00000000000E+00  0.00000000000E+00  0.28182142930E+04  0.28182142930E+04  0.25500000920E-02 0. -1.
       -2   -1    0    0    0  501  0.00000000000E+00  0.00000000000E+00 -0.74172512303E+03  0.74172512304E+03  0.25500000920E-02 0.  1.
    10030    2    1    2    0    0  0.00000000000E+00  0.00000000000E+00  0.20764891700E+04  0.35599394160E+04  0.28916018697E+04 0.  0.
        2    1    3    3  502    0  0.21876400187E+03 -0.98463893248E+03 -0.23701225786E+03  0.10361208068E+04  0.25500000920E-02 0.  1.
       -2    1    3    3    0  502 -0.21876400187E+03  0.98463893248E+03  0.23135014278E+04  0.25238186093E+04  0.25500000920E-02 0. -1.
</event>
<event>
 5   0  0.1360125E-06  0.2911555E+04  0.7818609E-02  0.8269448E-01
       -3   -1    0    0    0  501  0.00000000000E+00  0.00000000000E+00  0.19041383637E+04  0.19041383664E+04  0.10100000352E+00 0.  1.
        3   -1    0    0  501    0  0.00000000000E+00  0.00000000000E+00 -0.11129905672E+04  0.11129905718E+04  0.10100000352E+00 0. -1.
    10030    2    1    2    0    0  0.00000000000E+00  0.00000000000E+00  0.79114779652E+03  0.30171289382E+04  0.29115549443E+04 0.  0.
        5    1    3    3  502    0  0.66118818253E+03  0.27080717761E+03  0.17099342755E+04  0.18532144120E+04  0.46999998093E+01 0.  1.
       -5    1    3    3    0  502 -0.66118818253E+03 -0.27080717761E+03 -0.91878647903E+03  0.11639145262E+04  0.46999998093E+01 0. -1.
</event>
<event>
 5   0  0.4162450E-06  0.2841834E+04  0.7818609E-02  0.8290397E-01
        2   -1    0    0  501    0  0.00000000000E+00  0.00000000000E+00  0.23832714772E+04  0.23832714772E+04  0.25500000920E-02 0. -1.
       -2   -1    0    0    0  501  0.00000000000E+00  0.00000000000E+00 -0.84715686775E+03  0.84715686775E+03  0.25500000920E-02 0.  1.
    10030    2    1    2    0    0  0.00000000000E+00  0.00000000000E+00  0.15361146095E+04  0.32304283450E+04  0.28418337739E+04 0.  0.
        2    1    3    3  502    0  0.32319284900E+03 -0.78367210413E+03 -0.52823057420E+03  0.99881085495E+03  0.25500000920E-02 0.  1.
       -2    1    3    3    0  502 -0.32319284900E+03  0.78367210413E+03  0.20643451837E+04  0.22316174900E+04  0.25500000920E-02 0. -1.
</event>
<event>
 5   0  0.1543678E-06  0.2898119E+04  0.7818609E-02  0.8273437E-01
        1   -1    0    0  501    0  0.00000000000E+00  0.00000000000E+00  0.16980383883E+04  0.16980383883E+04  0.50400001928E-02 0.  1.
       -1   -1    0    0    0  501  0.00000000000E+00  0.00000000000E+00 -0.12365880693E+04  0.12365880693E+04  0.50400001928E-02 0. -1.
    10030    2    1    2    0    0  0.00000000000E+00  0.00000000000E+00  0.46145031900E+03  0.29346264576E+04  0.28981193986E+04 0.  0.
        3    1    3    3  502    0  0.60896618652E+03 -0.87995426774E+02 -0.10977428076E+04  0.12584205550E+04  0.10100000352E+00 0. -1.
       -3    1    3    3    0  502 -0.60896618652E+03  0.87995426774E+02  0.15591931266E+04  0.16762059026E+04  0.10100000352E+00 0.  1.
</event>
<event>
 5   0  0.4187518E-06  0.2736792E+04  0.7818609E-02  0.8323165E-01
        2   -1    0    0  501    0  0.00000000000E+00  0.00000000000E+00  0.11836986711E+04  0.11836986711E+04  0.25500000920E-02 0. -1.
       -2   -1    0    0    0  501  0.00000000000E+00  0.00000000000E+00 -0.15819125369E+04  0.15819125369E+04  0.25500000920E-02 0.  1.
    10030    2    1    2    0    0  0.00000000000E+00  0.00000000000E+00 -0.39821386579E+03  0.27656112080E+04  0.27367921132E+04 0.  0.
        3    1    3    3  502    0 -0.12699078657E+03 -0.65218167852E+03 -0.14079647610E+04  0.15568662050E+04  0.10100000352E+00 0.  1.
       -3    1    3    3    0  502  0.12699078657E+03  0.65218167852E+03  0.10097508953E+04  0.12087450030E+04  0.10100000352E+00 0. -1.
</event>
<event>
 5   0  0.1580212E-06  0.2899136E+04  0.7818609E-02  0.8273135E-01
        1   -1    0    0  501    0  0.00000000000E+00  0.00000000000E+00  0.12365744899E+04  0.12365744899E+04  0.50400001928E-02 0. -1.
       -1   -1    0    0    0  501  0.00000000000E+00  0.00000000000E+00 -0.16992479637E+04  0.16992479637E+04  0.50400001928E-02 0.  1.
    10030    2    1    2    0    0  0.00000000000E+00  0.00000000000E+00 -0.46267347382E+03  0.29358224536E+04  0.28991355153E+04 0.  0.
        4    1    3    3  502    0 -0.78355366712E+03  0.52061822870E+03  0.88545418134E+03  0.12919095980E+04  0.12699999809E+01 0. -1.
       -4    1    3    3    0  502  0.78355366712E+03 -0.52061822870E+03 -0.13481276552E+04  0.16439128556E+04  0.12699999809E+01 0.  1.
</event>
<event>
 5   0  0.1543678E-06  0.2802857E+04  0.7818609E-02  0.8302382E-01
       -1   -1    0    0    0  501  0.00000000000E+00  0.00000000000E+00  0.10174574415E+04  0.10174574415E+04  0.50400001928E-02 0.  1.
        1   -1    0    0  501    0  0.00000000000E+00  0.00000000000E+00 -0.19303042015E+04  0.19303042015E+04  0.50400001928E-02 0. -1.
    10030    2    1    2    0    0  0.00000000000E+00  0.00000000000E+00 -0.91284676001E+03  0.29477616430E+04  0.28028573808E+04 0.  0.
        3    1    3    3  502    0  0.27116588014E+03 -0.12398698222E+04 -0.10814495158E+04  0.16674355088E+04  0.10100000352E+00 0. -1.
       -3    1    3    3    0  502 -0.27116588014E+03  0.12398698222E+04  0.16860275576E+03  0.12803261343E+04  0.10100000352E+00 0.  1.
</event>
<event>
 5   0  0.4162450E-06  0.2877406E+04  0.7818609E-02  0.8279632E-01
       -2   -1    0    0    0  501  0.00000000000E+00  0.00000000000E+00  0.96611921589E+03  0.96611921589E+03  0.25500000920E-02 0.  1.
        2   -1    0    0  501    0  0.00000000000E+00  0.00000000000E+00 -0.21424542813E+04  0.21424542813E+04  0.25500000920E-02 0. -1.
    10030    2    1    2    0    0  0.00000000000E+00  0.00000000000E+00 -0.11763350654E+04  0.31085734972E+04  0.28774059500E+04 0.  0.
        2    1    3    3  502    0 -0.10918794559E+04 -0.88904368006E+03 -0.90731001993E+03  0.16750554867E+04  0.25500000920E-02 0. -1.
       -2    1    3    3    0  502  0.10918794559E+04  0.88904368006E+03 -0.26902504549E+03  0.14335180105E+04  0.25500000920E-02 0.  1.
</event>
<event>
 5   0  0.1511126E-06  0.2900320E+04  0.7818609E-02  0.8272782E-01
       -1   -1    0    0    0  501  0.00000000000E+00  0.00000000000E+00  0.13586256812E+04  0.13586256812E+04  0.50400001928E-02 0. -1.
        1   -1    0    0  501    0  0.00000000000E+00  0.00000000000E+00 -0.15478609747E+04  0.15478609747E+04  0.50400001928E-02 0.  1.
    10030    2    1    2    0    0  0.00000000000E+00  0.00000000000E+00 -0.18923529353E+03  0.29064866559E+04  0.29003197556E+04 0.  0.
        5    1    3    3  502    0  0.25395041775E+03  0.93227190235E+03  0.98903255639E+03  0.13826891199E+04  0.46999998093E+01 0. -1.
       -5    1    3    3    0  502 -0.25395041775E+03 -0.93227190235E+03 -0.11782678499E+04  0.15237975360E+04  0.46999998093E+01 0.  1.
</event>
<event>
 5   0  0.4224163E-06  0.2913062E+04  0.7818609E-02  0.8269002E-01
        2   -1    0    0  501    0  0.00000000000E+00  0.00000000000E+00  0.30057758094E+04  0.30057758094E+04  0.25500000920E-02 0.  1.
       -2   -1    0    0    0  501  0.00000000000E+00  0.00000000000E+00 -0.70580201628E+03  0.70580201628E+03  0.25500000920E-02 0. -1.
    10030    2    1    2    0    0  0.00000000000E+00  0.00000000000E+00  0.22999737931E+04  0.37115778257E+04  0.29130620500E+04 0.  0.
        4    1    3    3  502    0 -0.74440850344E+03 -0.47266989380E+03 -0.32706437628E+03  0.94049644743E+03  0.12699999809E+01 0. -1.
       -4    1    3    3    0  502  0.74440850344E+03  0.47266989380E+03  0.26270381694E+04  0.27710813782E+04  0.12699999809E+01 0.  1.
</event>
<event>
 5   0  0.4187518E-06  0.2898942E+04  0.7818609E-02  0.8273192E-01
        2   -1    0    0  501    0  0.00000000000E+00  0.00000000000E+00  0.13483514324E+04  0.13483514324E+04  0.25500000920E-02 0. -1.
       -2   -1    0    0    0  501  0.00000000000E+00  0.00000000000E+00 -0.15581737087E+04  0.15581737087E+04  0.25500000920E-02 0.  1.
    10030    2    1    2    0    0  0.00000000000E+00  0.00000000000E+00 -0.20982227628E+03  0.29065251410E+04  0.28989417048E+04 0.  0.
        3    1    3    3  502    0  0.23505863285E+03  0.67978510435E+03 -0.13666169040E+04  0.15443452080E+04  0.10100000352E+00 0.  1.
       -3    1    3    3    0  502 -0.23505863285E+03 -0.67978510435E+03  0.11567946277E+04  0.13621799330E+04  0.10100000352E+00 0. -1.
</event>
<event>
 5   0  0.1360125E-06  0.2888440E+04  0.7818609E-02  0.8276325E-01
       -4   -1    0    0    0  501  0.00000000000E+00  0.00000000000E+00  0.10410351866E+04  0.10410359613E+04  0.12699999809E+01 0.  1.
        4   -1    0    0  501    0  0.00000000000E+00  0.00000000000E+00 -0.20035531055E+04  0.20035535080E+04  0.12699999809E+01 0. -1.
    10030    2    1    2    0    0  0.00000000000E+00  0.00000000000E+00 -0.96251791883E+03  0.30445894693E+04  0.28884397678E+04 0.  0.
        2    1    3    3  502    0  0.11295522530E+04  0.33142491633E+03 -0.13631744036E+04  0.18011038899E+04  0.25500000920E-02 0. -1.
       -2    1    3    3    0  502 -0.11295522530E+04 -0.33142491633E+03  0.40065648477E+03  0.12434855794E+04  0.25500000920E-02 0.  1.
</event>
<event>
 5   0  0.1580212E-06  0.2885851E+04  0.7818609E-02  0.8277100E-01
        1   -1    0    0  501    0  0.00000000000E+00  0.00000000000E+00  0.18351287291E+04  0.18351287291E+04  0.50400001928E-02 0. -1.
       -1   -1    0    0    0  501  0.00000000000E+00  0.00000000000E+00 -0.11345442065E+04  0.11345442065E+04  0.50400001928E-02 0.  1.
    10030    2    1    2    0    0  0.00000000000E+00  0.00000000000E+00  0.70058452262E+03  0.29696729356E+04  0.28858514638E+04 0.  0.
        4    1    3    3  502    0 -0.10262404033E+04  0.18670600146E+03 -0.67566397349E+03  0.12428000299E+04  0.12699999809E+01 0.  1.
       -4    1    3    3    0  502  0.10262404033E+04 -0.18670600146E+03  0.13762484961E+04  0.17268729057E+04  0.12699999809E+01 0. -1.
</event>
<event>
 5   0  0.1543678E-06  0.2864809E+04  0.7818609E-02  0.8283425E-01
        1   -1    0    0  501    0  0.00000000000E+00  0.00000000000E+00  0.21355549660E+04  0.21355549660E+04  0.50400001928E-02 0. -1.
       -1   -1    0    0    0  501  0.00000000000E+00  0.00000000000E+00 -0.96077270194E+03  0.96077270195E+03  0.50400001928E-02 0.  1.
    10030    2    1    2    0    0  0.00000000000E+00  0.00000000000E+00  0.11747822641E+04  0.30963276680E+04  0.28648091838E+04 0.  0.
        3    1    3    3  502    0 -0.85877294114E+03  0.11464257005E+04  0.58764082403E+03  0.15482585700E+04  0.10100000352E+00 0. -1.
       -3    1    3    3    0  502  0.85877294114E+03 -0.11464257005E+04  0.58714144004E+03  0.15480690980E+04  0.10100000352E+00 0.  1.
</event>
<event>
 5   0  0.1511126E-06  0.2902071E+04  0.7818609E-02  0.8272261E-01
        1   -1    0    0  501    0  0.00000000000E+00  0.00000000000E+00  0.13981843712E+04  0.13981843712E+04  0.50400001928E-02 0.  1.
       -1   -1    0    0    0  501  0.00000000000E+00  0.00000000000E+00 -0.15058846918E+04  0.15058846918E+04  0.50400001928E-02 0. -1.
    10030    2    1    2    0    0  0.00000000000E+00  0.00000000000E+00 -0.10770032064E+03  0.29040690630E+04  0.29020712885E+04 0.  0.
        5    1    3    3  502    0 -0.90919179030E+03 -0.85450898695E+03  0.68738036457E+03  0.14245452523E+04  0.46999998093E+01 0.  1.
       -5    1    3    3    0  502  0.90919179030E+03  0.85450898695E+03 -0.79508068521E+03  0.14795238107E+04  0.46999998093E+01 0. -1.
</event>
<event>
 5   0  0.4224163E-06  0.2976114E+04  0.7818609E-02  0.8250585E-01
        2   -1    0    0  501    0  0.00000000000E+00  0.00000000000E+00  0.23685076405E+04  0.23685076405E+04  0.25500000920E-02 0.  1.
       -2   -1    0    0    0  501  0.00000000000E+00  0.00000000000E+00 -0.93489823259E+03  0.93489823260E+03  0.25500000920E-02 0. -1.
    10030    2    1    2    0    0  0.00000000000E+00  0.00000000000E+00  0.14336094079E+04  0.33034058731E+04  0.29761139810E+04 0.  0.
        4    1    3    3  502    0  0.49884101693E+03 -0.12323913853E+04 -0.25036870689E+02  0.13297591302E+04  0.12699999809E+01 0. -1.
       -4    1    3    3    0  502 -0.49884101693E+03  0.12323913853E+04  0.14586462786E+04  0.19736467429E+04  0.12699999809E+01 0.  1.
</event>
<event>
 5   0  0.4115143E-06  0.2901936E+04  0.7818609E-02  0.8272302E-01
       -2   -1    0    0    0  501  0.00000000000E+00  0.00000000000E+00  0.12340307411E+04  0.12340307411E+04  0.25500000920E-02 0.  1.
        2   -1    0    0  501    0  0.00000000000E+00  0.00000000000E+00 -0.17060419226E+04  0.17060419226E+04  0.25500000920E-02 0. -1.
    10030    2    1    2    0    0  0.00000000000E+00  0.00000000000E+00 -0.47201118150E+03  0.29400726638E+04  0.29019360284E+04 0.  0.
        1    1    3    3  502    0  0.13060296022E+04 -0.22477036367E+03 -0.83459419680E+03  0.15661361728E+04  0.50400001928E-02 0. -1.
       -1    1    3    3    0  502 -0.13060296022E+04  0.22477036367E+03  0.36258301531E+03  0.13739364910E+04  0.50400001928E-02 0.  1.
</event>
<event>
 5   0  0.4148677E-06  0.2903191E+04  0.7818609E-02  0.8271929E-01
       -2   -1    0    0    0  501  0.00000000000E+00  0.00000000000E+00  0.91991618690E+03  0.91991618690E+03  0.25500000920E-02 0. -1.
        2   -1    0    0  501    0  0.00000000000E+00  0.00000000000E+00 -0.22905666623E+04  0.22905666623E+04  0.25500000920E-02 0.  1.
    10030    2    1    2    0    0  0.00000000000E+00  0.00000000000E+00 -0.13706504754E+04  0.32104828492E+04  0.29031908995E+04 0.  0.
        5    1    3    3  502    0 -0.26075460949E+03  0.12164637347E+04 -0.15123698258E+04  0.19583313214E+04  0.46999998093E+01 0.  1.
       -5    1    3    3    0  502  0.26075460949E+03 -0.12164637347E+04  0.14171935047E+03  0.12521515278E+04  0.46999998093E+01 0. -1.
</event>
<event>
 5   0  0.4224163E-06  0.2886043E+04  0.7818609E-02  0.8277042E-01
       -2   -1    0    0    0  501  0.00000000000E+00  0.00000000000E+00  0.74706241285E+03  0.74706241285E+03  0.25500000920E-02 0.  1.
        2   -1    0    0  501    0  0.00000000000E+00  0.00000000000E+00 -0.27873311569E+04  0.27873311569E+04  0.25500000920E-02 0. -1.
    10030    2    1    2    0    0  0.00000000000E+00  0.00000000000E+00 -0.20402687441E+04  0.35343935698E+04  0.28860425080E+04 0.  0.
        4    1    3    3  502    0  0.10817537010E+04  0.95423847046E+03 -0.10682959798E+04  0.17949986188E+04  0.12699999809E+01 0.  1.
       -4    1    3    3    0  502 -0.10817537010E+04 -0.95423847046E+03 -0.97197276425E+03  0.17393949510E+04  0.12699999809E+01 0. -1.
</event>
<event>
 5   0  0.4162450E-06  0.3040643E+04  0.7818609E-02  0.8232219E-01
        2   -1    0    0  501    0  0.00000000000E+00  0.00000000000E+00  0.83647566425E+03  0.83647566426E+03  0.25500000920E-02 0.  1.
       -2   -1    0    0    0  501  0.00000000000E+00  0.00000000000E+00 -0.27632325712E+04  0.27632325712E+04  0.25500000920E-02 0. -1.
    10030    2    1    2    0    0  0.00000000000E+00  0.00000000000E+00 -0.19267569070E+04  0.35997082355E+04  0.30406425640E+04 0.  0.
        2    1    3    3  502    0 -0.79796671502E+03 -0.16596038514E+03  0.55597802841E+03  0.98661304259E+03  0.25500000920E-02 0.  1.
       -2    1    3    3    0  502  0.79796671502E+03  0.16596038514E+03 -0.24827349354E+04  0.26130951929E+04  0.25500000920E-02 0. -1.
</event>
<event>
 5   0  0.4148677E-06  0.2897529E+04  0.7818609E-02  0.8273613E-01
        2   -1    0    0  501    0  0.00000000000E+00  0.00000000000E+00  0.20080609549E+04  0.20080609549E+04  0.25500000920E-02 0. -1.
       -2   -1    0    0    0  501  0.00000000000E+00  0.00000000000E+00 -0.10452465803E+04  0.10452465803E+04  0.25500000920E-02 0.  1.
    10030    2    1    2    0    0  0.00000000000E+00  0.00000000000E+00  0.96281437459E+03  0.30533075352E+04  0.28975291862E+04 0.  0.
        5    1    3    3  502    0  0.14298370896E+03 -0.80481895126E+03  0.17418405295E+04  0.19241123682E+04  0.46999998093E+01 0. -1.
       -5    1    3    3    0  502 -0.14298370896E+03  0.80481895126E+03 -0.77902615486E+03  0.11291951671E+04  0.46999998093E+01 0.  1.
</event>
<event>
 5   0  0.4148677E-06  0.2693754E+04  0.7818609E-02  0.8337034E-01
       -2   -1    0    0    0  501  0.00000000000E+00  0.00000000000E+00  0.69756589843E+03  0.69756589843E+03  0.25500000920E-02 0. -1.
        2   -1    0    0  501    0  0.00000000000E+00  0.00000000000E+00 -0.26005824704E+04  0.26005824704E+04  0.25500000920E-02 0.  1.
    10030    2    1    2    0    0  0.00000000000E+00  0.00000000000E+00 -0.19030165719E+04  0.32981483688E+04  0.26937539957E+04 0.  0.
        5    1    3    3  502    0 -0.35238727939E+03  0.97220963687E+02  0.63565665830E+03  0.73328724774E+03  0.46999998093E+01 0. -1.
       -5    1    3    3    0  502  0.35238727939E+03 -0.97220963687E+02 -0.25386732302E+04  0.25648611211E+04  0.46999998093E+01 0.  1.
</event>
<event>
 5   0  0.1550278E-06  0.2836181E+04  0.7818609E-02  0.8292123E-01
       -1   -1    0    0    0  501  0.00000000000E+00  0.00000000000E+00  0.14250034128E+04  0.14250034128E+04  0.50400001928E-02 0. -1.
        1   -1    0    0  501    0  0.00000000000E+00  0.00000000000E+00 -0.14112113104E+04  0.14112113104E+04  0.50400001928E-02 0.  1.
    10030    2    1    2    0    0  0.00000000000E+00  0.00000000000E+00  0.13792102370E+02  0.28362147232E+04  0.28361811885E+04 0.  0.
        2    1    3    3  502    0  0.45683861336E+03 -0.81865216659E+03 -0.10571127911E+04  0.14129332404E+04  0.25500000920E-02 0.  1.
       -2    1    3    3    0  502 -0.45683861336E+03  0.81865216659E+03  0.10709048935E+04  0.14232814829E+04  0.25500000920E-02 0. -1.
</event>
<event>
 5   0  0.1550278E-06  0.2908564E+04  0.7818609E-02  0.8270334E-01
       -1   -1    0    0    0  501  0.00000000000E+00  0.00000000000E+00  0.14731719772E+04  0.14731719772E+04  0.50400001928E-02 0. -1.
        1   -1    0    0  501    0  0.00000000000E+00  0.00000000000E+00 -0.14356345129E+04  0.14356345129E+04  0.50400001928E-02 0.  1.
    10030    2    1    2    0    0  0.00000000000E+00  0.00000000000E+00  0.37537464287E+02  0.29088064901E+04  0.29085642740E+04 0.  0.
        2    1    3    3  502    0 -0.64606562843E+03 -0.10848963647E+04 -0.70277289264E+03  0.14450919199E+04  0.25500000920E-02 0.  1.
       -2    1    3    3    0  502  0.64606562843E+03  0.10848963647E+04  0.74031035693E+03  0.14637145702E+04  0.25500000920E-02 0. -1.
</event>
<event>
 5   0  0.1550278E-06  0.2949354E+04  0.7818609E-02  0.8258343E-01
        1   -1    0    0  501    0  0.00000000000E+00  0.00000000000E+00  0.24651554403E+04  0.24651554403E+04  0.50400001928E-02 0. -1.
       -1   -1    0    0    0  501  0.00000000000E+00  0.00000000000E+00 -0.88216415879E+03  0.88216415881E+03  0.50400001928E-02 0.  1.
    10030    2    1    2    0    0  0.00000000000E+00  0.00000000000E+00  0.15829912815E+04  0.33473195991E+04  0.29493536752E+04 0.  0.
        2    1    3    3  502    0 -0.13826965184E+04  0.10093361828E+03  0.22104684172E+03  0.14038870908E+04  0.25500000920E-02 0.  1.
       -2    1    3    3    0  502  0.13826965184E+04 -0.10093361828E+03  0.13619444398E+04  0.19434325083E+04  0.25500000920E-02 0. -1.
</event>
<event>
 5   0  0.1511126E-06  0.2841387E+04  0.7818609E-02  0.8290533E-01
       -1   -1    0    0    0  501  0.00000000000E+00  0.00000000000E+00  0.11525614564E+04  0.11525614564E+04  0.50400001928E-02 0. -1.
        1   -1    0    0  501    0  0.00000000000E+00  0.00000000000E+00 -0.17512038593E+04  0.17512038593E+04  0.50400001928E-02 0.  1.
    10030    2    1    2    0    0  0.00000000000E+00  0.00000000000E+00 -0.59864240293E+03  0.29037653157E+04  0.28413870348E+04 0.  0.
        5    1    3    3  502    0  0.13840428306E+04  0.78984422916E+01 -0.62684259877E+03  0.15194047111E+04  0.46999998093E+01 0.  1.
       -5    1    3    3    0  502 -0.13840428306E+04 -0.78984422916E+01  0.28200195834E+02  0.13843606046E+04  0.46999998093E+01 0. -1.
</event>
<event>
 5   0  0.4187518E-06  0.2894247E+04  0.7818609E-02  0.8274591E-01
       -2   -1    0    0    0  501  0.00000000000E+00  0.00000000000E+00  0.21898552757E+04  0.21898552757E+04  0.25500000920E-02 0. -1.
        2   -1    0    0  501    0  0.00000000000E+00  0.00000000000E+00 -0.95630381937E+03  0.95630381937E+03  0.25500000920E-02 0.  1.
    10030    2    1    2    0    0  0.00000000000E+00  0.00000000000E+00  0.12335514563E+04  0.31461590950E+04  0.28942473730E+04 0.  0.
        3    1    3    3  502    0 -0.47477667384E+03  0.11737629974E+04 -0.14495422112E+03  0.12744191620E+04  0.10100000352E+00 0.  1.
       -3    1    3    3    0  502  0.47477667384E+03 -0.11737629974E+04  0.13785056774E+04  0.18717399330E+04  0.10100000352E+00 0. -1.
</event>
<event>
 5   0  0.1543678E-06  0.2877389E+04  0.7818609E-02  0.8279637E-01
       -1   -1    0    0    0  501  0.00000000000E+00  0.00000000000E+00  0.13475092513E+04  0.13475092513E+04  0.50400001928E-02 0. -1.
        1   -1    0    0  501    0  0.00000000000E+00  0.00000000000E+00 -0.15360504254E+04  0.15360504254E+04  0.50400001928E-02 0.  1.
    10030    2    1    2    0    0  0.00000000000E+00  0.00000000000E+00 -0.18854117413E+03  0.28835596767E+04  0.28773892046E+04 0.  0.
        3    1    3    3  502    0  0.44319497021E+03  0.82828358648E+03 -0.11862708937E+04  0.15131801363E+04  0.10100000352E+00 0.  1.
       -3    1    3    3    0  502 -0.44319497021E+03 -0.82828358648E+03  0.99772971960E+03  0.13703795404E+04  0.10100000352E+00 0. -1.
</event>
<event>
 5   0  0.1550278E-06  0.2891981E+04  0.7818609E-02  0.8275267E-01
       -1   -1    0    0    0  501  0.00000000000E+00  0.00000000000E+00  0.99878490809E+03  0.99878490810E+03  0.50400001928E-02 0.  1.
        1   -1    0    0  501    0  0.00000000000E+00  0.00000000000E+00 -0.20934319244E+04  0.20934319244E+04  0.50400001928E-02 0. -1.
    10030    2    1    2    0    0  0.00000000000E+00  0.00000000000E+00 -0.10946470163E+04  0.30922168325E+04  0.28919807829E+04 0.  0.
        2    1    3    3  502    0  0.64184041037E+03  0.12613179526E+04 -0.86452190248E+03  0.16583968794E+04  0.25500000920E-02 0.  1.
       -2    1    3    3    0  502 -0.64184041037E+03 -0.12613179526E+04 -0.23012511383E+03  0.14338199531E+04  0.25500000920E-02 0. -1.
</event>
<event>
 5   0  0.1511126E-06  0.2939026E+04  0.7818609E-02  0.8261360E-01
       -1   -1    0    0    0  501  0.00000000000E+00  0.00000000000E+00  0.84052300724E+03  0.84052300725E+03  0.50400001928E-02 0.  1.
        1   -1    0    0  501    0  0.00000000000E+00  0.00000000000E+00 -0.25691969569E+04  0.25691969569E+04  0.50400001928E-02 0. -1.
    10030    2    1    2    0    0  0.00000000000E+00  0.00000000000E+00 -0.17286739497E+04  0.34097199642E+04  0.29390264731E+04 0.  0.
        5    1    3    3  502    0  0.18004814319E+03 -0.22065261603E+02  0.82747573709E+03  0.84713776631E+03  0.46999998093E+01 0.  1.
       -5    1    3    3    0  502 -0.18004814319E+03  0.22065261603E+02 -0.25561496868E+04  0.25625821979E+04  0.46999998093E+01 0. -1.
</event>
<event>
 5   0  0.4162450E-06  0.2901459E+04  0.7818609E-02  0.8272444E-01
       -2   -1    0    0    0  501  0.00000000000E+00  0.00000000000E+00  0.12825446619E+04  0.12825446619E+04  0.25500000920E-02 0.  1.
        2   -1    0    0  501    0  0.00000000000E+00  0.00000000000E+00 -0.16409685454E+04  0.16409685454E+04  0.25500000920E-02 0. -1.
    10030    2    1    2    0    0  0.00000000000E+00  0.00000000000E+00 -0.35842388351E+03  0.29235132072E+04  0.29014585630E+04 0.  0.
        2    1    3    3  502    0 -0.12251844794E+04 -0.71175484733E+03 -0.49293611509E+03  0.15002193122E+04  0.25500000920E-02 0.  1.
       -2    1    3    3    0  502  0.12251844794E+04  0.71175484733E+03  0.13451223158E+03  0.14232938950E+04  0.25500000920E-02 0. -1.
</event>
<event>
 5   0  0.4224163E-06  0.2873030E+04  0.7818609E-02  0.8280947E-01
        2   -1    0    0  501    0  0.00000000000E+00  0.00000000000E+00  0.12138433906E+04  0.12138433906E+04  0.25500000920E-02 0.  1.
       -2   -1    0    0    0  501  0.00000000000E+00  0.00000000000E+00 -0.17000340845E+04  0.17000340845E+04  0.25500000920E-02 0. -1.
    10030    2    1    2    0    0  0.00000000000E+00  0.00000000000E+00 -0.48619069393E+03  0.29138774751E+04  0.28730298552E+04 0.  0.
        4    1    3    3  502    0 -0.13693480510E+04 -0.27233424214E+02  0.19632873317E+03  0.13836192860E+04  0.12699999809E+01 0. -1.
       -4    1    3    3    0  502  0.13693480510E+04  0.27233424214E+02 -0.68251942711E+03  0.15302581891E+04  0.12699999809E+01 0.  1.
</event>
<event>
 5   0  0.1543678E-06  0.2875180E+04  0.7818609E-02  0.8280301E-01
       -1   -1    0    0    0  501  0.00000000000E+00  0.00000000000E+00  0.10218522813E+04  0.10218522813E+04  0.50400001928E-02 0.  1.
        1   -1    0    0  501    0  0.00000000000E+00  0.00000000000E+00 -0.20224690209E+04  0.20224690209E+04  0.50400001928E-02 0. -1.
    10030    2    1    2    0    0  0.00000000000E+00  0.00000000000E+00 -0.10006167397E+04  0.30443213022E+04  0.28751797042E+04 0.  0.
        3    1    3    3  502    0 -0.29935171109E+03 -0.13279691120E+04 -0.11006964371E+02  0.13613355842E+04  0.10100000352E+00 0.  1.
       -3    1    3    3    0  502  0.29935171109E+03  0.13279691120E+04 -0.98960977528E+03  0.16829857180E+04  0.10100000352E+00 0. -1.
</event>
<event>
 5   0  0.4162450E-06  0.2886408E+04  0.7818609E-02  0.8276933E-01
       -2   -1    0    0    0  501  0.00000000000E+00  0.00000000000E+00  0.82189107320E+03  0.82189107320E+03  0.25500000920E-02 0. -1.
        2   -1    0    0  501    0  0.00000000000E+00  0.00000000000E+00 -0.25342009123E+04  0.25342009123E+04  0.25500000920E-02 0.  1.
    10030    2    1    2    0    0  0.00000000000E+00  0.00000000000E+00 -0.17123098391E+04  0.33560919855E+04  0.28864075302E+04 0.  0.
        2    1    3    3  502    0  0.52141648362E+02  0.13906982315E+04 -0.41176233058E+03  0.14513126953E+04  0.25500000920E-02 0. -1.
       -2    1    3    3    0  502 -0.52141648362E+02 -0.13906982315E+04 -0.13005475086E+04  0.19047792903E+04  0.25500000920E-02 0.  1.
</event>
<event>
 5   0  0.1511126E-06  0.2874513E+04  0.7818609E-02  0.8280501E-01
       -1   -1    0    0    0  501  0.00000000000E+00  0.00000000000E+00  0.10695742906E+04  0.10695742906E+04  0.50400001928E-02 0. -1.
        1   -1    0    0  501    0  0.00000000000E+00  0.00000000000E+00 -0.19313354469E+04  0.19313354470E+04  0.50400001928E-02 0.  1.
    10030    2    1    2    0    0  0.00000000000E+00  0.00000000000E+00 -0.86176115638E+03  0.30009097375E+04  0.28745133435E+04 0.  0.
        5    1    3    3  502    0 -0.49636227035E+03  0.13191297214E+04 -0.72469116439E+03  0.15848274666E+04  0.46999998093E+01 0. -1.
       -5    1    3    3    0  502  0.49636227035E+03 -0.13191297214E+04 -0.13706999200E+03  0.14160822709E+04  0.46999998093E+01 0.  1.
</event>
<event>
 5   0  0.1602873E-06  0.2817660E+04  0.7818609E-02  0.8297807E-01
        1   -1    0    0  501    0  0.00000000000E+00  0.00000000000E+00  0.19917143058E+04  0.19917143058E+04  0.50400001928E-02 0. -1.
       -1   -1    0    0    0  501  0.00000000000E+00  0.00000000000E+00 -0.99652923850E+03  0.99652923851E+03  0.50400001928E-02 0.  1.
    10030    2    1    2    0    0  0.00000000000E+00  0.00000000000E+00  0.99518506727E+03  0.29882435443E+04  0.28176596959E+04 0.  0.
        1    1    3    3  502    0  0.28139561098E+03  0.12557180937E+04 -0.11052402524E+03  0.12915986144E+04  0.50400001928E-02 0.  1.
       -1    1    3    3    0  502 -0.28139561098E+03 -0.12557180937E+04  0.11057090925E+04  0.16966449298E+04  0.50400001928E-02 0. -1.
</event>
<event>
 5   0  0.1580212E-06  0.2903898E+04  0.7818609E-02  0.8271719E-01
       -1   -1    0    0    0  501  0.00000000000E+00  0.00000000000E+00  0.27456292816E+04  0.27456292816E+04  0.50400001928E-02 0. -1.
        1   -1    0    0  501    0  0.00000000000E+00  0.00000000000E+00 -0.76782253170E+03  0.76782253172E+03  0.50400001928E-02 0.  1.
    10030    2    1    2    0    0  0.00000000000E+00  0.00000000000E+00  0.19778067499E+04  0.35134518133E+04  0.29038980878E+04 0.  0.
        4    1    3    3  502    0 -0.58488348897E+03  0.12913406379E+04  0.13686395158E+04  0.19704885374E+04  0.12699999809E+01 0. -1.
       -4    1    3    3    0  502  0.58488348897E+03 -0.12913406379E+04  0.60916723407E+03  0.15429632759E+04  0.12699999809E+01 0.  1.
</event>
<event>
 5   0  0.1511126E-06  0.2909922E+04  0.7818609E-02  0.8269932E-01
       -1   -1    0    0    0  501  0.00000000000E+00  0.00000000000E+00  0.10526212112E+04  0.10526212112E+04  0.50400001928E-02 0. -1.
        1   -1    0    0  501    0  0.00000000000E+00  0.00000000000E+00 -0.20110850893E+04  0.20110850893E+04  0.50400001928E-02 0.  1.
    10030    2    1    2    0    0  0.00000000000E+00  0.00000000000E+00 -0.95846387802E+03  0.30637063005E+04  0.29099215265E+04 0.  0.
        5    1    3    3  502    0 -0.23298523180E+03  0.97341708062E+03  0.63254100436E+03  0.11840410226E+04  0.46999998093E+01 0. -1.
       -5    1    3    3    0  502  0.23298523180E+03 -0.97341708062E+03 -0.15910048824E+04  0.18796652779E+04  0.46999998093E+01 0.  1.
</event>
<event>
 5   0  0.1543678E-06  0.2925397E+04  0.7818609E-02  0.8265361E-01
        1   -1    0    0  501    0  0.00000000000E+00  0.00000000000E+00  0.24904021291E+04  0.24904021291E+04  0.50400001928E-02 0.  1.
       -1   -1    0    0    0  501  0.00000000000E+00  0.00000000000E+00 -0.85909322327E+03  0.85909322329E+03  0.50400001928E-02 0. -1.
    10030    2    1    2    0    0  0.00000000000E+00  0.00000000000E+00  0.16313089059E+04  0.33494953524E+04  0.29253974721E+04 0.  0.
        3    1    3    3  502    0 -0.94589770841E+03  0.11113037220E+04  0.70248667956E+03  0.16196314342E+04  0.10100000352E+00 0. -1.
       -3    1    3    3    0  502  0.94589770841E+03 -0.11113037220E+04  0.92882222630E+03  0.17298639183E+04  0.10100000352E+00 0.  1.
</event>
<event>
 5   0  0.4187518E-06  0.2903703E+04  0.7818609E-02  0.8271776E-01
        2   -1    0    0  501    0  0.00000000000E+00  0.00000000000E+00  0.10732058135E+04  0.10732058135E+04  0.25500000920E-02 0. -1.
       -2   -1    0    0    0  501  0.00000000000E+00  0.00000000000E+00 -0.19640906214E+04  0.19640906214E+04  0.25500000920E-02 0.  1.
    10030    2    1    2    0    0  0.00000000000E+00  0.00000000000E+00 -0.89088480785E+03  0.30372964349E+04  0.29037034787E+04 0.  0.
        3    1    3    3  502    0 -0.78877549644E+03  0.96167922906E+03 -0.12288175554E+04  0.17484239526E+04  0.10100000352E+00 0.  1.
       -3    1    3    3    0  502  0.78877549644E+03 -0.96167922906E+03  0.33793274760E+03  0.12888724822E+04  0.10100000352E+00 0. -1.
</event>
<event>
 5   0  0.4187518E-06  0.2905158E+04  0.7818609E-02  0.8271344E-01
       -2   -1    0    0    0  501  0.00000000000E+00  0.00000000000E+00  0.17012616407E+04  0.17012616407E+04  0.25500000920E-02 0. -1.
        2   -1    0    0  501    0  0.00000000000E+00  0.00000000000E+00 -0.12402477764E+04  0.12402477764E+04  0.25500000920E-02 0.  1.
    10030    2    1    2    0    0  0.00000000000E+00  0.00000000000E+00  0.46101386428E+03  0.29415094171E+04  0.29051581485E+04 0.  0.
        3    1    3    3  502    0 -0.88266222289E+03  0.36779920035E+03 -0.87661772660E+03  0.12972384130E+04  0.10100000352E+00 0.  1.
       -3    1    3    3    0  502  0.88266222289E+03 -0.36779920035E+03  0.13376315909E+04  0.16442710040E+04  0.10100000352E+00 0. -1.
</event>
<event>
 5   0  0.1511126E-06  0.2905916E+04  0.7818609E-02  0.8271120E-01
        1   -1    0    0  501    0  0.00000000000E+00  0.00000000000E+00  0.16266024945E+04  0.16266024945E+04  0.50400001928E-02 0.  1.
       -1   -1    0    0    0  501  0.00000000000E+00  0.00000000000E+00 -0.12978504484E+04  0.12978504484E+04  0.50400001928E-02 0. -1.
    10030    2    1    2    0    0  0.00000000000E+00  0.00000000000E+00  0.32875204610E+03  0.29244529428E+04  0.29059158809E+04 0.  0.
        5    1    3    3  502    0 -0.11501304128E+04 -0.80741958189E+03 -0.20721960760E+03  0.14204535907E+04  0.46999998093E+01 0.  1.
       -5    1    3    3    0  502  0.11501304128E+04  0.80741958189E+03  0.53597165370E+03  0.15039993521E+04  0.46999998093E+01 0. -1.
</event>
<event>
 5   0  0.1543678E-06  0.2882195E+04  0.7818609E-02  0.8278195E-01
        1   -1    0    0  501    0  0.00000000000E+00  0.00000000000E+00  0.74059135456E+03  0.74059135457E+03  0.50400001928E-02 0. -1.
       -1   -1    0    0    0  501  0.00000000000E+00  0.00000000000E+00 -0.28041943715E+04  0.28041943715E+04  0.50400001928E-02 0.  1.
    10030    2    1    2    0    0  0.00000000000E+00  0.00000000000E+00 -0.20636030169E+04  0.35447857260E+04  0.28821950718E+04 0.  0.
        3    1    3    3  502    0 -0.11992600668E+04 -0.36404288429E+03 -0.15692604004E+03  0.12630826266E+04  0.10100000352E+00 0. -1.
       -3    1    3    3    0  502  0.11992600668E+04  0.36404288429E+03 -0.19066769769E+04  0.22817030994E+04  0.10100000352E+00 0.  1.
</event>
<event>
 5   0  0.1543678E-06  0.2894141E+04  0.7818609E-02  0.8274623E-01
        1   -1    0    0  501    0  0.00000000000E+00  0.00000000000E+00  0.25672377032E+04  0.25672377032E+04  0.50400001928E-02 0. -1.
       -1   -1    0    0    0  501  0.00000000000E+00  0.00000000000E+00 -0.81566787340E+03  0.81566787342E+03  0.50400001928E-02 0.  1.
    10030    2    1    2    0    0  0.00000000000E+00  0.00000000000E+00  0.17515698298E+04  0.33829055767E+04  0.28941411976E+04 0.  0.
        3    1    3    3  502    0 -0.65632290461E+03  0.11373427106E+04  0.16506597675E+03  0.13234632535E+04  0.10100000352E+00 0. -1.
       -3    1    3    3    0  502  0.65632290461E+03 -0.11373427106E+04  0.15865038531E+04  0.20594423232E+04  0.10100000352E+00 0.  1.
</event>
<event>
 5   0  0.4162450E-06  0.2880403E+04  0.7818609E-02  0.8278732E-01
        2   -1    0    0  501    0  0.00000000000E+00  0.00000000000E+00  0.27313523887E+04  0.27313523887E+04  0.25500000920E-02 0. -1.
       -2   -1    0    0    0  501  0.00000000000E+00  0.00000000000E+00 -0.75939665001E+03  0.75939665001E+03  0.25500000920E-02 0.  1.
    10030    2    1    2    0    0  0.00000000000E+00  0.00000000000E+00  0.19719557386E+04  0.34907490387E+04  0.28804026482E+04 0.  0.
        2    1    3    3  502    0 -0.56562763812E+02  0.98726206006E+03  0.22548824653E+04  0.24621902148E+04  0.25500000920E-02 0. -1.
       -2    1    3    3    0  502  0.56562763812E+02 -0.98726206006E+03 -0.28292672667E+03  0.10285588239E+04  0.25500000920E-02 0.  1.
</event>
<event>
 5   0  0.4162450E-06  0.2852913E+04  0.7818609E-02  0.8287027E-01
       -2   -1    0    0    0  501  0.00000000000E+00  0.00000000000E+00  0.14090393391E+04  0.14090393391E+04  0.25500000920E-02 0.  1.
        2   -1    0    0  501    0  0.00000000000E+00  0.00000000000E+00 -0.14440890892E+04  0.14440890892E+04  0.25500000920E-02 0. -1.
    10030    2    1    2    0    0  0.00000000000E+00  0.00000000000E+00 -0.35049750124E+02  0.28531284283E+04  0.28529131328E+04 0.  0.
        2    1    3    3  502    0  0.10198191998E+02 -0.43353864335E+03  0.13415179181E+04  0.14098688177E+04  0.25500000920E-02 0.  1.
       -2    1    3    3    0  502 -0.10198191998E+02  0.43353864335E+03 -0.13765676682E+04  0.14432596106E+04  0.25500000920E-02 0. -1.
</event>
<event>
 5   0  0.1580212E-06  0.2900610E+04  0.7818609E-02  0.8272696E-01
        1   -1    0    0  501    0  0.00000000000E+00  0.00000000000E+00  0.17703207643E+04  0.17703207643E+04  0.50400001928E-02 0. -1.
       -1   -1    0    0    0  501  0.00000000000E+00  0.00000000000E+00 -0.11881373203E+04  0.11881373203E+04  0.50400001928E-02 0.  1.
    10030    2    1    2    0    0  0.00000000000E+00  0.00000000000E+00  0.58218344404E+03  0.29584580846E+04  0.29006097076E+04 0.  0.
        4    1    3    3  502    0  0.92390722626E+02 -0.77513863966E+03  0.15377642302E+04  0.17245568697E+04  0.12699999809E+01 0. -1.
       -4    1    3    3    0  502 -0.92390722626E+02  0.77513863966E+03 -0.95558078615E+03  0.12339012149E+04  0.12699999809E+01 0.  1.
</event>
<event>
 5   0  0.4115143E-06  0.2911231E+04  0.7818609E-02  0.8269544E-01
        2   -1    0    0  501    0  0.00000000000E+00  0.00000000000E+00  0.18150688789E+04  0.18150688789E+04  0.25500000920E-02 0.  1.
       -2   -1    0    0    0  501  0.00000000000E+00  0.00000000000E+00 -0.11673473540E+04  0.11673473540E+04  0.25500000920E-02 0. -1.
    10030    2    1    2    0    0  0.00000000000E+00  0.00000000000E+00  0.64772152492E+03  0.29824162330E+04  0.29112305668E+04 0.  0.
        1    1    3    3  502    0  0.99523942669E+03  0.10622084092E+04  0.31847559946E+03  0.14900385661E+04  0.50400001928E-02 0. -1.
       -1    1    3    3    0  502 -0.99523942669E+03 -0.10622084092E+04  0.32924592546E+03  0.14923776668E+04  0.50400001928E-02 0.  1.
</event>
<event>
 5   0  0.4148677E-06  0.2912158E+04  0.7818609E-02  0.8269269E-01
        2   -1    0    0  501    0  0.00000000000E+00  0.00000000000E+00  0.16213692618E+04  0.16213692618E+04  0.25500000920E-02 0.  1.
       -2   -1    0    0    0  501  0.00000000000E+00  0.00000000000E+00 -0.13076395035E+04  0.13076395035E+04  0.25500000920E-02 0. -1.
    10030    2    1    2    0    0  0.00000000000E+00  0.00000000000E+00  0.31372975834E+03  0.29290087653E+04  0.29121583037E+04 0.  0.
        5    1    3    3  502    0  0.74702086831E+03  0.18135772379E+03  0.14006339948E+04  0.15977260338E+04  0.46999998093E+01 0.  1.
       -5    1    3    3    0  502 -0.74702086831E+03 -0.18135772379E+03 -0.10869042365E+04  0.13312827314E+04  0.46999998093E+01 0. -1.
</event>
<event>
 5   0  0.4148677E-06  0.2860112E+04  0.7818609E-02  0.8284845E-01
        2   -1    0    0  501    0  0.00000000000E+00  0.00000000000E+00  0.13251515830E+04  0.13251515830E+04  0.25500000920E-02 0.  1.
       -2   -1    0    0    0  501  0.00000000000E+00  0.00000000000E+00 -0.15432648100E+04  0.15432648100E+04  0.25500000920E-02 0. -1.
    10030    2    1    2    0    0  0.00000000000E+00  0.00000000000E+00 -0.21811322696E+03  0.28684163930E+04  0.28601117503E+04 0.  0.
        5    1    3    3  502    0 -0.27513236435E+03  0.58735298319E+03  0.11691464430E+04  0.13370141510E+04  0.46999998093E+01 0.  1.
       -5    1    3    3    0  502  0.27513236435E+03 -0.58735298319E+03 -0.13872596700E+04  0.15314022420E+04  0.46999998093E+01 0. -1.
</event>
<event>
 5   0  0.4162450E-06  0.2936222E+04  0.7818609E-02  0.8262181E-01
        2   -1    0    0  501    0  0.00000000000E+00  0.00000000000E+00  0.16950798283E+04  0.16950798283E+04  0.25500000920E-02 0.  1.
       -2   -1    0    0    0  501  0.00000000000E+00  0.00000000000E+00 -0.12715327242E+04  0.12715327242E+04  0.25500000920E-02 0. -1.
    10030    2    1    2    0    0  0.00000000000E+00  0.00000000000E+00  0.42354710406E+03  0.29666125525E+04  0.29362217026E+04 0.  0.
        2    1    3    3  502    0  0.92900680012E+03  0.34601754226E+03  0.13058330696E+04  0.16395065660E+04  0.25500000920E-02 0.  1.
       -2    1    3    3    0  502 -0.92900680012E+03 -0.34601754226E+03 -0.88228596557E+03  0.13271059865E+04  0.25500000920E-02 0. -1.
</event>
<event>
 5   0  0.1360125E-06  0.2892959E+04  0.7818609E-02  0.8274975E-01
        3   -1    0    0  501    0  0.00000000000E+00  0.00000000000E+00  0.15201270427E+04  0.15201270461E+04  0.10100000352E+00 0. -1.
       -3   -1    0    0    0  501  0.00000000000E+00  0.00000000000E+00 -0.13764002520E+04  0.13764002557E+04  0.10100000352E+00 0.  1.
    10030    2    1    2    0    0  0.00000000000E+00  0.00000000000E+00  0.14372679072E+03  0.28965273018E+04  0.28929592150E+04 0.  0.
        4    1    3    3  502    0  0.10300996145E+04 -0.58061695048E+03  0.90600580139E+03  0.14896541156E+04  0.12699999809E+01 0. -1.
       -4    1    3    3    0  502 -0.10300996145E+04  0.58061695048E+03 -0.76227901067E+03  0.14068731862E+04  0.12699999809E+01 0.  1.
</event>
<event>
 5   0  0.4187518E-06  0.2906000E+04  0.7818609E-02  0.8271095E-01
        2   -1    0    0  501    0  0.00000000000E+00  0.00000000000E+00  0.17061403003E+04  0.17061403003E+04  0.25500000920E-02 0. -1.
       -2   -1    0    0    0  501  0.00000000000E+00  0.00000000000E+00 -0.12374181670E+04  0.12374181670E+04  0.25500000920E-02 0.  1.
    10030    2    1    2    0    0  0.00000000000E+00  0.00000000000E+00  0.46872213327E+03  0.29435584674E+04  0.29060000022E+04 0.  0.
        3    1    3    3  502    0 -0.20150366799E+03  0.43114623644E+03  0.16249547971E+04  0.16932125998E+04  0.10100000352E+00 0. -1.
       -3    1    3    3    0  502  0.20150366799E+03 -0.43114623644E+03 -0.11562326638E+04  0.12503458675E+04  0.10100000352E+00 0.  1.
</event>
<event>
 5   0  0.1543678E-06  0.2858069E+04  0.7818609E-02  0.8285464E-01
       -1   -1    0    0    0  501  0.00000000000E+00  0.00000000000E+00  0.18363318410E+04  0.18363318410E+04  0.50400001928E-02 0.  1.
        1   -1    0    0  501    0  0.00000000000E+00  0.00000000000E+00 -0.11120753907E+04  0.11120753908E+04  0.50400001928E-02 0. -1.
    10030    2    1    2    0    0  0.00000000000E+00  0.00000000000E+00  0.72425645028E+03  0.29484072318E+04  0.28580688933E+04 0.  0.
        3    1    3    3  502    0  0.26730476533E+03  0.29659813164E+03  0.17776198821E+04  0.18219096423E+04  0.10100000352E+00 0.  1.
       -3    1    3    3    0  502 -0.26730476533E+03 -0.29659813164E+03 -0.10533634319E+04  0.11264975895E+04  0.10100000352E+00 0. -1.
</event>
<event>
 5   0  0.4224163E-06  0.2892650E+04  0.7818609E-02  0.8275068E-01
       -2   -1    0    0    0  501  0.00000000000E+00  0.00000000000E+00  0.20179296302E+04  0.20179296302E+04  0.25500000920E-02 0. -1.
        2   -1    0    0  501    0  0.00000000000E+00  0.00000000000E+00 -0.10366344616E+04  0.10366344616E+04  0.25500000920E-02 0.  1.
    10030    2    1    2    0    0  0.00000000000E+00  0.00000000000E+00  0.98129516865E+03  0.30545640918E+04  0.28926495783E+04 0.  0.
        4    1    3    3  502    0 -0.10410894078E+04 -0.33723115241E+03 -0.50793905457E+03  0.12064807090E+04  0.12699999809E+01 0.  1.
       -4    1    3    3    0  502  0.10410894078E+04  0.33723115241E+03  0.14892342232E+04  0.18480833828E+04  0.12699999809E+01 0. -1.
</event>
<event>
 5   0  0.1580212E-06  0.2906689E+04  0.7818609E-02  0.8270890E-01
        1   -1    0    0  501    0  0.00000000000E+00  0.00000000000E+00  0.23528973461E+04  0.23528973461E+04  0.50400001928E-02 0. -1.
       -1   -1    0    0    0  501  0.00000000000E+00  0.00000000000E+00 -0.89770595653E+03  0.89770595654E+03  0.50400001928E-02 0.  1.
    10030    2    1    2    0    0  0.00000000000E+00  0.00000000000E+00  0.14551913896E+04  0.32506033026E+04  0.29066888122E+04 0.  0.
        4    1    3    3  502    0 -0.12122726686E+04 -0.72626465881E+03  0.34811983730E+03  0.14554224169E+04  0.12699999809E+01 0.  1.
       -4    1    3    3    0  502  0.12122726686E+04  0.72626465881E+03  0.11070715523E+04  0.17951808857E+04  0.12699999809E+01 0. -1.
</event>
<event>
 5   0  0.1602873E-06  0.2917241E+04  0.7818609E-02  0.8267766E-01
        1   -1    0    0  501    0  0.00000000000E+00  0.00000000000E+00  0.26001178680E+04  0.26001178680E+04  0.50400001928E-02 0. -1.
       -1   -1    0    0    0  501  0.00000000000E+00  0.00000000000E+00 -0.81826036111E+03  0.81826036113E+03  0.50400001928E-02 0.  1.
    10030    2    1    2    0    0  0.00000000000E+00  0.00000000000E+00  0.17818575069E+04  0.34183782292E+04  0.29172407413E+04 0.  0.
        1    1    3    3  502    0 -0.20614482564E+03 -0.83339072949E+03  0.22727097331E+04  0.24294537098E+04  0.50400001928E-02 0. -1.
       -1    1    3    3    0  502  0.20614482564E+03  0.83339072949E+03 -0.49085222614E+03  0.98892451940E+03  0.50400001928E-02 0.  1.
</event>
<event>
 5   0  0.4148677E-06  0.2843239E+04  0.7818609E-02  0.8289969E-01
       -2   -1    0    0    0  501  0.00000000000E+00  0.00000000000E+00  0.91775281269E+03  0.91775281269E+03  0.25500000920E-02 0. -1.
        2   -1    0    0  501    0  0.00000000000E+00  0.00000000000E+00 -0.22021197770E+04  0.22021197770E+04  0.25500000920E-02 0.  1.
    10030    2    1    2    0    0  0.00000000000E+00  0.00000000000E+00 -0.12843669643E+04  0.31198725897E+04  0.28432387302E+04 0.  0.
        5    1    3    3  502    0  0.49031139393E+03  0.27839502698E+03  0.78980604613E+03  0.97042502780E+03  0.46999998093E+01 0. -1.
       -5    1    3    3    0  502 -0.49031139393E+03 -0.27839502698E+03 -0.20741730104E+04  0.21494475619E+04  0.46999998093E+01 0.  1.
</event>
<event>
 5   0  0.1511126E-06  0.2913469E+04  0.7818609E-02  0.8268881E-01
       -1   -1    0    0    0  501  0.00000000000E+00  0.00000000000E+00  0.13142654663E+04  0.13142654663E+04  0.50400001928E-02 0. -1.
        1   -1    0    0  501    0  0.00000000000E+00  0.00000000000E+00 -0.16146473028E+04  0.16146473028E+04  0.50400001928E-02 0.  1.
    10030    2    1    2    0    0  0.00000000000E+00  0.00000000000E+00 -0.30038183647E+03  0.29289127691E+04  0.29134688537E+04 0.  0.
        5    1    3    3  502    0  0.91509940237E+03 -0.99579079387E+03  0.39401668858E+03  0.14086438380E+04  0.46999998093E+01 0. -1.
       -5    1    3    3    0  502 -0.91509940237E+03  0.99579079387E+03 -0.69439852505E+03  0.15202689311E+04  0.46999998093E+01 0.  1.
</event>
<event>
 5   0  0.4187518E-06  0.2909221E+04  0.7818609E-02  0.8270139E-01
       -2   -1    0    0    0  501  0.00000000000E+00  0.00000000000E+00  0.73653015273E+03  0.73653015274E+03  0.25500000920E-02 0.  1.
        2   -1    0    0  501    0  0.00000000000E+00  0.00000000000E+00 -0.28727837016E+04  0.28727837016E+04  0.25500000920E-02 0. -1.
    10030    2    1    2    0    0  0.00000000000E+00  0.00000000000E+00 -0.21362535488E+04  0.36093138543E+04  0.29092210769E+04 0.  0.
        3    1    3    3  502    0 -0.44550668334E+02 -0.59587983055E+03 -0.27134846838E+04  0.27784989966E+04  0.10100000352E+00 0. -1.
       -3    1    3    3    0  502  0.44550668334E+02  0.59587983055E+03  0.57723113495E+03  0.83081485775E+03  0.10100000352E+00 0.  1.
</event>
<event>
 5   0  0.4115143E-06  0.2898241E+04  0.7818609E-02  0.8273401E-01
        2   -1    0    0  501    0  0.00000000000E+00  0.00000000000E+00  0.12683263842E+04  0.12683263842E+04  0.25500000920E-02 0. -1.
       -2   -1    0    0    0  501  0.00000000000E+00  0.00000000000E+00 -0.16556855490E+04  0.16556855490E+04  0.25500000920E-02 0.  1.
    10030    2    1    2    0    0  0.00000000000E+00  0.00000000000E+00 -0.38735916481E+03  0.29240119332E+04  0.28982406150E+04 0.  0.
        1    1    3    3  502    0 -0.11262576787E+04 -0.35484709204E+03 -0.10411350060E+04  0.15742728220E+04  0.50400001928E-02 0.  1.
       -1    1    3    3    0  502  0.11262576787E+04  0.35484709204E+03  0.65377584117E+03  0.13497391111E+04  0.50400001928E-02 0. -1.
</event>
<event>
 5   0  0.1550278E-06  0.2907413E+04  0.7818609E-02  0.8270675E-01
        1   -1    0    0  501    0  0.00000000000E+00  0.00000000000E+00  0.98723169852E+03  0.98723169853E+03  0.50400001928E-02 0. -1.
       -1   -1    0    0    0  501  0.00000000000E+00  0.00000000000E+00 -0.21405940749E+04  0.21405940749E+04  0.50400001928E-02 0.  1.
    10030    2    1    2    0    0  0.00000000000E+00  0.00000000000E+00 -0.11533623764E+04  0.31278257734E+04  0.29074128186E+04 0.  0.
        2    1    3    3  502    0  0.77973985933E+03  0.55483819656E+03 -0.17539064902E+04  0.19980059182E+04  0.25500000920E-02 0.  1.
       -2    1    3    3    0  502 -0.77973985933E+03 -0.55483819656E+03  0.60054411386E+03  0.11298198552E+04  0.25500000920E-02 0. -1.
</event>
<event>
 5   0  0.1550278E-06  0.2889963E+04  0.7818609E-02  0.8275870E-01
        1   -1    0    0  501    0  0.00000000000E+00  0.00000000000E+00  0.18057722219E+04  0.18057722219E+04  0.50400001928E-02 0. -1.
       -1   -1    0    0    0  501  0.00000000000E+00  0.00000000000E+00 -0.11562759909E+04  0.11562759909E+04  0.50400001928E-02 0.  1.
    10030    2    1    2    0    0  0.00000000000E+00  0.00000000000E+00  0.64949623102E+03  0.29620482128E+04  0.28899626747E+04 0.  0.
        2    1    3    3  502    0 -0.55200477381E+03 -0.50256429643E+03 -0.94332309566E+03  0.12029707416E+04  0.25500000920E-02 0.  1.
       -2    1    3    3    0  502  0.55200477381E+03  0.50256429643E+03  0.15928193267E+04  0.17590774712E+04  0.25500000920E-02 0. -1.
</event>
<event>
 5   0  0.4187518E-06  0.2950717E+04  0.7818609E-02  0.8257946E-01
       -2   -1    0    0    0  501  0.00000000000E+00  0.00000000000E+00  0.13821953718E+04  0.13821953718E+04  0.25500000920E-02 0. -1.
        2   -1    0    0  501    0  0.00000000000E+00  0.00000000000E+00 -0.15748006610E+04  0.15748006610E+04  0.25500000920E-02 0.  1.
    10030    2    1    2    0    0  0.00000000000E+00  0.00000000000E+00 -0.19260528919E+03  0.29569960329E+04  0.29507166487E+04 0.  0.
        3    1    3    3  502    0 -0.45511226675E+01  0.42662236796E+03  0.13190253923E+04  0.13863099773E+04  0.10100000352E+00 0. -1.
       -3    1    3    3    0  502  0.45511226675E+01 -0.42662236796E+03 -0.15116306815E+04  0.15706860555E+04  0.10100000352E+00 0.  1.
</event>
<event>
 5   0  0.4148677E-06  0.2902044E+04  0.7818609E-02  0.8272270E-01
        2   -1    0    0  501    0  0.00000000000E+00  0.00000000000E+00  0.18922165534E+04  0.18922165534E+04  0.25500000920E-02 0. -1.
       -2   -1    0    0    0  501  0.00000000000E+00  0.00000000000E+00 -0.11126975920E+04  0.11126975920E+04  0.25500000920E-02 0.  1.
    10030    2    1    2    0    0  0.00000000000E+00  0.00000000000E+00  0.77951896141E+03  0.30049141454E+04  0.29020439711E+04 0.  0.
        5    1    3    3  502    0 -0.31838593872E+03 -0.11210746676E+04 -0.50532764810E+03  0.12702582959E+04  0.46999998093E+01 0.  1.
       -5    1    3    3    0  502  0.31838593872E+03  0.11210746676E+04  0.12848466095E+04  0.17346558495E+04  0.46999998093E+01 0. -1.
</event>
<event>
 5   0  0.1580212E-06  0.2899536E+04  0.7818609E-02  0.8273015E-01
       -1   -1    0    0    0  501  0.00000000000E+00  0.00000000000E+00  0.15820545457E+04  0.15820545457E+04  0.50400001928E-02 0.  1.
        1   -1    0    0  501    0  0.00000000000E+00  0.00000000000E+00 -0.13285431168E+04  0.13285431168E+04  0.50400001928E-02 0. -1.
    10030    2    1    2    0    0  0.00000000000E+00  0.00000000000E+00  0.25351142889E+03  0.29105976625E+04  0.28995362919E+04 0.  0.
        4    1    3    3  502    0 -0.11327008990E+04 -0.59026280332E+03 -0.56172121063E+03  0.13953328760E+04  0.12699999809E+01 0. -1.
       -4    1    3    3    0  502  0.11327008990E+04  0.59026280332E+03  0.81523263952E+03  0.15152647864E+04  0.12699999809E+01 0.  1.
</event>
<event>
 5   0  0.1580212E-06  0.2898769E+04  0.7818609E-02  0.8273244E-01
       -1   -1    0    0    0  501  0.00000000000E+00  0.00000000000E+00  0.19228748188E+04  0.19228748188E+04  0.50400001928E-02 0.  1.
        1   -1    0    0  501    0  0.00000000000E+00  0.00000000000E+00 -0.10924870555E+04  0.10924870555E+04  0.50400001928E-02 0. -1.
    10030    2    1    2    0    0  0.00000000000E+00  0.00000000000E+00  0.83038776337E+03  0.30153618743E+04  0.28987692898E+04 0.  0.
        4    1    3    3  502    0 -0.13823234924E+02 -0.14384972867E+04  0.23131077369E+03  0.14570421451E+04  0.12699999809E+01 0.  1.
       -4    1    3    3    0  502  0.13823234924E+02  0.14384972867E+04  0.59907698967E+03  0.15583197292E+04  0.12699999809E+01 0. -1.
</event>
<event>
 5   0  0.1602873E-06  0.2892709E+04  0.7818609E-02  0.8275050E-01
        1   -1    0    0  501    0  0.00000000000E+00  0.00000000000E+00  0.18158619692E+04  0.18158619692E+04  0.50400001928E-02 0.  1.
       -1   -1    0    0    0  501  0.00000000000E+00  0.00000000000E+00 -0.11520373949E+04  0.11520373949E+04  0.50400001928E-02 0. -1.
    10030    2    1    2    0    0  0.00000000000E+00  0.00000000000E+00  0.66382457433E+03  0.29678993642E+04  0.28927086909E+04 0.  0.
        1    1    3    3  502    0  0.75618898812E+03 -0.71634463976E+03  0.13614745620E+04  0.17142299763E+04  0.50400001928E-02 0.  1.
       -1    1    3    3    0  502 -0.75618898812E+03  0.71634463976E+03 -0.69764998769E+03  0.12536693878E+04  0.50400001928E-02 0. -1.
</event>
<event>
 5   0  0.1602873E-06  0.2736629E+04  0.7818609E-02  0.8323217E-01
        1   -1    0    0  501    0  0.00000000000E+00  0.00000000000E+00  0.17051806905E+04  0.17051806906E+04  0.50400001928E-02 0.  1.
       -1   -1    0    0    0  501  0.00000000000E+00  0.00000000000E+00 -0.10979978562E+04  0.10979978562E+04  0.50400001928E-02 0. -1.
    10030    2    1    2    0    0  0.00000000000E+00  0.00000000000E+00  0.60718283432E+03  0.28031785468E+04  0.27366291256E+04 0.  0.
        1    1    3    3  502    0  0.12219351796E+04  0.32983150446E+03 -0.22902474161E+03  0.12862218847E+04  0.50400001928E-02 0. -1.
       -1    1    3    3    0  502 -0.12219351796E+04 -0.32983150446E+03  0.83620757592E+03  0.15169566621E+04  0.50400001928E-02 0.  1.
</event>
<event>
 5   0  0.1550278E-06  0.2919145E+04  0.7818609E-02  0.8267204E-01
       -1   -1    0    0    0  501  0.00000000000E+00  0.00000000000E+00  0.12278141355E+04  0.12278141355E+04  0.50400001928E-02 0. -1.
        1   -1    0    0  501    0  0.00000000000E+00  0.00000000000E+00 -0.17350767370E+04  0.17350767370E+04  0.50400001928E-02 0.  1.
    10030    2    1    2    0    0  0.00000000000E+00  0.00000000000E+00 -0.50726260152E+03  0.29628908726E+04  0.29191449049E+04 0.  0.
        2    1    3    3  502    0 -0.95136321613E+02  0.37040781948E+03 -0.16833205698E+04  0.17262158072E+04  0.25500000920E-02 0.  1.
       -2    1    3    3    0  502  0.95136321613E+02 -0.37040781948E+03  0.11760579683E+04  0.12366750653E+04  0.25500000920E-02 0. -1.
</event>
<event>
 5   0  0.1511126E-06  0.3003236E+04  0.7818609E-02  0.8242808E-01
       -1   -1    0    0    0  501  0.00000000000E+00  0.00000000000E+00  0.13149548770E+04  0.13149548770E+04  0.50400001928E-02 0. -1.
        1   -1    0    0  501    0  0.00000000000E+00  0.00000000000E+00 -0.17147782471E+04  0.17147782471E+04  0.50400001928E-02 0.  1.
    10030    2    1    2    0    0  0.00000000000E+00  0.00000000000E+00 -0.39982337012E+03  0.30297331242E+04  0.30032356012E+04 0.  0.
        5    1    3    3  502    0 -0.10951233678E+04 -0.18607217307E+03  0.81940692223E+03  0.13803506215E+04  0.46999998093E+01 0. -1.
       -5    1    3    3    0  502  0.10951233678E+04  0.18607217307E+03 -0.12192302924E+04  0.16493825026E+04  0.46999998093E+01 0.  1.
</event>
<event>
 5   0  0.1550278E-06  0.2887190E+04  0.7818609E-02  0.8276699E-01
       -1   -1    0    0    0  501  0.00000000000E+00  0.00000000000E+00  0.94364611686E+03  0.94364611687E+03  0.50400001928E-02 0. -1.
        1   -1    0    0  501    0  0.00000000000E+00  0.00000000000E+00 -0.22084191716E+04  0.22084191716E+04  0.50400001928E-02 0.  1.
    10030    2    1    2    0    0  0.00000000000E+00  0.00000000000E+00 -0.12647730548E+04  0.31520652885E+04  0.28871897587E+04 0.  0.
        2    1    3    3  502    0  0.61557251436E+03  0.28020955031E+03 -0.20247399330E+04  0.21347174775E+04  0.25500000920E-02 0.  1.
       -2    1    3    3    0  502 -0.61557251436E+03 -0.28020955031E+03  0.75996687822E+03  0.10173478110E+04  0.25500000920E-02 0. -1.
</event>
<event>
 5   0  0.4115143E-06  0.2904009E+04  0.7818609E-02  0.8271686E-01
        2   -1    0    0  501    0  0.00000000000E+00  0.00000000000E+00  0.28180501899E+04  0.28180501899E+04  0.25500000920E-02 0. -1.
       -2   -1    0    0    0  501  0.00000000000E+00  0.00000000000E+00 -0.74814739045E+03  0.74814739045E+03  0.25500000920E-02 0.  1.
    10030    2    1    2    0    0  0.00000000000E+00  0.00000000000E+00  0.20699027994E+04  0.35661975803E+04  0.29040088813E+04 0.  0.
        1    1    3    3  502    0 -0.73935860988E+03  0.19061951867E+03 -0.48171253042E+03  0.90279228889E+03  0.50400001928E-02 0.  1.
       -1    1    3    3    0  502  0.73935860988E+03 -0.19061951867E+03  0.25516153298E+04  0.26634052914E+04  0.50400001928E-02 0. -1.
</event>
<event>
 5   0  0.4115143E-06  0.2794828E+04  0.7818609E-02  0.8304876E-01
        2   -1    0    0  501    0  0.00000000000E+00  0.00000000000E+00  0.16633734092E+04  0.16633734092E+04  0.25500000920E-02 0. -1.
       -2   -1    0    0    0  501  0.00000000000E+00  0.00000000000E+00 -0.11739790562E+04  0.11739790562E+04  0.25500000920E-02 0.  1.
    10030    2    1    2    0    0  0.00000000000E+00  0.00000000000E+00  0.48939435304E+03  0.28373524654E+04  0.27948277550E+04 0.  0.
        1    1    3    3  502    0  0.51641609681E+03 -0.27757115110E+03  0.15324748189E+04  0.16407956605E+04  0.50400001928E-02 0. -1.
       -1    1    3    3    0  502 -0.51641609681E+03  0.27757115110E+03 -0.10430804659E+04  0.11965568049E+04  0.50400001928E-02 0.  1.
</event>
<event>
 5   0  0.4162450E-06  0.2766090E+04  0.7818609E-02  0.8313874E-01
       -2   -1    0    0    0  501  0.00000000000E+00  0.00000000000E+00  0.60668298194E+03  0.60668298195E+03  0.25500000920E-02 0.  1.
        2   -1    0    0  501    0  0.00000000000E+00  0.00000000000E+00 -0.31529037331E+04  0.31529037331E+04  0.25500000920E-02 0. -1.
    10030    2    1    2    0    0  0.00000000000E+00  0.00000000000E+00 -0.25462207511E+04  0.37595867150E+04  0.27660896866E+04 0.  0.
        2    1    3    3  502    0 -0.71271166379E+03 -0.12112272179E+03 -0.28756547195E+04  0.29651338411E+04  0.25500000920E-02 0. -1.
       -2    1    3    3    0  502  0.71271166379E+03  0.12112272179E+03  0.32943396838E+03  0.79445287398E+03  0.25500000920E-02 0.  1.
</event>
<event>
 5   0  0.1580212E-06  0.2853547E+04  0.7818609E-02  0.8286834E-01
        1   -1    0    0  501    0  0.00000000000E+00  0.00000000000E+00  0.13415775798E+04  0.13415775798E+04  0.50400001928E-02 0.  1.
       -1   -1    0    0    0  501  0.00000000000E+00  0.00000000000E+00 -0.15173800287E+04  0.15173800287E+04  0.50400001928E-02 0. -1.
    10030    2    1    2    0    0  0.00000000000E+00  0.00000000000E+00 -0.17580244892E+03  0.28589576084E+04  0.28535472847E+04 0.  0.
        4    1    3    3  502    0 -0.11203703233E+04  0.82767470137E+03  0.22156357892E+03  0.14104492565E+04  0.12699999809E+01 0.  1.
       -4    1    3    3    0  502  0.11203703233E+04 -0.82767470137E+03 -0.39736602784E+03  0.14485083520E+04  0.12699999809E+01 0. -1.
</event>
<event>
 5   0  0.1580212E-06  0.2888916E+04  0.7818609E-02  0.8276183E-01
        1   -1    0    0  501    0  0.00000000000E+00  0.00000000000E+00  0.23420597951E+04  0.23420597951E+04  0.50400001928E-02 0. -1.
       -1   -1    0    0    0  501  0.00000000000E+00  0.00000000000E+00 -0.89086492202E+03  0.89086492204E+03  0.50400001928E-02 0.  1.
    10030    2    1    2    0    0  0.00000000000E+00  0.00000000000E+00  0.14511948731E+04  0.32329247171E+04  0.28889160021E+04 0.  0.
        4    1    3    3  502    0  0.76800724291E+03  0.49293269839E+03  0.19785857393E+04  0.21789036030E+04  0.12699999809E+01 0. -1.
       -4    1    3    3    0  502 -0.76800724291E+03 -0.49293269839E+03 -0.52739086628E+03  0.10540211141E+04  0.12699999809E+01 0.  1.
</event>
<event>
 5   0  0.1602873E-06  0.2899611E+04  0.7818609E-02  0.8272993E-01
       -1   -1    0    0    0  501  0.00000000000E+00  0.00000000000E+00  0.16817994177E+04  0.16817994178E+04  0.50400001928E-02 0.  1.
        1   -1    0    0  501    0  0.00000000000E+00  0.00000000000E+00 -0.12498136017E+04  0.12498136018E+04  0.50400001928E-02 0. -1.
    10030    2    1    2    0    0  0.00000000000E+00  0.00000000000E+00  0.43198581600E+03  0.29316130195E+04  0.28996108620E+04 0.  0.
        1    1    3    3  502    0  0.37263772236E+03  0.84035572981E+03 -0.91748663656E+03  0.12987834127E+04  0.50400001928E-02 0. -1.
       -1    1    3    3    0  502 -0.37263772236E+03 -0.84035572981E+03  0.13494724526E+04  0.16328296068E+04  0.50400001928E-02 0.  1.
</event>
<event>
 5   0  0.1550278E-06  0.2896948E+04  0.7818609E-02  0.8273786E-01
       -1   -1    0    0    0  501  0.00000000000E+00  0.00000000000E+00  0.12597666192E+04  0.12597666193E+04  0.50400001928E-02 0. -1.
        1   -1    0    0  501    0  0.00000000000E+00  0.00000000000E+00 -0.16654485171E+04  0.16654485171E+04  0.50400001928E-02 0.  1.
    10030    2    1    2    0    0  0.00000000000E+00  0.00000000000E+00 -0.40568189786E+03  0.29252151364E+04  0.28969476681E+04 0.  0.
        2    1    3    3  502    0 -0.10754461986E+04 -0.47198278878E+03 -0.10588892836E+04  0.15813281740E+04  0.25500000920E-02 0.  1.
       -2    1    3    3    0  502  0.10754461986E+04  0.47198278878E+03  0.65320738570E+03  0.13438869624E+04  0.25500000920E-02 0. -1.
</event>
<event>
 5   0  0.1550278E-06  0.2880033E+04  0.7818609E-02  0.8278843E-01
        1   -1    0    0  501    0  0.00000000000E+00  0.00000000000E+00  0.10765256110E+04  0.10765256110E+04  0.50400001928E-02 0. -1.
       -1   -1    0    0    0  501  0.00000000000E+00  0.00000000000E+00 -0.19262408993E+04  0.19262408993E+04  0.50400001928E-02 0.  1.
    10030    2    1    2    0    0  0.00000000000E+00  0.00000000000E+00 -0.84971528835E+03  0.30027665103E+04  0.28800330977E+04 0.  0.
        2    1    3    3  502    0 -0.52575525663E+03  0.13371524018E+04 -0.32456842907E+03  0.14730036662E+04  0.25500000920E-02 0. -1.
       -2    1    3    3    0  502  0.52575525663E+03 -0.13371524018E+04 -0.52514685928E+03  0.15297628441E+04  0.25500000920E-02 0.  1.
</event>
<event>
 5   0  0.4187518E-06  0.2887945E+04  0.7818609E-02  0.8276473E-01
        2   -1    0    0  501    0  0.00000000000E+00  0.00000000000E+00  0.23341607256E+04  0.23341607256E+04  0.25500000920E-02 0.  1.
       -2   -1    0    0    0  501  0.00000000000E+00  0.00000000000E+00 -0.89327873140E+03  0.89327873141E+03  0.25500000920E-02 0. -1.
    10030    2    1    2    0    0  0.00000000000E+00  0.00000000000E+00  0.14408819942E+04  0.32274394570E+04  0.28879446891E+04 0.  0.
        3    1    3    3  502    0 -0.42332754433E+03  0.19535546973E+03  0.22477298511E+04  0.22955738853E+04  0.10100000352E+00 0.  1.
       -3    1    3    3    0  502  0.42332754433E+03 -0.19535546973E+03 -0.80684785688E+03  0.93186557169E+03  0.10100000352E+00 0. -1.
</event>
<event>
 5   0  0.4115143E-06  0.2907525E+04  0.7818609E-02  0.8270642E-01
       -2   -1    0    0    0  501  0.00000000000E+00  0.00000000000E+00  0.11625859913E+04  0.11625859913E+04  0.25500000920E-02 0.  1.
        2   -1    0    0  501    0  0.00000000000E+00  0.00000000000E+00 -0.18178658829E+04  0.18178658829E+04  0.25500000920E-02 0. -1.
    10030    2    1    2    0    0  0.00000000000E+00  0.00000000000E+00 -0.65527989162E+03  0.29804518742E+04  0.29075250022E+04 0.  0.
        1    1    3    3  502    0 -0.69539215307E+03  0.46917328935E+03 -0.15447416517E+04  0.17578169963E+04  0.50400001928E-02 0. -1.
       -1    1    3    3    0  502  0.69539215307E+03 -0.46917328935E+03  0.88946176009E+03  0.12226348779E+04  0.50400001928E-02 0.  1.
</event>
<event>
 5   0  0.4187518E-06  0.2921651E+04  0.7818609E-02  0.8266465E-01
        2   -1    0    0  501    0  0.00000000000E+00  0.00000000000E+00  0.21020144111E+04  0.21020144111E+04  0.25500000920E-02 0.  1.
       -2   -1    0    0    0  501  0.00000000000E+00  0.00000000000E+00 -0.10152218458E+04  0.10152218458E+04  0.25500000920E-02 0. -1.
    10030    2    1    2    0    0  0.00000000000E+00  0.00000000000E+00  0.10867925653E+04  0.31172362569E+04  0.29216508691E+04 0.  0.
        3    1    3    3  502    0  0.13786423048E+04 -0.40157201326E+03  0.25691401189E+03  0.14587390123E+04  0.10100000352E+00 0. -1.
       -3    1    3    3    0  502 -0.13786423048E+04  0.40157201326E+03  0.82987855344E+03  0.16584972445E+04  0.10100000352E+00 0.  1.
</event>
<event>
 5   0  0.1602873E-06  0.2935766E+04  0.7818609E-02  0.8262315E-01
       -1   -1    0    0    0  501  0.00000000000E+00  0.00000000000E+00  0.11179343054E+04  0.11179343054E+04  0.50400001928E-02 0.  1.
        1   -1    0    0  501    0  0.00000000000E+00  0.00000000000E+00 -0.19273769880E+04  0.19273769880E+04  0.50400001928E-02 0. -1.
    10030    2    1    2    0    0  0.00000000000E+00  0.00000000000E+00 -0.80944268259E+03  0.30453112935E+04  0.29357662403E+04 0.  0.
        1    1    3    3  502    0 -0.11060244511E+04 -0.74133166788E+03 -0.10456925055E+04  0.16930255592E+04  0.50400001928E-02 0.  1.
       -1    1    3    3    0  502  0.11060244511E+04  0.74133166788E+03  0.23624982288E+03  0.13522857342E+04  0.50400001928E-02 0. -1.
</event>
<event>
 5   0  0.4162450E-06  0.2772479E+04  0.7818609E-02  0.8311864E-01
       -2   -1    0    0    0  501  0.00000000000E+00  0.00000000000E+00  0.12408366302E+04  0.12408366302E+04  0.25500000920E-02 0. -1.
        2   -1    0    0  501    0  0.00000000000E+00  0.00000000000E+00 -0.15486809652E+04  0.15486809652E+04  0.25500000920E-02 0.  1.
    10030    2    1    2    0    0  0.00000000000E+00  0.00000000000E+00 -0.30784433498E+03  0.27895175955E+04  0.27724790857E+04 0.  0.
        2    1    3    3  502    0 -0.12087278600E+04  0.64808706203E+03  0.48860954891E+02  0.13723801486E+04  0.25500000920E-02 0. -1.
       -2    1    3    3    0  502  0.12087278600E+04 -0.64808706203E+03 -0.35670528987E+03  0.14171374468E+04  0.25500000920E-02 0.  1.
</event>
<event>
 5   0  0.4162450E-06  0.2668193E+04  0.7818609E-02  0.8345400E-01
       -2   -1    0    0    0  501  0.00000000000E+00  0.00000000000E+00  0.12561669553E+04  0.12561669553E+04  0.25500000920E-02 0.  1.
        2   -1    0    0  501    0  0.00000000000E+00  0.00000000000E+00 -0.14168603386E+04  0.14168603386E+04  0.25500000920E-02 0. -1.
    10030    2    1    2    0    0  0.00000000000E+00  0.00000000000E+00 -0.16069338329E+03  0.26730272938E+04  0.26681927498E+04 0.  0.
        2    1    3    3  502    0  0.71518671024E+03  0.17744782621E+03  0.10337985034E+04  0.12695349964E+04  0.25500000920E-02 0.  1.
       -2    1    3    3    0  502 -0.71518671024E+03 -0.17744782621E+03 -0.11944918867E+04  0.14034922974E+04  0.25500000920E-02 0. -1.
</event>
<event>
 5   0  0.1602873E-06  0.2889617E+04  0.7818609E-02  0.8275973E-01
       -1   -1    0    0    0  501  0.00000000000E+00  0.00000000000E+00  0.16024820646E+04  0.16024820646E+04  0.50400001928E-02 0.  1.
        1   -1    0    0  501    0  0.00000000000E+00  0.00000000000E+00 -0.13026488211E+04  0.13026488211E+04  0.50400001928E-02 0. -1.
    10030    2    1    2    0    0  0.00000000000E+00  0.00000000000E+00  0.29983324349E+03  0.29051308857E+04  0.28896168413E+04 0.  0.
        1    1    3    3  502    0 -0.22442993042E+03  0.13920038966E+04 -0.16709793666E+03  0.14198469503E+04  0.50400001928E-02 0. -1.
       -1    1    3    3    0  502  0.22442993042E+03 -0.13920038966E+04  0.46693118015E+03  0.14852839354E+04  0.50400001928E-02 0.  1.
</event>
<event>
 5   0  0.1580212E-06  0.2906705E+04  0.7818609E-02  0.8270885E-01
       -1   -1    0    0    0  501  0.00000000000E+00  0.00000000000E+00  0.11191111315E+04  0.11191111315E+04  0.50400001928E-02 0. -1.
        1   -1    0    0  501    0  0.00000000000E+00  0.00000000000E+00 -0.18874209944E+04  0.18874209944E+04  0.50400001928E-02 0.  1.
    10030    2    1    2    0    0  0.00000000000E+00  0.00000000000E+00 -0.76830986293E+03  0.30065321259E+04  0.29067052446E+04 0.  0.
        4    1    3    3  502    0  0.12085125564E+04  0.46921395046E+03 -0.10636548712E+04  0.16769101432E+04  0.12699999809E+01 0. -1.
       -4    1    3    3    0  502 -0.12085125564E+04 -0.46921395046E+03  0.29534500827E+03  0.13296219828E+04  0.12699999809E+01 0.  1.
</event>
<event>
 5   0  0.1511126E-06  0.2910733E+04  0.7818609E-02  0.8269691E-01
        1   -1    0    0  501    0  0.00000000000E+00  0.00000000000E+00  0.20088232537E+04  0.20088232537E+04  0.50400001928E-02 0.  1.
       -1   -1    0    0    0  501  0.00000000000E+00  0.00000000000E+00 -0.10543945027E+04  0.10543945027E+04  0.50400001928E-02 0. -1.
    10030    2    1    2    0    0  0.00000000000E+00  0.00000000000E+00  0.95442875097E+03  0.30632177564E+04  0.29107333754E+04 0.  0.
        5    1    3    3  502    0  0.16782868699E+03  0.12186750131E+04  0.12955999086E+04  0.17865991350E+04  0.46999998093E+01 0.  1.
       -5    1    3    3    0  502 -0.16782868699E+03 -0.12186750131E+04 -0.34117115764E+03  0.12766186215E+04  0.46999998093E+01 0. -1.
</event>
<event>
 5   0  0.4224163E-06  0.3133175E+04  0.7818609E-02  0.8206692E-01
       -2   -1    0    0    0  501  0.00000000000E+00  0.00000000000E+00  0.17549639955E+04  0.17549639955E+04  0.25500000920E-02 0. -1.
        2   -1    0    0  501    0  0.00000000000E+00  0.00000000000E+00 -0.13984307800E+04  0.13984307800E+04  0.25500000920E-02 0.  1.
    10030    2    1    2    0    0  0.00000000000E+00  0.00000000000E+00  0.35653321555E+03  0.31533947755E+04  0.31331745365E+04 0.  0.
        4    1    3    3  502    0  0.14044303593E+04 -0.61429038182E+03  0.50348780101E+03  0.16134679687E+04  0.12699999809E+01 0.  1.
       -4    1    3    3    0  502 -0.14044303593E+04  0.61429038182E+03 -0.14695458546E+03  0.15399268068E+04  0.12699999809E+01 0. -1.
</event>
<event>
 5   0  0.1511126E-06  0.2917440E+04  0.7818609E-02  0.8267707E-01
       -1   -1    0    0    0  501  0.00000000000E+00  0.00000000000E+00  0.98627634969E+03  0.98627634970E+03  0.50400001928E-02 0. -1.
        1   -1    0    0  501    0  0.00000000000E+00  0.00000000000E+00 -0.21574723966E+04  0.21574723966E+04  0.50400001928E-02 0.  1.
    10030    2    1    2    0    0  0.00000000000E+00  0.00000000000E+00 -0.11711960469E+04  0.31437487463E+04  0.29174399736E+04 0.  0.
        5    1    3    3  502    0  0.54640766428E+03  0.49661052307E+03 -0.19412228566E+04  0.20769091497E+04  0.46999998093E+01 0.  1.
       -5    1    3    3    0  502 -0.54640766428E+03 -0.49661052307E+03  0.77002680969E+03  0.10668395966E+04  0.46999998093E+01 0. -1.
</event>
<event>
 5   0  0.4187518E-06  0.2913434E+04  0.7818609E-02  0.8268892E-01
        2   -1    0    0  501    0  0.00000000000E+00  0.00000000000E+00  0.15570202192E+04  0.15570202192E+04  0.25500000920E-02 0.  1.
       -2   -1    0    0    0  501  0.00000000000E+00  0.00000000000E+00 -0.13628753479E+04  0.13628753479E+04  0.25500000920E-02 0. -1.
    10030    2    1    2    0    0  0.00000000000E+00  0.00000000000E+00  0.19414487136E+03  0.29198955671E+04  0.29134340377E+04 0.  0.
        3    1    3    3  502    0 -0.70761271226E+03 -0.10266022332E+03 -0.11749033389E+04  0.13753736721E+04  0.10100000352E+00 0. -1.
       -3    1    3    3    0  502  0.70761271226E+03  0.10266022332E+03  0.13690482102E+04  0.15445218950E+04  0.10100000352E+00 0.  1.
</event>
<event>
 5   0  0.1511126E-06  0.2902017E+04  0.7818609E-02  0.8272278E-01
       -1   -1    0    0    0  501  0.00000000000E+00  0.00000000000E+00  0.81719425442E+03  0.81719425444E+03  0.50400001928E-02 0.  1.
        1   -1    0    0  501    0  0.00000000000E+00  0.00000000000E+00 -0.25764074782E+04  0.25764074783E+04  0.50400001928E-02 0. -1.
    10030    2    1    2    0    0  0.00000000000E+00  0.00000000000E+00 -0.17592132238E+04  0.33936017327E+04  0.29020168079E+04 0.  0.
        5    1    3    3  502    0  0.96494639537E+01  0.14422237758E+04 -0.69360025374E+03  0.16003768099E+04  0.46999998093E+01 0.  1.
       -5    1    3    3    0  502 -0.96494639537E+01 -0.14422237758E+04 -0.10656129701E+04  0.17932249228E+04  0.46999998093E+01 0. -1.
</event>
<event>
 5   0  0.1543678E-06  0.2898768E+04  0.7818609E-02  0.8273244E-01
        1   -1    0    0  501    0  0.00000000000E+00  0.00000000000E+00  0.10571469007E+04  0.10571469007E+04  0.50400001928E-02 0.  1.
       -1   -1    0    0    0  501  0.00000000000E+00  0.00000000000E+00 -0.19871537457E+04  0.19871537457E+04  0.50400001928E-02 0. -1.
    10030    2    1    2    0    0  0.00000000000E+00  0.00000000000E+00 -0.93000684500E+03  0.30443006463E+04  0.28987676164E+04 0.  0.
        3    1    3    3  502    0  0.10192929621E+04  0.86181915716E+03 -0.10581815705E+04  0.17033609860E+04  0.10100000352E+00 0. -1.
       -3    1    3    3    0  502 -0.10192929621E+04 -0.86181915716E+03  0.12817472549E+03  0.13409396604E+04  0.10100000352E+00 0.  1.
</event>
<event>
 5   0  0.1543678E-06  0.2952940E+04  0.7818609E-02  0.8257298E-01
       -1   -1    0    0    0  501  0.00000000000E+00  0.00000000000E+00  0.97539126007E+03  0.97539126009E+03  0.50400001928E-02 0.  1.
        1   -1    0    0  501    0  0.00000000000E+00  0.00000000000E+00 -0.22349638967E+04  0.22349638967E+04  0.50400001928E-02 0. -1.
    10030    2    1    2    0    0  0.00000000000E+00  0.00000000000E+00 -0.12595726366E+04  0.32103551568E+04  0.29529404000E+04 0.  0.
        3    1    3    3  502    0  0.14445412305E+04  0.25089284785E+03 -0.44048824566E+03  0.15309070816E+04  0.10100000352E+00 0. -1.
       -3    1    3    3    0  502 -0.14445412305E+04 -0.25089284785E+03 -0.81908439098E+03  0.16794480752E+04  0.10100000352E+00 0.  1.
</event>
<event>
 5   0  0.1360125E-06  0.2901842E+04  0.7818609E-02  0.8272329E-01
        3   -1    0    0  501    0  0.00000000000E+00  0.00000000000E+00  0.16792748736E+04  0.16792748767E+04  0.10100000352E+00 0. -1.
       -3   -1    0    0    0  501  0.00000000000E+00  0.00000000000E+00 -0.12536199159E+04  0.12536199200E+04  0.10100000352E+00 0.  1.
    10030    2    1    2    0    0  0.00000000000E+00  0.00000000000E+00  0.42565495774E+03  0.29328947966E+04  0.29018424742E+04 0.  0.
        4    1    3    3  502    0  0.21417539420E+03  0.12201988703E+04  0.97616728051E+03  0.15772319281E+04  0.12699999809E+01 0. -1.
       -4    1    3    3    0  502 -0.21417539420E+03 -0.12201988703E+04 -0.55051232278E+03  0.13556628685E+04  0.12699999809E+01 0.  1.
</event>
<event>
 5   0  0.4224163E-06  0.2922436E+04  0.7818609E-02  0.8266233E-01
       -2   -1    0    0    0  501  0.00000000000E+00  0.00000000000E+00  0.13156842168E+04  0.13156842168E+04  0.25500000920E-02 0. -1.
        2   -1    0    0  501    0  0.00000000000E+00  0.00000000000E+00 -0.16228502083E+04  0.16228502083E+04  0.25500000920E-02 0.  1.
    10030    2    1    2    0    0  0.00000000000E+00  0.00000000000E+00 -0.30716599147E+03  0.29385344251E+04  0.29224362475E+04 0.  0.
        4    1    3    3  502    0  0.21377723596E+03  0.84637549050E+03 -0.13318332723E+04  0.15924301101E+04  0.12699999809E+01 0.  1.
       -4    1    3    3    0  502 -0.21377723596E+03 -0.84637549050E+03  0.10246672808E+04  0.13461043150E+04  0.12699999809E+01 0. -1.
</event>
<event>
 5   0  0.4187518E-06  0.2905125E+04  0.7818609E-02  0.8271354E-01
       -2   -1    0    0    0  501  0.00000000000E+00  0.00000000000E+00  0.23113853739E+04  0.23113853739E+04  0.25500000920E-02 0. -1.
        2   -1    0    0  501    0  0.00000000000E+00  0.00000000000E+00 -0.91284529457E+03  0.91284529458E+03  0.25500000920E-02 0.  1.
    10030    2    1    2    0    0  0.00000000000E+00  0.00000000000E+00  0.13985400793E+04  0.32242306685E+04  0.29051246187E+04 0.  0.
        3    1    3    3  502    0  0.20651882921E+02 -0.30215030980E+03 -0.87741575258E+03  0.92821318837E+03  0.10100000352E+00 0.  1.
       -3    1    3    3    0  502 -0.20651882921E+02  0.30215030980E+03  0.22759558319E+04  0.22960174801E+04  0.10100000352E+00 0. -1.
</event>
<event>
 5   0  0.4162450E-06  0.2922026E+04  0.7818609E-02  0.8266354E-01
       -2   -1    0    0    0  501  0.00000000000E+00  0.00000000000E+00  0.16983856393E+04  0.16983856393E+04  0.25500000920E-02 0.  1.
        2   -1    0    0  501    0  0.00000000000E+00  0.00000000000E+00 -0.12568162521E+04  0.12568162522E+04  0.25500000920E-02 0. -1.
    10030    2    1    2    0    0  0.00000000000E+00  0.00000000000E+00  0.44156938714E+03  0.29552018914E+04  0.29220257862E+04 0.  0.
        2    1    3    3  502    0 -0.62450790092E+03  0.13095295903E+04  0.46547459232E+02  0.14515662342E+04  0.25500000920E-02 0.  1.
       -2    1    3    3    0  502  0.62450790092E+03 -0.13095295903E+04  0.39502192791E+03  0.15036356573E+04  0.25500000920E-02 0. -1.
</event>
<event>
 5   0  0.4115143E-06  0.2915982E+04  0.7818609E-02  0.8268138E-01
        2   -1    0    0  501    0  0.00000000000E+00  0.00000000000E+00  0.12860435600E+04  0.12860435600E+04  0.25500000920E-02 0. -1.
       -2   -1    0    0    0  501  0.00000000000E+00  0.00000000000E+00 -0.16529282716E+04  0.16529282716E+04  0.25500000920E-02 0.  1.
    10030    2    1    2    0    0  0.00000000000E+00  0.00000000000E+00 -0.36688471160E+03  0.29389718316E+04  0.29159820018E+04 0.  0.
        1    1    3    3  502    0 -0.33743513520E+03  0.86525194235E+03  0.94934687685E+03  0.13280748800E+04  0.50400001928E-02 0. -1.
       -1    1    3    3    0  502  0.33743513520E+03 -0.86525194235E+03 -0.13162315884E+04  0.16108969516E+04  0.50400001928E-02 0.  1.
</event>
<event>
 5   0  0.4148677E-06  0.2910558E+04  0.7818609E-02  0.8269743E-01
        2   -1    0    0  501    0  0.00000000000E+00  0.00000000000E+00  0.23255818763E+04  0.23255818763E+04  0.25500000920E-02 0. -1.
       -2   -1    0    0    0  501  0.00000000000E+00  0.00000000000E+00 -0.91066963611E+03  0.91066963611E+03  0.25500000920E-02 0.  1.
    10030    2    1    2    0    0  0.00000000000E+00  0.00000000000E+00  0.14149122402E+04  0.32362515124E+04  0.29105578854E+04 0.  0.
        5    1    3    3  502    0  0.82286743000E+02 -0.83775502437E+03  0.20273952458E+04  0.21952125550E+04  0.46999998093E+01 0. -1.
       -5    1    3    3    0  502 -0.82286743000E+02  0.83775502437E+03 -0.61248300554E+03  0.10410389575E+04  0.46999998093E+01 0.  1.
</event>
<event>
 5   0  0.4187518E-06  0.2903977E+04  0.7818609E-02  0.8271695E-01
        2   -1    0    0  501    0  0.00000000000E+00  0.00000000000E+00  0.17497091867E+04  0.17497091867E+04  0.25500000920E-02 0. -1.
       -2   -1    0    0    0  501  0.00000000000E+00  0.00000000000E+00 -0.12049265195E+04  0.12049265195E+04  0.25500000920E-02 0.  1.
    10030    2    1    2    0    0  0.00000000000E+00  0.00000000000E+00  0.54478266728E+03  0.29546357062E+04  0.29039772729E+04 0.  0.
        3    1    3    3  502    0  0.51395137937E+03  0.12175412424E+04  0.88431318940E+03  0.15901454413E+04  0.10100000352E+00 0. -1.
       -3    1    3    3    0  502 -0.51395137937E+03 -0.12175412424E+04 -0.33953052212E+03  0.13644902649E+04  0.10100000352E+00 0.  1.
</event>
<event>
 5   0  0.1543678E-06  0.2910499E+04  0.7818609E-02  0.8269760E-01
       -1   -1    0    0    0  501  0.00000000000E+00  0.00000000000E+00  0.20200409999E+04  0.20200409999E+04  0.50400001928E-02 0. -1.
        1   -1    0    0  501    0  0.00000000000E+00  0.00000000000E+00 -0.10483707153E+04  0.10483707154E+04  0.50400001928E-02 0.  1.
    10030    2    1    2    0    0  0.00000000000E+00  0.00000000000E+00  0.97167028451E+03  0.30684117152E+04  0.29104994953E+04 0.  0.
        3    1    3    3  502    0 -0.11251155283E+04 -0.92200477294E+03  0.53024003424E+03  0.15482675019E+04  0.10100000352E+00 0.  1.
       -3    1    3    3    0  502  0.11251155283E+04  0.92200477294E+03  0.44143025027E+03  0.15201442133E+04  0.10100000352E+00 0. -1.
</event>
<event>
 5   0  0.1543678E-06  0.2911629E+04  0.7818609E-02  0.8269426E-01
       -1   -1    0    0    0  501  0.00000000000E+00  0.00000000000E+00  0.15675226854E+04  0.15675226854E+04  0.50400001928E-02 0.  1.
        1   -1    0    0  501    0  0.00000000000E+00  0.00000000000E+00 -0.13520673071E+04  0.13520673071E+04  0.50400001928E-02 0. -1.
    10030    2    1    2    0    0  0.00000000000E+00  0.00000000000E+00  0.21545537833E+03  0.29195899925E+04  0.29116292182E+04 0.  0.
        3    1    3    3  502    0  0.13910337665E+04 -0.21301640380E+03 -0.26617953596E+03  0.14322019702E+04  0.10100000352E+00 0. -1.
       -3    1    3    3    0  502 -0.13910337665E+04  0.21301640380E+03  0.48163491429E+03  0.14873880223E+04  0.10100000352E+00 0.  1.
</event>
<event>
 5   0  0.1511126E-06  0.2865540E+04  0.7818609E-02  0.8283205E-01
       -1   -1    0    0    0  501  0.00000000000E+00  0.00000000000E+00  0.92442327388E+03  0.92442327390E+03  0.50400001928E-02 0.  1.
        1   -1    0    0  501    0  0.00000000000E+00  0.00000000000E+00 -0.22206593523E+04  0.22206593524E+04  0.50400001928E-02 0. -1.
    10030    2    1    2    0    0  0.00000000000E+00  0.00000000000E+00 -0.12962360785E+04  0.31450826263E+04  0.28655395225E+04 0.  0.
        5    1    3    3  502    0  0.99844131716E+03  0.71595384710E+02  0.47696580978E+03  0.11088414840E+04  0.46999998093E+01 0.  1.
       -5    1    3    3    0  502 -0.99844131716E+03 -0.71595384710E+02 -0.17732018882E+04  0.20362411423E+04  0.46999998093E+01 0. -1.
</event>
<event>
 5   0  0.1543678E-06  0.3004126E+04  0.7818609E-02  0.8242554E-01
        1   -1    0    0  501    0  0.00000000000E+00  0.00000000000E+00  0.29174232653E+04  0.29174232653E+04  0.50400001928E-02 0.  1.
       -1   -1    0    0    0  501  0.00000000000E+00  0.00000000000E+00 -0.77335149902E+03  0.77335149903E+03  0.50400001928E-02 0. -1.
    10030    2    1    2    0    0  0.00000000000E+00  0.00000000000E+00  0.21440717663E+04  0.36907747643E+04  0.30041262660E+04 0.  0.
        3    1    3    3  502    0  0.10634150179E+04 -0.10601681622E+04  0.11177678952E+04  0.18719543558E+04  0.10100000352E+00 0.  1.
       -3    1    3    3    0  502 -0.10634150179E+04  0.10601681622E+04  0.10263038711E+04  0.18188204085E+04  0.10100000352E+00 0. -1.
</event>
<event>
 5   0  0.4162450E-06  0.2907300E+04  0.7818609E-02  0.8270709E-01
        2   -1    0    0  501    0  0.00000000000E+00  0.00000000000E+00  0.22797661720E+04  0.22797661721E+04  0.25500000920E-02 0.  1.
       -2   -1    0    0    0  501  0.00000000000E+00  0.00000000000E+00 -0.92689276826E+03  0.92689276827E+03  0.25500000920E-02 0. -1.
    10030    2    1    2    0    0  0.00000000000E+00  0.00000000000E+00  0.13528734038E+04  0.32066589403E+04  0.29073003135E+04 0.  0.
        2    1    3    3  502    0 -0.54008627681E+03  0.96584244594E+03 -0.36325548298E+03  0.11646885260E+04  0.25500000920E-02 0. -1.
       -2    1    3    3    0  502  0.54008627681E+03 -0.96584244594E+03  0.17161288868E+04  0.20419704143E+04  0.25500000920E-02 0.  1.
</event>
<event>
 5   0  0.4187518E-06  0.2867418E+04  0.7818609E-02  0.8282638E-01
        2   -1    0    0  501    0  0.00000000000E+00  0.00000000000E+00  0.23480460525E+04  0.23480460525E+04  0.25500000920E-02 0.  1.
       -2   -1    0    0    0  501  0.00000000000E+00  0.00000000000E+00 -0.87541786400E+03  0.87541786400E+03  0.25500000920E-02 0. -1.
    10030    2    1    2    0    0  0.00000000000E+00  0.00000000000E+00  0.14726281885E+04  0.32234639165E+04  0.28674179743E+04 0.  0.
        3    1    3    3  502    0 -0.10345886267E+04  0.96536148985E+03  0.99566616180E+03  0.17302160410E+04  0.10100000352E+00 0.  1.
       -3    1    3    3    0  502  0.10345886267E+04 -0.96536148985E+03  0.47696202673E+03  0.14932478755E+04  0.10100000352E+00 0. -1.
</event>
<event>
 5   0  0.1543678E-06  0.2926441E+04  0.7818609E-02  0.8265054E-01
       -1   -1    0    0    0  501  0.00000000000E+00  0.00000000000E+00  0.16360262172E+04  0.16360262172E+04  0.50400001928E-02 0. -1.
        1   -1    0    0  501    0  0.00000000000E+00  0.00000000000E+00 -0.13086677225E+04  0.13086677225E+04  0.50400001928E-02 0.  1.
    10030    2    1    2    0    0  0.00000000000E+00  0.00000000000E+00  0.32735849468E+03  0.29446939397E+04  0.29264413226E+04 0.  0.
        3    1    3    3  502    0 -0.11150760402E+04  0.72426268624E+03 -0.45091972043E+03  0.14040226560E+04  0.10100000352E+00 0.  1.
       -3    1    3    3    0  502  0.11150760402E+04 -0.72426268624E+03  0.77827821511E+03  0.15406712837E+04  0.10100000352E+00 0. -1.
</event>
<event>
 5   0  0.1550278E-06  0.2901919E+04  0.7818609E-02  0.8272307E-01
       -1   -1    0    0    0  501  0.00000000000E+00  0.00000000000E+00  0.11661521087E+04  0.11661521087E+04  0.50400001928E-02 0.  1.
        1   -1    0    0  501    0  0.00000000000E+00  0.00000000000E+00 -0.18053244351E+04  0.18053244351E+04  0.50400001928E-02 0. -1.
    10030    2    1    2    0    0  0.00000000000E+00  0.00000000000E+00 -0.63917232647E+03  0.29714765438E+04  0.29019186046E+04 0.  0.
        2    1    3    3  502    0 -0.19045419305E+02 -0.55437355182E+03  0.10532933283E+04  0.11904283256E+04  0.25500000920E-02 0.  1.
       -2    1    3    3    0  502  0.19045419305E+02  0.55437355182E+03 -0.16924656548E+04  0.17810482182E+04  0.25500000920E-02 0. -1.
</event>
<event>
 5   0  0.4162450E-06  0.2910928E+04  0.7818609E-02  0.8269634E-01
        2   -1    0    0  501    0  0.00000000000E+00  0.00000000000E+00  0.18280179557E+04  0.18280179557E+04  0.25500000920E-02 0. -1.
       -2   -1    0    0    0  501  0.00000000000E+00  0.00000000000E+00 -0.11588372815E+04  0.11588372815E+04  0.25500000920E-02 0.  1.
    10030    2    1    2    0    0  0.00000000000E+00  0.00000000000E+00  0.66918067419E+03  0.29868552372E+04  0.29109279334E+04 0.  0.
        2    1    3    3  502    0 -0.69545631701E+03 -0.97217683706E+03 -0.51748420432E+03  0.13025272332E+04  0.25500000920E-02 0.  1.
       -2    1    3    3    0  502  0.69545631701E+03  0.97217683706E+03  0.11866648785E+04  0.16843280041E+04  0.25500000920E-02 0. -1.
</event>
<event>
 5   0  0.1580212E-06  0.2577275E+04  0.7818609E-02  0.8375962E-01
       -1   -1    0    0    0  501  0.00000000000E+00  0.00000000000E+00  0.24165547513E+04  0.24165547513E+04  0.50400001928E-02 0.  1.
        1   -1    0    0  501    0  0.00000000000E+00  0.00000000000E+00 -0.68717120025E+03  0.68717120027E+03  0.50400001928E-02 0. -1.
    10030    2    1    2    0    0  0.00000000000E+00  0.00000000000E+00  0.17293835510E+04  0.31037259516E+04  0.25772751727E+04 0.  0.
        4    1    3    3  502    0  0.64632641106E+03  0.35328412701E+03 -0.40866705323E+03  0.84235258492E+03  0.12699999809E+01 0. -1.
       -4    1    3    3    0  502 -0.64632641106E+03 -0.35328412701E+03  0.21380506043E+04  0.22613733666E+04  0.12699999809E+01 0.  1.
</event>
<event>
 5   0  0.4115143E-06  0.2900549E+04  0.7818609E-02  0.8272714E-01
       -2   -1    0    0    0  501  0.00000000000E+00  0.00000000000E+00  0.13120726374E+04  0.13120726374E+04  0.25500000920E-02 0.  1.
        2   -1    0    0  501    0  0.00000000000E+00  0.00000000000E+00 -0.16030335484E+04  0.16030335484E+04  0.25500000920E-02 0. -1.
    10030    2    1    2    0    0  0.00000000000E+00  0.00000000000E+00 -0.29096091104E+03  0.29151061858E+04  0.29005492277E+04 0.  0.
        1    1    3    3  502    0 -0.56377580898E+03  0.29623487597E+03 -0.14549770741E+04  0.15882558203E+04  0.50400001928E-02 0. -1.
       -1    1    3    3    0  502  0.56377580898E+03 -0.29623487597E+03  0.11640161630E+04  0.13268503655E+04  0.50400001928E-02 0.  1.
</event>
<event>
 5   0  0.1580212E-06  0.2907197E+04  0.7818609E-02  0.8270739E-01
        1   -1    0    0  501    0  0.00000000000E+00  0.00000000000E+00  0.20025294631E+04  0.20025294631E+04  0.50400001928E-02 0.  1.
       -1   -1    0    0    0  501  0.00000000000E+00  0.00000000000E+00 -0.10551400658E+04  0.10551400658E+04  0.50400001928E-02 0. -1.
    10030    2    1    2    0    0  0.00000000000E+00  0.00000000000E+00  0.94738939729E+03  0.30576695290E+04  0.29071973236E+04 0.  0.
        4    1    3    3  502    0  0.61400295558E+03 -0.10889600754E+04  0.12537803643E+04  0.17705367802E+04  0.12699999809E+01 0.  1.
       -4    1    3    3    0  502 -0.61400295558E+03  0.10889600754E+04 -0.30639096704E+03  0.12871327487E+04  0.12699999809E+01 0. -1.
</event>
<event>
 5   0  0.1543678E-06  0.2883599E+04  0.7818609E-02  0.8277774E-01
       -1   -1    0    0    0  501  0.00000000000E+00  0.00000000000E+00  0.13463162307E+04  0.13463162307E+04  0.50400001928E-02 0. -1.
        1   -1    0    0  501    0  0.00000000000E+00  0.00000000000E+00 -0.15440548032E+04  0.15440548032E+04  0.50400001928E-02 0.  1.
    10030    2    1    2    0    0  0.00000000000E+00  0.00000000000E+00 -0.19773857250E+03  0.28903710339E+04  0.28835991696E+04 0.  0.
        3    1    3    3  502    0 -0.14345813458E+03  0.80446032164E+03 -0.12895349007E+04  0.15266423667E+04  0.10100000352E+00 0.  1.
       -3    1    3    3    0  502  0.14345813458E+03 -0.80446032164E+03  0.10917963282E+04  0.13637286673E+04  0.10100000352E+00 0. -1.
</event>
<event>
 5   0  0.1550278E-06  0.2805844E+04  0.7818609E-02  0.8301456E-01
       -1   -1    0    0    0  501  0.00000000000E+00  0.00000000000E+00  0.14155802526E+04  0.14155802526E+04  0.50400001928E-02 0.  1.
        1   -1    0    0  501    0  0.00000000000E+00  0.00000000000E+00 -0.13903769327E+04  0.13903769327E+04  0.50400001928E-02 0. -1.
    10030    2    1    2    0    0  0.00000000000E+00  0.00000000000E+00  0.25203319837E+02  0.28059571853E+04  0.28058439940E+04 0.  0.
        2    1    3    3  502    0 -0.83273327489E+03 -0.94229394588E+03  0.63458136453E+03  0.14085652615E+04  0.25500000920E-02 0.  1.
       -2    1    3    3    0  502  0.83273327489E+03  0.94229394588E+03 -0.60937804469E+03  0.13973919239E+04  0.25500000920E-02 0. -1.
</event>
<event>
 5   0  0.4115143E-06  0.2911521E+04  0.7818609E-02  0.8269458E-01
        2   -1    0    0  501    0  0.00000000000E+00  0.00000000000E+00  0.16581475324E+04  0.16581475324E+04  0.25500000920E-02 0.  1.
       -2   -1    0    0    0  501  0.00000000000E+00  0.00000000000E+00 -0.12780764388E+04  0.12780764388E+04  0.25500000920E-02 0. -1.
    10030    2    1    2    0    0  0.00000000000E+00  0.00000000000E+00  0.38007109367E+03  0.29362239712E+04  0.29115214533E+04 0.  0.
        1    1    3    3  502    0  0.69693410861E+03  0.91334565063E+02  0.14756772116E+04  0.16345281849E+04  0.50400001928E-02 0.  1.
       -1    1    3    3    0  502 -0.69693410861E+03 -0.91334565063E+02 -0.10956061179E+04  0.13016957863E+04  0.50400001928E-02 0. -1.
</event>
<event>
 5   0  0.4148677E-06  0.2913426E+04  0.7818609E-02  0.8268894E-01
       -2   -1    0    0    0  501  0.00000000000E+00  0.00000000000E+00  0.12446988802E+04  0.12446988803E+04  0.25500000920E-02 0. -1.
        2   -1    0    0  501    0  0.00000000000E+00  0.00000000000E+00 -0.17048408120E+04  0.17048408120E+04  0.25500000920E-02 0.  1.
    10030    2    1    2    0    0  0.00000000000E+00  0.00000000000E+00 -0.46014193171E+03  0.29495396922E+04  0.29134264704E+04 0.  0.
        5    1    3    3  502    0  0.49985188107E+03  0.46127164964E+03 -0.15342028960E+04  0.16782205022E+04  0.46999998093E+01 0.  1.
       -5    1    3    3    0  502 -0.49985188107E+03 -0.46127164964E+03  0.10740609643E+04  0.12713191900E+04  0.46999998093E+01 0. -1.
</event>
<event>
 5   0  0.1511126E-06  0.2883007E+04  0.7818609E-02  0.8277951E-01
        1   -1    0    0  501    0  0.00000000000E+00  0.00000000000E+00  0.19208585034E+04  0.19208585034E+04  0.50400001928E-02 0.  1.
       -1   -1    0    0    0  501  0.00000000000E+00  0.00000000000E+00 -0.10817725072E+04  0.10817725072E+04  0.50400001928E-02 0. -1.
    10030    2    1    2    0    0  0.00000000000E+00  0.00000000000E+00  0.83908599615E+03  0.30026310106E+04  0.28830067077E+04 0.  0.
        5    1    3    3  502    0  0.75212675006E+03  0.56740820466E+03  0.15558032107E+04  0.18188437094E+04  0.46999998093E+01 0.  1.
       -5    1    3    3    0  502 -0.75212675006E+03 -0.56740820466E+03 -0.71671721453E+03  0.11837873012E+04  0.46999998093E+01 0. -1.
</event>
<event>
 5   0  0.4224163E-06  0.2903397E+04  0.7818609E-02  0.8271867E-01
       -2   -1    0    0    0  501  0.00000000000E+00  0.00000000000E+00  0.11348801454E+04  0.11348801454E+04  0.25500000920E-02 0.  1.
        2   -1    0    0  501    0  0.00000000000E+00  0.00000000000E+00 -0.18569613085E+04  0.18569613085E+04  0.25500000920E-02 0. -1.
    10030    2    1    2    0    0  0.00000000000E+00  0.00000000000E+00 -0.72208116313E+03  0.29918414539E+04  0.29033969896E+04 0.  0.
        4    1    3    3  502    0 -0.11949231653E+04 -0.81803664944E+03 -0.25594566125E+03  0.14705560599E+04  0.12699999809E+01 0.  1.
       -4    1    3    3    0  502  0.11949231653E+04  0.81803664944E+03 -0.46613550189E+03  0.15212853940E+04  0.12699999809E+01 0. -1.
</event>
<event>
 5   0  0.1602873E-06  0.2920482E+04  0.7818609E-02  0.8266809E-01
        1   -1    0    0  501    0  0.00000000000E+00  0.00000000000E+00  0.18796719108E+04  0.18796719108E+04  0.50400001928E-02 0. -1.
       -1   -1    0    0    0  501  0.00000000000E+00  0.00000000000E+00 -0.11344020935E+04  0.11344020935E+04  0.50400001928E-02 0.  1.
    10030    2    1    2    0    0  0.00000000000E+00  0.00000000000E+00  0.74526981728E+03  0.30140740042E+04  0.29204819812E+04 0.  0.
        1    1    3    3  502    0 -0.13932602637E+04  0.19170682146E+03  0.77813616291E+03  0.16073025713E+04  0.50400001928E-02 0. -1.
       -1    1    3    3    0  502  0.13932602637E+04 -0.19170682146E+03 -0.32866345624E+02  0.14067714329E+04  0.50400001928E-02 0.  1.
</event>
<event>
 5   0  0.1511126E-06  0.2915155E+04  0.7818609E-02  0.8268383E-01
       -1   -1    0    0    0  501  0.00000000000E+00  0.00000000000E+00  0.10828254700E+04  0.10828254700E+04  0.50400001928E-02 0.  1.
        1   -1    0    0  501    0  0.00000000000E+00  0.00000000000E+00 -0.19620258694E+04  0.19620258694E+04  0.50400001928E-02 0. -1.
    10030    2    1    2    0    0  0.00000000000E+00  0.00000000000E+00 -0.87920039940E+03  0.30448513393E+04  0.29151545990E+04 0.  0.
        5    1    3    3  502    0  0.10489147461E+03  0.95786620399E+03 -0.15818734870E+04  0.18522569220E+04  0.46999998093E+01 0. -1.
       -5    1    3    3    0  502 -0.10489147461E+03 -0.95786620399E+03  0.70267308760E+03  0.11925944173E+04  0.46999998093E+01 0.  1.
</event>
<event>
 5   0  0.1550278E-06  0.2841967E+04  0.7818609E-02  0.8290357E-01
       -1   -1    0    0    0  501  0.00000000000E+00  0.00000000000E+00  0.12440316912E+04  0.12440316912E+04  0.50400001928E-02 0.  1.
        1   -1    0    0  501    0  0.00000000000E+00  0.00000000000E+00 -0.16231048276E+04  0.16231048276E+04  0.50400001928E-02 0. -1.
    10030    2    1    2    0    0  0.00000000000E+00  0.00000000000E+00 -0.37907313636E+03  0.28671365188E+04  0.28419668145E+04 0.  0.
        2    1    3    3  502    0 -0.68966657285E+03 -0.91905883590E+03 -0.10329337435E+04  0.15450764525E+04  0.25500000920E-02 0. -1.
       -2    1    3    3    0  502  0.68966657285E+03  0.91905883590E+03  0.65386060709E+03  0.13220600664E+04  0.25500000920E-02 0.  1.
</event>
<event>
 5   0  0.1550278E-06  0.2898584E+04  0.7818609E-02  0.8273299E-01
       -1   -1    0    0    0  501  0.00000000000E+00  0.00000000000E+00  0.11347319143E+04  0.11347319143E+04  0.50400001928E-02 0.  1.
        1   -1    0    0  501    0  0.00000000000E+00  0.00000000000E+00 -0.18510510238E+04  0.18510510239E+04  0.50400001928E-02 0. -1.
    10030    2    1    2    0    0  0.00000000000E+00  0.00000000000E+00 -0.71631910956E+03  0.29857829382E+04  0.28985835657E+04 0.  0.
        2    1    3    3  502    0 -0.26806039340E+03 -0.33339514151E+03  0.10682133120E+04  0.11506903905E+04  0.25500000920E-02 0.  1.
       -2    1    3    3    0  502  0.26806039340E+03  0.33339514151E+03 -0.17845324215E+04  0.18350925477E+04  0.25500000920E-02 0. -1.
</event>
<event>
 5   0  0.1360125E-06  0.2875234E+04  0.7818609E-02  0.8280285E-01
       -3   -1    0    0    0  501  0.00000000000E+00  0.00000000000E+00  0.69239375317E+03  0.69239376053E+03  0.10100000352E+00 0. -1.
        3   -1    0    0  501    0  0.00000000000E+00  0.00000000000E+00 -0.29849231411E+04  0.29849231428E+04  0.10100000352E+00 0.  1.
    10030    2    1    2    0    0  0.00000000000E+00  0.00000000000E+00 -0.22925293879E+04  0.36773169033E+04  0.28752336623E+04 0.  0.
        4    1    3    3  502    0 -0.41153029346E+03 -0.13564464684E+04 -0.83975001471E+03  0.16475696963E+04  0.12699999809E+01 0. -1.
       -4    1    3    3    0  502  0.41153029346E+03  0.13564464684E+04 -0.14527793732E+04  0.20297472070E+04  0.12699999809E+01 0.  1.
</event>
<event>
 5   0  0.1360125E-06  0.2891748E+04  0.7818609E-02  0.8275337E-01
       -3   -1    0    0    0  501  0.00000000000E+00  0.00000000000E+00  0.15038454742E+04  0.15038454776E+04  0.10100000352E+00 0.  1.
        3   -1    0    0  501    0  0.00000000000E+00  0.00000000000E+00 -0.13901376277E+04  0.13901376314E+04  0.10100000352E+00 0. -1.
    10030    2    1    2    0    0  0.00000000000E+00  0.00000000000E+00  0.11370784655E+03  0.28939831090E+04  0.28917483917E+04 0.  0.
        2    1    3    3  502    0  0.36982825343E+03 -0.47758159608E+03 -0.12578183957E+04  0.13953366026E+04  0.25500000920E-02 0. -1.
       -2    1    3    3    0  502 -0.36982825343E+03  0.47758159608E+03  0.13715262423E+04  0.14986465064E+04  0.25500000920E-02 0.  1.
</event>
<event>
 5   0  0.1550278E-06  0.2887707E+04  0.7818609E-02  0.8276544E-01
        1   -1    0    0  501    0  0.00000000000E+00  0.00000000000E+00  0.21684892145E+04  0.21684892145E+04  0.50400001928E-02 0. -1.
       -1   -1    0    0    0  501  0.00000000000E+00  0.00000000000E+00 -0.96136678906E+03  0.96136678907E+03  0.50400001928E-02 0.  1.
    10030    2    1    2    0    0  0.00000000000E+00  0.00000000000E+00  0.12071224255E+04  0.31298560036E+04  0.28877074044E+04 0.  0.
        2    1    3    3  502    0  0.60572552965E+03 -0.11387957506E+04 -0.99654658010E+02  0.12937118032E+04  0.25500000920E-02 0.  1.
       -2    1    3    3    0  502 -0.60572552965E+03  0.11387957506E+04  0.13067770835E+04  0.18361442004E+04  0.25500000920E-02 0. -1.
</event>
<event>
 5   0  0.1550278E-06  0.2858307E+04  0.7818609E-02  0.8285391E-01
       -1   -1    0    0    0  501  0.00000000000E+00  0.00000000000E+00  0.10323744579E+04  0.10323744579E+04  0.50400001928E-02 0. -1.
        1   -1    0    0  501    0  0.00000000000E+00  0.00000000000E+00 -0.19784297083E+04  0.19784297083E+04  0.50400001928E-02 0.  1.
    10030    2    1    2    0    0  0.00000000000E+00  0.00000000000E+00 -0.94605525042E+03  0.30108041662E+04  0.28583073995E+04 0.  0.
        2    1    3    3  502    0  0.55902127427E+03 -0.17812422332E+02 -0.18583591703E+04  0.19407011293E+04  0.25500000920E-02 0.  1.
       -2    1    3    3    0  502 -0.55902127427E+03  0.17812422332E+02  0.91230391983E+03  0.10701030369E+04  0.25500000920E-02 0. -1.
</event>
<event>
 5   0  0.1550278E-06  0.2903563E+04  0.7818609E-02  0.8271818E-01
        1   -1    0    0  501    0  0.00000000000E+00  0.00000000000E+00  0.20122670789E+04  0.20122670789E+04  0.50400001928E-02 0.  1.
       -1   -1    0    0    0  501  0.00000000000E+00  0.00000000000E+00 -0.10474106245E+04  0.10474106245E+04  0.50400001928E-02 0. -1.
    10030    2    1    2    0    0  0.00000000000E+00  0.00000000000E+00  0.96485645441E+03  0.30596777034E+04  0.29035632714E+04 0.  0.
        2    1    3    3  502    0 -0.13471731496E+04  0.42559448850E+03  0.83455617848E+03  0.16408809155E+04  0.25500000920E-02 0.  1.
       -2    1    3    3    0  502  0.13471731496E+04 -0.42559448850E+03  0.13030027593E+03  0.14187967880E+04  0.25500000920E-02 0. -1.
</event>
<event>
 5   0  0.4115143E-06  0.2900655E+04  0.7818609E-02  0.8272683E-01
        2   -1    0    0  501    0  0.00000000000E+00  0.00000000000E+00  0.16658828961E+04  0.16658828961E+04  0.25500000920E-02 0. -1.
       -2   -1    0    0    0  501  0.00000000000E+00  0.00000000000E+00 -0.12626634874E+04  0.12626634874E+04  0.25500000920E-02 0.  1.
    10030    2    1    2    0    0  0.00000000000E+00  0.00000000000E+00  0.40321940864E+03  0.29285463835E+04  0.29006547587E+04 0.  0.
        1    1    3    3  502    0 -0.12495797435E+04 -0.56269434209E+03  0.68091141933E+03  0.15302662575E+04  0.50400001928E-02 0.  1.
       -1    1    3    3    0  502  0.12495797435E+04  0.56269434209E+03 -0.27769201069E+03  0.13982801260E+04  0.50400001928E-02 0. -1.
</event>
<event>
 5   0  0.1511126E-06  0.2846811E+04  0.7818609E-02  0.8288881E-01
        1   -1    0    0  501    0  0.00000000000E+00  0.00000000000E+00  0.14546460318E+04  0.14546460318E+04  0.50400001928E-02 0. -1.
       -1   -1    0    0    0  501  0.00000000000E+00  0.00000000000E+00 -0.13928357808E+04  0.13928357808E+04  0.50400001928E-02 0.  1.
    10030    2    1    2    0    0  0.00000000000E+00  0.00000000000E+00  0.61810251005E+02  0.28474818125E+04  0.28468108763E+04 0.  0.
        5    1    3    3  502    0 -0.19059022394E+03 -0.12781007338E+04  0.62786638711E+03  0.14366991367E+04  0.46999998093E+01 0. -1.
       -5    1    3    3    0  502  0.19059022394E+03  0.12781007338E+04 -0.56605613610E+03  0.14107826759E+04  0.46999998093E+01 0.  1.
</event>
<event>
 5   0  0.1550278E-06  0.2890874E+04  0.7818609E-02  0.8275598E-01
        1   -1    0    0  501    0  0.00000000000E+00  0.00000000000E+00  0.20758685151E+04  0.20758685151E+04  0.50400001928E-02 0.  1.
       -1   -1    0    0    0  501  0.00000000000E+00  0.00000000000E+00 -0.10064643305E+04  0.10064643305E+04  0.50400001928E-02 0. -1.
    10030    2    1    2    0    0  0.00000000000E+00  0.00000000000E+00  0.10694041846E+04  0.30823328456E+04  0.28908736501E+04 0.  0.
        2    1    3    3  502    0  0.48651904152E+03 -0.44802270837E+03 -0.83566641458E+03  0.10657220470E+04  0.25500000920E-02 0. -1.
       -2    1    3    3    0  502 -0.48651904152E+03  0.44802270837E+03  0.19050705992E+04  0.20166107986E+04  0.25500000920E-02 0.  1.
</event>
<event>
 5   0  0.1602873E-06  0.2907455E+04  0.7818609E-02  0.8270663E-01
       -1   -1    0    0    0  501  0.00000000000E+00  0.00000000000E+00  0.84361714800E+03  0.84361714802E+03  0.50400001928E-02 0. -1.
        1   -1    0    0  501    0  0.00000000000E+00  0.00000000000E+00 -0.25050740506E+04  0.25050740506E+04  0.50400001928E-02 0.  1.
    10030    2    1    2    0    0  0.00000000000E+00  0.00000000000E+00 -0.16614569026E+04  0.33486911986E+04  0.29074548499E+04 0.  0.
        1    1    3    3  502    0 -0.40759184734E+03 -0.12742090802E+04 -0.14859004486E+04  0.19994099223E+04  0.50400001928E-02 0.  1.
       -1    1    3    3    0  502  0.40759184734E+03  0.12742090802E+04 -0.17555645395E+03  0.13492812763E+04  0.50400001928E-02 0. -1.
</event>
<event>
 5   0  0.4148677E-06  0.2892855E+04  0.7818609E-02  0.8275006E-01
        2   -1    0    0  501    0  0.00000000000E+00  0.00000000000E+00  0.25696418828E+04  0.25696418828E+04  0.25500000920E-02 0. -1.
       -2   -1    0    0    0  501  0.00000000000E+00  0.00000000000E+00 -0.81418063975E+03  0.81418063976E+03  0.25500000920E-02 0.  1.
    10030    2    1    2    0    0  0.00000000000E+00  0.00000000000E+00  0.17554612430E+04  0.33838225225E+04  0.28928551101E+04 0.  0.
        5    1    3    3  502    0  0.10375091592E+04 -0.53265227564E+02 -0.29948861485E+03  0.10811928414E+04  0.46999998093E+01 0.  1.
       -5    1    3    3    0  502 -0.10375091592E+04  0.53265227564E+02  0.20549498579E+04  0.23026296811E+04  0.46999998093E+01 0. -1.
</event>
<event>
 5   0  0.4148677E-06  0.2864227E+04  0.7818609E-02  0.8283601E-01
       -2   -1    0    0    0  501  0.00000000000E+00  0.00000000000E+00  0.79135679258E+03  0.79135679259E+03  0.25500000920E-02 0.  1.
        2   -1    0    0  501    0  0.00000000000E+00  0.00000000000E+00 -0.25916874620E+04  0.25916874620E+04  0.25500000920E-02 0. -1.
    10030    2    1    2    0    0  0.00000000000E+00  0.00000000000E+00 -0.18003306695E+04  0.33830442546E+04  0.28642272796E+04 0.  0.
        5    1    3    3  502    0  0.13902118531E+04  0.17322809239E+03 -0.12510055529E+04  0.18782262782E+04  0.46999998093E+01 0. -1.
       -5    1    3    3    0  502 -0.13902118531E+04 -0.17322809239E+03 -0.54932511654E+03  0.15048179765E+04  0.46999998093E+01 0.  1.
</event>
<event>
 5   0  0.4224163E-06  0.2841071E+04  0.7818609E-02  0.8290630E-01
        2   -1    0    0  501    0  0.00000000000E+00  0.00000000000E+00  0.13839885786E+04  0.13839885786E+04  0.25500000920E-02 0. -1.
       -2   -1    0    0    0  501  0.00000000000E+00  0.00000000000E+00 -0.14580476306E+04  0.14580476306E+04  0.25500000920E-02 0.  1.
    10030    2    1    2    0    0  0.00000000000E+00  0.00000000000E+00 -0.74059051977E+02  0.28420362092E+04  0.28410711133E+04 0.  0.
        4    1    3    3  502    0  0.98235389216E+03 -0.12174701631E+03 -0.10562368296E+04  0.14475770648E+04  0.12699999809E+01 0.  1.
       -4    1    3    3    0  502 -0.98235389216E+03  0.12174701631E+03  0.98217777765E+03  0.13944591443E+04  0.12699999809E+01 0. -1.
</event>
<event>
 5   0  0.1511126E-06  0.2803917E+04  0.7818609E-02  0.8302053E-01
       -1   -1    0    0    0  501  0.00000000000E+00  0.00000000000E+00  0.14658260718E+04  0.14658260718E+04  0.50400001928E-02 0. -1.
        1   -1    0    0  501    0  0.00000000000E+00  0.00000000000E+00 -0.13408736564E+04  0.13408736564E+04  0.50400001928E-02 0.  1.
    10030    2    1    2    0    0  0.00000000000E+00  0.00000000000E+00  0.12495241540E+03  0.28066997283E+04  0.28039169493E+04 0.  0.
        5    1    3    3  502    0 -0.31342835609E+02 -0.54120724184E+02 -0.13394686962E+04  0.13409362044E+04  0.46999998093E+01 0.  1.
       -5    1    3    3    0  502  0.31342835609E+02  0.54120724184E+02  0.14644211116E+04  0.14657635239E+04  0.46999998093E+01 0. -1.
</event>
<event>
 5   0  0.4162450E-06  0.2896227E+04  0.7818609E-02  0.8274001E-01
        2   -1    0    0  501    0  0.00000000000E+00  0.00000000000E+00  0.25284803926E+04  0.25284803926E+04  0.25500000920E-02 0. -1.
       -2   -1    0    0    0  501  0.00000000000E+00  0.00000000000E+00 -0.82936492282E+03  0.82936492282E+03  0.25500000920E-02 0.  1.
    10030    2    1    2    0    0  0.00000000000E+00  0.00000000000E+00  0.16991154698E+04  0.33578453154E+04  0.28962271635E+04 0.  0.
        2    1    3    3  502    0 -0.46963400987E+03 -0.98362087824E+03  0.19549134887E+04  0.22382477262E+04  0.25500000920E-02 0.  1.
       -2    1    3    3    0  502  0.46963400987E+03  0.98362087824E+03 -0.25579801895E+03  0.11195975892E+04  0.25500000920E-02 0. -1.
</event>
<event>
 5   0  0.1550278E-06  0.2900425E+04  0.7818609E-02  0.8272751E-01
        1   -1    0    0  501    0  0.00000000000E+00  0.00000000000E+00  0.19077462604E+04  0.19077462604E+04  0.50400001928E-02 0. -1.
       -1   -1    0    0    0  501  0.00000000000E+00  0.00000000000E+00 -0.11024089399E+04  0.11024089399E+04  0.50400001928E-02 0.  1.
    10030    2    1    2    0    0  0.00000000000E+00  0.00000000000E+00  0.80533732050E+03  0.30101552004E+04  0.29004251638E+04 0.  0.
        2    1    3    3  502    0 -0.73232001476E+03  0.12106672634E+04  0.73267440464E+03  0.15933673807E+04  0.25500000920E-02 0.  1.
       -2    1    3    3    0  502  0.73232001476E+03 -0.12106672634E+04  0.72662915857E+02  0.14167878197E+04  0.25500000920E-02 0. -1.
</event>
<event>
 5   0  0.4162450E-06  0.2908869E+04  0.7818609E-02  0.8270244E-01
       -2   -1    0    0    0  501  0.00000000000E+00  0.00000000000E+00  0.12667880808E+04  0.12667880808E+04  0.25500000920E-02 0. -1.
        2   -1    0    0  501    0  0.00000000000E+00  0.00000000000E+00 -0.16698768105E+04  0.16698768105E+04  0.25500000920E-02 0.  1.
    10030    2    1    2    0    0  0.00000000000E+00  0.00000000000E+00 -0.40308872979E+03  0.29366648913E+04  0.29088692236E+04 0.  0.
        2    1    3    3  502    0  0.10677951228E+04  0.59834798867E+03  0.59156624398E+03  0.13594695145E+04  0.25500000920E-02 0. -1.
       -2    1    3    3    0  502 -0.10677951228E+04 -0.59834798867E+03 -0.99465497377E+03  0.15771953768E+04  0.25500000920E-02 0.  1.
</event>
<event>
 5   0  0.1511126E-06  0.3013209E+04  0.7818609E-02  0.8239969E-01
        1   -1    0    0  501    0  0.00000000000E+00  0.00000000000E+00  0.24145198233E+04  0.24145198233E+04  0.50400001928E-02 0.  1.
       -1   -1    0    0    0  501  0.00000000000E+00  0.00000000000E+00 -0.94008616363E+03  0.94008616364E+03  0.50400001928E-02 0. -1.
    10030    2    1    2    0    0  0.00000000000E+00  0.00000000000E+00  0.14744336597E+04  0.33546059870E+04  0.30132087068E+04 0.  0.
        5    1    3    3  502    0  0.43404822937E+03  0.10088445912E+04  0.18854117446E+04  0.21819635220E+04  0.46999998093E+01 0.  1.
       -5    1    3    3    0  502 -0.43404822937E+03 -0.10088445912E+04 -0.41097808488E+03  0.11726424650E+04  0.46999998093E+01 0. -1.
</event>
<event>
 5   0  0.4224163E-06  0.2902141E+04  0.7818609E-02  0.8272241E-01
       -2   -1    0    0    0  501  0.00000000000E+00  0.00000000000E+00  0.14366521755E+04  0.14366521755E+04  0.25500000920E-02 0.  1.
        2   -1    0    0  501    0  0.00000000000E+00  0.00000000000E+00 -0.14656333930E+04  0.14656333930E+04  0.25500000920E-02 0. -1.
    10030    2    1    2    0    0  0.00000000000E+00  0.00000000000E+00 -0.28981217465E+02  0.29022855685E+04  0.29021408667E+04 0.  0.
        4    1    3    3  502    0 -0.18185662906E+03 -0.11470076168E+04  0.85555592112E+03  0.14424548012E+04  0.12699999809E+01 0.  1.
       -4    1    3    3    0  502  0.18185662906E+03  0.11470076168E+04 -0.88453713859E+03  0.14598307672E+04  0.12699999809E+01 0. -1.
</event>
<event>
 5   0  0.1602873E-06  0.2903700E+04  0.7818609E-02  0.8271777E-01
       -1   -1    0    0    0  501  0.00000000000E+00  0.00000000000E+00  0.13000221176E+04  0.13000221176E+04  0.50400001928E-02 0. -1.
        1   -1    0    0  501    0  0.00000000000E+00  0.00000000000E+00 -0.16214098841E+04  0.16214098841E+04  0.50400001928E-02 0.  1.
    10030    2    1    2    0    0  0.00000000000E+00  0.00000000000E+00 -0.32138776654E+03  0.29214320017E+04  0.29037001987E+04 0.  0.
        1    1    3    3  502    0 -0.40412915238E+03 -0.84068848253E+03  0.95866076197E+03  0.13375754009E+04  0.50400001928E-02 0. -1.
       -1    1    3    3    0  502  0.40412915238E+03  0.84068848253E+03 -0.12800485285E+04  0.15838566008E+04  0.50400001928E-02 0.  1.
</event>
<event>
 5   0  0.1511126E-06  0.2897665E+04  0.7818609E-02  0.8273572E-01
       -1   -1    0    0    0  501  0.00000000000E+00  0.00000000000E+00  0.76741864245E+03  0.76741864247E+03  0.50400001928E-02 0. -1.
        1   -1    0    0  501    0  0.00000000000E+00  0.00000000000E+00 -0.27352944830E+04  0.27352944830E+04  0.50400001928E-02 0.  1.
    10030    2    1    2    0    0  0.00000000000E+00  0.00000000000E+00 -0.19678758405E+04  0.35027131255E+04  0.28976652525E+04 0.  0.
        5    1    3    3  502    0  0.89613517576E+03  0.11187695873E+04 -0.12386210238E+04  0.18944412826E+04  0.46999998093E+01 0.  1.
       -5    1    3    3    0  502 -0.89613517576E+03 -0.11187695873E+04 -0.72925481675E+03  0.16082718428E+04  0.46999998093E+01 0. -1.
</event>
<event>
 5   0  0.1602873E-06  0.2913116E+04  0.7818609E-02  0.8268986E-01
       -1   -1    0    0    0  501  0.00000000000E+00  0.00000000000E+00  0.16002217189E+04  0.16002217189E+04  0.50400001928E-02 0. -1.
        1   -1    0    0  501    0  0.00000000000E+00  0.00000000000E+00 -0.13257918454E+04  0.13257918454E+04  0.50400001928E-02 0.  1.
    10030    2    1    2    0    0  0.00000000000E+00  0.00000000000E+00  0.27442987355E+03  0.29260135644E+04  0.29131157930E+04 0.  0.
        1    1    3    3  502    0  0.73712706805E+03  0.14234076913E+03 -0.11164874904E+04  0.13454224337E+04  0.50400001928E-02 0.  1.
       -1    1    3    3    0  502 -0.73712706805E+03 -0.14234076913E+03  0.13909173639E+04  0.15805911306E+04  0.50400001928E-02 0. -1.
</event>
<event>
 5   0  0.4162450E-06  0.3165809E+04  0.7818609E-02  0.8197906E-01
       -2   -1    0    0    0  501  0.00000000000E+00  0.00000000000E+00  0.21068975472E+04  0.21068975472E+04  0.25500000920E-02 0. -1.
        2   -1    0    0  501    0  0.00000000000E+00  0.00000000000E+00 -0.11892300947E+04  0.11892300947E+04  0.25500000920E-02 0.  1.
    10030    2    1    2    0    0  0.00000000000E+00  0.00000000000E+00  0.91766745252E+03  0.32961276418E+04  0.31658085662E+04 0.  0.
        2    1    3    3  502    0  0.91740452576E+03 -0.12088916781E+04  0.92739920441E+03  0.17785160774E+04  0.25500000920E-02 0. -1.
       -2    1    3    3    0  502 -0.91740452576E+03  0.12088916781E+04 -0.97317518966E+01  0.15176115644E+04  0.25500000920E-02 0.  1.
</event>
<event>
 5   0  0.4187518E-06  0.2902506E+04  0.7818609E-02  0.8272132E-01
       -2   -1    0    0    0  501  0.00000000000E+00  0.00000000000E+00  0.88999926262E+03  0.88999926262E+03  0.25500000920E-02 0.  1.
        2   -1    0    0  501    0  0.00000000000E+00  0.00000000000E+00 -0.23664468225E+04  0.23664468225E+04  0.25500000920E-02 0. -1.
    10030    2    1    2    0    0  0.00000000000E+00  0.00000000000E+00 -0.14764475599E+04  0.32564460851E+04  0.29025064528E+04 0.  0.
        3    1    3    3  502    0 -0.11914540282E+04  0.39241504474E+03 -0.15569988530E+04  0.19994493510E+04  0.10100000352E+00 0. -1.
       -3    1    3    3    0  502  0.11914540282E+04 -0.39241504474E+03  0.80551293130E+02  0.12569967341E+04  0.10100000352E+00 0.  1.
</event>
<event>
 5   0  0.1511126E-06  0.2908577E+04  0.7818609E-02  0.8270330E-01
        1   -1    0    0  501    0  0.00000000000E+00  0.00000000000E+00  0.16778565439E+04  0.16778565439E+04  0.50400001928E-02 0.  1.
       -1   -1    0    0    0  501  0.00000000000E+00  0.00000000000E+00 -0.12605100835E+04  0.12605100835E+04  0.50400001928E-02 0. -1.
    10030    2    1    2    0    0  0.00000000000E+00  0.00000000000E+00  0.41734646040E+03  0.29383666274E+04  0.29085770351E+04 0.  0.
        5    1    3    3  502    0  0.74161985165E+03 -0.12505610915E+04  0.24109482437E+03  0.14737882658E+04  0.46999998093E+01 0. -1.
       -5    1    3    3    0  502 -0.74161985165E+03  0.12505610915E+04  0.17625163604E+03  0.14645783616E+04  0.46999998093E+01 0.  1.
</event>
<event>
 5   0  0.4148677E-06  0.2858130E+04  0.7818609E-02  0.8285445E-01
       -2   -1    0    0    0  501  0.00000000000E+00  0.00000000000E+00  0.11961185004E+04  0.11961185004E+04  0.25500000920E-02 0.  1.
        2   -1    0    0  501    0  0.00000000000E+00  0.00000000000E+00 -0.17073783466E+04  0.17073783466E+04  0.25500000920E-02 0. -1.
    10030    2    1    2    0    0  0.00000000000E+00  0.00000000000E+00 -0.51125984615E+03  0.29034968470E+04  0.28581300374E+04 0.  0.
        5    1    3    3  502    0  0.28231215974E+03 -0.13997291871E+04 -0.19760245868E+03  0.14415307053E+04  0.46999998093E+01 0. -1.
       -5    1    3    3    0  502 -0.28231215974E+03  0.13997291871E+04 -0.31365738747E+03  0.14619661417E+04  0.46999998093E+01 0.  1.
</event>
<event>
 5   0  0.4148677E-06  0.2892525E+04  0.7818609E-02  0.8275105E-01
        2   -1    0    0  501    0  0.00000000000E+00  0.00000000000E+00  0.14310046221E+04  0.14310046221E+04  0.25500000920E-02 0. -1.
       -2   -1    0    0    0  501  0.00000000000E+00  0.00000000000E+00 -0.14616826231E+04  0.14616826231E+04  0.25500000920E-02 0.  1.
    10030    2    1    2    0    0  0.00000000000E+00  0.00000000000E+00 -0.30678000957E+02  0.28926872452E+04  0.28925245650E+04 0.  0.
        5    1    3    3  502    0 -0.99722044530E+03  0.77750373634E+03 -0.71729857505E+03  0.14537881594E+04  0.46999998093E+01 0.  1.
       -5    1    3    3    0  502  0.99722044530E+03 -0.77750373634E+03  0.68662057410E+03  0.14388990859E+04  0.46999998093E+01 0. -1.
</event>
<event>
 5   0  0.4148677E-06  0.2899009E+04  0.7818609E-02  0.8273172E-01
       -2   -1    0    0    0  501  0.00000000000E+00  0.00000000000E+00  0.12293756380E+04  0.12293756380E+04  0.25500000920E-02 0. -1.
        2   -1    0    0  501    0  0.00000000000E+00  0.00000000000E+00 -0.17090489310E+04  0.17090489310E+04  0.25500000920E-02 0.  1.
    10030    2    1    2    0    0  0.00000000000E+00  0.00000000000E+00 -0.47967329294E+03  0.29384245690E+04  0.28990088789E+04 0.  0.
        5    1    3    3  502    0  0.23737752360E+03  0.95525375987E+03  0.83867131011E+03  0.12931548596E+04  0.46999998093E+01 0. -1.
       -5    1    3    3    0  502 -0.23737752360E+03 -0.95525375987E+03 -0.13183446030E+04  0.16452697095E+04  0.46999998093E+01 0.  1.
</event>
<event>
 5   0  0.1602873E-06  0.2942736E+04  0.7818609E-02  0.8260275E-01
       -1   -1    0    0    0  501  0.00000000000E+00  0.00000000000E+00  0.14304730550E+04  0.14304730550E+04  0.50400001928E-02 0.  1.
        1   -1    0    0  501    0  0.00000000000E+00  0.00000000000E+00 -0.15134323463E+04  0.15134323463E+04  0.50400001928E-02 0. -1.
    10030    2    1    2    0    0  0.00000000000E+00  0.00000000000E+00 -0.82959291323E+02  0.29439054014E+04  0.29427362723E+04 0.  0.
        1    1    3    3  502    0  0.40296659425E+03  0.50794874704E+03  0.12798517441E+04  0.14347175655E+04  0.50400001928E-02 0.  1.
       -1    1    3    3    0  502 -0.40296659425E+03 -0.50794874704E+03 -0.13628110354E+04  0.15091878359E+04  0.50400001928E-02 0. -1.
</event>
<event>
 5   0  0.4224163E-06  0.2877754E+04  0.7818609E-02  0.8279527E-01
        2   -1    0    0  501    0  0.00000000000E+00  0.00000000000E+00  0.26715297434E+04  0.26715297434E+04  0.25500000920E-02 0. -1.
       -2   -1    0    0    0  501  0.00000000000E+00  0.00000000000E+00 -0.77497414144E+03  0.77497414144E+03  0.25500000920E-02 0.  1.
    10030    2    1    2    0    0  0.00000000000E+00  0.00000000000E+00  0.18965556020E+04  0.34465038848E+04  0.28777536164E+04 0.  0.
        4    1    3    3  502    0 -0.12960699692E+04  0.30846550048E+03  0.15992201959E+04  0.20814550627E+04  0.12699999809E+01 0. -1.
       -4    1    3    3    0  502  0.12960699692E+04 -0.30846550048E+03  0.29733540602E+03  0.13650488221E+04  0.12699999809E+01 0.  1.
</event>
<event>
 5   0  0.1602873E-06  0.2896825E+04  0.7818609E-02  0.8273823E-01
       -1   -1    0    0    0  501  0.00000000000E+00  0.00000000000E+00  0.10449605793E+04  0.10449605793E+04  0.50400001928E-02 0. -1.
        1   -1    0    0  501    0  0.00000000000E+00  0.00000000000E+00 -0.20076342996E+04  0.20076342996E+04  0.50400001928E-02 0.  1.
    10030    2    1    2    0    0  0.00000000000E+00  0.00000000000E+00 -0.96267372032E+03  0.30525948789E+04  0.28968249520E+04 0.  0.
        1    1    3    3  502    0  0.28681979918E+03 -0.10830423793E+04  0.48598527543E+03  0.12212403860E+04  0.50400001928E-02 0. -1.
       -1    1    3    3    0  502 -0.28681979918E+03  0.10830423793E+04 -0.14486589957E+04  0.18313544928E+04  0.50400001928E-02 0.  1.
</event>
<event>
 5   0  0.1543678E-06  0.2940225E+04  0.7818609E-02  0.8261009E-01
       -1   -1    0    0    0  501  0.00000000000E+00  0.00000000000E+00  0.12656335587E+04  0.12656335587E+04  0.50400001928E-02 0. -1.
        1   -1    0    0  501    0  0.00000000000E+00  0.00000000000E+00 -0.17076271084E+04  0.17076271084E+04  0.50400001928E-02 0.  1.
    10030    2    1    2    0    0  0.00000000000E+00  0.00000000000E+00 -0.44199354977E+03  0.29732606671E+04  0.29402245997E+04 0.  0.
        3    1    3    3  502    0 -0.98376554574E+03  0.70054876502E+03 -0.10686676080E+04  0.16126418349E+04  0.10100000352E+00 0. -1.
       -3    1    3    3    0  502  0.98376554574E+03 -0.70054876502E+03  0.62667405820E+03  0.13606188322E+04  0.10100000352E+00 0.  1.
</event>
<event>
 5   0  0.1580212E-06  0.2901140E+04  0.7818609E-02  0.8272538E-01
        1   -1    0    0  501    0  0.00000000000E+00  0.00000000000E+00  0.22822627524E+04  0.22822627524E+04  0.50400001928E-02 0. -1.
       -1   -1    0    0    0  501  0.00000000000E+00  0.00000000000E+00 -0.92195918428E+03  0.92195918429E+03  0.50400001928E-02 0.  1.
    10030    2    1    2    0    0  0.00000000000E+00  0.00000000000E+00  0.13603035681E+04  0.32042219367E+04  0.29011398488E+04 0.  0.
        4    1    3    3  502    0 -0.11875370512E+02  0.60813437322E+03 -0.77430691609E+03  0.98464270348E+03  0.12699999809E+01 0.  1.
       -4    1    3    3    0  502  0.11875370512E+02 -0.60813437322E+03  0.21346104842E+04  0.22195792332E+04  0.12699999809E+01 0. -1.
</event>
<event>
 5   0  0.4224163E-06  0.2862006E+04  0.7818609E-02  0.8284273E-01
       -2   -1    0    0    0  501  0.00000000000E+00  0.00000000000E+00  0.13978997557E+04  0.13978997557E+04  0.25500000920E-02 0.  1.
        2   -1    0    0  501    0  0.00000000000E+00  0.00000000000E+00 -0.14648896488E+04  0.14648896488E+04  0.25500000920E-02 0. -1.
    10030    2    1    2    0    0  0.00000000000E+00  0.00000000000E+00 -0.66989893169E+02  0.28627894045E+04  0.28620055082E+04 0.  0.
        4    1    3    3  502    0  0.83100302143E+03  0.11452720089E+04 -0.24698553328E+03  0.14363904283E+04  0.12699999809E+01 0. -1.
       -4    1    3    3    0  502 -0.83100302143E+03 -0.11452720089E+04  0.17999564011E+03  0.14263989762E+04  0.12699999809E+01 0.  1.
</event>
<event>
 5   0  0.1580212E-06  0.2888150E+04  0.7818609E-02  0.8276412E-01
       -1   -1    0    0    0  501  0.00000000000E+00  0.00000000000E+00  0.17233915832E+04  0.17233915832E+04  0.50400001928E-02 0.  1.
        1   -1    0    0  501    0  0.00000000000E+00  0.00000000000E+00 -0.12100279246E+04  0.12100279246E+04  0.50400001928E-02 0. -1.
    10030    2    1    2    0    0  0.00000000000E+00  0.00000000000E+00  0.51336365868E+03  0.29334195078E+04  0.28881495395E+04 0.  0.
        4    1    3    3  502    0 -0.21226701185E+03 -0.14274820440E+04  0.30835218676E+03  0.14757523350E+04  0.12699999809E+01 0. -1.
       -4    1    3    3    0  502  0.21226701185E+03  0.14274820440E+04  0.20501147192E+03  0.14576671728E+04  0.12699999809E+01 0.  1.
</event>
<event>
 5   0  0.1543678E-06  0.2896644E+04  0.7818609E-02  0.8273877E-01
       -1   -1    0    0    0  501  0.00000000000E+00  0.00000000000E+00  0.91164347263E+03  0.91164347264E+03  0.50400001928E-02 0.  1.
        1   -1    0    0  501    0  0.00000000000E+00  0.00000000000E+00 -0.23009402620E+04  0.23009402620E+04  0.50400001928E-02 0. -1.
    10030    2    1    2    0    0  0.00000000000E+00  0.00000000000E+00 -0.13892967894E+04  0.32125837347E+04  0.28966443833E+04 0.  0.
        3    1    3    3  502    0  0.33124412587E+03 -0.87215428995E+03 -0.19232973341E+04  0.21376268200E+04  0.10100000352E+00 0. -1.
       -3    1    3    3    0  502 -0.33124412587E+03  0.87215428995E+03  0.53400054466E+03  0.10749569146E+04  0.10100000352E+00 0.  1.
</event>
<event>
 5   0  0.4115143E-06  0.2870115E+04  0.7818609E-02  0.8281825E-01
       -2   -1    0    0    0  501  0.00000000000E+00  0.00000000000E+00  0.15896203318E+04  0.15896203318E+04  0.25500000920E-02 0. -1.
        2   -1    0    0  501    0  0.00000000000E+00  0.00000000000E+00 -0.12955231987E+04  0.12955231987E+04  0.25500000920E-02 0.  1.
    10030    2    1    2    0    0  0.00000000000E+00  0.00000000000E+00  0.29409713313E+03  0.28851435305E+04  0.28701149921E+04 0.  0.
        1    1    3    3  502    0 -0.95059610707E+03  0.36493945030E+03 -0.86947155149E+03  0.13389527774E+04  0.50400001928E-02 0.  1.
       -1    1    3    3    0  502  0.95059610707E+03 -0.36493945030E+03  0.11635686846E+04  0.15461907531E+04  0.50400001928E-02 0. -1.
</event>
<event>
 5   0  0.4148677E-06  0.2879100E+04  0.7818609E-02  0.8279123E-01
       -2   -1    0    0    0  501  0.00000000000E+00  0.00000000000E+00  0.95364535764E+03  0.95364535764E+03  0.25500000920E-02 0. -1.
        2   -1    0    0  501    0  0.00000000000E+00  0.00000000000E+00 -0.21730339941E+04  0.21730339941E+04  0.25500000920E-02 0.  1.
    10030    2    1    2    0    0  0.00000000000E+00  0.00000000000E+00 -0.12193886364E+04  0.31266793517E+04  0.28790997068E+04 0.  0.
        5    1    3    3  502    0 -0.94167351551E+03  0.82982869314E+03 -0.13752355325E+04  0.18618967559E+04  0.46999998093E+01 0.  1.
       -5    1    3    3    0  502  0.94167351551E+03 -0.82982869314E+03  0.15584689603E+03  0.12647825959E+04  0.46999998093E+01 0. -1.
</event>
<event>
 5   0  0.1580212E-06  0.2837674E+04  0.7818609E-02  0.8291667E-01
       -1   -1    0    0    0  501  0.00000000000E+00  0.00000000000E+00  0.11661889518E+04  0.11661889518E+04  0.50400001928E-02 0.  1.
        1   -1    0    0  501    0  0.00000000000E+00  0.00000000000E+00 -0.17262199965E+04  0.17262199965E+04  0.50400001928E-02 0. -1.
    10030    2    1    2    0    0  0.00000000000E+00  0.00000000000E+00 -0.56003104467E+03  0.28924089483E+04  0.28376741803E+04 0.  0.
        4    1    3    3  502    0 -0.36860214863E+03 -0.87390240022E+03  0.79557504137E+03  0.12379475790E+04  0.12699999809E+01 0.  1.
       -4    1    3    3    0  502  0.36860214863E+03  0.87390240022E+03 -0.13556060860E+04  0.16544613693E+04  0.12699999809E+01 0. -1.
</event>
<event>
 5   0  0.4224163E-06  0.2872931E+04  0.7818609E-02  0.8280977E-01
       -2   -1    0    0    0  501  0.00000000000E+00  0.00000000000E+00  0.98689466359E+03  0.98689466359E+03  0.25500000920E-02 0.  1.
        2   -1    0    0  501    0  0.00000000000E+00  0.00000000000E+00 -0.20908337218E+04  0.20908337218E+04  0.25500000920E-02 0. -1.
    10030    2    1    2    0    0  0.00000000000E+00  0.00000000000E+00 -0.11039390582E+04  0.30777283854E+04  0.28729306587E+04 0.  0.
        4    1    3    3  502    0  0.24171457485E+03 -0.13868428599E+04 -0.24581430288E+03  0.14290505023E+04  0.12699999809E+01 0.  1.
       -4    1    3    3    0  502 -0.24171457485E+03  0.13868428599E+04 -0.85812475529E+03  0.16486778831E+04  0.12699999809E+01 0. -1.
</event>
<event>
 5   0  0.4162450E-06  0.2920068E+04  0.7818609E-02  0.8266932E-01
       -2   -1    0    0    0  501  0.00000000000E+00  0.00000000000E+00  0.10846390768E+04  0.10846390768E+04  0.25500000920E-02 0.  1.
        2   -1    0    0  501    0  0.00000000000E+00  0.00000000000E+00 -0.19653534078E+04  0.19653534078E+04  0.25500000920E-02 0. -1.
    10030    2    1    2    0    0  0.00000000000E+00  0.00000000000E+00 -0.88071433100E+03  0.30499924845E+04  0.29200678798E+04 0.  0.
        2    1    3    3  502    0  0.12034296490E+04 -0.42306501804E+03  0.30150706376E+03  0.13107758920E+04  0.25500000920E-02 0.  1.
       -2    1    3    3    0  502 -0.12034296490E+04  0.42306501804E+03 -0.11822213948E+04  0.17392165925E+04  0.25500000920E-02 0. -1.
</event>
<event>
 5   0  0.1602873E-06  0.2938663E+04  0.7818609E-02  0.8261466E-01
        1   -1    0    0  501    0  0.00000000000E+00  0.00000000000E+00  0.10997318734E+04  0.10997318734E+04  0.50400001928E-02 0.  1.
       -1   -1    0    0    0  501  0.00000000000E+00  0.00000000000E+00 -0.19631466044E+04  0.19631466044E+04  0.50400001928E-02 0. -1.
    10030    2    1    2    0    0  0.00000000000E+00  0.00000000000E+00 -0.86341473103E+03  0.30628784778E+04  0.29386628885E+04 0.  0.
        1    1    3    3  502    0  0.56721548051E+03 -0.89190611467E+03 -0.14954887024E+04  0.18313154774E+04  0.50400001928E-02 0. -1.
       -1    1    3    3    0  502 -0.56721548051E+03  0.89190611467E+03  0.63207397137E+03  0.12315630004E+04  0.50400001928E-02 0.  1.
</event>
<event>
 5   0  0.4162450E-06  0.2882918E+04  0.7818609E-02  0.8277978E-01
       -2   -1    0    0    0  501  0.00000000000E+00  0.00000000000E+00  0.81064110768E+03  0.81064110768E+03  0.25500000920E-02 0. -1.
        2   -1    0    0  501    0  0.00000000000E+00  0.00000000000E+00 -0.25631612242E+04  0.25631612242E+04  0.25500000920E-02 0.  1.
    10030    2    1    2    0    0  0.00000000000E+00  0.00000000000E+00 -0.17525201165E+04  0.33738023319E+04  0.28829178649E+04 0.  0.
        2    1    3    3  502    0 -0.69435826651E+03 -0.34646991073E+03 -0.22978553068E+04  0.24253481838E+04  0.25500000920E-02 0.  1.
       -2    1    3    3    0  502  0.69435826651E+03  0.34646991073E+03  0.54533519031E+03  0.94845414813E+03  0.25500000920E-02 0. -1.
</event>
<event>
 5   0  0.1550278E-06  0.2859347E+04  0.7818609E-02  0.8285077E-01
        1   -1    0    0  501    0  0.00000000000E+00  0.00000000000E+00  0.10192608236E+04  0.10192608236E+04  0.50400001928E-02 0.  1.
       -1   -1    0    0    0  501  0.00000000000E+00  0.00000000000E+00 -0.20053423466E+04  0.20053423466E+04  0.50400001928E-02 0. -1.
    10030    2    1    2    0    0  0.00000000000E+00  0.00000000000E+00 -0.98608152300E+03  0.30246031702E+04  0.28593474023E+04 0.  0.
        2    1    3    3  502    0 -0.28509538370E+03 -0.10004698060E+03  0.98510345494E+03  0.10303968134E+04  0.25500000920E-02 0.  1.
       -2    1    3    3    0  502  0.28509538370E+03  0.10004698060E+03 -0.19711849779E+04  0.19942063568E+04  0.25500000920E-02 0. -1.
</event>
<event>
 5   0  0.1602873E-06  0.2905275E+04  0.7818609E-02  0.8271310E-01
        1   -1    0    0  501    0  0.00000000000E+00  0.00000000000E+00  0.92594157864E+03  0.92594157865E+03  0.50400001928E-02 0. -1.
       -1   -1    0    0    0  501  0.00000000000E+00  0.00000000000E+00 -0.22789294188E+04  0.22789294188E+04  0.50400001928E-02 0.  1.
    10030    2    1    2    0    0  0.00000000000E+00  0.00000000000E+00 -0.13529878401E+04  0.32048709974E+04  0.29052748604E+04 0.  0.
        1    1    3    3  502    0 -0.42803351353E+03 -0.56105616163E+03  0.72414837234E+03  0.10111318264E+04  0.50400001928E-02 0. -1.
       -1    1    3    3    0  502  0.42803351353E+03  0.56105616163E+03 -0.20771362125E+04  0.21937391710E+04  0.50400001928E-02 0.  1.
</event>
<event>
 5   0  0.4115143E-06  0.2902454E+04  0.7818609E-02  0.8272148E-01
        2   -1    0    0  501    0  0.00000000000E+00  0.00000000000E+00  0.93938678886E+03  0.93938678886E+03  0.25500000920E-02 0. -1.
       -2   -1    0    0    0  501  0.00000000000E+00  0.00000000000E+00 -0.22419519659E+04  0.22419519659E+04  0.25500000920E-02 0.  1.
    10030    2    1    2    0    0  0.00000000000E+00  0.00000000000E+00 -0.13025651770E+04  0.31813387548E+04  0.29024541740E+04 0.  0.
        1    1    3    3  502    0  0.57512290692E+03  0.87248211974E+01  0.80911241778E+03  0.99272623880E+03  0.50400001928E-02 0. -1.
       -1    1    3    3    0  502 -0.57512290692E+03 -0.87248211974E+01 -0.21116775948E+04  0.21886125160E+04  0.50400001928E-02 0.  1.
</event>
<event>
 5   0  0.4162450E-06  0.2902341E+04  0.7818609E-02  0.8272181E-01
        2   -1    0    0  501    0  0.00000000000E+00  0.00000000000E+00  0.21226958937E+04  0.21226958937E+04  0.25500000920E-02 0.  1.
       -2   -1    0    0    0  501  0.00000000000E+00  0.00000000000E+00 -0.99208554681E+03  0.99208554681E+03  0.25500000920E-02 0. -1.
    10030    2    1    2    0    0  0.00000000000E+00  0.00000000000E+00  0.11306103469E+04  0.31147814405E+04  0.29023410664E+04 0.  0.
        2    1    3    3  502    0  0.90619459699E+03 -0.62277379248E+03  0.15816509255E+04  0.19263061788E+04  0.25500000920E-02 0.  1.
       -2    1    3    3    0  502 -0.90619459699E+03  0.62277379248E+03 -0.45104057861E+03  0.11884752617E+04  0.25500000920E-02 0. -1.
</event>
<event>
 5   0  0.1602873E-06  0.2915002E+04  0.7818609E-02  0.8268428E-01
       -1   -1    0    0    0  501  0.00000000000E+00  0.00000000000E+00  0.11390010078E+04  0.11390010078E+04  0.50400001928E-02 0.  1.
        1   -1    0    0  501    0  0.00000000000E+00  0.00000000000E+00 -0.18650636435E+04  0.18650636435E+04  0.50400001928E-02 0. -1.
    10030    2    1    2    0    0  0.00000000000E+00  0.00000000000E+00 -0.72606263568E+03  0.30040646513E+04  0.29150021403E+04 0.  0.
        1    1    3    3  502    0  0.23885331789E+03 -0.13610534775E+04  0.11458520248E+03  0.13865955592E+04  0.50400001928E-02 0. -1.
       -1    1    3    3    0  502 -0.23885331789E+03  0.13610534775E+04 -0.84064783816E+03  0.16174690921E+04  0.50400001928E-02 0.  1.
</event>
<event>
 5   0  0.1550278E-06  0.2894829E+04  0.7818609E-02  0.8274418E-01
        1   -1    0    0  501    0  0.00000000000E+00  0.00000000000E+00  0.24905320921E+04  0.24905320921E+04  0.50400001928E-02 0. -1.
       -1   -1    0    0    0  501  0.00000000000E+00  0.00000000000E+00 -0.84118893662E+03  0.84118893663E+03  0.50400001928E-02 0.  1.
    10030    2    1    2    0    0  0.00000000000E+00  0.00000000000E+00  0.16493431555E+04  0.33317210288E+04  0.28948285215E+04 0.  0.
        2    1    3    3  502    0 -0.43811975009E+03 -0.14812263036E+03 -0.75386227655E+03  0.88441933553E+03  0.25500000920E-02 0.  1.
       -2    1    3    3    0  502  0.43811975009E+03  0.14812263036E+03  0.24032054321E+04  0.24473016932E+04  0.25500000920E-02 0. -1.
</event>
<event>
 5   0  0.4115143E-06  0.2904829E+04  0.7818609E-02  0.8271442E-01
       -2   -1    0    0    0  501  0.00000000000E+00  0.00000000000E+00  0.19467931868E+04  0.19467931868E+04  0.25500000920E-02 0. -1.
        2   -1    0    0  501    0  0.00000000000E+00  0.00000000000E+00 -0.10835810045E+04  0.10835810045E+04  0.25500000920E-02 0.  1.
    10030    2    1    2    0    0  0.00000000000E+00  0.00000000000E+00  0.86321218226E+03  0.30303741914E+04  0.29048291633E+04 0.  0.
        1    1    3    3  502    0  0.20786683661E+03  0.62774187251E+03 -0.91743419506E+03  0.11309084766E+04  0.50400001928E-02 0.  1.
       -1    1    3    3    0  502 -0.20786683661E+03 -0.62774187251E+03  0.17806463773E+04  0.18994657147E+04  0.50400001928E-02 0. -1.
</event>
<event>
 5   0  0.1550278E-06  0.2900803E+04  0.7818609E-02  0.8272639E-01
        1   -1    0    0  501    0  0.00000000000E+00  0.00000000000E+00  0.32706311150E+04  0.32706311151E+04  0.50400001928E-02 0. -1.
       -1   -1    0    0    0  501  0.00000000000E+00  0.00000000000E+00 -0.64319828231E+03  0.64319828233E+03  0.50400001928E-02 0.  1.
    10030    2    1    2    0    0  0.00000000000E+00  0.00000000000E+00  0.26274328327E+04  0.39138293974E+04  0.29008028650E+04 0.  0.
        2    1    3    3  502    0  0.13124854245E+03  0.22398806007E+03 -0.61159545419E+03  0.66441390003E+03  0.25500000920E-02 0.  1.
       -2    1    3    3    0  502 -0.13124854245E+03 -0.22398806007E+03  0.32390282869E+04  0.32494154974E+04  0.25500000920E-02 0. -1.
</event>
<event>
 5   0  0.1543678E-06  0.2904519E+04  0.7818609E-02  0.8271534E-01
        1   -1    0    0  501    0  0.00000000000E+00  0.00000000000E+00  0.13756705074E+04  0.13756705074E+04  0.50400001928E-02 0. -1.
       -1   -1    0    0    0  501  0.00000000000E+00  0.00000000000E+00 -0.15331128447E+04  0.15331128447E+04  0.50400001928E-02 0.  1.
    10030    2    1    2    0    0  0.00000000000E+00  0.00000000000E+00 -0.15744233735E+03  0.29087833521E+04  0.29045193234E+04 0.  0.
        3    1    3    3  502    0 -0.78410096460E+03 -0.72483469477E+03 -0.10644722750E+04  0.15077469588E+04  0.10100000352E+00 0.  1.
       -3    1    3    3    0  502  0.78410096460E+03  0.72483469477E+03  0.90702993762E+03  0.14010363933E+04  0.10100000352E+00 0. -1.
</event>
<event>
 5   0  0.4115143E-06  0.2927839E+04  0.7818609E-02  0.8264642E-01
       -2   -1    0    0    0  501  0.00000000000E+00  0.00000000000E+00  0.16193148839E+04  0.16193148839E+04  0.25500000920E-02 0.  1.
        2   -1    0    0  501    0  0.00000000000E+00  0.00000000000E+00 -0.13234365804E+04  0.13234365804E+04  0.25500000920E-02 0. -1.
    10030    2    1    2    0    0  0.00000000000E+00  0.00000000000E+00  0.29587830356E+03  0.29427514643E+04  0.29278391708E+04 0.  0.
        1    1    3    3  502    0 -0.16618584142E+03  0.47913001400E+02  0.16090098774E+04  0.16182787693E+04  0.50400001928E-02 0.  1.
       -1    1    3    3    0  502  0.16618584142E+03 -0.47913001400E+02 -0.13131315738E+04  0.13244726950E+04  0.50400001928E-02 0. -1.
</event>
<event>
 5   0  0.4224163E-06  0.2873501E+04  0.7818609E-02  0.8280805E-01
       -2   -1    0    0    0  501  0.00000000000E+00  0.00000000000E+00  0.12708950110E+04  0.12708950110E+04  0.25500000920E-02 0.  1.
        2   -1    0    0  501    0  0.00000000000E+00  0.00000000000E+00 -0.16242511545E+04  0.16242511545E+04  0.25500000920E-02 0. -1.
    10030    2    1    2    0    0  0.00000000000E+00  0.00000000000E+00 -0.35335614351E+03  0.28951461656E+04  0.28735014801E+04 0.  0.
        4    1    3    3  502    0 -0.13948864619E+03  0.69803839672E+03 -0.14340917218E+04  0.16010419623E+04  0.12699999809E+01 0. -1.
       -4    1    3    3    0  502  0.13948864619E+03 -0.69803839672E+03  0.10807355783E+04  0.12941042032E+04  0.12699999809E+01 0.  1.
</event>
<event>
 5   0  0.4224163E-06  0.2910172E+04  0.7818609E-02  0.8269857E-01
        2   -1    0    0  501    0  0.00000000000E+00  0.00000000000E+00  0.13661672788E+04  0.13661672788E+04  0.25500000920E-02 0.  1.
       -2   -1    0    0    0  501  0.00000000000E+00  0.00000000000E+00 -0.15497922720E+04  0.15497922720E+04  0.25500000920E-02 0. -1.
    10030    2    1    2    0    0  0.00000000000E+00  0.00000000000E+00 -0.18362499317E+03  0.29159595508E+04  0.29101721536E+04 0.  0.
        4    1    3    3  502    0 -0.14362146389E+04 -0.14356944112E+03  0.92807022600E+02  0.14463538398E+04  0.12699999809E+01 0.  1.
       -4    1    3    3    0  502  0.14362146389E+04  0.14356944112E+03 -0.27643201577E+03  0.14696057110E+04  0.12699999809E+01 0. -1.
</event>
<event>
 5   0  0.4187518E-06  0.2920745E+04  0.7818609E-02  0.8266732E-01
        2   -1    0    0  501    0  0.00000000000E+00  0.00000000000E+00  0.13281316082E+04  0.13281316082E+04  0.25500000920E-02 0. -1.
       -2   -1    0    0    0  501  0.00000000000E+00  0.00000000000E+00 -0.16057810469E+04  0.16057810469E+04  0.25500000920E-02 0.  1.
    10030    2    1    2    0    0  0.00000000000E+00  0.00000000000E+00 -0.27764943876E+03  0.29339126551E+04  0.29207454968E+04 0.  0.
        3    1    3    3  502    0  0.84689433438E+03  0.83163132303E+03 -0.99345272237E+03  0.15478336451E+04  0.10100000352E+00 0.  1.
       -3    1    3    3    0  502 -0.84689433438E+03 -0.83163132303E+03  0.71580328361E+03  0.13860790100E+04  0.10100000352E+00 0. -1.
</event>
<event>
 5   0  0.1602873E-06  0.2914580E+04  0.7818609E-02  0.8268553E-01
       -1   -1    0    0    0  501  0.00000000000E+00  0.00000000000E+00  0.80004769166E+03  0.80004769167E+03  0.50400001928E-02 0.  1.
        1   -1    0    0  501    0  0.00000000000E+00  0.00000000000E+00 -0.26544598115E+04  0.26544598115E+04  0.50400001928E-02 0. -1.
    10030    2    1    2    0    0  0.00000000000E+00  0.00000000000E+00 -0.18544121199E+04  0.34545075032E+04  0.29145802064E+04 0.  0.
        1    1    3    3  502    0  0.62040178834E+03  0.13047065763E+04 -0.11537620114E+04  0.18488711173E+04  0.50400001928E-02 0. -1.
       -1    1    3    3    0  502 -0.62040178834E+03 -0.13047065763E+04 -0.70065010852E+03  0.16056363860E+04  0.50400001928E-02 0.  1.
</event>
<event>
 5   0  0.4162450E-06  0.2929012E+04  0.7818609E-02  0.8264298E-01
       -2   -1    0    0    0  501  0.00000000000E+00  0.00000000000E+00  0.14961832354E+04  0.14961832354E+04  0.25500000920E-02 0. -1.
        2   -1    0    0  501    0  0.00000000000E+00  0.00000000000E+00 -0.14334991594E+04  0.14334991594E+04  0.25500000920E-02 0.  1.
    10030    2    1    2    0    0  0.00000000000E+00  0.00000000000E+00  0.62684076058E+02  0.29296823948E+04  0.29290117175E+04 0.  0.
        2    1    3    3  502    0 -0.28553442444E+03 -0.11976400420E+04 -0.76187538221E+03  0.14478693573E+04  0.25500000920E-02 0.  1.
       -2    1    3    3    0  502  0.28553442444E+03  0.11976400420E+04  0.82455945827E+03  0.14818130375E+04  0.25500000920E-02 0. -1.
</event>
<event>
 5   0  0.4115143E-06  0.2882183E+04  0.7818609E-02  0.8278198E-01
        2   -1    0    0  501    0  0.00000000000E+00  0.00000000000E+00  0.11985255237E+04  0.11985255237E+04  0.25500000920E-02 0.  1.
       -2   -1    0    0    0  501  0.00000000000E+00  0.00000000000E+00 -0.17327492770E+04  0.17327492771E+04  0.25500000920E-02 0. -1.
    10030    2    1    2    0    0  0.00000000000E+00  0.00000000000E+00 -0.53422375333E+03  0.29312748008E+04  0.28821826693E+04 0.  0.
        1    1    3    3  502    0  0.77408580690E+03  0.79915908714E+03  0.66439269692E+03  0.12958710348E+04  0.50400001928E-02 0.  1.
       -1    1    3    3    0  502 -0.77408580690E+03 -0.79915908714E+03 -0.11986164503E+04  0.16354037660E+04  0.50400001928E-02 0. -1.
</event>
<event>
 5   0  0.1550278E-06  0.2936754E+04  0.7818609E-02  0.8262025E-01
       -1   -1    0    0    0  501  0.00000000000E+00  0.00000000000E+00  0.16123837323E+04  0.16123837323E+04  0.50400001928E-02 0.  1.
        1   -1    0    0  501    0  0.00000000000E+00  0.00000000000E+00 -0.13372319300E+04  0.13372319300E+04  0.50400001928E-02 0. -1.
    10030    2    1    2    0    0  0.00000000000E+00  0.00000000000E+00  0.27515180226E+03  0.29496156623E+04  0.29367539974E+04 0.  0.
        2    1    3    3  502    0  0.69809251080E+03  0.68770898168E+03 -0.96076455614E+03  0.13723502940E+04  0.25500000920E-02 0. -1.
       -2    1    3    3    0  502 -0.69809251080E+03 -0.68770898168E+03  0.12359163584E+04  0.15772653683E+04  0.25500000920E-02 0.  1.
</event>
<event>
 5   0  0.1550278E-06  0.3056162E+04  0.7818609E-02  0.8227873E-01
       -1   -1    0    0    0  501  0.00000000000E+00  0.00000000000E+00  0.13080860875E+04  0.13080860875E+04  0.50400001928E-02 0. -1.
        1   -1    0    0  501    0  0.00000000000E+00  0.00000000000E+00 -0.17850744984E+04  0.17850744984E+04  0.50400001928E-02 0.  1.
    10030    2    1    2    0    0  0.00000000000E+00  0.00000000000E+00 -0.47698841093E+03  0.30931605859E+04  0.30561617212E+04 0.  0.
        2    1    3    3  502    0 -0.25433840759E+03  0.10570190741E+04 -0.13252974229E+04  0.17141734473E+04  0.25500000920E-02 0.  1.
       -2    1    3    3    0  502  0.25433840759E+03 -0.10570190741E+04  0.84830901194E+03  0.13789871385E+04  0.25500000920E-02 0. -1.
</event>
<event>
 5   0  0.4115143E-06  0.2967197E+04  0.7818609E-02  0.8253160E-01
       -2   -1    0    0    0  501  0.00000000000E+00  0.00000000000E+00  0.81623600239E+03  0.81623600239E+03  0.25500000920E-02 0. -1.
        2   -1    0    0  501    0  0.00000000000E+00  0.00000000000E+00 -0.26966031888E+04  0.26966031888E+04  0.25500000920E-02 0.  1.
    10030    2    1    2    0    0  0.00000000000E+00  0.00000000000E+00 -0.18803671864E+04  0.35128391912E+04  0.29671970658E+04 0.  0.
        1    1    3    3  502    0  0.14613347495E+04 -0.11049223175E+03 -0.12136518121E+04  0.19028028023E+04  0.50400001928E-02 0. -1.
       -1    1    3    3    0  502 -0.14613347495E+04  0.11049223175E+03 -0.66671537427E+03  0.16100363889E+04  0.50400001928E-02 0.  1.
</event>
<event>
 5   0  0.4224163E-06  0.2914498E+04  0.7818609E-02  0.8268577E-01
       -2   -1    0    0    0  501  0.00000000000E+00  0.00000000000E+00  0.14999807914E+04  0.14999807914E+04  0.25500000920E-02 0.  1.
        2   -1    0    0  501    0  0.00000000000E+00  0.00000000000E+00 -0.14157347238E+04  0.14157347238E+04  0.25500000920E-02 0. -1.
    10030    2    1    2    0    0  0.00000000000E+00  0.00000000000E+00  0.84246067612E+02  0.29157155152E+04  0.29144981671E+04 0.  0.
        4    1    3    3  502    0 -0.13511961099E+04 -0.45532266565E+03  0.34312014064E+03  0.14665547044E+04  0.12699999809E+01 0.  1.
       -4    1    3    3    0  502  0.13511961099E+04  0.45532266565E+03 -0.25887407303E+03  0.14491608109E+04  0.12699999809E+01 0. -1.
</event>
<event>
 5   0  0.4224163E-06  0.2915314E+04  0.7818609E-02  0.8268336E-01
        2   -1    0    0  501    0  0.00000000000E+00  0.00000000000E+00  0.23427415089E+04  0.23427415089E+04  0.25500000920E-02 0. -1.
       -2   -1    0    0    0  501  0.00000000000E+00  0.00000000000E+00 -0.90695603852E+03  0.90695603853E+03  0.25500000920E-02 0.  1.
    10030    2    1    2    0    0  0.00000000000E+00  0.00000000000E+00  0.14357854704E+04  0.32496975475E+04  0.29153137452E+04 0.  0.
        4    1    3    3  502    0  0.57139314752E+03  0.10736037707E+03  0.22079021031E+04  0.22831665925E+04  0.12699999809E+01 0. -1.
       -4    1    3    3    0  502 -0.57139314752E+03 -0.10736037707E+03 -0.77211663264E+03  0.96653095496E+03  0.12699999809E+01 0.  1.
</event>
<event>
 5   0  0.1543678E-06  0.2948759E+04  0.7818609E-02  0.8258516E-01
        1   -1    0    0  501    0  0.00000000000E+00  0.00000000000E+00  0.16081749136E+04  0.16081749136E+04  0.50400001928E-02 0.  1.
       -1   -1    0    0    0  501  0.00000000000E+00  0.00000000000E+00 -0.13517154353E+04  0.13517154353E+04  0.50400001928E-02 0. -1.
    10030    2    1    2    0    0  0.00000000000E+00  0.00000000000E+00  0.25645947833E+03  0.29598903489E+04  0.29487589616E+04 0.  0.
        3    1    3    3  502    0 -0.75110793188E+02 -0.61394546216E+03  0.14716482269E+04  0.15963455690E+04  0.10100000352E+00 0.  1.
       -3    1    3    3    0  502  0.75110793188E+02  0.61394546216E+03 -0.12151887486E+04  0.13635447799E+04  0.10100000352E+00 0. -1.
</event>
<event>
 5   0  0.1511126E-06  0.2897223E+04  0.7818609E-02  0.8273704E-01
       -1   -1    0    0    0  501  0.00000000000E+00  0.00000000000E+00  0.13116517888E+04  0.13116517888E+04  0.50400001928E-02 0.  1.
        1   -1    0    0  501    0  0.00000000000E+00  0.00000000000E+00 -0.15998723969E+04  0.15998723969E+04  0.50400001928E-02 0. -1.
    10030    2    1    2    0    0  0.00000000000E+00  0.00000000000E+00 -0.28822060815E+03  0.29115241857E+04  0.28972231472E+04 0.  0.
        5    1    3    3  502    0 -0.12595748102E+04 -0.89450030881E+02  0.56926934291E+03  0.13851424783E+04  0.46999998093E+01 0.  1.
       -5    1    3    3    0  502  0.12595748102E+04  0.89450030881E+02 -0.85748995106E+03  0.15263817074E+04  0.46999998093E+01 0. -1.
</event>
<event>
 5   0  0.4162450E-06  0.2897776E+04  0.7818609E-02  0.8273539E-01
       -2   -1    0    0    0  501  0.00000000000E+00  0.00000000000E+00  0.13584877050E+04  0.13584877050E+04  0.25500000920E-02 0. -1.
        2   -1    0    0  501    0  0.00000000000E+00  0.00000000000E+00 -0.15453043427E+04  0.15453043427E+04  0.25500000920E-02 0.  1.
    10030    2    1    2    0    0  0.00000000000E+00  0.00000000000E+00 -0.18681663763E+03  0.29037920477E+04  0.28977763544E+04 0.  0.
        2    1    3    3  502    0  0.46104812344E+03  0.48220028321E+03 -0.13822332511E+04  0.15348130979E+04  0.25500000920E-02 0.  1.
       -2    1    3    3    0  502 -0.46104812344E+03 -0.48220028321E+03  0.11954166134E+04  0.13689789498E+04  0.25500000920E-02 0. -1.
</event>
<event>
 5   0  0.1550278E-06  0.2916873E+04  0.7818609E-02  0.8267875E-01
       -1   -1    0    0    0  501  0.00000000000E+00  0.00000000000E+00  0.10705008627E+04  0.10705008627E+04  0.50400001928E-02 0. -1.
        1   -1    0    0  501    0  0.00000000000E+00  0.00000000000E+00 -0.19869549388E+04  0.19869549388E+04  0.50400001928E-02 0.  1.
    10030    2    1    2    0    0  0.00000000000E+00  0.00000000000E+00 -0.91645407609E+03  0.30574558016E+04  0.29168729669E+04 0.  0.
        2    1    3    3  502    0  0.68672074503E+03 -0.17269035099E+03 -0.17946793798E+04  0.19293214909E+04  0.25500000920E-02 0.  1.
       -2    1    3    3    0  502 -0.68672074503E+03  0.17269035099E+03  0.87822530366E+03  0.11281343107E+04  0.25500000920E-02 0. -1.
</event>
<event>
 5   0  0.1550278E-06  0.2884642E+04  0.7818609E-02  0.8277462E-01
        1   -1    0    0  501    0  0.00000000000E+00  0.00000000000E+00  0.19933676320E+04  0.19933676320E+04  0.50400001928E-02 0.  1.
       -1   -1    0    0    0  501  0.00000000000E+00  0.00000000000E+00 -0.10436055611E+04  0.10436055612E+04  0.50400001928E-02 0. -1.
    10030    2    1    2    0    0  0.00000000000E+00  0.00000000000E+00  0.94976207085E+03  0.30369731931E+04  0.28846417775E+04 0.  0.
        2    1    3    3  502    0 -0.48332089105E+03  0.29382203538E+03  0.18717308070E+04  0.19553277694E+04  0.25500000920E-02 0.  1.
       -2    1    3    3    0  502  0.48332089105E+03 -0.29382203538E+03 -0.92196873613E+03  0.10816454237E+04  0.25500000920E-02 0. -1.
</event>
<event>
 5   0  0.1602873E-06  0.2892408E+04  0.7818609E-02  0.8275140E-01
       -1   -1    0    0    0  501  0.00000000000E+00  0.00000000000E+00  0.13447588548E+04  0.13447588549E+04  0.50400001928E-02 0. -1.
        1   -1    0    0  501    0  0.00000000000E+00  0.00000000000E+00 -0.15553022683E+04  0.15553022683E+04  0.50400001928E-02 0.  1.
    10030    2    1    2    0    0  0.00000000000E+00  0.00000000000E+00 -0.21054341343E+03  0.29000611231E+04  0.28924083372E+04 0.  0.
        1    1    3    3  502    0  0.11917003683E+04  0.59565808161E+03 -0.66938645829E+03  0.14909850933E+04  0.50400001928E-02 0.  1.
       -1    1    3    3    0  502 -0.11917003683E+04 -0.59565808161E+03  0.45884304486E+03  0.14090760298E+04  0.50400001928E-02 0. -1.
</event>
<event>
 5   0  0.4162450E-06  0.2892782E+04  0.7818609E-02  0.8275028E-01
       -2   -1    0    0    0  501  0.00000000000E+00  0.00000000000E+00  0.12458322812E+04  0.12458322812E+04  0.25500000920E-02 0. -1.
        2   -1    0    0  501    0  0.00000000000E+00  0.00000000000E+00 -0.16792366854E+04  0.16792366854E+04  0.25500000920E-02 0.  1.
    10030    2    1    2    0    0  0.00000000000E+00  0.00000000000E+00 -0.43340440417E+03  0.29250689666E+04  0.28927822389E+04 0.  0.
        2    1    3    3  502    0 -0.13730425410E+04 -0.20883876570E+03 -0.62517603399E+03  0.15230576230E+04  0.25500000920E-02 0.  1.
       -2    1    3    3    0  502  0.13730425410E+04  0.20883876570E+03  0.19177162982E+03  0.14020113436E+04  0.25500000920E-02 0. -1.
</event>
<event>
 5   0  0.4224163E-06  0.2863895E+04  0.7818609E-02  0.8283702E-01
       -2   -1    0    0    0  501  0.00000000000E+00  0.00000000000E+00  0.91913399112E+03  0.91913399112E+03  0.25500000920E-02 0. -1.
        2   -1    0    0  501    0  0.00000000000E+00  0.00000000000E+00 -0.22308748994E+04  0.22308748994E+04  0.25500000920E-02 0.  1.
    10030    2    1    2    0    0  0.00000000000E+00  0.00000000000E+00 -0.13117409083E+04  0.31500088905E+04  0.28638945162E+04 0.  0.
        4    1    3    3  502    0  0.10925976227E+03  0.11639143862E+04 -0.15654298010E+04  0.19537672505E+04  0.12699999809E+01 0.  1.
       -4    1    3    3    0  502 -0.10925976227E+03 -0.11639143862E+04  0.25368889275E+03  0.11962416400E+04  0.12699999809E+01 0. -1.
</event>
<event>
 5   0  0.1543678E-06  0.2918396E+04  0.7818609E-02  0.8267425E-01
       -1   -1    0    0    0  501  0.00000000000E+00  0.00000000000E+00  0.16507290244E+04  0.16507290244E+04  0.50400001928E-02 0.  1.
        1   -1    0    0  501    0  0.00000000000E+00  0.00000000000E+00 -0.12898897560E+04  0.12898897560E+04  0.50400001928E-02 0. -1.
    10030    2    1    2    0    0  0.00000000000E+00  0.00000000000E+00  0.36083926844E+03  0.29406187804E+04  0.29183957638E+04 0.  0.
        3    1    3    3  502    0  0.74457741684E+03  0.11035013127E+02  0.14448622603E+04  0.16254673982E+04  0.10100000352E+00 0.  1.
       -3    1    3    3    0  502 -0.74457741684E+03 -0.11035013127E+02 -0.10840229918E+04  0.13151513822E+04  0.10100000352E+00 0. -1.
</event>
<event>
 5   0  0.4115143E-06  0.2901988E+04  0.7818609E-02  0.8272286E-01
        2   -1    0    0  501    0  0.00000000000E+00  0.00000000000E+00  0.26918575613E+04  0.26918575613E+04  0.25500000920E-02 0.  1.
       -2   -1    0    0    0  501  0.00000000000E+00  0.00000000000E+00 -0.78213034353E+03  0.78213034353E+03  0.25500000920E-02 0. -1.
    10030    2    1    2    0    0  0.00000000000E+00  0.00000000000E+00  0.19097272178E+04  0.34739879048E+04  0.29019879249E+04 0.  0.
        1    1    3    3  502    0  0.26061694327E+03  0.58986375177E+03  0.25108821250E+04  0.25923714013E+04  0.50400001928E-02 0.  1.
       -1    1    3    3    0  502 -0.26061694327E+03 -0.58986375177E+03 -0.60115490722E+03  0.88161650351E+03  0.50400001928E-02 0. -1.
</event>
<event>
 5   0  0.1550278E-06  0.2901807E+04  0.7818609E-02  0.8272340E-01
       -1   -1    0    0    0  501  0.00000000000E+00  0.00000000000E+00  0.10331959518E+04  0.10331959518E+04  0.50400001928E-02 0. -1.
        1   -1    0    0  501    0  0.00000000000E+00  0.00000000000E+00 -0.20374846914E+04  0.20374846914E+04  0.50400001928E-02 0.  1.
    10030    2    1    2    0    0  0.00000000000E+00  0.00000000000E+00 -0.10042887396E+04  0.30706806432E+04  0.29018069784E+04 0.  0.
        2    1    3    3  502    0 -0.16885656414E+03 -0.99247917121E+03 -0.16077407270E+04  0.18969337600E+04  0.25500000920E-02 0.  1.
       -2    1    3    3    0  502  0.16885656414E+03  0.99247917121E+03  0.60345198746E+03  0.11737468832E+04  0.25500000920E-02 0. -1.
</event>
<event>
 5   0  0.1602873E-06  0.2915778E+04  0.7818609E-02  0.8268199E-01
       -1   -1    0    0    0  501  0.00000000000E+00  0.00000000000E+00  0.13946758895E+04  0.13946758895E+04  0.50400001928E-02 0. -1.
        1   -1    0    0  501    0  0.00000000000E+00  0.00000000000E+00 -0.15239667529E+04  0.15239667529E+04  0.50400001928E-02 0.  1.
    10030    2    1    2    0    0  0.00000000000E+00  0.00000000000E+00 -0.12929086335E+03  0.29186426424E+04  0.29157775544E+04 0.  0.
        1    1    3    3  502    0  0.58322699642E+03  0.10441135923E+04  0.76990803685E+03  0.14223520339E+04  0.50400001928E-02 0. -1.
       -1    1    3    3    0  502 -0.58322699642E+03 -0.10441135923E+04 -0.89919890020E+03  0.14962906085E+04  0.50400001928E-02 0.  1.
</event>
<event>
 5   0  0.1543678E-06  0.2891725E+04  0.7818609E-02  0.8275344E-01
        1   -1    0    0  501    0  0.00000000000E+00  0.00000000000E+00  0.98633562631E+03  0.98633562632E+03  0.50400001928E-02 0. -1.
       -1   -1    0    0    0  501  0.00000000000E+00  0.00000000000E+00 -0.21194799950E+04  0.21194799950E+04  0.50400001928E-02 0.  1.
    10030    2    1    2    0    0  0.00000000000E+00  0.00000000000E+00 -0.11331443687E+04  0.31058156213E+04  0.28917251794E+04 0.  0.
        3    1    3    3  502    0 -0.10997733524E+03  0.12232904193E+04  0.25278682499E+03  0.12539679634E+04  0.10100000352E+00 0. -1.
       -3    1    3    3    0  502  0.10997733524E+03 -0.12232904193E+04 -0.13859311937E+04  0.18518476579E+04  0.10100000352E+00 0.  1.
</event>
<event>
 5   0  0.1602873E-06  0.2891499E+04  0.7818609E-02  0.8275411E-01
       -1   -1    0    0    0  501  0.00000000000E+00  0.00000000000E+00  0.24224877241E+04  0.24224877241E+04  0.50400001928E-02 0.  1.
        1   -1    0    0  501    0  0.00000000000E+00  0.00000000000E+00 -0.86282848636E+03  0.86282848637E+03  0.50400001928E-02 0. -1.
    10030    2    1    2    0    0  0.00000000000E+00  0.00000000000E+00  0.15596592378E+04  0.32853162105E+04  0.28914988613E+04 0.  0.
        1    1    3    3  502    0 -0.11032807702E+03  0.13325713945E+04  0.14045037899E+04  0.19392136813E+04  0.50400001928E-02 0.  1.
       -1    1    3    3    0  502  0.11032807702E+03 -0.13325713945E+04  0.15515544785E+03  0.13461025292E+04  0.50400001928E-02 0. -1.
</event>
<event>
 5   0  0.1602873E-06  0.2902241E+04  0.7818609E-02  0.8272211E-01
        1   -1    0    0  501    0  0.00000000000E+00  0.00000000000E+00  0.15236076745E+04  0.15236076745E+04  0.50400001928E-02 0. -1.
       -1   -1    0    0    0  501  0.00000000000E+00  0.00000000000E+00 -0.13820822573E+04  0.13820822573E+04  0.50400001928E-02 0.  1.
    10030    2    1    2    0    0  0.00000000000E+00  0.00000000000E+00  0.14152541720E+03  0.29056899317E+04  0.29022412952E+04 0.  0.
        1    1    3    3  502    0 -0.11341042501E+04 -0.12359616651E+03 -0.82712103202E+03  0.14091123674E+04  0.50400001928E-02 0.  1.
       -1    1    3    3    0  502  0.11341042501E+04  0.12359616651E+03  0.96864644923E+03  0.14965775643E+04  0.50400001928E-02 0. -1.
</event>
<event>
 5   0  0.1550278E-06  0.2900683E+04  0.7818609E-02  0.8272674E-01
        1   -1    0    0  501    0  0.00000000000E+00  0.00000000000E+00  0.20729087938E+04  0.20729087938E+04  0.50400001928E-02 0.  1.
       -1   -1    0    0    0  501  0.00000000000E+00  0.00000000000E+00 -0.10147530287E+04  0.10147530287E+04  0.50400001928E-02 0. -1.
    10030    2    1    2    0    0  0.00000000000E+00  0.00000000000E+00  0.10581557651E+04  0.30876618226E+04  0.29006830070E+04 0.  0.
        2    1    3    3  502    0 -0.55201872748E+03  0.12854576816E+04  0.93631477200E+03  0.16833928475E+04  0.25500000920E-02 0.  1.
       -2    1    3    3    0  502  0.55201872748E+03 -0.12854576816E+04  0.12184099310E+03  0.14042689751E+04  0.25500000920E-02 0. -1.
</event>
<event>
 5   0  0.1602873E-06  0.2902278E+04  0.7818609E-02  0.8272200E-01
        1   -1    0    0  501    0  0.00000000000E+00  0.00000000000E+00  0.23295389271E+04  0.23295389271E+04  0.50400001928E-02 0.  1.
       -1   -1    0    0    0  501  0.00000000000E+00  0.00000000000E+00 -0.90395775835E+03  0.90395775836E+03  0.50400001928E-02 0. -1.
    10030    2    1    2    0    0  0.00000000000E+00  0.00000000000E+00  0.14255811688E+04  0.32334966855E+04  0.29022782682E+04 0.  0.
        1    1    3    3  502    0 -0.78445333625E+03 -0.11528242726E+04  0.11604325581E+04  0.18141043416E+04  0.50400001928E-02 0.  1.
       -1    1    3    3    0  502  0.78445333625E+03  0.11528242726E+04  0.26514861064E+03  0.14193923439E+04  0.50400001928E-02 0. -1.
</event>
<event>
 5   0  0.4162450E-06  0.2894177E+04  0.7818609E-02  0.8274612E-01
        2   -1    0    0  501    0  0.00000000000E+00  0.00000000000E+00  0.15685940478E+04  0.15685940478E+04  0.25500000920E-02 0.  1.
       -2   -1    0    0    0  501  0.00000000000E+00  0.00000000000E+00 -0.13349952531E+04  0.13349952531E+04  0.25500000920E-02 0. -1.
    10030    2    1    2    0    0  0.00000000000E+00  0.00000000000E+00  0.23359879469E+03  0.29035893008E+04  0.28941773324E+04 0.  0.
        2    1    3    3  502    0  0.13384458977E+03 -0.11698939368E+03  0.15575981154E+04  0.15677094059E+04  0.25500000920E-02 0.  1.
       -2    1    3    3    0  502 -0.13384458977E+03  0.11698939368E+03 -0.13239993207E+04  0.13358798949E+04  0.25500000920E-02 0. -1.
</event>
<event>
 5   0  0.1550278E-06  0.2899985E+04  0.7818609E-02  0.8272882E-01
       -1   -1    0    0    0  501  0.00000000000E+00  0.00000000000E+00  0.10831497807E+04  0.10831497807E+04  0.50400001928E-02 0. -1.
        1   -1    0    0  501    0  0.00000000000E+00  0.00000000000E+00 -0.19410776856E+04  0.19410776857E+04  0.50400001928E-02 0.  1.
    10030    2    1    2    0    0  0.00000000000E+00  0.00000000000E+00 -0.85792790498E+03  0.30242274663E+04  0.28999847375E+04 0.  0.
        2    1    3    3  502    0 -0.54807596925E+03 -0.10812489869E+04 -0.12586572611E+04  0.17474852619E+04  0.25500000920E-02 0.  1.
       -2    1    3    3    0  502  0.54807596925E+03  0.10812489869E+04  0.40072935608E+03  0.12767422044E+04  0.25500000920E-02 0. -1.
</event>
<event>
 5   0  0.1511126E-06  0.2884618E+04  0.7818609E-02  0.8277469E-01
        1   -1    0    0  501    0  0.00000000000E+00  0.00000000000E+00  0.21770614092E+04  0.21770614092E+04  0.50400001928E-02 0.  1.
       -1   -1    0    0    0  501  0.00000000000E+00  0.00000000000E+00 -0.95553366722E+03  0.95553366723E+03  0.50400001928E-02 0. -1.
    10030    2    1    2    0    0  0.00000000000E+00  0.00000000000E+00  0.12215277420E+04  0.31325950765E+04  0.28846181530E+04 0.  0.
        5    1    3    3  502    0  0.21607616397E+03  0.12876239068E+04 -0.54755779645E+02  0.13067840370E+04  0.46999998093E+01 0. -1.
       -5    1    3    3    0  502 -0.21607616397E+03 -0.12876239068E+04  0.12762835216E+04  0.18258110394E+04  0.46999998093E+01 0.  1.
</event>
<event>
 5   0  0.4115143E-06  0.2921521E+04  0.7818609E-02  0.8266503E-01
       -2   -1    0    0    0  501  0.00000000000E+00  0.00000000000E+00  0.14417196549E+04  0.14417196549E+04  0.25500000920E-02 0. -1.
        2   -1    0    0  501    0  0.00000000000E+00  0.00000000000E+00 -0.14800526959E+04  0.14800526959E+04  0.25500000920E-02 0.  1.
    10030    2    1    2    0    0  0.00000000000E+00  0.00000000000E+00 -0.38333040935E+02  0.29217723508E+04  0.29215208793E+04 0.  0.
        1    1    3    3  502    0 -0.65915310250E+03  0.91834256841E+03  0.90610778568E+03  0.14487467704E+04  0.50400001928E-02 0. -1.
       -1    1    3    3    0  502  0.65915310250E+03 -0.91834256841E+03 -0.94444082662E+03  0.14730255804E+04  0.50400001928E-02 0.  1.
</event>
<event>
 5   0  0.4115143E-06  0.2902010E+04  0.7818609E-02  0.8272280E-01
        2   -1    0    0  501    0  0.00000000000E+00  0.00000000000E+00  0.22683407169E+04  0.22683407169E+04  0.25500000920E-02 0.  1.
       -2   -1    0    0    0  501  0.00000000000E+00  0.00000000000E+00 -0.92817426673E+03  0.92817426673E+03  0.25500000920E-02 0. -1.
    10030    2    1    2    0    0  0.00000000000E+00  0.00000000000E+00  0.13401664502E+04  0.31965149836E+04  0.29020099804E+04 0.  0.
        1    1    3    3  502    0  0.12802876394E+04 -0.24845493584E+03  0.13706725397E+04  0.18919855987E+04  0.50400001928E-02 0.  1.
       -1    1    3    3    0  502 -0.12802876394E+04  0.24845493584E+03 -0.30506089482E+02  0.13045293849E+04  0.50400001928E-02 0. -1.
</event>
<event>
 5   0  0.4162450E-06  0.2886797E+04  0.7818609E-02  0.8276817E-01
       -2   -1    0    0    0  501  0.00000000000E+00  0.00000000000E+00  0.10069992393E+04  0.10069992393E+04  0.25500000920E-02 0.  1.
        2   -1    0    0  501    0  0.00000000000E+00  0.00000000000E+00 -0.20689177973E+04  0.20689177973E+04  0.25500000920E-02 0. -1.
    10030    2    1    2    0    0  0.00000000000E+00  0.00000000000E+00 -0.10619185580E+04  0.30759170366E+04  0.28867965970E+04 0.  0.
        2    1    3    3  502    0  0.96099051654E+03 -0.10683465517E+04 -0.67600801906E+03  0.15880346247E+04  0.25500000920E-02 0.  1.
       -2    1    3    3    0  502 -0.96099051654E+03  0.10683465517E+04 -0.38591053896E+03  0.14878824119E+04  0.25500000920E-02 0. -1.
</event>
<event>
 5   0  0.4148677E-06  0.2895214E+04  0.7818609E-02  0.8274303E-01
        2   -1    0    0  501    0  0.00000000000E+00  0.00000000000E+00  0.25229199532E+04  0.25229199532E+04  0.25500000920E-02 0. -1.
       -2   -1    0    0    0  501  0.00000000000E+00  0.00000000000E+00 -0.83061161688E+03  0.83061161688E+03  0.25500000920E-02 0.  1.
    10030    2    1    2    0    0  0.00000000000E+00  0.00000000000E+00  0.16923083363E+04  0.33535315701E+04  0.28952144111E+04 0.  0.
        5    1    3    3  502    0  0.27574726476E+03 -0.88732812150E+03 -0.43959026684E+03  0.10279345514E+04  0.46999998093E+01 0.  1.
       -5    1    3    3    0  502 -0.27574726476E+03  0.88732812150E+03  0.21318986032E+04  0.23255970187E+04  0.46999998093E+01 0. -1.
</event>
<event>
 5   0  0.1580212E-06  0.2867375E+04  0.7818609E-02  0.8282651E-01
       -1   -1    0    0    0  501  0.00000000000E+00  0.00000000000E+00  0.13162306715E+04  0.13162306715E+04  0.50400001928E-02 0. -1.
        1   -1    0    0  501    0  0.00000000000E+00  0.00000000000E+00 -0.15616255016E+04  0.15616255016E+04  0.50400001928E-02 0.  1.
    10030    2    1    2    0    0  0.00000000000E+00  0.00000000000E+00 -0.24539483010E+03  0.28778561731E+04  0.28673746756E+04 0.  0.
        4    1    3    3  502    0  0.69540427015E+03 -0.11053066057E+04  0.47121561610E+03  0.13882851153E+04  0.12699999809E+01 0. -1.
       -4    1    3    3    0  502 -0.69540427015E+03  0.11053066057E+04 -0.71661044620E+03  0.14895710578E+04  0.12699999809E+01 0.  1.
</event>
<event>
 5   0  0.4115143E-06  0.2889774E+04  0.7818609E-02  0.8275927E-01
        2   -1    0    0  501    0  0.00000000000E+00  0.00000000000E+00  0.17124911305E+04  0.17124911305E+04  0.25500000920E-02 0. -1.
       -2   -1    0    0    0  501  0.00000000000E+00  0.00000000000E+00 -0.12191000846E+04  0.12191000846E+04  0.25500000920E-02 0.  1.
    10030    2    1    2    0    0  0.00000000000E+00  0.00000000000E+00  0.49339104585E+03  0.29315912151E+04  0.28897737504E+04 0.  0.
        1    1    3    3  502    0  0.12848793873E+03  0.99364605729E+03 -0.80945410881E+03  0.12880440955E+04  0.50400001928E-02 0.  1.
       -1    1    3    3    0  502 -0.12848793873E+03 -0.99364605729E+03  0.13028451547E+04  0.16435471197E+04  0.50400001928E-02 0. -1.
</event>
<event>
 5   0  0.1602873E-06  0.2915706E+04  0.7818609E-02  0.8268220E-01
       -1   -1    0    0    0  501  0.00000000000E+00  0.00000000000E+00  0.14786919652E+04  0.14786919652E+04  0.50400001928E-02 0. -1.
        1   -1    0    0  501    0  0.00000000000E+00  0.00000000000E+00 -0.14373079334E+04  0.14373079334E+04  0.50400001928E-02 0.  1.
    10030    2    1    2    0    0  0.00000000000E+00  0.00000000000E+00  0.41384031788E+02  0.29159998987E+04  0.29157062217E+04 0.  0.
        1    1    3    3  502    0  0.10424210355E+04  0.71832475942E+02  0.10374232408E+04  0.14724294551E+04  0.50400001928E-02 0. -1.
       -1    1    3    3    0  502 -0.10424210355E+04 -0.71832475942E+02 -0.99603920897E+03  0.14435704436E+04  0.50400001928E-02 0.  1.
</event>
<event>
 5   0  0.1550278E-06  0.2913408E+04  0.7818609E-02  0.8268899E-01
       -1   -1    0    0    0  501  0.00000000000E+00  0.00000000000E+00  0.12266051318E+04  0.12266051318E+04  0.50400001928E-02 0.  1.
        1   -1    0    0  501    0  0.00000000000E+00  0.00000000000E+00 -0.17299668354E+04  0.17299668354E+04  0.50400001928E-02 0. -1.
    10030    2    1    2    0    0  0.00000000000E+00  0.00000000000E+00 -0.50336170357E+03  0.29565719672E+04  0.29134077628E+04 0.  0.
        2    1    3    3  502    0  0.89494469816E+03  0.11033211524E+04 -0.57854387080E+03  0.15339350014E+04  0.25500000920E-02 0. -1.
       -2    1    3    3    0  502 -0.89494469816E+03 -0.11033211524E+04  0.75182167230E+02  0.14226369658E+04  0.25500000920E-02 0.  1.
</event>
<event>
 5   0  0.1543678E-06  0.2890820E+04  0.7818609E-02  0.8275614E-01
       -1   -1    0    0    0  501  0.00000000000E+00  0.00000000000E+00  0.96406524080E+03  0.96406524081E+03  0.50400001928E-02 0. -1.
        1   -1    0    0  501    0  0.00000000000E+00  0.00000000000E+00 -0.21670835178E+04  0.21670835178E+04  0.50400001928E-02 0.  1.
    10030    2    1    2    0    0  0.00000000000E+00  0.00000000000E+00 -0.12030182770E+04  0.31311487586E+04  0.28908198791E+04 0.  0.
        3    1    3    3  502    0  0.13617096917E+04  0.45963732499E+03 -0.43479732519E+03  0.15015220541E+04  0.10100000352E+00 0. -1.
       -3    1    3    3    0  502 -0.13617096917E+04 -0.45963732499E+03 -0.76822095178E+03  0.16296267044E+04  0.10100000352E+00 0.  1.
</event>
<event>
 5   0  0.1511126E-06  0.2903188E+04  0.7818609E-02  0.8271930E-01
       -1   -1    0    0    0  501  0.00000000000E+00  0.00000000000E+00  0.27099748116E+04  0.27099748116E+04  0.50400001928E-02 0.  1.
        1   -1    0    0  501    0  0.00000000000E+00  0.00000000000E+00 -0.77754411155E+03  0.77754411157E+03  0.50400001928E-02 0. -1.
    10030    2    1    2    0    0  0.00000000000E+00  0.00000000000E+00  0.19324307000E+04  0.34875189231E+04  0.29031878735E+04 0.  0.
        5    1    3    3  502    0  0.81691918674E+03  0.52697136314E+03 -0.32873553176E+03  0.10262284907E+04  0.46999998093E+01 0. -1.
       -5    1    3    3    0  502 -0.81691918674E+03 -0.52697136314E+03  0.22611662318E+04  0.24612904325E+04  0.46999998093E+01 0.  1.
</event>
<event>
 5   0  0.1550278E-06  0.2898804E+04  0.7818609E-02  0.8273233E-01
        1   -1    0    0  501    0  0.00000000000E+00  0.00000000000E+00  0.15871073870E+04  0.15871073870E+04  0.50400001928E-02 0. -1.
       -1   -1    0    0    0  501  0.00000000000E+00  0.00000000000E+00 -0.13236444981E+04  0.13236444981E+04  0.50400001928E-02 0.  1.
    10030    2    1    2    0    0  0.00000000000E+00  0.00000000000E+00  0.26346288892E+03  0.29107518851E+04  0.28988038641E+04 0.  0.
        2    1    3    3  502    0  0.13683138115E+04 -0.47605525478E+03  0.88488080323E+02  0.14514618261E+04  0.25500000920E-02 0. -1.
       -2    1    3    3    0  502 -0.13683138115E+04  0.47605525478E+03  0.17497480860E+03  0.14592900589E+04  0.25500000920E-02 0.  1.
</event>
<event>
 5   0  0.4115143E-06  0.2924366E+04  0.7818609E-02  0.8265664E-01
       -2   -1    0    0    0  501  0.00000000000E+00  0.00000000000E+00  0.10981585856E+04  0.10981585856E+04  0.25500000920E-02 0.  1.
        2   -1    0    0  501    0  0.00000000000E+00  0.00000000000E+00 -0.19468770685E+04  0.19468770685E+04  0.25500000920E-02 0. -1.
    10030    2    1    2    0    0  0.00000000000E+00  0.00000000000E+00 -0.84871848289E+03  0.30450356540E+04  0.29243664393E+04 0.  0.
        1    1    3    3  502    0 -0.70758250767E+03  0.15127061907E+03  0.89866983372E+03  0.11537604931E+04  0.50400001928E-02 0.  1.
       -1    1    3    3    0  502  0.70758250767E+03 -0.15127061907E+03 -0.17473883166E+04  0.18912751609E+04  0.50400001928E-02 0. -1.
</event>
<event>
 5   0  0.4187518E-06  0.2884166E+04  0.7818609E-02  0.8277604E-01
        2   -1    0    0  501    0  0.00000000000E+00  0.00000000000E+00  0.11417047695E+04  0.11417047695E+04  0.25500000920E-02 0.  1.
       -2   -1    0    0    0  501  0.00000000000E+00  0.00000000000E+00 -0.18214894389E+04  0.18214894389E+04  0.25500000920E-02 0. -1.
    10030    2    1    2    0    0  0.00000000000E+00  0.00000000000E+00 -0.67978466943E+03  0.29631942084E+04  0.28841658620E+04 0.  0.
        3    1    3    3  502    0 -0.48025338170E+02  0.14154896248E+04 -0.61878170311E+03  0.15455769529E+04  0.10100000352E+00 0. -1.
       -3    1    3    3    0  502  0.48025338170E+02 -0.14154896248E+04 -0.61002966316E+02  0.14176172555E+04  0.10100000352E+00 0.  1.
</event>
<event>
 5   0  0.1602873E-06  0.2932572E+04  0.7818609E-02  0.8263252E-01
       -1   -1    0    0    0  501  0.00000000000E+00  0.00000000000E+00  0.14030756821E+04  0.14030756821E+04  0.50400001928E-02 0. -1.
        1   -1    0    0  501    0  0.00000000000E+00  0.00000000000E+00 -0.15323437854E+04  0.15323437854E+04  0.50400001928E-02 0.  1.
    10030    2    1    2    0    0  0.00000000000E+00  0.00000000000E+00 -0.12926810324E+03  0.29354194675E+04  0.29325717736E+04 0.  0.
        1    1    3    3  502    0 -0.10026322728E+04 -0.98614532599E+02 -0.11310314291E+04  0.15146710515E+04  0.50400001928E-02 0.  1.
       -1    1    3    3    0  502  0.10026322728E+04  0.98614532599E+02  0.10017633259E+04  0.14207484160E+04  0.50400001928E-02 0. -1.
</event>
<event>
 5   0  0.1550278E-06  0.2945876E+04  0.7818609E-02  0.8259358E-01
        1   -1    0    0  501    0  0.00000000000E+00  0.00000000000E+00  0.14970541666E+04  0.14970541666E+04  0.50400001928E-02 0.  1.
       -1   -1    0    0    0  501  0.00000000000E+00  0.00000000000E+00 -0.14492100082E+04  0.14492100082E+04  0.50400001928E-02 0. -1.
    10030    2    1    2    0    0  0.00000000000E+00  0.00000000000E+00  0.47844158396E+02  0.29462641748E+04  0.29458756804E+04 0.  0.
        2    1    3    3  502    0  0.14055996483E+03  0.12098428975E+04 -0.80447994080E+03  0.14596797304E+04  0.25500000920E-02 0. -1.
       -2    1    3    3    0  502 -0.14055996483E+03 -0.12098428975E+04  0.85232409919E+03  0.14865844444E+04  0.25500000920E-02 0.  1.
</event>
<event>
 5   0  0.1602873E-06  0.2965852E+04  0.7818609E-02  0.8253550E-01
       -1   -1    0    0    0  501  0.00000000000E+00  0.00000000000E+00  0.15456691940E+04  0.15456691940E+04  0.50400001928E-02 0. -1.
        1   -1    0    0  501    0  0.00000000000E+00  0.00000000000E+00 -0.14227297140E+04  0.14227297140E+04  0.50400001928E-02 0.  1.
    10030    2    1    2    0    0  0.00000000000E+00  0.00000000000E+00  0.12293947998E+03  0.29683989080E+04  0.29658519790E+04 0.  0.
        1    1    3    3  502    0  0.10851045215E+04  0.57397690358E+03  0.89415064702E+03  0.15186858424E+04  0.50400001928E-02 0. -1.
       -1    1    3    3    0  502 -0.10851045215E+04 -0.57397690358E+03 -0.77121116704E+03  0.14497130656E+04  0.50400001928E-02 0.  1.
</event>
<event>
 5   0  0.1580212E-06  0.2911776E+04  0.7818609E-02  0.8269382E-01
       -1   -1    0    0    0  501  0.00000000000E+00  0.00000000000E+00  0.82734725704E+03  0.82734725706E+03  0.50400001928E-02 0.  1.
        1   -1    0    0  501    0  0.00000000000E+00  0.00000000000E+00 -0.25619348041E+04  0.25619348041E+04  0.50400001928E-02 0. -1.
    10030    2    1    2    0    0  0.00000000000E+00  0.00000000000E+00 -0.17345875471E+04  0.33892820612E+04  0.29117759068E+04 0.  0.
        4    1    3    3  502    0 -0.77951994679E+03  0.67416677938E+01 -0.22985352868E+04  0.24271305847E+04  0.12699999809E+01 0.  1.
       -4    1    3    3    0  502  0.77951994679E+03 -0.67416677938E+01  0.56394773978E+03  0.96215147645E+03  0.12699999809E+01 0. -1.
</event>
<event>
 5   0  0.1511126E-06  0.2917661E+04  0.7818609E-02  0.8267642E-01
        1   -1    0    0  501    0  0.00000000000E+00  0.00000000000E+00  0.17130813506E+04  0.17130813506E+04  0.50400001928E-02 0. -1.
       -1   -1    0    0    0  501  0.00000000000E+00  0.00000000000E+00 -0.12423146407E+04  0.12423146407E+04  0.50400001928E-02 0.  1.
    10030    2    1    2    0    0  0.00000000000E+00  0.00000000000E+00  0.47076670986E+03  0.29553959913E+04  0.29176607360E+04 0.  0.
        5    1    3    3  502    0 -0.41854389032E+03  0.13065899585E+04 -0.26681881122E+03  0.13977019267E+04  0.46999998093E+01 0.  1.
       -5    1    3    3    0  502  0.41854389032E+03 -0.13065899585E+04  0.73758552108E+03  0.15576940646E+04  0.46999998093E+01 0. -1.
</event>
<event>
 5   0  0.4115143E-06  0.2906237E+04  0.7818609E-02  0.8271024E-01
        2   -1    0    0  501    0  0.00000000000E+00  0.00000000000E+00  0.15255346332E+04  0.15255346332E+04  0.25500000920E-02 0.  1.
       -2   -1    0    0    0  501  0.00000000000E+00  0.00000000000E+00 -0.13841395167E+04  0.13841395167E+04  0.25500000920E-02 0. -1.
    10030    2    1    2    0    0  0.00000000000E+00  0.00000000000E+00  0.14139511653E+03  0.29096741499E+04  0.29062365835E+04 0.  0.
        1    1    3    3  502    0  0.61346388558E+03 -0.51918421035E+03  0.12827750636E+04  0.15137377735E+04  0.50400001928E-02 0.  1.
       -1    1    3    3    0  502 -0.61346388558E+03  0.51918421035E+03 -0.11413799471E+04  0.13959363763E+04  0.50400001928E-02 0. -1.
</event>
<event>
 5   0  0.1511126E-06  0.2845084E+04  0.7818609E-02  0.8289407E-01
        1   -1    0    0  501    0  0.00000000000E+00  0.00000000000E+00  0.17626026252E+04  0.17626026252E+04  0.50400001928E-02 0.  1.
       -1   -1    0    0    0  501  0.00000000000E+00  0.00000000000E+00 -0.11480898548E+04  0.11480898548E+04  0.50400001928E-02 0. -1.
    10030    2    1    2    0    0  0.00000000000E+00  0.00000000000E+00  0.61451277035E+03  0.29106924800E+04  0.28450843166E+04 0.  0.
        5    1    3    3  502    0  0.64068475983E+02  0.29734497864E+01  0.17611147132E+04  0.17622884934E+04  0.46999998093E+01 0.  1.
       -5    1    3    3    0  502 -0.64068475983E+02 -0.29734497864E+01 -0.11466019429E+04  0.11484039866E+04  0.46999998093E+01 0. -1.
</event>
<event>
 5   0  0.4162450E-06  0.2921830E+04  0.7818609E-02  0.8266412E-01
       -2   -1    0    0    0  501  0.00000000000E+00  0.00000000000E+00  0.17363552495E+04  0.17363552495E+04  0.25500000920E-02 0.  1.
        2   -1    0    0  501    0  0.00000000000E+00  0.00000000000E+00 -0.12291684385E+04  0.12291684385E+04  0.25500000920E-02 0. -1.
    10030    2    1    2    0    0  0.00000000000E+00  0.00000000000E+00  0.50718681097E+03  0.29655236880E+04  0.29218302967E+04 0.  0.
        2    1    3    3  502    0 -0.37737126332E+03  0.77214118591E+03  0.14526413110E+04  0.16878322961E+04  0.25500000920E-02 0.  1.
       -2    1    3    3    0  502  0.37737126332E+03 -0.77214118591E+03 -0.94545450002E+03  0.12776913919E+04  0.25500000920E-02 0. -1.
</event>
<event>
 5   0  0.1580212E-06  0.2918449E+04  0.7818609E-02  0.8267409E-01
        1   -1    0    0  501    0  0.00000000000E+00  0.00000000000E+00  0.13223182534E+04  0.13223182534E+04  0.50400001928E-02 0.  1.
       -1   -1    0    0    0  501  0.00000000000E+00  0.00000000000E+00 -0.16103056835E+04  0.16103056835E+04  0.50400001928E-02 0. -1.
    10030    2    1    2    0    0  0.00000000000E+00  0.00000000000E+00 -0.28798743009E+03  0.29326239369E+04  0.29184493135E+04 0.  0.
        4    1    3    3  502    0 -0.42002374768E+03 -0.54480748383E+02 -0.15471809039E+04  0.16041067492E+04  0.12699999809E+01 0. -1.
       -4    1    3    3    0  502  0.42002374768E+03  0.54480748383E+02  0.12591934738E+04  0.13285171877E+04  0.12699999809E+01 0.  1.
</event>
<event>
 5   0  0.4187518E-06  0.2897633E+04  0.7818609E-02  0.8273582E-01
        2   -1    0    0  501    0  0.00000000000E+00  0.00000000000E+00  0.23012716239E+04  0.23012716239E+04  0.25500000920E-02 0. -1.
       -2   -1    0    0    0  501  0.00000000000E+00  0.00000000000E+00 -0.91213456047E+03  0.91213456048E+03  0.25500000920E-02 0.  1.
    10030    2    1    2    0    0  0.00000000000E+00  0.00000000000E+00  0.13891370634E+04  0.32134061844E+04  0.28976330901E+04 0.  0.
        3    1    3    3  502    0 -0.10957319936E+03 -0.21662234565E+03  0.22785569021E+04  0.22914521800E+04  0.10100000352E+00 0. -1.
       -3    1    3    3    0  502  0.10957319936E+03  0.21662234565E+03 -0.88941983868E+03  0.92195400443E+03  0.10100000352E+00 0.  1.
</event>
<event>
 5   0  0.1602873E-06  0.2888310E+04  0.7818609E-02  0.8276364E-01
       -1   -1    0    0    0  501  0.00000000000E+00  0.00000000000E+00  0.10727611595E+04  0.10727611596E+04  0.50400001928E-02 0.  1.
        1   -1    0    0  501    0  0.00000000000E+00  0.00000000000E+00 -0.19441266847E+04  0.19441266847E+04  0.50400001928E-02 0. -1.
    10030    2    1    2    0    0  0.00000000000E+00  0.00000000000E+00 -0.87136552512E+03  0.30168878442E+04  0.28883099533E+04 0.  0.
        1    1    3    3  502    0 -0.10718638733E+04 -0.31302602441E+01  0.57522462663E+03  0.12164642750E+04  0.50400001928E-02 0.  1.
       -1    1    3    3    0  502  0.10718638733E+04  0.31302602441E+01 -0.14465901517E+04  0.18004235692E+04  0.50400001928E-02 0. -1.
</event>
<event>
 5   0  0.4187518E-06  0.2930215E+04  0.7818609E-02  0.8263944E-01
        2   -1    0    0  501    0  0.00000000000E+00  0.00000000000E+00  0.17265394360E+04  0.17265394360E+04  0.25500000920E-02 0. -1.
       -2   -1    0    0    0  501  0.00000000000E+00  0.00000000000E+00 -0.12432614042E+04  0.12432614042E+04  0.25500000920E-02 0.  1.
    10030    2    1    2    0    0  0.00000000000E+00  0.00000000000E+00  0.48327803177E+03  0.29698008401E+04  0.29302149024E+04 0.  0.
        3    1    3    3  502    0  0.12510729111E+04  0.40060980147E+03  0.89914680926E+03  0.15918971816E+04  0.10100000352E+00 0.  1.
       -3    1    3    3    0  502 -0.12510729111E+04 -0.40060980147E+03 -0.41586877749E+03  0.13779036585E+04  0.10100000352E+00 0. -1.
</event>
<event>
 5   0  0.1511126E-06  0.2900846E+04  0.7818609E-02  0.8272626E-01
       -1   -1    0    0    0  501  0.00000000000E+00  0.00000000000E+00  0.12231632271E+04  0.12231632272E+04  0.50400001928E-02 0. -1.
        1   -1    0    0  501    0  0.00000000000E+00  0.00000000000E+00 -0.17199073106E+04  0.17199073106E+04  0.50400001928E-02 0.  1.
    10030    2    1    2    0    0  0.00000000000E+00  0.00000000000E+00 -0.49674408346E+03  0.29430705378E+04  0.29008463430E+04 0.  0.
        5    1    3    3  502    0 -0.76470261180E+03 -0.10409270300E+03 -0.14942944688E+04  0.16818274063E+04  0.46999998093E+01 0. -1.
       -5    1    3    3    0  502  0.76470261180E+03  0.10409270300E+03  0.99755038533E+03  0.12612431314E+04  0.46999998093E+01 0.  1.
</event>
<event>
 5   0  0.1511126E-06  0.2894043E+04  0.7818609E-02  0.8274652E-01
        1   -1    0    0  501    0  0.00000000000E+00  0.00000000000E+00  0.19308751776E+04  0.19308751777E+04  0.50400001928E-02 0.  1.
       -1   -1    0    0    0  501  0.00000000000E+00  0.00000000000E+00 -0.10844158411E+04  0.10844158411E+04  0.50400001928E-02 0. -1.
    10030    2    1    2    0    0  0.00000000000E+00  0.00000000000E+00  0.84645933657E+03  0.30152910187E+04  0.28940432822E+04 0.  0.
        5    1    3    3  502    0 -0.13505872193E+04 -0.43913334046E+03  0.13425505411E+03  0.14265239000E+04  0.46999998093E+01 0. -1.
       -5    1    3    3    0  502  0.13505872193E+04  0.43913334046E+03  0.71220428247E+03  0.15887671188E+04  0.46999998093E+01 0.  1.
</event>
<event>
 5   0  0.1543678E-06  0.2900201E+04  0.7818609E-02  0.8272818E-01
        1   -1    0    0  501    0  0.00000000000E+00  0.00000000000E+00  0.20144267240E+04  0.20144267240E+04  0.50400001928E-02 0.  1.
       -1   -1    0    0    0  501  0.00000000000E+00  0.00000000000E+00 -0.10438656186E+04  0.10438656186E+04  0.50400001928E-02 0. -1.
    10030    2    1    2    0    0  0.00000000000E+00  0.00000000000E+00  0.97056110545E+03  0.30582923426E+04  0.29002005437E+04 0.  0.
        3    1    3    3  502    0  0.50168029254E+03  0.13326357636E+04  0.77443497377E+03  0.16209104643E+04  0.10100000352E+00 0.  1.
       -3    1    3    3    0  502 -0.50168029254E+03 -0.13326357636E+04  0.19612613168E+03  0.14373818783E+04  0.10100000352E+00 0. -1.
</event>
<event>
 5   0  0.4148677E-06  0.2891046E+04  0.7818609E-02  0.8275546E-01
        2   -1    0    0  501    0  0.00000000000E+00  0.00000000000E+00  0.81805249991E+03  0.81805249992E+03  0.25500000920E-02 0. -1.
       -2   -1    0    0    0  501  0.00000000000E+00  0.00000000000E+00 -0.25542824615E+04  0.25542824615E+04  0.25500000920E-02 0.  1.
    10030    2    1    2    0    0  0.00000000000E+00  0.00000000000E+00 -0.17362299616E+04  0.33723349614E+04  0.28910462833E+04 0.  0.
        5    1    3    3  502    0 -0.18840731738E+03  0.39517990546E+03  0.73885095186E+03  0.85882902488E+03  0.46999998093E+01 0. -1.
       -5    1    3    3    0  502  0.18840731738E+03 -0.39517990546E+03 -0.24750809134E+04  0.25135059365E+04  0.46999998093E+01 0.  1.
</event>
<event>
 5   0  0.4115143E-06  0.2895123E+04  0.7818609E-02  0.8274330E-01
        2   -1    0    0  501    0  0.00000000000E+00  0.00000000000E+00  0.21608415413E+04  0.21608415413E+04  0.25500000920E-02 0.  1.
       -2   -1    0    0    0  501  0.00000000000E+00  0.00000000000E+00 -0.96973054946E+03  0.96973054946E+03  0.25500000920E-02 0. -1.
    10030    2    1    2    0    0  0.00000000000E+00  0.00000000000E+00  0.11911109919E+04  0.31305720908E+04  0.28951228334E+04 0.  0.
        1    1    3    3  502    0 -0.76352225481E+03  0.46233034614E+03  0.18278491827E+04  0.20341455742E+04  0.50400001928E-02 0.  1.
       -1    1    3    3    0  502  0.76352225481E+03 -0.46233034614E+03 -0.63673819081E+03  0.10964265166E+04  0.50400001928E-02 0. -1.
</event>
<event>
 5   0  0.4115143E-06  0.2881116E+04  0.7818609E-02  0.8278518E-01
       -2   -1    0    0    0  501  0.00000000000E+00  0.00000000000E+00  0.11997625189E+04  0.11997625189E+04  0.25500000920E-02 0.  1.
        2   -1    0    0  501    0  0.00000000000E+00  0.00000000000E+00 -0.17296811709E+04  0.17296811709E+04  0.25500000920E-02 0. -1.
    10030    2    1    2    0    0  0.00000000000E+00  0.00000000000E+00 -0.52991865194E+03  0.29294436898E+04  0.28811155052E+04 0.  0.
        1    1    3    3  502    0 -0.73350182210E+03 -0.10948768461E+04 -0.85646185584E+03  0.15717210763E+04  0.50400001928E-02 0. -1.
       -1    1    3    3    0  502  0.73350182210E+03  0.10948768461E+04  0.32654320389E+03  0.13577226135E+04  0.50400001928E-02 0.  1.
</event>
<event>
 5   0  0.1550278E-06  0.2900138E+04  0.7818609E-02  0.8272836E-01
        1   -1    0    0  501    0  0.00000000000E+00  0.00000000000E+00  0.22981189495E+04  0.22981189495E+04  0.50400001928E-02 0.  1.
       -1   -1    0    0    0  501  0.00000000000E+00  0.00000000000E+00 -0.91496578195E+03  0.91496578196E+03  0.50400001928E-02 0. -1.
    10030    2    1    2    0    0  0.00000000000E+00  0.00000000000E+00  0.13831531676E+04  0.32130847315E+04  0.29001380668E+04 0.  0.
        2    1    3    3  502    0 -0.13145530172E+03 -0.89887242946E+03  0.19437807092E+04  0.21455851384E+04  0.25500000920E-02 0.  1.
       -2    1    3    3    0  502  0.13145530172E+03  0.89887242946E+03 -0.56062754161E+03  0.10674995931E+04  0.25500000920E-02 0. -1.
</event>
<event>
 5   0  0.1550278E-06  0.2895377E+04  0.7818609E-02  0.8274254E-01
       -1   -1    0    0    0  501  0.00000000000E+00  0.00000000000E+00  0.78887837271E+03  0.78887837273E+03  0.50400001928E-02 0. -1.
        1   -1    0    0  501    0  0.00000000000E+00  0.00000000000E+00 -0.26566861109E+04  0.26566861109E+04  0.50400001928E-02 0.  1.
    10030    2    1    2    0    0  0.00000000000E+00  0.00000000000E+00 -0.18678077382E+04  0.34455644836E+04  0.28953771540E+04 0.  0.
        2    1    3    3  502    0  0.55718953793E+03  0.85892785106E+03 -0.21519111115E+04  0.23830523843E+04  0.25500000920E-02 0.  1.
       -2    1    3    3    0  502 -0.55718953793E+03 -0.85892785106E+03  0.28410337331E+03  0.10625120993E+04  0.25500000920E-02 0. -1.
</event>
<event>
 5   0  0.4162450E-06  0.2934109E+04  0.7818609E-02  0.8262801E-01
       -2   -1    0    0    0  501  0.00000000000E+00  0.00000000000E+00  0.20462184957E+04  0.20462184957E+04  0.25500000920E-02 0. -1.
        2   -1    0    0  501    0  0.00000000000E+00  0.00000000000E+00 -0.10518178436E+04  0.10518178436E+04  0.25500000920E-02 0.  1.
    10030    2    1    2    0    0  0.00000000000E+00  0.00000000000E+00  0.99440065208E+03  0.30980363393E+04  0.29341091498E+04 0.  0.
        2    1    3    3  502    0  0.83634611902E+03 -0.16741426873E+03 -0.76311460259E+03  0.11444851528E+04  0.25500000920E-02 0.  1.
       -2    1    3    3    0  502 -0.83634611902E+03  0.16741426873E+03  0.17575152547E+04  0.19535511866E+04  0.25500000920E-02 0. -1.
</event>
<event>
 5   0  0.1511126E-06  0.2877893E+04  0.7818609E-02  0.8279485E-01
        1   -1    0    0  501    0  0.00000000000E+00  0.00000000000E+00  0.21669491240E+04  0.21669491240E+04  0.50400001928E-02 0.  1.
       -1   -1    0    0    0  501  0.00000000000E+00  0.00000000000E+00 -0.95552174155E+03  0.95552174156E+03  0.50400001928E-02 0. -1.
    10030    2    1    2    0    0  0.00000000000E+00  0.00000000000E+00  0.12114273824E+04  0.31224708655E+04  0.28778929798E+04 0.  0.
        5    1    3    3  502    0 -0.39372383767E+03 -0.13556454509E+04  0.30317623275E+03  0.14438597463E+04  0.46999998093E+01 0. -1.
       -5    1    3    3    0  502  0.39372383767E+03  0.13556454509E+04  0.90825114967E+03  0.16786111193E+04  0.46999998093E+01 0.  1.
</event>
<event>
 5   0  0.1580212E-06  0.2896295E+04  0.7818609E-02  0.8273981E-01
        1   -1    0    0  501    0  0.00000000000E+00  0.00000000000E+00  0.20757866168E+04  0.20757866168E+04  0.50400001928E-02 0.  1.
       -1   -1    0    0    0  501  0.00000000000E+00  0.00000000000E+00 -0.10102829158E+04  0.10102829158E+04  0.50400001928E-02 0. -1.
    10030    2    1    2    0    0  0.00000000000E+00  0.00000000000E+00  0.10655037010E+04  0.30860695326E+04  0.28962953964E+04 0.  0.
        4    1    3    3  502    0  0.11515061520E+04 -0.54721925254E+03  0.12645690477E+04  0.17957037110E+04  0.12699999809E+01 0. -1.
       -4    1    3    3    0  502 -0.11515061520E+04  0.54721925254E+03 -0.19906534675E+03  0.12903658216E+04  0.12699999809E+01 0.  1.
</event>
<event>
 5   0  0.1543678E-06  0.2867103E+04  0.7818609E-02  0.8282733E-01
        1   -1    0    0  501    0  0.00000000000E+00  0.00000000000E+00  0.16976987347E+04  0.16976987347E+04  0.50400001928E-02 0. -1.
       -1   -1    0    0    0  501  0.00000000000E+00  0.00000000000E+00 -0.12105031807E+04  0.12105031807E+04  0.50400001928E-02 0.  1.
    10030    2    1    2    0    0  0.00000000000E+00  0.00000000000E+00  0.48719555399E+03  0.29082019154E+04  0.28671028710E+04 0.  0.
        3    1    3    3  502    0  0.77760252106E+02  0.12617095295E+04  0.92939014246E+03  0.15689880946E+04  0.10100000352E+00 0. -1.
       -3    1    3    3    0  502 -0.77760252106E+02 -0.12617095295E+04 -0.44219458846E+03  0.13392138209E+04  0.10100000352E+00 0.  1.
</event>
<event>
 5   0  0.1511126E-06  0.2898911E+04  0.7818609E-02  0.8273201E-01
        1   -1    0    0  501    0  0.00000000000E+00  0.00000000000E+00  0.15354316616E+04  0.15354316616E+04  0.50400001928E-02 0.  1.
       -1   -1    0    0    0  501  0.00000000000E+00  0.00000000000E+00 -0.13682938116E+04  0.13682938116E+04  0.50400001928E-02 0. -1.
    10030    2    1    2    0    0  0.00000000000E+00  0.00000000000E+00  0.16713784996E+03  0.29037254732E+04  0.28989112720E+04 0.  0.
        5    1    3    3  502    0  0.46135267035E+03 -0.13362064130E+04 -0.23728425367E+03  0.14333944927E+04  0.46999998093E+01 0. -1.
       -5    1    3    3    0  502 -0.46135267035E+03  0.13362064130E+04  0.40442210362E+03  0.14703309806E+04  0.46999998093E+01 0.  1.
</event>
<event>
 5   0  0.4162450E-06  0.2946799E+04  0.7818609E-02  0.8259088E-01
        2   -1    0    0  501    0  0.00000000000E+00  0.00000000000E+00  0.20549338612E+04  0.20549338612E+04  0.25500000920E-02 0. -1.
       -2   -1    0    0    0  501  0.00000000000E+00  0.00000000000E+00 -0.10564361795E+04  0.10564361795E+04  0.25500000920E-02 0.  1.
    10030    2    1    2    0    0  0.00000000000E+00  0.00000000000E+00  0.99849768166E+03  0.31113700407E+04  0.29467992653E+04 0.  0.
        2    1    3    3  502    0 -0.23702293478E+03 -0.11347475864E+04 -0.46097709844E+03  0.12475302970E+04  0.25500000920E-02 0.  1.
       -2    1    3    3    0  502  0.23702293478E+03  0.11347475864E+04  0.14594747801E+04  0.18638397437E+04  0.25500000920E-02 0. -1.
</event>
<event>
 5   0  0.4162450E-06  0.2918613E+04  0.7818609E-02  0.8267361E-01
       -2   -1    0    0    0  501  0.00000000000E+00  0.00000000000E+00  0.13907135848E+04  0.13907135848E+04  0.25500000920E-02 0.  1.
        2   -1    0    0  501    0  0.00000000000E+00  0.00000000000E+00 -0.15312823240E+04  0.15312823240E+04  0.25500000920E-02 0. -1.
    10030    2    1    2    0    0  0.00000000000E+00  0.00000000000E+00 -0.14056873916E+03  0.29219959088E+04  0.29186127734E+04 0.  0.
        2    1    3    3  502    0  0.12478142815E+04  0.42012645639E+03  0.55975297970E+03  0.14306886869E+04  0.25500000920E-02 0.  1.
       -2    1    3    3    0  502 -0.12478142815E+04 -0.42012645639E+03 -0.70032171886E+03  0.14913072220E+04  0.25500000920E-02 0. -1.
</event>
<event>
 5   0  0.1580212E-06  0.2900788E+04  0.7818609E-02  0.8272643E-01
        1   -1    0    0  501    0  0.00000000000E+00  0.00000000000E+00  0.21109610917E+04  0.21109610918E+04  0.50400001928E-02 0.  1.
       -1   -1    0    0    0  501  0.00000000000E+00  0.00000000000E+00 -0.99653288612E+03  0.99653288614E+03  0.50400001928E-02 0. -1.
    10030    2    1    2    0    0  0.00000000000E+00  0.00000000000E+00  0.11144282056E+04  0.31074939779E+04  0.29007875822E+04 0.  0.
        4    1    3    3  502    0  0.14155958907E+04  0.29485423703E+03  0.67836484172E+03  0.15971947966E+04  0.12699999809E+01 0. -1.
       -4    1    3    3    0  502 -0.14155958907E+04 -0.29485423703E+03  0.43606336390E+03  0.15102991813E+04  0.12699999809E+01 0.  1.
</event>
<event>
 5   0  0.1543678E-06  0.2895788E+04  0.7818609E-02  0.8274132E-01
       -1   -1    0    0    0  501  0.00000000000E+00  0.00000000000E+00  0.11212182567E+04  0.11212182567E+04  0.50400001928E-02 0.  1.
        1   -1    0    0  501    0  0.00000000000E+00  0.00000000000E+00 -0.18697488908E+04  0.18697488908E+04  0.50400001928E-02 0. -1.
    10030    2    1    2    0    0  0.00000000000E+00  0.00000000000E+00 -0.74853063405E+03  0.29909671475E+04  0.28957876937E+04 0.  0.
        3    1    3    3  502    0 -0.13689750792E+03 -0.19474452087E+03 -0.18493986965E+04  0.18646559750E+04  0.10100000352E+00 0. -1.
       -3    1    3    3    0  502  0.13689750792E+03  0.19474452087E+03  0.11008680625E+04  0.11263111725E+04  0.10100000352E+00 0.  1.
</event>
<event>
 5   0  0.1602873E-06  0.2916861E+04  0.7818609E-02  0.8267878E-01
       -1   -1    0    0    0  501  0.00000000000E+00  0.00000000000E+00  0.16602570473E+04  0.16602570473E+04  0.50400001928E-02 0. -1.
        1   -1    0    0  501    0  0.00000000000E+00  0.00000000000E+00 -0.12811389935E+04  0.12811389935E+04  0.50400001928E-02 0.  1.
    10030    2    1    2    0    0  0.00000000000E+00  0.00000000000E+00  0.37911805380E+03  0.29413960409E+04  0.29168613561E+04 0.  0.
        1    1    3    3  502    0  0.11761494755E+04  0.38551471312E+03  0.96745595882E+03  0.15709615575E+04  0.50400001928E-02 0. -1.
       -1    1    3    3    0  502 -0.11761494755E+04 -0.38551471312E+03 -0.58833790502E+03  0.13704344834E+04  0.50400001928E-02 0.  1.
</event>
<event>
 5   0  0.1511126E-06  0.2911920E+04  0.7818609E-02  0.8269340E-01
       -1   -1    0    0    0  501  0.00000000000E+00  0.00000000000E+00  0.86125573430E+03  0.86125573432E+03  0.50400001928E-02 0. -1.
        1   -1    0    0  501    0  0.00000000000E+00  0.00000000000E+00 -0.24613132671E+04  0.24613132671E+04  0.50400001928E-02 0.  1.
    10030    2    1    2    0    0  0.00000000000E+00  0.00000000000E+00 -0.16000575328E+04  0.33225690014E+04  0.29119204421E+04 0.  0.
        5    1    3    3  502    0 -0.94509442230E+03  0.77652906143E+03 -0.17010739936E+04  0.20952030145E+04  0.46999998093E+01 0.  1.
       -5    1    3    3    0  502  0.94509442230E+03 -0.77652906143E+03  0.10101646088E+03  0.12273659868E+04  0.46999998093E+01 0. -1.
</event>
<event>
 5   0  0.4115143E-06  0.2899183E+04  0.7818609E-02  0.8273121E-01
       -2   -1    0    0    0  501  0.00000000000E+00  0.00000000000E+00  0.12277265166E+04  0.12277265166E+04  0.25500000920E-02 0. -1.
        2   -1    0    0  501    0  0.00000000000E+00  0.00000000000E+00 -0.17115500468E+04  0.17115500468E+04  0.25500000920E-02 0.  1.
    10030    2    1    2    0    0  0.00000000000E+00  0.00000000000E+00 -0.48382353017E+03  0.29392765634E+04  0.28991829035E+04 0.  0.
        1    1    3    3  502    0  0.56652047726E+03  0.13854523114E+03  0.11035337355E+04  0.12481694346E+04  0.50400001928E-02 0. -1.
       -1    1    3    3    0  502 -0.56652047726E+03 -0.13854523114E+03 -0.15873572656E+04  0.16911071288E+04  0.50400001928E-02 0.  1.
</event>
<event>
 5   0  0.4187518E-06  0.2903437E+04  0.7818609E-02  0.8271856E-01
        2   -1    0    0  501    0  0.00000000000E+00  0.00000000000E+00  0.88754599788E+03  0.88754599788E+03  0.25500000920E-02 0.  1.
       -2   -1    0    0    0  501  0.00000000000E+00  0.00000000000E+00 -0.23745090468E+04  0.23745090468E+04  0.25500000920E-02 0. -1.
    10030    2    1    2    0    0  0.00000000000E+00  0.00000000000E+00 -0.14869630489E+04  0.32620550447E+04  0.29034365854E+04 0.  0.
        3    1    3    3  502    0  0.13100175503E+04 -0.62500772178E+03 -0.71364258602E+03  0.16174258515E+04  0.10100000352E+00 0. -1.
       -3    1    3    3    0  502 -0.13100175503E+04  0.62500772178E+03 -0.77332046291E+03  0.16446291932E+04  0.10100000352E+00 0.  1.
</event>
<event>
 5   0  0.4115143E-06  0.2807533E+04  0.7818609E-02  0.8300933E-01
       -2   -1    0    0    0  501  0.00000000000E+00  0.00000000000E+00  0.32807519142E+04  0.32807519142E+04  0.25500000920E-02 0.  1.
        2   -1    0    0  501    0  0.00000000000E+00  0.00000000000E+00 -0.60064306207E+03  0.60064306207E+03  0.25500000920E-02 0. -1.
    10030    2    1    2    0    0  0.00000000000E+00  0.00000000000E+00  0.26801088522E+04  0.38813949763E+04  0.28075333484E+04 0.  0.
        1    1    3    3  502    0  0.98011637847E+03 -0.26352474801E+03 -0.66969280019E+00  0.10149255424E+04  0.50400001928E-02 0. -1.
       -1    1    3    3    0  502 -0.98011637847E+03  0.26352474801E+03  0.26807785450E+04  0.28664694339E+04  0.50400001928E-02 0.  1.
</event>
<event>
 5   0  0.4187518E-06  0.2830185E+04  0.7818609E-02  0.8293958E-01
        2   -1    0    0  501    0  0.00000000000E+00  0.00000000000E+00  0.20062269614E+04  0.20062269614E+04  0.25500000920E-02 0. -1.
       -2   -1    0    0    0  501  0.00000000000E+00  0.00000000000E+00 -0.99813604926E+03  0.99813604927E+03  0.25500000920E-02 0.  1.
    10030    2    1    2    0    0  0.00000000000E+00  0.00000000000E+00  0.10080909121E+04  0.30043630107E+04  0.28301854732E+04 0.  0.
        3    1    3    3  502    0  0.96385177057E+03  0.74296012161E+03  0.12706289182E+04  0.17594026929E+04  0.10100000352E+00 0. -1.
       -3    1    3    3    0  502 -0.96385177057E+03 -0.74296012161E+03 -0.26253800605E+03  0.12449603177E+04  0.10100000352E+00 0.  1.
</event>
<event>
 5   0  0.4148677E-06  0.2830254E+04  0.7818609E-02  0.8293937E-01
        2   -1    0    0  501    0  0.00000000000E+00  0.00000000000E+00  0.20315300941E+04  0.20315300941E+04  0.25500000920E-02 0.  1.
       -2   -1    0    0    0  501  0.00000000000E+00  0.00000000000E+00 -0.98575193292E+03  0.98575193292E+03  0.25500000920E-02 0. -1.
    10030    2    1    2    0    0  0.00000000000E+00  0.00000000000E+00  0.10457781611E+04  0.30172820270E+04  0.28302542055E+04 0.  0.
        5    1    3    3  502    0 -0.63919639258E+03 -0.11633567311E+04 -0.25552785020E-01  0.13274008447E+04  0.46999998093E+01 0. -1.
       -5    1    3    3    0  502  0.63919639258E+03  0.11633567311E+04  0.10458037139E+04  0.16898811822E+04  0.46999998093E+01 0.  1.
</event>
<event>
 5   0  0.1550278E-06  0.2886135E+04  0.7818609E-02  0.8277015E-01
       -1   -1    0    0    0  501  0.00000000000E+00  0.00000000000E+00  0.17254092108E+04  0.17254092108E+04  0.50400001928E-02 0.  1.
        1   -1    0    0  501    0  0.00000000000E+00  0.00000000000E+00 -0.12069277045E+04  0.12069277045E+04  0.50400001928E-02 0. -1.
    10030    2    1    2    0    0  0.00000000000E+00  0.00000000000E+00  0.51848150630E+03  0.29323369152E+04  0.28861352553E+04 0.  0.
        2    1    3    3  502    0  0.56849436940E+03 -0.10888649171E+04 -0.51026822658E+03  0.13301076343E+04  0.25500000920E-02 0. -1.
       -2    1    3    3    0  502 -0.56849436940E+03  0.10888649171E+04  0.10287497329E+04  0.16022292809E+04  0.25500000920E-02 0.  1.
</event>
<event>
 5   0  0.1543678E-06  0.2842679E+04  0.7818609E-02  0.8290139E-01
        1   -1    0    0  501    0  0.00000000000E+00  0.00000000000E+00  0.19604749689E+04  0.19604749689E+04  0.50400001928E-02 0.  1.
       -1   -1    0    0    0  501  0.00000000000E+00  0.00000000000E+00 -0.10304675512E+04  0.10304675512E+04  0.50400001928E-02 0. -1.
    10030    2    1    2    0    0  0.00000000000E+00  0.00000000000E+00  0.93000741771E+03  0.29909425201E+04  0.28426789058E+04 0.  0.
        3    1    3    3  502    0 -0.10230840298E+03  0.12171498078E+04 -0.29973745592E+03  0.12576816833E+04  0.10100000352E+00 0. -1.
       -3    1    3    3    0  502  0.10230840298E+03 -0.12171498078E+04  0.12297448736E+04  0.17332608368E+04  0.10100000352E+00 0.  1.
</event>
<event>
 5   0  0.4115143E-06  0.2892905E+04  0.7818609E-02  0.8274992E-01
       -2   -1    0    0    0  501  0.00000000000E+00  0.00000000000E+00  0.12555665792E+04  0.12555665792E+04  0.25500000920E-02 0. -1.
        2   -1    0    0  501    0  0.00000000000E+00  0.00000000000E+00 -0.16663586433E+04  0.16663586433E+04  0.25500000920E-02 0.  1.
    10030    2    1    2    0    0  0.00000000000E+00  0.00000000000E+00 -0.41079206408E+03  0.29219252225E+04  0.28929045760E+04 0.  0.
        1    1    3    3  502    0  0.38068599380E+03 -0.43183704358E+03  0.11348741849E+04  0.12725346650E+04  0.50400001928E-02 0.  1.
       -1    1    3    3    0  502 -0.38068599380E+03  0.43183704358E+03 -0.15456662490E+04  0.16493905575E+04  0.50400001928E-02 0. -1.
</event>
<event>
 5   0  0.1543678E-06  0.2893661E+04  0.7818609E-02  0.8274766E-01
        1   -1    0    0  501    0  0.00000000000E+00  0.00000000000E+00  0.11997909464E+04  0.11997909464E+04  0.50400001928E-02 0. -1.
       -1   -1    0    0    0  501  0.00000000000E+00  0.00000000000E+00 -0.17447355708E+04  0.17447355709E+04  0.50400001928E-02 0.  1.
    10030    2    1    2    0    0  0.00000000000E+00  0.00000000000E+00 -0.54494462442E+03  0.29445265173E+04  0.28936606172E+04 0.  0.
        3    1    3    3  502    0  0.48914052151E+03 -0.44544990642E+03 -0.15818050487E+04  0.17145819582E+04  0.10100000352E+00 0.  1.
       -3    1    3    3    0  502 -0.48914052151E+03  0.44544990642E+03  0.10368604243E+04  0.12299445591E+04  0.10100000352E+00 0. -1.
</event>
<event>
 5   0  0.1550278E-06  0.2852021E+04  0.7818609E-02  0.8287298E-01
       -1   -1    0    0    0  501  0.00000000000E+00  0.00000000000E+00  0.14903791546E+04  0.14903791546E+04  0.50400001928E-02 0.  1.
        1   -1    0    0  501    0  0.00000000000E+00  0.00000000000E+00 -0.13644214827E+04  0.13644214827E+04  0.50400001928E-02 0. -1.
    10030    2    1    2    0    0  0.00000000000E+00  0.00000000000E+00  0.12595767188E+03  0.28548006373E+04  0.28520205721E+04 0.  0.
        2    1    3    3  502    0 -0.48326827434E+03  0.12419194250E+04 -0.44505235022E+03  0.14049852944E+04  0.25500000920E-02 0. -1.
       -2    1    3    3    0  502  0.48326827434E+03 -0.12419194250E+04  0.57101002211E+03  0.14498153429E+04  0.25500000920E-02 0.  1.
</event>
<event>
 5   0  0.1580212E-06  0.2881753E+04  0.7818609E-02  0.8278327E-01
        1   -1    0    0  501    0  0.00000000000E+00  0.00000000000E+00  0.19700933182E+04  0.19700933182E+04  0.50400001928E-02 0. -1.
       -1   -1    0    0    0  501  0.00000000000E+00  0.00000000000E+00 -0.10538207343E+04  0.10538207343E+04  0.50400001928E-02 0.  1.
    10030    2    1    2    0    0  0.00000000000E+00  0.00000000000E+00  0.91627258389E+03  0.30239140525E+04  0.28817530687E+04 0.  0.
        4    1    3    3  502    0 -0.98568348122E+02 -0.24588838938E+02  0.19663301105E+04  0.19689530331E+04  0.12699999809E+01 0. -1.
       -4    1    3    3    0  502  0.98568348122E+02  0.24588838938E+02 -0.10500575266E+04  0.10549610194E+04  0.12699999809E+01 0.  1.
</event>
<event>
 5   0  0.4224163E-06  0.2941642E+04  0.7818609E-02  0.8260595E-01
       -2   -1    0    0    0  501  0.00000000000E+00  0.00000000000E+00  0.97671047118E+03  0.97671047119E+03  0.25500000920E-02 0. -1.
        2   -1    0    0  501    0  0.00000000000E+00  0.00000000000E+00 -0.22148979051E+04  0.22148979051E+04  0.25500000920E-02 0.  1.
    10030    2    1    2    0    0  0.00000000000E+00  0.00000000000E+00 -0.12381874339E+04  0.31916083763E+04  0.29416417026E+04 0.  0.
        4    1    3    3  502    0 -0.29981857373E+03 -0.20059637709E+03 -0.21661566490E+04  0.21959886896E+04  0.12699999809E+01 0.  1.
       -4    1    3    3    0  502  0.29981857373E+03  0.20059637709E+03  0.92796921507E+03  0.99561968677E+03  0.12699999809E+01 0. -1.
</event>
<event>
 5   0  0.1360125E-06  0.2893396E+04  0.7818609E-02  0.8274845E-01
       -3   -1    0    0    0  501  0.00000000000E+00  0.00000000000E+00  0.17401320676E+04  0.17401320705E+04  0.10100000352E+00 0.  1.
        3   -1    0    0  501    0  0.00000000000E+00  0.00000000000E+00 -0.12027448436E+04  0.12027448479E+04  0.10100000352E+00 0. -1.
    10030    2    1    2    0    0  0.00000000000E+00  0.00000000000E+00  0.53738722397E+03  0.29428769184E+04  0.28933958472E+04 0.  0.
        4    1    3    3  502    0 -0.12543787108E+04  0.14479935496E+03  0.98681362354E+03  0.16025715409E+04  0.12699999809E+01 0.  1.
       -4    1    3    3    0  502  0.12543787108E+04 -0.14479935496E+03 -0.44942639958E+03  0.13403053775E+04  0.12699999809E+01 0. -1.
</event>
<event>
 5   0  0.1511126E-06  0.2997875E+04  0.7818609E-02  0.8244338E-01
        1   -1    0    0  501    0  0.00000000000E+00  0.00000000000E+00  0.30479797047E+04  0.30479797047E+04  0.50400001928E-02 0. -1.
       -1   -1    0    0    0  501  0.00000000000E+00  0.00000000000E+00 -0.73714839326E+03  0.73714839327E+03  0.50400001928E-02 0.  1.
    10030    2    1    2    0    0  0.00000000000E+00  0.00000000000E+00  0.23108313114E+04  0.37851280979E+04  0.29978748086E+04 0.  0.
        5    1    3    3  502    0  0.10164584656E+03  0.17976084204E+03 -0.71909196474E+03  0.74817189349E+03  0.46999998093E+01 0.  1.
       -5    1    3    3    0  502 -0.10164584656E+03 -0.17976084204E+03  0.30299232761E+04  0.30369562044E+04  0.46999998093E+01 0. -1.
</event>
<event>
 5   0  0.1511126E-06  0.2890321E+04  0.7818609E-02  0.8275763E-01
        1   -1    0    0  501    0  0.00000000000E+00  0.00000000000E+00  0.27670183032E+04  0.27670183032E+04  0.50400001928E-02 0.  1.
       -1   -1    0    0    0  501  0.00000000000E+00  0.00000000000E+00 -0.75477945913E+03  0.75477945914E+03  0.50400001928E-02 0. -1.
    10030    2    1    2    0    0  0.00000000000E+00  0.00000000000E+00  0.20122388440E+04  0.35217977623E+04  0.28903207976E+04 0.  0.
        5    1    3    3  502    0 -0.77284181606E+03  0.39121893934E+03  0.24156272091E+04  0.25662450457E+04  0.46999998093E+01 0.  1.
       -5    1    3    3    0  502  0.77284181606E+03 -0.39121893934E+03 -0.40338836508E+03  0.95555271661E+03  0.46999998093E+01 0. -1.
</event>
<event>
 5   0  0.4148677E-06  0.2895008E+04  0.7818609E-02  0.8274364E-01
        2   -1    0    0  501    0  0.00000000000E+00  0.00000000000E+00  0.24906965934E+04  0.24906965934E+04  0.25500000920E-02 0.  1.
       -2   -1    0    0    0  501  0.00000000000E+00  0.00000000000E+00 -0.84123777728E+03  0.84123777729E+03  0.25500000920E-02 0. -1.
    10030    2    1    2    0    0  0.00000000000E+00  0.00000000000E+00  0.16494588162E+04  0.33319343707E+04  0.28950081631E+04 0.  0.
        5    1    3    3  502    0  0.11045993308E+04 -0.25021515773E+03 -0.21269861505E+03  0.11523932045E+04  0.46999998093E+01 0. -1.
       -5    1    3    3    0  502 -0.11045993308E+04  0.25021515773E+03  0.18621574312E+04  0.21795411663E+04  0.46999998093E+01 0.  1.
</event>
<event>
 5   0  0.4115143E-06  0.2892279E+04  0.7818609E-02  0.8275178E-01
       -2   -1    0    0    0  501  0.00000000000E+00  0.00000000000E+00  0.12521340520E+04  0.12521340520E+04  0.25500000920E-02 0.  1.
        2   -1    0    0  501    0  0.00000000000E+00  0.00000000000E+00 -0.16702040625E+04  0.16702040625E+04  0.25500000920E-02 0. -1.
    10030    2    1    2    0    0  0.00000000000E+00  0.00000000000E+00 -0.41807001049E+03  0.29223381145E+04  0.28922789495E+04 0.  0.
        1    1    3    3  502    0  0.24708325360E+03 -0.13504219016E+04  0.25025490400E+03  0.13954629926E+04  0.50400001928E-02 0.  1.
       -1    1    3    3    0  502 -0.24708325360E+03  0.13504219016E+04 -0.66832491450E+03  0.15268751219E+04  0.50400001928E-02 0. -1.
</event>
<event>
 5   0  0.1550278E-06  0.2904589E+04  0.7818609E-02  0.8271514E-01
        1   -1    0    0  501    0  0.00000000000E+00  0.00000000000E+00  0.24438040010E+04  0.24438040010E+04  0.50400001928E-02 0.  1.
       -1   -1    0    0    0  501  0.00000000000E+00  0.00000000000E+00 -0.86306387119E+03  0.86306387121E+03  0.50400001928E-02 0. -1.
    10030    2    1    2    0    0  0.00000000000E+00  0.00000000000E+00  0.15807401298E+04  0.33068678722E+04  0.29045887430E+04 0.  0.
        2    1    3    3  502    0  0.11612391363E+03  0.36978911167E+01 -0.85776446041E+03  0.86559708137E+03  0.25500000920E-02 0. -1.
       -2    1    3    3    0  502 -0.11612391363E+03 -0.36978911167E+01  0.24385045902E+04  0.24412707908E+04  0.25500000920E-02 0.  1.
</event>
<event>
 5   0  0.1550278E-06  0.3015709E+04  0.7818609E-02  0.8239259E-01
       -1   -1    0    0    0  501  0.00000000000E+00  0.00000000000E+00  0.17529737016E+04  0.17529737016E+04  0.50400001928E-02 0.  1.
        1   -1    0    0  501    0  0.00000000000E+00  0.00000000000E+00 -0.12970102470E+04  0.12970102470E+04  0.50400001928E-02 0. -1.
    10030    2    1    2    0    0  0.00000000000E+00  0.00000000000E+00  0.45596345456E+03  0.30499839486E+04  0.30157087748E+04 0.  0.
        2    1    3    3  502    0  0.12371277285E+04 -0.59290106112E+03  0.86088016745E+03  0.16196083933E+04  0.25500000920E-02 0.  1.
       -2    1    3    3    0  502 -0.12371277285E+04  0.59290106112E+03 -0.40491671289E+03  0.14303755553E+04  0.25500000920E-02 0. -1.
</event>
<event>
 5   0  0.4115143E-06  0.2883644E+04  0.7818609E-02  0.8277761E-01
        2   -1    0    0  501    0  0.00000000000E+00  0.00000000000E+00  0.16987683161E+04  0.16987683161E+04  0.25500000920E-02 0.  1.
       -2   -1    0    0    0  501  0.00000000000E+00  0.00000000000E+00 -0.12237399315E+04  0.12237399315E+04  0.25500000920E-02 0. -1.
    10030    2    1    2    0    0  0.00000000000E+00  0.00000000000E+00  0.47502838465E+03  0.29225082476E+04  0.28836439605E+04 0.  0.
        1    1    3    3  502    0  0.13886192283E+04  0.33649207955E+03  0.43340746786E+03  0.14930948778E+04  0.50400001928E-02 0.  1.
       -1    1    3    3    0  502 -0.13886192283E+04 -0.33649207955E+03  0.41620916785E+02  0.14294133698E+04  0.50400001928E-02 0. -1.
</event>
<event>
 5   0  0.4115143E-06  0.2894025E+04  0.7818609E-02  0.8274657E-01
        2   -1    0    0  501    0  0.00000000000E+00  0.00000000000E+00  0.21095576059E+04  0.21095576059E+04  0.25500000920E-02 0.  1.
       -2   -1    0    0    0  501  0.00000000000E+00  0.00000000000E+00 -0.99255210575E+03  0.99255210576E+03  0.25500000920E-02 0. -1.
    10030    2    1    2    0    0  0.00000000000E+00  0.00000000000E+00  0.11170055002E+04  0.31021097117E+04  0.28940254622E+04 0.  0.
        1    1    3    3  502    0  0.48527858136E+03 -0.69951272800E+03  0.18126879812E+04  0.20026609986E+04  0.50400001928E-02 0.  1.
       -1    1    3    3    0  502 -0.48527858136E+03  0.69951272800E+03 -0.69568248105E+03  0.10994487130E+04  0.50400001928E-02 0. -1.
</event>
<event>
 5   0  0.4187518E-06  0.2879137E+04  0.7818609E-02  0.8279112E-01
       -2   -1    0    0    0  501  0.00000000000E+00  0.00000000000E+00  0.14235238453E+04  0.14235238453E+04  0.25500000920E-02 0. -1.
        2   -1    0    0  501    0  0.00000000000E+00  0.00000000000E+00 -0.14557941417E+04  0.14557941417E+04  0.25500000920E-02 0.  1.
    10030    2    1    2    0    0  0.00000000000E+00  0.00000000000E+00 -0.32270296440E+02  0.28793179870E+04  0.28791371448E+04 0.  0.
        3    1    3    3  502    0 -0.39573487790E+03  0.13364650279E+04 -0.37617553871E+03  0.14436941887E+04  0.10100000352E+00 0.  1.
       -3    1    3    3    0  502  0.39573487790E+03 -0.13364650279E+04  0.34390524227E+03  0.14356237983E+04  0.10100000352E+00 0. -1.
</event>
<event>
 5   0  0.1580212E-06  0.2902381E+04  0.7818609E-02  0.8272170E-01
       -1   -1    0    0    0  501  0.00000000000E+00  0.00000000000E+00  0.14360121260E+04  0.14360121260E+04  0.50400001928E-02 0. -1.
        1   -1    0    0  501    0  0.00000000000E+00  0.00000000000E+00 -0.14665288210E+04  0.14665288210E+04  0.50400001928E-02 0.  1.
    10030    2    1    2    0    0  0.00000000000E+00  0.00000000000E+00 -0.30516694987E+02  0.29025409470E+04  0.29023805196E+04 0.  0.
        4    1    3    3  502    0  0.58449973403E+03 -0.61373804428E+03 -0.11933036086E+04  0.14636561895E+04  0.12699999809E+01 0.  1.
       -4    1    3    3    0  502 -0.58449973403E+03  0.61373804428E+03  0.11627869136E+04  0.14388847575E+04  0.12699999809E+01 0. -1.
</event>
<event>
 5   0  0.1580212E-06  0.3039184E+04  0.7818609E-02  0.8232629E-01
       -1   -1    0    0    0  501  0.00000000000E+00  0.00000000000E+00  0.14891653404E+04  0.14891653404E+04  0.50400001928E-02 0.  1.
        1   -1    0    0  501    0  0.00000000000E+00  0.00000000000E+00 -0.15506405850E+04  0.15506405850E+04  0.50400001928E-02 0. -1.
    10030    2    1    2    0    0  0.00000000000E+00  0.00000000000E+00 -0.61475244581E+02  0.30398059254E+04  0.30391842423E+04 0.  0.
        4    1    3    3  502    0 -0.26090482285E+03 -0.25113308785E+02 -0.15278592900E+04  0.15501798695E+04  0.12699999809E+01 0. -1.
       -4    1    3    3    0  502  0.26090482285E+03  0.25113308785E+02  0.14663840454E+04  0.14896260559E+04  0.12699999809E+01 0.  1.
</event>
<event>
 5   0  0.1543678E-06  0.2916940E+04  0.7818609E-02  0.8267855E-01
        1   -1    0    0  501    0  0.00000000000E+00  0.00000000000E+00  0.84387461880E+03  0.84387461881E+03  0.50400001928E-02 0. -1.
       -1   -1    0    0    0  501  0.00000000000E+00  0.00000000000E+00 -0.25206767342E+04  0.25206767342E+04  0.50400001928E-02 0.  1.
    10030    2    1    2    0    0  0.00000000000E+00  0.00000000000E+00 -0.16768021154E+04  0.33645513530E+04  0.29169402587E+04 0.  0.
        3    1    3    3  502    0  0.45487480860E+03  0.13779475585E+03 -0.24288426051E+04  0.24749090684E+04  0.10100000352E+00 0.  1.
       -3    1    3    3    0  502 -0.45487480860E+03 -0.13779475585E+03  0.75204048970E+03  0.88964228462E+03  0.10100000352E+00 0. -1.
</event>
<event>
 5   0  0.4148677E-06  0.2896490E+04  0.7818609E-02  0.8273922E-01
        2   -1    0    0  501    0  0.00000000000E+00  0.00000000000E+00  0.19895167314E+04  0.19895167314E+04  0.25500000920E-02 0. -1.
       -2   -1    0    0    0  501  0.00000000000E+00  0.00000000000E+00 -0.10542328835E+04  0.10542328835E+04  0.25500000920E-02 0.  1.
    10030    2    1    2    0    0  0.00000000000E+00  0.00000000000E+00  0.93528384783E+03  0.30437496149E+04  0.28964902627E+04 0.  0.
        5    1    3    3  502    0 -0.28423388990E+03 -0.14199181521E+04  0.48956921162E+03  0.15286126278E+04  0.46999998093E+01 0.  1.
       -5    1    3    3    0  502  0.28423388990E+03  0.14199181521E+04  0.44571463621E+03  0.15151369871E+04  0.46999998093E+01 0. -1.
</event>
<event>
 5   0  0.1543678E-06  0.2887584E+04  0.7818609E-02  0.8276581E-01
       -1   -1    0    0    0  501  0.00000000000E+00  0.00000000000E+00  0.15723192475E+04  0.15723192475E+04  0.50400001928E-02 0.  1.
        1   -1    0    0  501    0  0.00000000000E+00  0.00000000000E+00 -0.13257707837E+04  0.13257707837E+04  0.50400001928E-02 0. -1.
    10030    2    1    2    0    0  0.00000000000E+00  0.00000000000E+00  0.24654846383E+03  0.28980900312E+04  0.28875837103E+04 0.  0.
        3    1    3    3  502    0 -0.91177099974E+03 -0.96562230314E+03 -0.44516280665E+03  0.14006865184E+04  0.10100000352E+00 0. -1.
       -3    1    3    3    0  502  0.91177099974E+03  0.96562230314E+03  0.69171127048E+03  0.14974035128E+04  0.10100000352E+00 0.  1.
</event>
<event>
 5   0  0.4148677E-06  0.2895108E+04  0.7818609E-02  0.8274334E-01
        2   -1    0    0  501    0  0.00000000000E+00  0.00000000000E+00  0.87748672892E+03  0.87748672892E+03  0.25500000920E-02 0. -1.
       -2   -1    0    0    0  501  0.00000000000E+00  0.00000000000E+00 -0.23879706249E+04  0.23879706249E+04  0.25500000920E-02 0.  1.
    10030    2    1    2    0    0  0.00000000000E+00  0.00000000000E+00 -0.15104838959E+04  0.32654573538E+04  0.28951079651E+04 0.  0.
        5    1    3    3  502    0 -0.17203553591E+03 -0.96495002001E+03 -0.19567127216E+04  0.21884861278E+04  0.46999998093E+01 0. -1.
       -5    1    3    3    0  502  0.17203553591E+03  0.96495002001E+03  0.44622882565E+03  0.10769712260E+04  0.46999998093E+01 0.  1.
</event>
<event>
 5   0  0.4115143E-06  0.2975730E+04  0.7818609E-02  0.8250695E-01
       -2   -1    0    0    0  501  0.00000000000E+00  0.00000000000E+00  0.15676442708E+04  0.15676442708E+04  0.25500000920E-02 0. -1.
        2   -1    0    0  501    0  0.00000000000E+00  0.00000000000E+00 -0.14121456778E+04  0.14121456778E+04  0.25500000920E-02 0.  1.
    10030    2    1    2    0    0  0.00000000000E+00  0.00000000000E+00  0.15549859292E+03  0.29797899486E+04  0.29757298811E+04 0.  0.
        1    1    3    3  502    0  0.15888717408E+03  0.48479993195E+03 -0.13218221392E+04  0.14168591588E+04  0.50400001928E-02 0.  1.
       -1    1    3    3    0  502 -0.15888717408E+03 -0.48479993195E+03  0.14773207321E+04  0.15629307898E+04  0.50400001928E-02 0. -1.
</event>
<event>
 5   0  0.4224163E-06  0.2908709E+04  0.7818609E-02  0.8270291E-01
       -2   -1    0    0    0  501  0.00000000000E+00  0.00000000000E+00  0.16919260893E+04  0.16919260893E+04  0.25500000920E-02 0.  1.
        2   -1    0    0  501    0  0.00000000000E+00  0.00000000000E+00 -0.12501418629E+04  0.12501418629E+04  0.25500000920E-02 0. -1.
    10030    2    1    2    0    0  0.00000000000E+00  0.00000000000E+00  0.44178422635E+03  0.29420679522E+04  0.29087094273E+04 0.  0.
        4    1    3    3  502    0 -0.60212211630E+03  0.74049363638E+03  0.13308672226E+04  0.16377090845E+04  0.12699999809E+01 0.  1.
       -4    1    3    3    0  502  0.60212211630E+03 -0.74049363638E+03 -0.88908299626E+03  0.13043588676E+04  0.12699999809E+01 0. -1.
</event>
<event>
 5   0  0.4148677E-06  0.2905100E+04  0.7818609E-02  0.8271362E-01
        2   -1    0    0  501    0  0.00000000000E+00  0.00000000000E+00  0.23289030137E+04  0.23289030137E+04  0.25500000920E-02 0. -1.
       -2   -1    0    0    0  501  0.00000000000E+00  0.00000000000E+00 -0.90596362429E+03  0.90596362429E+03  0.25500000920E-02 0.  1.
    10030    2    1    2    0    0  0.00000000000E+00  0.00000000000E+00  0.14229393894E+04  0.32348666380E+04  0.29050999397E+04 0.  0.
        5    1    3    3  502    0  0.13930257771E+04  0.38319662628E+03  0.54437277116E+03  0.15439314344E+04  0.46999998093E+01 0.  1.
       -5    1    3    3    0  502 -0.13930257771E+04 -0.38319662628E+03  0.87856661823E+03  0.16909352036E+04  0.46999998093E+01 0. -1.
</event>
<event>
 5   0  0.1580212E-06  0.2910993E+04  0.7818609E-02  0.8269614E-01
        1   -1    0    0  501    0  0.00000000000E+00  0.00000000000E+00  0.22583111428E+04  0.22583111428E+04  0.50400001928E-02 0. -1.
       -1   -1    0    0    0  501  0.00000000000E+00  0.00000000000E+00 -0.93807690873E+03  0.93807690875E+03  0.50400001928E-02 0.  1.
    10030    2    1    2    0    0  0.00000000000E+00  0.00000000000E+00  0.13202342340E+04  0.31963880515E+04  0.29109926388E+04 0.  0.
        4    1    3    3  502    0 -0.13090297398E+04  0.52407283495E+03  0.26382222766E+03  0.14345086186E+04  0.12699999809E+01 0.  1.
       -4    1    3    3    0  502  0.13090297398E+04 -0.52407283495E+03  0.10564120064E+04  0.17618794329E+04  0.12699999809E+01 0. -1.
</event>
<event>
 5   0  0.4115143E-06  0.2931810E+04  0.7818609E-02  0.8263476E-01
       -2   -1    0    0    0  501  0.00000000000E+00  0.00000000000E+00  0.14291955357E+04  0.14291955357E+04  0.25500000920E-02 0.  1.
        2   -1    0    0  501    0  0.00000000000E+00  0.00000000000E+00 -0.15035571359E+04  0.15035571359E+04  0.25500000920E-02 0. -1.
    10030    2    1    2    0    0  0.00000000000E+00  0.00000000000E+00 -0.74361600224E+02  0.29327526716E+04  0.29318097798E+04 0.  0.
        1    1    3    3  502    0  0.11687354338E+03  0.14555241910E+04 -0.16632325110E+03  0.14696508156E+04  0.50400001928E-02 0. -1.
       -1    1    3    3    0  502 -0.11687354338E+03 -0.14555241910E+04  0.91961650879E+02  0.14631018560E+04  0.50400001928E-02 0.  1.
</event>
<event>
 5   0  0.1602873E-06  0.2906065E+04  0.7818609E-02  0.8271075E-01
        1   -1    0    0  501    0  0.00000000000E+00  0.00000000000E+00  0.17872079906E+04  0.17872079906E+04  0.50400001928E-02 0. -1.
       -1   -1    0    0    0  501  0.00000000000E+00  0.00000000000E+00 -0.11813420180E+04  0.11813420180E+04  0.50400001928E-02 0.  1.
    10030    2    1    2    0    0  0.00000000000E+00  0.00000000000E+00  0.60586597264E+03  0.29685500086E+04  0.29060653084E+04 0.  0.
        1    1    3    3  502    0  0.10234192467E+04  0.79141236228E+03 -0.37279113918E+03  0.13463631438E+04  0.50400001928E-02 0.  1.
       -1    1    3    3    0  502 -0.10234192467E+04 -0.79141236228E+03  0.97865711182E+03  0.16221868647E+04  0.50400001928E-02 0. -1.
</event>
<event>
 5   0  0.1550278E-06  0.2806793E+04  0.7818609E-02  0.8301162E-01
       -1   -1    0    0    0  501  0.00000000000E+00  0.00000000000E+00  0.15469840588E+04  0.15469840588E+04  0.50400001928E-02 0. -1.
        1   -1    0    0  501    0  0.00000000000E+00  0.00000000000E+00 -0.12731366050E+04  0.12731366050E+04  0.50400001928E-02 0.  1.
    10030    2    1    2    0    0  0.00000000000E+00  0.00000000000E+00  0.27384745379E+03  0.28201206638E+04  0.28067932112E+04 0.  0.
        2    1    3    3  502    0  0.70530783774E+03 -0.87320806266E+03 -0.70943615510E+03  0.13278746646E+04  0.25500000920E-02 0.  1.
       -2    1    3    3    0  502 -0.70530783774E+03  0.87320806266E+03  0.98328360889E+03  0.14922459992E+04  0.25500000920E-02 0. -1.
</event>
<event>
 5   0  0.1550278E-06  0.2906661E+04  0.7818609E-02  0.8270898E-01
        1   -1    0    0  501    0  0.00000000000E+00  0.00000000000E+00  0.14455423347E+04  0.14455423348E+04  0.50400001928E-02 0.  1.
       -1   -1    0    0    0  501  0.00000000000E+00  0.00000000000E+00 -0.14611604013E+04  0.14611604013E+04  0.50400001928E-02 0. -1.
    10030    2    1    2    0    0  0.00000000000E+00  0.00000000000E+00 -0.15618066544E+02  0.29067027361E+04  0.29066607769E+04 0.  0.
        2    1    3    3  502    0  0.12200811921E+04 -0.60551576496E+03  0.49907278591E+03  0.14506278305E+04  0.25500000920E-02 0.  1.
       -2    1    3    3    0  502 -0.12200811921E+04  0.60551576496E+03 -0.51469085245E+03  0.14560749056E+04  0.25500000920E-02 0. -1.
</event>
<event>
 5   0  0.1602873E-06  0.2930580E+04  0.7818609E-02  0.8263837E-01
        1   -1    0    0  501    0  0.00000000000E+00  0.00000000000E+00  0.16482514028E+04  0.16482514028E+04  0.50400001928E-02 0.  1.
       -1   -1    0    0    0  501  0.00000000000E+00  0.00000000000E+00 -0.13026376715E+04  0.13026376715E+04  0.50400001928E-02 0. -1.
    10030    2    1    2    0    0  0.00000000000E+00  0.00000000000E+00  0.34561373127E+03  0.29508890743E+04  0.29305797169E+04 0.  0.
        1    1    3    3  502    0  0.41118787100E+02 -0.10912852967E+04  0.11565523796E+04  0.15906626796E+04  0.50400001928E-02 0. -1.
       -1    1    3    3    0  502 -0.41118787100E+02  0.10912852967E+04 -0.81093864834E+03  0.13602263947E+04  0.50400001928E-02 0.  1.
</event>
<event>
 5   0  0.1580212E-06  0.2899334E+04  0.7818609E-02  0.8273076E-01
        1   -1    0    0  501    0  0.00000000000E+00  0.00000000000E+00  0.24140707696E+04  0.24140707696E+04  0.50400001928E-02 0.  1.
       -1   -1    0    0    0  501  0.00000000000E+00  0.00000000000E+00 -0.87053543508E+03  0.87053543509E+03  0.50400001928E-02 0. -1.
    10030    2    1    2    0    0  0.00000000000E+00  0.00000000000E+00  0.15435353346E+04  0.32846062047E+04  0.28993338185E+04 0.  0.
        4    1    3    3  502    0  0.38502705098E+03  0.68989434275E+03  0.21487368283E+04  0.22893823630E+04  0.12699999809E+01 0.  1.
       -4    1    3    3    0  502 -0.38502705098E+03 -0.68989434275E+03 -0.60520149372E+03  0.99522384168E+03  0.12699999809E+01 0. -1.
</event>
<event>
 5   0  0.4224163E-06  0.2889005E+04  0.7818609E-02  0.8276156E-01
        2   -1    0    0  501    0  0.00000000000E+00  0.00000000000E+00  0.11415554189E+04  0.11415554189E+04  0.25500000920E-02 0.  1.
       -2   -1    0    0    0  501  0.00000000000E+00  0.00000000000E+00 -0.18278458149E+04  0.18278458149E+04  0.25500000920E-02 0. -1.
    10030    2    1    2    0    0  0.00000000000E+00  0.00000000000E+00 -0.68629039607E+03  0.29694012338E+04  0.28890048771E+04 0.  0.
        4    1    3    3  502    0  0.51290078657E+03 -0.13451781227E+04 -0.46482151486E+03  0.15128225449E+04  0.12699999809E+01 0. -1.
       -4    1    3    3    0  502 -0.51290078657E+03  0.13451781227E+04 -0.22146888121E+03  0.14565786889E+04  0.12699999809E+01 0.  1.
</event>
<event>
 5   0  0.4224163E-06  0.2922135E+04  0.7818609E-02  0.8266322E-01
        2   -1    0    0  501    0  0.00000000000E+00  0.00000000000E+00  0.22031577432E+04  0.22031577432E+04  0.25500000920E-02 0.  1.
       -2   -1    0    0    0  501  0.00000000000E+00  0.00000000000E+00 -0.96893570283E+03  0.96893570284E+03  0.25500000920E-02 0. -1.
    10030    2    1    2    0    0  0.00000000000E+00  0.00000000000E+00  0.12342220404E+04  0.31720934461E+04  0.29221349705E+04 0.  0.
        4    1    3    3  502    0 -0.68898826981E+03 -0.35134957037E+03  0.19627272026E+04  0.21096092153E+04  0.12699999809E+01 0.  1.
       -4    1    3    3    0  502  0.68898826981E+03  0.35134957037E+03 -0.72850516216E+03  0.10624842308E+04  0.12699999809E+01 0. -1.
</event>
<event>
 5   0  0.1511126E-06  0.2918411E+04  0.7818609E-02  0.8267421E-01
       -1   -1    0    0    0  501  0.00000000000E+00  0.00000000000E+00  0.11375855542E+04  0.11375855542E+04  0.50400001928E-02 0.  1.
        1   -1    0    0  501    0  0.00000000000E+00  0.00000000000E+00 -0.18717540180E+04  0.18717540180E+04  0.50400001928E-02 0. -1.
    10030    2    1    2    0    0  0.00000000000E+00  0.00000000000E+00 -0.73416846378E+03  0.30093395721E+04  0.29184107537E+04 0.  0.
        5    1    3    3  502    0 -0.58052231237E+03  0.11724615833E+04 -0.10334270232E+04  0.16672329837E+04  0.46999998093E+01 0. -1.
       -5    1    3    3    0  502  0.58052231237E+03 -0.11724615833E+04  0.29925855943E+03  0.13421065885E+04  0.46999998093E+01 0.  1.
</event>
<event>
 5   0  0.4162450E-06  0.2914810E+04  0.7818609E-02  0.8268485E-01
        2   -1    0    0  501    0  0.00000000000E+00  0.00000000000E+00  0.13844711014E+04  0.13844711014E+04  0.25500000920E-02 0. -1.
       -2   -1    0    0    0  501  0.00000000000E+00  0.00000000000E+00 -0.15341805317E+04  0.15341805317E+04  0.25500000920E-02 0.  1.
    10030    2    1    2    0    0  0.00000000000E+00  0.00000000000E+00 -0.14970943034E+03  0.29186516331E+04  0.29148095036E+04 0.  0.
        2    1    3    3  502    0 -0.57347098085E+02  0.25675366180E+03 -0.15102076774E+04  0.15329508672E+04  0.25500000920E-02 0.  1.
       -2    1    3    3    0  502  0.57347098085E+02 -0.25675366180E+03  0.13604982470E+04  0.13857007659E+04  0.25500000920E-02 0. -1.
</event>
<event>
 5   0  0.1360125E-06  0.2890985E+04  0.7818609E-02  0.8275565E-01
        3   -1    0    0  501    0  0.00000000000E+00  0.00000000000E+00  0.95591770765E+03  0.95591771299E+03  0.10100000352E+00 0.  1.
       -3   -1    0    0    0  501  0.00000000000E+00  0.00000000000E+00 -0.21858043696E+04  0.21858043720E+04  0.10100000352E+00 0. -1.
    10030    2    1    2    0    0  0.00000000000E+00  0.00000000000E+00 -0.12298866620E+04  0.31417220850E+04  0.28909853783E+04 0.  0.
        4    1    3    3  502    0 -0.44998323421E+03 -0.12744169694E+04 -0.57816130420E+02  0.13527630394E+04  0.12699999809E+01 0.  1.
       -4    1    3    3    0  502  0.44998323421E+03  0.12744169694E+04 -0.11720705316E+04  0.17889590456E+04  0.12699999809E+01 0. -1.
</event>
<event>
 5   0  0.4115143E-06  0.2899465E+04  0.7818609E-02  0.8273037E-01
        2   -1    0    0  501    0  0.00000000000E+00  0.00000000000E+00  0.11842651185E+04  0.11842651185E+04  0.25500000920E-02 0. -1.
       -2   -1    0    0    0  501  0.00000000000E+00  0.00000000000E+00 -0.17747080669E+04  0.17747080669E+04  0.25500000920E-02 0.  1.
    10030    2    1    2    0    0  0.00000000000E+00  0.00000000000E+00 -0.59044294840E+03  0.29589731853E+04  0.28994653707E+04 0.  0.
        1    1    3    3  502    0  0.85367860986E+03  0.11577871682E+04 -0.11128198010E+03  0.14427827193E+04  0.50400001928E-02 0.  1.
       -1    1    3    3    0  502 -0.85367860986E+03 -0.11577871682E+04 -0.47916096830E+03  0.15161904661E+04  0.50400001928E-02 0. -1.
</event>
<event>
 5   0  0.4224163E-06  0.2898485E+04  0.7818609E-02  0.8273328E-01
        2   -1    0    0  501    0  0.00000000000E+00  0.00000000000E+00  0.11179013114E+04  0.11179013114E+04  0.25500000920E-02 0. -1.
       -2   -1    0    0    0  501  0.00000000000E+00  0.00000000000E+00 -0.18787917048E+04  0.18787917048E+04  0.25500000920E-02 0.  1.
    10030    2    1    2    0    0  0.00000000000E+00  0.00000000000E+00 -0.76089039341E+03  0.29966930162E+04  0.28984849219E+04 0.  0.
        4    1    3    3  502    0  0.11214786388E+04 -0.91757678913E+03 -0.40661277230E+03  0.15049907178E+04  0.12699999809E+01 0.  1.
       -4    1    3    3    0  502 -0.11214786388E+04  0.91757678913E+03 -0.35427762112E+03  0.14917022984E+04  0.12699999809E+01 0. -1.
</event>
<event>
 5   0  0.1511126E-06  0.2903094E+04  0.7818609E-02  0.8271957E-01
        1   -1    0    0  501    0  0.00000000000E+00  0.00000000000E+00  0.83667399527E+03  0.83667399528E+03  0.50400001928E-02 0.  1.
       -1   -1    0    0    0  501  0.00000000000E+00  0.00000000000E+00 -0.25182916206E+04  0.25182916206E+04  0.50400001928E-02 0. -1.
    10030    2    1    2    0    0  0.00000000000E+00  0.00000000000E+00 -0.16816176253E+04  0.33549656159E+04  0.29030942882E+04 0.  0.
        5    1    3    3  502    0 -0.39873528949E+03  0.68247807491E+03  0.56614701880E+03  0.97227089369E+03  0.46999998093E+01 0.  1.
       -5    1    3    3    0  502  0.39873528949E+03 -0.68247807491E+03 -0.22477646441E+04  0.23826947222E+04  0.46999998093E+01 0. -1.
</event>
<event>
 5   0  0.4224163E-06  0.2881079E+04  0.7818609E-02  0.8278529E-01
       -2   -1    0    0    0  501  0.00000000000E+00  0.00000000000E+00  0.12958688327E+04  0.12958688327E+04  0.25500000920E-02 0. -1.
        2   -1    0    0  501    0  0.00000000000E+00  0.00000000000E+00 -0.16013617055E+04  0.16013617055E+04  0.25500000920E-02 0.  1.
    10030    2    1    2    0    0  0.00000000000E+00  0.00000000000E+00 -0.30549287272E+03  0.28972305382E+04  0.28810794672E+04 0.  0.
        4    1    3    3  502    0  0.23877518795E+03 -0.13046120209E+04 -0.71815008774E+03  0.15082331640E+04  0.12699999809E+01 0.  1.
       -4    1    3    3    0  502 -0.23877518795E+03  0.13046120209E+04  0.41265721502E+03  0.13889973742E+04  0.12699999809E+01 0. -1.
</event>
<event>
 5   0  0.4148677E-06  0.2884693E+04  0.7818609E-02  0.8277446E-01
        2   -1    0    0  501    0  0.00000000000E+00  0.00000000000E+00  0.22777889864E+04  0.22777889864E+04  0.25500000920E-02 0. -1.
       -2   -1    0    0    0  501  0.00000000000E+00  0.00000000000E+00 -0.91332552499E+03  0.91332552499E+03  0.25500000920E-02 0.  1.
    10030    2    1    2    0    0  0.00000000000E+00  0.00000000000E+00  0.13644634614E+04  0.31911145114E+04  0.28846925811E+04 0.  0.
        5    1    3    3  502    0 -0.28208887251E+03  0.39864266228E+03 -0.81907715310E+03  0.95362444228E+03  0.46999998093E+01 0.  1.
       -5    1    3    3    0  502  0.28208887251E+03 -0.39864266228E+03  0.21835406145E+04  0.22374900691E+04  0.46999998093E+01 0. -1.
</event>
<event>
 5   0  0.4115143E-06  0.2912410E+04  0.7818609E-02  0.8269195E-01
       -2   -1    0    0    0  501  0.00000000000E+00  0.00000000000E+00  0.13556819583E+04  0.13556819583E+04  0.25500000920E-02 0. -1.
        2   -1    0    0  501    0  0.00000000000E+00  0.00000000000E+00 -0.15641818234E+04  0.15641818234E+04  0.25500000920E-02 0.  1.
    10030    2    1    2    0    0  0.00000000000E+00  0.00000000000E+00 -0.20849986509E+03  0.29198637818E+04  0.29124100519E+04 0.  0.
        1    1    3    3  502    0 -0.10821162695E+04  0.63611236404E+03 -0.84432513541E+03  0.15127787329E+04  0.50400001928E-02 0.  1.
       -1    1    3    3    0  502  0.10821162695E+04 -0.63611236404E+03  0.63582527032E+03  0.14070850489E+04  0.50400001928E-02 0. -1.
</event>
<event>
 5   0  0.1580212E-06  0.2842911E+04  0.7818609E-02  0.8290069E-01
        1   -1    0    0  501    0  0.00000000000E+00  0.00000000000E+00  0.21968631298E+04  0.21968631298E+04  0.50400001928E-02 0. -1.
       -1   -1    0    0    0  501  0.00000000000E+00  0.00000000000E+00 -0.91973705261E+03  0.91973705262E+03  0.50400001928E-02 0.  1.
    10030    2    1    2    0    0  0.00000000000E+00  0.00000000000E+00  0.12771260772E+04  0.31166001825E+04  0.28429114795E+04 0.  0.
        4    1    3    3  502    0  0.11689926448E+03 -0.91334320110E+03  0.18257150219E+04  0.20447733848E+04  0.12699999809E+01 0. -1.
       -4    1    3    3    0  502 -0.11689926448E+03  0.91334320110E+03 -0.54858894470E+03  0.10718267977E+04  0.12699999809E+01 0.  1.
</event>
<event>
 5   0  0.4115143E-06  0.2907170E+04  0.7818609E-02  0.8270747E-01
       -2   -1    0    0    0  501  0.00000000000E+00  0.00000000000E+00  0.89185804660E+03  0.89185804660E+03  0.25500000920E-02 0.  1.
        2   -1    0    0  501    0  0.00000000000E+00  0.00000000000E+00 -0.23691097007E+04  0.23691097007E+04  0.25500000920E-02 0. -1.
    10030    2    1    2    0    0  0.00000000000E+00  0.00000000000E+00 -0.14772516541E+04  0.32609677473E+04  0.29071701359E+04 0.  0.
        1    1    3    3  502    0 -0.13855474865E+04  0.42177183134E+03 -0.59998721000E+03  0.15676791659E+04  0.50400001928E-02 0.  1.
       -1    1    3    3    0  502  0.13855474865E+04 -0.42177183134E+03 -0.87726444408E+03  0.16932885814E+04  0.50400001928E-02 0. -1.
</event>
<event>
 5   0  0.1550278E-06  0.2925421E+04  0.7818609E-02  0.8265354E-01
        1   -1    0    0  501    0  0.00000000000E+00  0.00000000000E+00  0.13577615833E+04  0.13577615833E+04  0.50400001928E-02 0. -1.
       -1   -1    0    0    0  501  0.00000000000E+00  0.00000000000E+00 -0.15757711669E+04  0.15757711669E+04  0.50400001928E-02 0.  1.
    10030    2    1    2    0    0  0.00000000000E+00  0.00000000000E+00 -0.21800958362E+03  0.29335327502E+04  0.29254206908E+04 0.  0.
        2    1    3    3  502    0 -0.10972816413E+04 -0.89844096652E+03  0.25017608415E+03  0.14400733467E+04  0.25500000920E-02 0. -1.
       -2    1    3    3    0  502  0.10972816413E+04  0.89844096652E+03 -0.46818566777E+03  0.14934594036E+04  0.25500000920E-02 0.  1.
</event>
<event>
 5   0  0.4187518E-06  0.2907575E+04  0.7818609E-02  0.8270627E-01
        2   -1    0    0  501    0  0.00000000000E+00  0.00000000000E+00  0.13294855901E+04  0.13294855901E+04  0.25500000920E-02 0. -1.
       -2   -1    0    0    0  501  0.00000000000E+00  0.00000000000E+00 -0.15897111310E+04  0.15897111310E+04  0.25500000920E-02 0.  1.
    10030    2    1    2    0    0  0.00000000000E+00  0.00000000000E+00 -0.26022554086E+03  0.29191967211E+04  0.29075749628E+04 0.  0.
        3    1    3    3  502    0 -0.14405359980E+04  0.12419303555E+03  0.21919569063E+02  0.14460457632E+04  0.10100000352E+00 0.  1.
       -3    1    3    3    0  502  0.14405359980E+04 -0.12419303555E+03 -0.28214510992E+03  0.14731509579E+04  0.10100000352E+00 0. -1.
</event>
<event>
 5   0  0.1580212E-06  0.2847246E+04  0.7818609E-02  0.8288748E-01
        1   -1    0    0  501    0  0.00000000000E+00  0.00000000000E+00  0.99591927238E+03  0.99591927240E+03  0.50400001928E-02 0. -1.
       -1   -1    0    0    0  501  0.00000000000E+00  0.00000000000E+00 -0.20350074679E+04  0.20350074679E+04  0.50400001928E-02 0.  1.
    10030    2    1    2    0    0  0.00000000000E+00  0.00000000000E+00 -0.10390881955E+04  0.30309267403E+04  0.28472464992E+04 0.  0.
        4    1    3    3  502    0  0.11822126404E+04  0.76171868617E+03 -0.28424259400E+03  0.14347952987E+04  0.12699999809E+01 0.  1.
       -4    1    3    3    0  502 -0.11822126404E+04 -0.76171868617E+03 -0.75484560153E+03  0.15961314416E+04  0.12699999809E+01 0. -1.
</event>
<event>
 5   0  0.1602873E-06  0.2915977E+04  0.7818609E-02  0.8268140E-01
        1   -1    0    0  501    0  0.00000000000E+00  0.00000000000E+00  0.12082433087E+04  0.12082433087E+04  0.50400001928E-02 0.  1.
       -1   -1    0    0    0  501  0.00000000000E+00  0.00000000000E+00 -0.17593557601E+04  0.17593557601E+04  0.50400001928E-02 0. -1.
    10030    2    1    2    0    0  0.00000000000E+00  0.00000000000E+00 -0.55111245143E+03  0.29675990689E+04  0.29159765601E+04 0.  0.
        1    1    3    3  502    0 -0.73488266207E+03  0.11874851094E+04 -0.70196835203E+03  0.15629884770E+04  0.50400001928E-02 0. -1.
       -1    1    3    3    0  502  0.73488266207E+03 -0.11874851094E+04  0.15085590060E+03  0.14046105918E+04  0.50400001928E-02 0.  1.
</event>
<event>
 5   0  0.4115143E-06  0.2944631E+04  0.7818609E-02  0.8259721E-01
       -2   -1    0    0    0  501  0.00000000000E+00  0.00000000000E+00  0.11741239628E+04  0.11741239628E+04  0.25500000920E-02 0.  1.
        2   -1    0    0  501    0  0.00000000000E+00  0.00000000000E+00 -0.18462381989E+04  0.18462381989E+04  0.25500000920E-02 0. -1.
    10030    2    1    2    0    0  0.00000000000E+00  0.00000000000E+00 -0.67211423608E+03  0.30203621616E+04  0.29446307139E+04 0.  0.
        1    1    3    3  502    0 -0.12575459849E+04 -0.63483114749E+03  0.10306543776E+03  0.14124641498E+04  0.50400001928E-02 0.  1.
       -1    1    3    3    0  502  0.12575459849E+04  0.63483114749E+03 -0.77517967385E+03  0.16078980119E+04  0.50400001928E-02 0. -1.
</event>
<event>
 5   0  0.4224163E-06  0.2887864E+04  0.7818609E-02  0.8276497E-01
        2   -1    0    0  501    0  0.00000000000E+00  0.00000000000E+00  0.17434230692E+04  0.17434230692E+04  0.25500000920E-02 0. -1.
       -2   -1    0    0    0  501  0.00000000000E+00  0.00000000000E+00 -0.11958887271E+04  0.11958887271E+04  0.25500000920E-02 0.  1.
    10030    2    1    2    0    0  0.00000000000E+00  0.00000000000E+00  0.54753434213E+03  0.29393117962E+04  0.28878642592E+04 0.  0.
        4    1    3    3  502    0 -0.13305269000E+04 -0.44614955454E+03 -0.72270685390E+02  0.14051960438E+04  0.12699999809E+01 0.  1.
       -4    1    3    3    0  502  0.13305269000E+04  0.44614955454E+03  0.61980502752E+03  0.15341157524E+04  0.12699999809E+01 0. -1.
</event>
<event>
 5   0  0.1360125E-06  0.2883033E+04  0.7818609E-02  0.8277944E-01
       -3   -1    0    0    0  501  0.00000000000E+00  0.00000000000E+00  0.11075142617E+04  0.11075142663E+04  0.10100000352E+00 0.  1.
        3   -1    0    0  501    0  0.00000000000E+00  0.00000000000E+00 -0.18762462225E+04  0.18762462253E+04  0.10100000352E+00 0. -1.
    10030    2    1    2    0    0  0.00000000000E+00  0.00000000000E+00 -0.76873196079E+03  0.29837604916E+04  0.28830327511E+04 0.  0.
        4    1    3    3  502    0 -0.30993272432E+03  0.46578389203E+03  0.99056593092E+03  0.11376446739E+04  0.12699999809E+01 0.  1.
       -4    1    3    3    0  502  0.30993272432E+03 -0.46578389203E+03 -0.17592978917E+04  0.18461158177E+04  0.12699999809E+01 0. -1.
</event>
<event>
 5   0  0.4115143E-06  0.2900098E+04  0.7818609E-02  0.8272848E-01
        2   -1    0    0  501    0  0.00000000000E+00  0.00000000000E+00  0.30350930294E+04  0.30350930294E+04  0.25500000920E-02 0. -1.
       -2   -1    0    0    0  501  0.00000000000E+00  0.00000000000E+00 -0.69277660143E+03  0.69277660144E+03  0.25500000920E-02 0.  1.
    10030    2    1    2    0    0  0.00000000000E+00  0.00000000000E+00  0.23423164279E+04  0.37278696308E+04  0.29000975390E+04 0.  0.
        1    1    3    3  502    0 -0.12386824468E+04  0.68810463610E+03  0.77533947982E+03  0.16152317181E+04  0.50400001928E-02 0.  1.
       -1    1    3    3    0  502  0.12386824468E+04 -0.68810463610E+03  0.15669769481E+04  0.21126379127E+04  0.50400001928E-02 0. -1.
</event>
<event>
 5   0  0.4187518E-06  0.2903343E+04  0.7818609E-02  0.8271884E-01
        2   -1    0    0  501    0  0.00000000000E+00  0.00000000000E+00  0.25877887332E+04  0.25877887332E+04  0.25500000920E-02 0. -1.
       -2   -1    0    0    0  501  0.00000000000E+00  0.00000000000E+00 -0.81434387527E+03  0.81434387528E+03  0.25500000920E-02 0.  1.
    10030    2    1    2    0    0  0.00000000000E+00  0.00000000000E+00  0.17734448579E+04  0.34021326084E+04  0.29033428357E+04 0.  0.
        3    1    3    3  502    0 -0.13032599849E+04 -0.53470217098E+03  0.47582884464E+03  0.14868779706E+04  0.10100000352E+00 0.  1.
       -3    1    3    3    0  502  0.13032599849E+04  0.53470217098E+03  0.12976160133E+04  0.19152546379E+04  0.10100000352E+00 0. -1.
</event>
<event>
 5   0  0.1602873E-06  0.2951872E+04  0.7818609E-02  0.8257609E-01
       -1   -1    0    0    0  501  0.00000000000E+00  0.00000000000E+00  0.17528551986E+04  0.17528551987E+04  0.50400001928E-02 0. -1.
        1   -1    0    0  501    0  0.00000000000E+00  0.00000000000E+00 -0.12427650206E+04  0.12427650206E+04  0.50400001928E-02 0.  1.
    10030    2    1    2    0    0  0.00000000000E+00  0.00000000000E+00  0.51009017808E+03  0.29956202192E+04  0.29518720345E+04 0.  0.
        1    1    3    3  502    0 -0.11974028993E+04 -0.82253096096E+03 -0.96971322138E+01  0.14527301606E+04  0.50400001928E-02 0.  1.
       -1    1    3    3    0  502  0.11974028993E+04  0.82253096096E+03  0.51978731029E+03  0.15428900586E+04  0.50400001928E-02 0. -1.
</event>
<event>
 5   0  0.1602873E-06  0.2585595E+04  0.7818609E-02  0.8373111E-01
        1   -1    0    0  501    0  0.00000000000E+00  0.00000000000E+00  0.13198890413E+04  0.13198890413E+04  0.50400001928E-02 0. -1.
       -1   -1    0    0    0  501  0.00000000000E+00  0.00000000000E+00 -0.12662623740E+04  0.12662623740E+04  0.50400001928E-02 0.  1.
    10030    2    1    2    0    0  0.00000000000E+00  0.00000000000E+00  0.53626667354E+02  0.25861514153E+04  0.25855953519E+04 0.  0.
        1    1    3    3  502    0  0.45896989060E+03 -0.20792430877E+03 -0.11640055832E+04  0.12683827800E+04  0.50400001928E-02 0.  1.
       -1    1    3    3    0  502 -0.45896989060E+03  0.20792430877E+03  0.12176322506E+04  0.13177686354E+04  0.50400001928E-02 0. -1.
</event>
<event>
 5   0  0.1543678E-06  0.2778590E+04  0.7818609E-02  0.8309946E-01
        1   -1    0    0  501    0  0.00000000000E+00  0.00000000000E+00  0.16463658210E+04  0.16463658210E+04  0.50400001928E-02 0.  1.
       -1   -1    0    0    0  501  0.00000000000E+00  0.00000000000E+00 -0.11723643644E+04  0.11723643644E+04  0.50400001928E-02 0. -1.
    10030    2    1    2    0    0  0.00000000000E+00  0.00000000000E+00  0.47400145666E+03  0.28187301854E+04  0.27785900161E+04 0.  0.
        3    1    3    3  502    0  0.11145186416E+03 -0.11778253110E+04 -0.50183839077E+03  0.12851209134E+04  0.10100000352E+00 0. -1.
       -3    1    3    3    0  502 -0.11145186416E+03  0.11778253110E+04  0.97583984743E+03  0.15336092721E+04  0.10100000352E+00 0.  1.
</event>
<event>
 5   0  0.1511126E-06  0.2906306E+04  0.7818609E-02  0.8271004E-01
        1   -1    0    0  501    0  0.00000000000E+00  0.00000000000E+00  0.14577713075E+04  0.14577713075E+04  0.50400001928E-02 0.  1.
       -1   -1    0    0    0  501  0.00000000000E+00  0.00000000000E+00 -0.14485490573E+04  0.14485490573E+04  0.50400001928E-02 0. -1.
    10030    2    1    2    0    0  0.00000000000E+00  0.00000000000E+00  0.92222501892E+01  0.29063203648E+04  0.29063057329E+04 0.  0.
        5    1    3    3  502    0 -0.10246425531E+04  0.44707711206E+03 -0.92375816330E+03  0.14502143083E+04  0.46999998093E+01 0. -1.
       -5    1    3    3    0  502  0.10246425531E+04 -0.44707711206E+03  0.93298041349E+03  0.14561060565E+04  0.46999998093E+01 0.  1.
</event>
<event>
 5   0  0.1511126E-06  0.2923427E+04  0.7818609E-02  0.8265941E-01
        1   -1    0    0  501    0  0.00000000000E+00  0.00000000000E+00  0.19108716236E+04  0.19108716236E+04  0.50400001928E-02 0.  1.
       -1   -1    0    0    0  501  0.00000000000E+00  0.00000000000E+00 -0.11181316105E+04  0.11181316105E+04  0.50400001928E-02 0. -1.
    10030    2    1    2    0    0  0.00000000000E+00  0.00000000000E+00  0.79274001302E+03  0.30290032341E+04  0.29234267331E+04 0.  0.
        5    1    3    3  502    0  0.14257974327E+04 -0.34850011344E+02  0.72804145066E+03  0.16013054943E+04  0.46999998093E+01 0.  1.
       -5    1    3    3    0  502 -0.14257974327E+04  0.34850011344E+02  0.64698562368E+02  0.14276977398E+04  0.46999998093E+01 0. -1.
</event>
<event>
 5   0  0.4224163E-06  0.2969828E+04  0.7818609E-02  0.8252400E-01
        2   -1    0    0  501    0  0.00000000000E+00  0.00000000000E+00  0.30970625221E+04  0.30970625221E+04  0.25500000920E-02 0.  1.
       -2   -1    0    0    0  501  0.00000000000E+00  0.00000000000E+00 -0.71195505464E+03  0.71195505464E+03  0.25500000920E-02 0. -1.
    10030    2    1    2    0    0  0.00000000000E+00  0.00000000000E+00  0.23851074674E+04  0.38090175767E+04  0.29698278180E+04 0.  0.
        4    1    3    3  502    0  0.92023481714E+03  0.61711661385E+03  0.24604865683E+04  0.26984552617E+04  0.12699999809E+01 0.  1.
       -4    1    3    3    0  502 -0.92023481714E+03 -0.61711661385E+03 -0.75379100854E+02  0.11105623150E+04  0.12699999809E+01 0. -1.
</event>
<event>
 5   0  0.4115143E-06  0.2893551E+04  0.7818609E-02  0.8274799E-01
       -2   -1    0    0    0  501  0.00000000000E+00  0.00000000000E+00  0.22070967142E+04  0.22070967142E+04  0.25500000920E-02 0. -1.
        2   -1    0    0  501    0  0.00000000000E+00  0.00000000000E+00 -0.94837712841E+03  0.94837712841E+03  0.25500000920E-02 0.  1.
    10030    2    1    2    0    0  0.00000000000E+00  0.00000000000E+00  0.12587195858E+04  0.31554738426E+04  0.28935514814E+04 0.  0.
        1    1    3    3  502    0  0.97356990341E+02  0.14431279951E+04  0.59380066837E+03  0.15635523745E+04  0.50400001928E-02 0.  1.
       -1    1    3    3    0  502 -0.97356990341E+02 -0.14431279951E+04  0.66491891742E+03  0.15919214681E+04  0.50400001928E-02 0. -1.
</event>
<event>
 5   0  0.1550278E-06  0.2953096E+04  0.7818609E-02  0.8257253E-01
       -1   -1    0    0    0  501  0.00000000000E+00  0.00000000000E+00  0.13296798763E+04  0.13296798763E+04  0.50400001928E-02 0. -1.
        1   -1    0    0  501    0  0.00000000000E+00  0.00000000000E+00 -0.16396379945E+04  0.16396379945E+04  0.50400001928E-02 0.  1.
    10030    2    1    2    0    0  0.00000000000E+00  0.00000000000E+00 -0.30995811822E+03  0.29693178708E+04  0.29530957625E+04 0.  0.
        2    1    3    3  502    0 -0.98394714183E+03  0.41946780290E+03 -0.11784548483E+04  0.15914964797E+04  0.25500000920E-02 0.  1.
       -2    1    3    3    0  502  0.98394714183E+03 -0.41946780290E+03  0.86849673003E+03  0.13778213911E+04  0.25500000920E-02 0. -1.
</event>
<event>
 5   0  0.4148677E-06  0.2898028E+04  0.7818609E-02  0.8273464E-01
        2   -1    0    0  501    0  0.00000000000E+00  0.00000000000E+00  0.14934502349E+04  0.14934502349E+04  0.25500000920E-02 0. -1.
       -2   -1    0    0    0  501  0.00000000000E+00  0.00000000000E+00 -0.14059002604E+04  0.14059002604E+04  0.25500000920E-02 0.  1.
    10030    2    1    2    0    0  0.00000000000E+00  0.00000000000E+00  0.87549974493E+02  0.28993504952E+04  0.28980283463E+04 0.  0.
        5    1    3    3  502    0  0.57555474711E+03 -0.13761124072E+03  0.13670347807E+04  0.14896329421E+04  0.46999998093E+01 0. -1.
       -5    1    3    3    0  502 -0.57555474711E+03  0.13761124072E+03 -0.12794848062E+04  0.14097175532E+04  0.46999998093E+01 0.  1.
</event>
<event>
 5   0  0.1550278E-06  0.2937015E+04  0.7818609E-02  0.8261949E-01
       -1   -1    0    0    0  501  0.00000000000E+00  0.00000000000E+00  0.93327535712E+03  0.93327535713E+03  0.50400001928E-02 0.  1.
        1   -1    0    0  501    0  0.00000000000E+00  0.00000000000E+00 -0.23106937892E+04  0.23106937892E+04  0.50400001928E-02 0. -1.
    10030    2    1    2    0    0  0.00000000000E+00  0.00000000000E+00 -0.13774184321E+04  0.32439691463E+04  0.29370145191E+04 0.  0.
        2    1    3    3  502    0  0.10749923233E+04  0.41464681094E+03 -0.16943452812E+04  0.20489866776E+04  0.25500000920E-02 0. -1.
       -2    1    3    3    0  502 -0.10749923233E+04 -0.41464681094E+03  0.31692684914E+03  0.11949824688E+04  0.25500000920E-02 0.  1.
</event>
<event>
 5   0  0.4162450E-06  0.2896372E+04  0.7818609E-02  0.8273958E-01
       -2   -1    0    0    0  501  0.00000000000E+00  0.00000000000E+00  0.19600157182E+04  0.19600157182E+04  0.25500000920E-02 0.  1.
        2   -1    0    0  501    0  0.00000000000E+00  0.00000000000E+00 -0.10700130524E+04  0.10700130524E+04  0.25500000920E-02 0. -1.
    10030    2    1    2    0    0  0.00000000000E+00  0.00000000000E+00  0.89000266582E+03  0.30300287706E+04  0.28963718003E+04 0.  0.
        2    1    3    3  502    0  0.88972039353E+03 -0.53370341729E+02 -0.74906903637E+03  0.11642831242E+04  0.25500000920E-02 0. -1.
       -2    1    3    3    0  502 -0.88972039353E+03  0.53370341729E+02  0.16390717022E+04  0.18657456464E+04  0.25500000920E-02 0.  1.
</event>
<event>
 5   0  0.4187518E-06  0.2908819E+04  0.7818609E-02  0.8270258E-01
        2   -1    0    0  501    0  0.00000000000E+00  0.00000000000E+00  0.24391553881E+04  0.24391553881E+04  0.25500000920E-02 0.  1.
       -2   -1    0    0    0  501  0.00000000000E+00  0.00000000000E+00 -0.86722951606E+03  0.86722951606E+03  0.25500000920E-02 0. -1.
    10030    2    1    2    0    0  0.00000000000E+00  0.00000000000E+00  0.15719258720E+04  0.33063849041E+04  0.29088193803E+04 0.  0.
        3    1    3    3  502    0  0.49930077518E+03  0.82570169333E+03  0.20229165040E+04  0.22412665488E+04  0.10100000352E+00 0.  1.
       -3    1    3    3    0  502 -0.49930077518E+03 -0.82570169333E+03 -0.45099063200E+03  0.10651183553E+04  0.10100000352E+00 0. -1.
</event>
<event>
 5   0  0.4115143E-06  0.2875896E+04  0.7818609E-02  0.8280085E-01
       -2   -1    0    0    0  501  0.00000000000E+00  0.00000000000E+00  0.13113545504E+04  0.13113545504E+04  0.25500000920E-02 0. -1.
        2   -1    0    0  501    0  0.00000000000E+00  0.00000000000E+00 -0.15767620767E+04  0.15767620767E+04  0.25500000920E-02 0.  1.
    10030    2    1    2    0    0  0.00000000000E+00  0.00000000000E+00 -0.26540752631E+03  0.28881166272E+04  0.28758957730E+04 0.  0.
        1    1    3    3  502    0 -0.91685587710E+03  0.76231588432E+03 -0.93982540198E+03  0.15182298881E+04  0.50400001928E-02 0.  1.
       -1    1    3    3    0  502  0.91685587710E+03 -0.76231588432E+03  0.67441787567E+03  0.13698867391E+04  0.50400001928E-02 0. -1.
</event>
<event>
 5   0  0.4224163E-06  0.2897046E+04  0.7818609E-02  0.8273757E-01
       -2   -1    0    0    0  501  0.00000000000E+00  0.00000000000E+00  0.12048272804E+04  0.12048272804E+04  0.25500000920E-02 0. -1.
        2   -1    0    0  501    0  0.00000000000E+00  0.00000000000E+00 -0.17415103742E+04  0.17415103742E+04  0.25500000920E-02 0.  1.
    10030    2    1    2    0    0  0.00000000000E+00  0.00000000000E+00 -0.53668309387E+03  0.29463376546E+04  0.28970462253E+04 0.  0.
        4    1    3    3  502    0 -0.38434604578E+02 -0.43219092672E+03 -0.16738654865E+04  0.17291886814E+04  0.12699999809E+01 0.  1.
       -4    1    3    3    0  502  0.38434604578E+02  0.43219092672E+03  0.11371823926E+04  0.12171489732E+04  0.12699999809E+01 0. -1.
</event>
<event>
 5   0  0.1511126E-06  0.2904533E+04  0.7818609E-02  0.8271530E-01
       -1   -1    0    0    0  501  0.00000000000E+00  0.00000000000E+00  0.10873710850E+04  0.10873710850E+04  0.50400001928E-02 0. -1.
        1   -1    0    0  501    0  0.00000000000E+00  0.00000000000E+00 -0.19396121114E+04  0.19396121114E+04  0.50400001928E-02 0.  1.
    10030    2    1    2    0    0  0.00000000000E+00  0.00000000000E+00 -0.85224102642E+03  0.30269831964E+04  0.29045330958E+04 0.  0.
        5    1    3    3  502    0  0.98018005489E+03  0.49218714991E+03  0.56587781146E+03  0.12341964665E+04  0.46999998093E+01 0. -1.
       -5    1    3    3    0  502 -0.98018005489E+03 -0.49218714991E+03 -0.14181188379E+04  0.17927867299E+04  0.46999998093E+01 0.  1.
</event>
<event>
 5   0  0.1580212E-06  0.2885976E+04  0.7818609E-02  0.8277062E-01
       -1   -1    0    0    0  501  0.00000000000E+00  0.00000000000E+00  0.17034553496E+04  0.17034553496E+04  0.50400001928E-02 0.  1.
        1   -1    0    0  501    0  0.00000000000E+00  0.00000000000E+00 -0.12223474817E+04  0.12223474817E+04  0.50400001928E-02 0. -1.
    10030    2    1    2    0    0  0.00000000000E+00  0.00000000000E+00  0.48110786797E+03  0.29258028313E+04  0.28859759921E+04 0.  0.
        4    1    3    3  502    0  0.53129226568E+03 -0.65269292298E+03 -0.94777084777E+03  0.12674978170E+04  0.12699999809E+01 0. -1.
       -4    1    3    3    0  502 -0.53129226568E+03  0.65269292298E+03  0.14288787157E+04  0.16583050143E+04  0.12699999809E+01 0.  1.
</event>
<event>
 5   0  0.1360125E-06  0.2901574E+04  0.7818609E-02  0.8272409E-01
       -3   -1    0    0    0  501  0.00000000000E+00  0.00000000000E+00  0.24982954324E+04  0.24982954345E+04  0.10100000352E+00 0.  1.
        3   -1    0    0  501    0  0.00000000000E+00  0.00000000000E+00 -0.84248788046E+03  0.84248788651E+03  0.10100000352E+00 0. -1.
    10030    2    1    2    0    0  0.00000000000E+00  0.00000000000E+00  0.16558075520E+04  0.33407833210E+04  0.29015744948E+04 0.  0.
        1    1    3    3  502    0 -0.32719350517E+03  0.13729015898E+04  0.44108954327E+03  0.14786731723E+04  0.50400001928E-02 0. -1.
       -1    1    3    3    0  502  0.32719350517E+03 -0.13729015898E+04  0.12147180087E+04  0.18621101487E+04  0.50400001928E-02 0.  1.
</event>
<event>
 5   0  0.4187518E-06  0.2774712E+04  0.7818609E-02  0.8311162E-01
        2   -1    0    0  501    0  0.00000000000E+00  0.00000000000E+00  0.24482926677E+04  0.24482926677E+04  0.25500000920E-02 0. -1.
       -2   -1    0    0    0  501  0.00000000000E+00  0.00000000000E+00 -0.78616296996E+03  0.78616296996E+03  0.25500000920E-02 0.  1.
    10030    2    1    2    0    0  0.00000000000E+00  0.00000000000E+00  0.16621296978E+04  0.32344556377E+04  0.27747122626E+04 0.  0.
        3    1    3    3  502    0  0.10258148235E+04 -0.45898562327E+03 -0.11723217138E+03  0.11299147077E+04  0.10100000352E+00 0.  1.
       -3    1    3    3    0  502 -0.10258148235E+04  0.45898562327E+03  0.17793618691E+04  0.21045409300E+04  0.10100000352E+00 0. -1.
</event>
<event>
 5   0  0.4162450E-06  0.2889329E+04  0.7818609E-02  0.8276060E-01
       -2   -1    0    0    0  501  0.00000000000E+00  0.00000000000E+00  0.10448698063E+04  0.10448698063E+04  0.25500000920E-02 0.  1.
        2   -1    0    0  501    0  0.00000000000E+00  0.00000000000E+00 -0.19974305872E+04  0.19974305872E+04  0.25500000920E-02 0. -1.
    10030    2    1    2    0    0  0.00000000000E+00  0.00000000000E+00 -0.95256078084E+03  0.30423003935E+04  0.28893285800E+04 0.  0.
        2    1    3    3  502    0 -0.97753584846E+03 -0.94967687104E+03  0.28246048376E+02  0.13631802279E+04  0.25500000920E-02 0.  1.
       -2    1    3    3    0  502  0.97753584846E+03  0.94967687104E+03 -0.98080682921E+03  0.16791201656E+04  0.25500000920E-02 0. -1.
</event>
<event>
 5   0  0.4148677E-06  0.2898320E+04  0.7818609E-02  0.8273378E-01
        2   -1    0    0  501    0  0.00000000000E+00  0.00000000000E+00  0.93815421297E+03  0.93815421298E+03  0.25500000920E-02 0. -1.
       -2   -1    0    0    0  501  0.00000000000E+00  0.00000000000E+00 -0.22385065379E+04  0.22385065379E+04  0.25500000920E-02 0.  1.
    10030    2    1    2    0    0  0.00000000000E+00  0.00000000000E+00 -0.13003523249E+04  0.31766607508E+04  0.28983197472E+04 0.  0.
        5    1    3    3  502    0  0.72376774653E+03  0.20187198569E+03 -0.20083094973E+04  0.21442763760E+04  0.46999998093E+01 0.  1.
       -5    1    3    3    0  502 -0.72376774653E+03 -0.20187198569E+03  0.70795717241E+03  0.10323843749E+04  0.46999998093E+01 0. -1.
</event>
<event>
 5   0  0.1580212E-06  0.2843101E+04  0.7818609E-02  0.8290011E-01
       -1   -1    0    0    0  501  0.00000000000E+00  0.00000000000E+00  0.96274436698E+03  0.96274436699E+03  0.50400001928E-02 0. -1.
        1   -1    0    0  501    0  0.00000000000E+00  0.00000000000E+00 -0.20990060864E+04  0.20990060864E+04  0.50400001928E-02 0.  1.
    10030    2    1    2    0    0  0.00000000000E+00  0.00000000000E+00 -0.11362617194E+04  0.30617504534E+04  0.28431013249E+04 0.  0.
        4    1    3    3  502    0  0.82507467444E+03  0.16546310428E+03  0.66570283221E+03  0.10729809556E+04  0.12699999809E+01 0. -1.
       -4    1    3    3    0  502 -0.82507467444E+03 -0.16546310428E+03 -0.18019645516E+04  0.19887694978E+04  0.12699999809E+01 0.  1.
</event>
<event>
 5   0  0.1543678E-06  0.2927259E+04  0.7818609E-02  0.8264813E-01
       -1   -1    0    0    0  501  0.00000000000E+00  0.00000000000E+00  0.10081508532E+04  0.10081508533E+04  0.50400001928E-02 0. -1.
        1   -1    0    0  501    0  0.00000000000E+00  0.00000000000E+00 -0.21248919339E+04  0.21248919340E+04  0.50400001928E-02 0.  1.
    10030    2    1    2    0    0  0.00000000000E+00  0.00000000000E+00 -0.11167410807E+04  0.31330427872E+04  0.29272592070E+04 0.  0.
        3    1    3    3  502    0  0.47097132157E+03 -0.11820320438E+04  0.21580265082E+03  0.12905752719E+04  0.10100000352E+00 0. -1.
       -3    1    3    3    0  502 -0.47097132157E+03  0.11820320438E+04 -0.13325437315E+04  0.18424675153E+04  0.10100000352E+00 0.  1.
</event>
<event>
 5   0  0.4162450E-06  0.2909586E+04  0.7818609E-02  0.8270031E-01
        2   -1    0    0  501    0  0.00000000000E+00  0.00000000000E+00  0.12727811104E+04  0.12727811104E+04  0.25500000920E-02 0.  1.
       -2   -1    0    0    0  501  0.00000000000E+00  0.00000000000E+00 -0.16628327985E+04  0.16628327985E+04  0.25500000920E-02 0. -1.
    10030    2    1    2    0    0  0.00000000000E+00  0.00000000000E+00 -0.39005168808E+03  0.29356139089E+04  0.29095856582E+04 0.  0.
        2    1    3    3  502    0  0.11319907812E+04  0.90110464850E+03 -0.34813799599E+03  0.14881507923E+04  0.25500000920E-02 0. -1.
       -2    1    3    3    0  502 -0.11319907812E+04 -0.90110464850E+03 -0.41913692097E+02  0.14474631166E+04  0.25500000920E-02 0.  1.
</event>
<event>
 5   0  0.1580212E-06  0.2877061E+04  0.7818609E-02  0.8279735E-01
        1   -1    0    0  501    0  0.00000000000E+00  0.00000000000E+00  0.12260142050E+04  0.12260142050E+04  0.50400001928E-02 0.  1.
       -1   -1    0    0    0  501  0.00000000000E+00  0.00000000000E+00 -0.16878837861E+04  0.16878837861E+04  0.50400001928E-02 0. -1.
    10030    2    1    2    0    0  0.00000000000E+00  0.00000000000E+00 -0.46186958103E+03  0.29138979911E+04  0.28770606516E+04 0.  0.
        4    1    3    3  502    0 -0.12532022905E+04 -0.21897729446E+03 -0.91102395118E+03  0.15647470368E+04  0.12699999809E+01 0. -1.
       -4    1    3    3    0  502  0.12532022905E+04  0.21897729446E+03  0.44915437016E+03  0.13491509544E+04  0.12699999809E+01 0.  1.
</event>
<event>
 5   0  0.4224163E-06  0.2894061E+04  0.7818609E-02  0.8274647E-01
       -2   -1    0    0    0  501  0.00000000000E+00  0.00000000000E+00  0.16834891958E+04  0.16834891958E+04  0.25500000920E-02 0. -1.
        2   -1    0    0  501    0  0.00000000000E+00  0.00000000000E+00 -0.12437840050E+04  0.12437840050E+04  0.25500000920E-02 0.  1.
    10030    2    1    2    0    0  0.00000000000E+00  0.00000000000E+00  0.43970519082E+03  0.29272732008E+04  0.28940607694E+04 0.  0.
        4    1    3    3  502    0  0.11057958591E+04  0.14445914548E+03 -0.71281521618E+03  0.13235407330E+04  0.12699999809E+01 0.  1.
       -4    1    3    3    0  502 -0.11057958591E+04 -0.14445914548E+03  0.11525204070E+04  0.16037324677E+04  0.12699999809E+01 0. -1.
</event>
<event>
 5   0  0.1511126E-06  0.2900659E+04  0.7818609E-02  0.8272681E-01
       -1   -1    0    0    0  501  0.00000000000E+00  0.00000000000E+00  0.10235878798E+04  0.10235878798E+04  0.50400001928E-02 0.  1.
        1   -1    0    0  501    0  0.00000000000E+00  0.00000000000E+00 -0.20549833431E+04  0.20549833431E+04  0.50400001928E-02 0. -1.
    10030    2    1    2    0    0  0.00000000000E+00  0.00000000000E+00 -0.10313954633E+04  0.30785712229E+04  0.29006592652E+04 0.  0.
        5    1    3    3  502    0  0.10273411669E+04 -0.25758007983E+03 -0.15672534295E+04  0.18915820820E+04  0.46999998093E+01 0. -1.
       -5    1    3    3    0  502 -0.10273411669E+04  0.25758007983E+03  0.53585796619E+03  0.11869891409E+04  0.46999998093E+01 0.  1.
</event>
<event>
 5   0  0.4148677E-06  0.2900292E+04  0.7818609E-02  0.8272791E-01
       -2   -1    0    0    0  501  0.00000000000E+00  0.00000000000E+00  0.84838797097E+03  0.84838797097E+03  0.25500000920E-02 0. -1.
        2   -1    0    0  501    0  0.00000000000E+00  0.00000000000E+00 -0.24787278930E+04  0.24787278930E+04  0.25500000920E-02 0.  1.
    10030    2    1    2    0    0  0.00000000000E+00  0.00000000000E+00 -0.16303399220E+04  0.33271158640E+04  0.29002916596E+04 0.  0.
        5    1    3    3  502    0 -0.10417027059E+04  0.95591456123E+03 -0.11850908066E+04  0.18448250556E+04  0.46999998093E+01 0.  1.
       -5    1    3    3    0  502  0.10417027059E+04 -0.95591456123E+03 -0.44524911543E+03  0.14822908084E+04  0.46999998093E+01 0. -1.
</event>
<event>
 5   0  0.4115143E-06  0.2973960E+04  0.7818609E-02  0.8251206E-01
       -2   -1    0    0    0  501  0.00000000000E+00  0.00000000000E+00  0.25942123694E+04  0.25942123694E+04  0.25500000920E-02 0. -1.
        2   -1    0    0  501    0  0.00000000000E+00  0.00000000000E+00 -0.85232411220E+03  0.85232411221E+03  0.25500000920E-02 0.  1.
    10030    2    1    2    0    0  0.00000000000E+00  0.00000000000E+00  0.17418882572E+04  0.34465364816E+04  0.29739601575E+04 0.  0.
        1    1    3    3  502    0 -0.14461895235E+04  0.11365036666E+03  0.12495517768E+04  0.19146175041E+04  0.50400001928E-02 0. -1.
       -1    1    3    3    0  502  0.14461895235E+04 -0.11365036666E+03  0.49233648037E+03  0.15319189776E+04  0.50400001928E-02 0.  1.
</event>
<event>
 5   0  0.1543678E-06  0.3008951E+04  0.7818609E-02  0.8241180E-01
       -1   -1    0    0    0  501  0.00000000000E+00  0.00000000000E+00  0.12405685157E+04  0.12405685157E+04  0.50400001928E-02 0. -1.
        1   -1    0    0  501    0  0.00000000000E+00  0.00000000000E+00 -0.18245234171E+04  0.18245234171E+04  0.50400001928E-02 0.  1.
    10030    2    1    2    0    0  0.00000000000E+00  0.00000000000E+00 -0.58395490141E+03  0.30650919327E+04  0.30089508519E+04 0.  0.
        3    1    3    3  502    0  0.21532943091E+03  0.59301575198E+03  0.10993065047E+04  0.12674814584E+04  0.10100000352E+00 0. -1.
       -3    1    3    3    0  502 -0.21532943091E+03 -0.59301575198E+03 -0.16832614061E+04  0.17976104743E+04  0.10100000352E+00 0.  1.
</event>
<event>
 5   0  0.1580212E-06  0.2908614E+04  0.7818609E-02  0.8270319E-01
        1   -1    0    0  501    0  0.00000000000E+00  0.00000000000E+00  0.22724496091E+04  0.22724496091E+04  0.50400001928E-02 0.  1.
       -1   -1    0    0    0  501  0.00000000000E+00  0.00000000000E+00 -0.93071769623E+03  0.93071769625E+03  0.50400001928E-02 0. -1.
    10030    2    1    2    0    0  0.00000000000E+00  0.00000000000E+00  0.13417319129E+04  0.32031673054E+04  0.29086141477E+04 0.  0.
        4    1    3    3  502    0 -0.64895376597E+03 -0.92300309962E+03  0.16813557979E+04  0.20248542279E+04  0.12699999809E+01 0.  1.
       -4    1    3    3    0  502  0.64895376597E+03  0.92300309962E+03 -0.33962388503E+03  0.11783130774E+04  0.12699999809E+01 0. -1.
</event>
<event>
 5   0  0.1580212E-06  0.2899649E+04  0.7818609E-02  0.8272982E-01
       -1   -1    0    0    0  501  0.00000000000E+00  0.00000000000E+00  0.14282067120E+04  0.14282067120E+04  0.50400001928E-02 0.  1.
        1   -1    0    0  501    0  0.00000000000E+00  0.00000000000E+00 -0.14717692579E+04  0.14717692579E+04  0.50400001928E-02 0. -1.
    10030    2    1    2    0    0  0.00000000000E+00  0.00000000000E+00 -0.43562545912E+02  0.28999759700E+04  0.28996487600E+04 0.  0.
        4    1    3    3  502    0  0.11508207269E+04  0.60028068087E+03 -0.66781382321E+03  0.14596924870E+04  0.12699999809E+01 0. -1.
       -4    1    3    3    0  502 -0.11508207269E+04 -0.60028068087E+03  0.62425127730E+03  0.14402834830E+04  0.12699999809E+01 0.  1.
</event>
<event>
 5   0  0.1580212E-06  0.2892325E+04  0.7818609E-02  0.8275165E-01
       -1   -1    0    0    0  501  0.00000000000E+00  0.00000000000E+00  0.15871823190E+04  0.15871823190E+04  0.50400001928E-02 0.  1.
        1   -1    0    0  501    0  0.00000000000E+00  0.00000000000E+00 -0.13176722213E+04  0.13176722213E+04  0.50400001928E-02 0. -1.
    10030    2    1    2    0    0  0.00000000000E+00  0.00000000000E+00  0.26951009775E+03  0.29048545403E+04  0.28923250522E+04 0.  0.
        4    1    3    3  502    0  0.39799758717E+03  0.29577247712E+02 -0.12612691265E+04  0.13229052556E+04  0.12699999809E+01 0. -1.
       -4    1    3    3    0  502 -0.39799758717E+03 -0.29577247712E+02  0.15307792242E+04  0.15819492847E+04  0.12699999809E+01 0.  1.
</event>
<event>
 5   0  0.1543678E-06  0.2902734E+04  0.7818609E-02  0.8272065E-01
        1   -1    0    0  501    0  0.00000000000E+00  0.00000000000E+00  0.14048418684E+04  0.14048418684E+04  0.50400001928E-02 0. -1.
       -1   -1    0    0    0  501  0.00000000000E+00  0.00000000000E+00 -0.14994325376E+04  0.14994325376E+04  0.50400001928E-02 0.  1.
    10030    2    1    2    0    0  0.00000000000E+00  0.00000000000E+00 -0.94590669246E+02  0.29042744060E+04  0.29027336134E+04 0.  0.
        3    1    3    3  502    0 -0.48248166925E+03  0.56443099990E+03 -0.12949916248E+04  0.14927740061E+04  0.10100000352E+00 0.  1.
       -3    1    3    3    0  502  0.48248166925E+03 -0.56443099990E+03  0.12004009555E+04  0.14115003999E+04  0.10100000352E+00 0. -1.
</event>
<event>
 5   0  0.4148677E-06  0.2902682E+04  0.7818609E-02  0.8272080E-01
        2   -1    0    0  501    0  0.00000000000E+00  0.00000000000E+00  0.18403943989E+04  0.18403943989E+04  0.25500000920E-02 0. -1.
       -2   -1    0    0    0  501  0.00000000000E+00  0.00000000000E+00 -0.11445319441E+04  0.11445319441E+04  0.25500000920E-02 0.  1.
    10030    2    1    2    0    0  0.00000000000E+00  0.00000000000E+00  0.69586245485E+03  0.29849263430E+04  0.29026816424E+04 0.  0.
        5    1    3    3  502    0  0.25197949572E+03 -0.18275014424E+03 -0.11097941404E+04  0.11526302120E+04  0.46999998093E+01 0.  1.
       -5    1    3    3    0  502 -0.25197949572E+03  0.18275014424E+03  0.18056565953E+04  0.18322961310E+04  0.46999998093E+01 0. -1.
</event>
<event>
 5   0  0.4162450E-06  0.2877486E+04  0.7818609E-02  0.8279608E-01
        2   -1    0    0  501    0  0.00000000000E+00  0.00000000000E+00  0.14163860301E+04  0.14163860301E+04  0.25500000920E-02 0. -1.
       -2   -1    0    0    0  501  0.00000000000E+00  0.00000000000E+00 -0.14614526895E+04  0.14614526895E+04  0.25500000920E-02 0.  1.
    10030    2    1    2    0    0  0.00000000000E+00  0.00000000000E+00 -0.45066659423E+02  0.28778387196E+04  0.28774858283E+04 0.  0.
        2    1    3    3  502    0  0.11827151364E+04  0.55275322775E+03 -0.62728090901E+03  0.14483896449E+04  0.25500000920E-02 0.  1.
       -2    1    3    3    0  502 -0.11827151364E+04 -0.55275322775E+03  0.58221424958E+03  0.14294490747E+04  0.25500000920E-02 0. -1.
</event>
<event>
 5   0  0.1550278E-06  0.2894952E+04  0.7818609E-02  0.8274381E-01
        1   -1    0    0  501    0  0.00000000000E+00  0.00000000000E+00  0.20968462923E+04  0.20968462923E+04  0.50400001928E-02 0. -1.
       -1   -1    0    0    0  501  0.00000000000E+00  0.00000000000E+00 -0.99920884636E+03  0.99920884637E+03  0.50400001928E-02 0.  1.
    10030    2    1    2    0    0  0.00000000000E+00  0.00000000000E+00  0.10976374460E+04  0.30960551387E+04  0.28949524105E+04 0.  0.
        2    1    3    3  502    0 -0.86565848325E+02  0.61957165306E+02  0.20926541721E+04  0.20953600694E+04  0.25500000920E-02 0. -1.
       -2    1    3    3    0  502  0.86565848325E+02 -0.61957165306E+02 -0.99501672613E+03  0.10006950693E+04  0.25500000920E-02 0.  1.
</event>
<event>
 5   0  0.1602873E-06  0.2888012E+04  0.7818609E-02  0.8276453E-01
       -1   -1    0    0    0  501  0.00000000000E+00  0.00000000000E+00  0.21198820008E+04  0.21198820008E+04  0.50400001928E-02 0. -1.
        1   -1    0    0  501    0  0.00000000000E+00  0.00000000000E+00 -0.98361757183E+03  0.98361757184E+03  0.50400001928E-02 0.  1.
    10030    2    1    2    0    0  0.00000000000E+00  0.00000000000E+00  0.11362644290E+04  0.31034995727E+04  0.28880119018E+04 0.  0.
        1    1    3    3  502    0 -0.21060648226E+03  0.48532238388E+03  0.20119840343E+04  0.20803780091E+04  0.50400001928E-02 0. -1.
       -1    1    3    3    0  502  0.21060648226E+03 -0.48532238388E+03 -0.87571960529E+03  0.10231215635E+04  0.50400001928E-02 0.  1.
</event>
<event>
 5   0  0.1543678E-06  0.2893988E+04  0.7818609E-02  0.8274668E-01
       -1   -1    0    0    0  501  0.00000000000E+00  0.00000000000E+00  0.86703991949E+03  0.86703991951E+03  0.50400001928E-02 0.  1.
        1   -1    0    0  501    0  0.00000000000E+00  0.00000000000E+00 -0.24148732863E+04  0.24148732863E+04  0.50400001928E-02 0. -1.
    10030    2    1    2    0    0  0.00000000000E+00  0.00000000000E+00 -0.15478333668E+04  0.32819132058E+04  0.28939879335E+04 0.  0.
        3    1    3    3  502    0  0.66418322492E+03 -0.89419970974E+02  0.68042999805E+03  0.95504988347E+03  0.10100000352E+00 0.  1.
       -3    1    3    3    0  502 -0.66418322492E+03  0.89419970974E+02 -0.22282633648E+04  0.23268633223E+04  0.10100000352E+00 0. -1.
</event>
<event>
 5   0  0.1602873E-06  0.2891057E+04  0.7818609E-02  0.8275543E-01
       -1   -1    0    0    0  501  0.00000000000E+00  0.00000000000E+00  0.74503885085E+03  0.74503885087E+03  0.50400001928E-02 0. -1.
        1   -1    0    0  501    0  0.00000000000E+00  0.00000000000E+00 -0.28046231552E+04  0.28046231552E+04  0.50400001928E-02 0.  1.
    10030    2    1    2    0    0  0.00000000000E+00  0.00000000000E+00 -0.20595843043E+04  0.35496620061E+04  0.28910573932E+04 0.  0.
        1    1    3    3  502    0  0.60000394655E+03  0.12337333128E+04 -0.15890185009E+04  0.20993052230E+04  0.50400001928E-02 0. -1.
       -1    1    3    3    0  502 -0.60000394655E+03 -0.12337333128E+04 -0.47056580344E+03  0.14503567831E+04  0.50400001928E-02 0.  1.
</event>
<event>
 5   0  0.1580212E-06  0.2891841E+04  0.7818609E-02  0.8275309E-01
        1   -1    0    0  501    0  0.00000000000E+00  0.00000000000E+00  0.12452208293E+04  0.12452208293E+04  0.50400001928E-02 0. -1.
       -1   -1    0    0    0  501  0.00000000000E+00  0.00000000000E+00 -0.16789680549E+04  0.16789680549E+04  0.50400001928E-02 0.  1.
    10030    2    1    2    0    0  0.00000000000E+00  0.00000000000E+00 -0.43374722566E+03  0.29241888842E+04  0.28918409318E+04 0.  0.
        4    1    3    3  502    0 -0.92020081922E+03  0.69024958247E+03  0.66897972029E+03  0.13306951239E+04  0.12699999809E+01 0. -1.
       -4    1    3    3    0  502  0.92020081922E+03 -0.69024958247E+03 -0.11027269459E+04  0.15934937603E+04  0.12699999809E+01 0.  1.
</event>
<event>
 5   0  0.1580212E-06  0.2910342E+04  0.7818609E-02  0.8269807E-01
       -1   -1    0    0    0  501  0.00000000000E+00  0.00000000000E+00  0.10271454698E+04  0.10271454699E+04  0.50400001928E-02 0.  1.
        1   -1    0    0  501    0  0.00000000000E+00  0.00000000000E+00 -0.20615608130E+04  0.20615608130E+04  0.50400001928E-02 0. -1.
    10030    2    1    2    0    0  0.00000000000E+00  0.00000000000E+00 -0.10344153431E+04  0.30887062828E+04  0.29103421448E+04 0.  0.
        4    1    3    3  502    0  0.10535384937E+03  0.13470065724E+04 -0.10906904001E+04  0.17364139200E+04  0.12699999809E+01 0. -1.
       -4    1    3    3    0  502 -0.10535384937E+03 -0.13470065724E+04  0.56275056942E+02  0.13522923629E+04  0.12699999809E+01 0.  1.
</event>
<event>
 5   0  0.1543678E-06  0.2901384E+04  0.7818609E-02  0.8272466E-01
        1   -1    0    0  501    0  0.00000000000E+00  0.00000000000E+00  0.11637544200E+04  0.11637544200E+04  0.50400001928E-02 0.  1.
       -1   -1    0    0    0  501  0.00000000000E+00  0.00000000000E+00 -0.18083771695E+04  0.18083771695E+04  0.50400001928E-02 0. -1.
    10030    2    1    2    0    0  0.00000000000E+00  0.00000000000E+00 -0.64462274944E+03  0.29721315895E+04  0.29013837554E+04 0.  0.
        3    1    3    3  502    0  0.94762519763E+03 -0.10942477699E+04 -0.42022030072E+03  0.15073011671E+04  0.10100000352E+00 0. -1.
       -3    1    3    3    0  502 -0.94762519763E+03  0.10942477699E+04 -0.22440244872E+03  0.14648304224E+04  0.10100000352E+00 0.  1.
</event>
<event>
 5   0  0.4162450E-06  0.2928143E+04  0.7818609E-02  0.8264553E-01
       -2   -1    0    0    0  501  0.00000000000E+00  0.00000000000E+00  0.27664574297E+04  0.27664574297E+04  0.25500000920E-02 0.  1.
        2   -1    0    0  501    0  0.00000000000E+00  0.00000000000E+00 -0.77481982287E+03  0.77481982287E+03  0.25500000920E-02 0. -1.
    10030    2    1    2    0    0  0.00000000000E+00  0.00000000000E+00  0.19916376069E+04  0.35412772526E+04  0.29281434771E+04 0.  0.
        2    1    3    3  502    0 -0.23708217180E+03 -0.12639771953E+04  0.18421001718E+04  0.22465928313E+04  0.25500000920E-02 0.  1.
       -2    1    3    3    0  502  0.23708217180E+03  0.12639771953E+04  0.14953743501E+03  0.12946844213E+04  0.25500000920E-02 0. -1.
</event>
<event>
 5   0  0.1360125E-06  0.2899126E+04  0.7818609E-02  0.8273138E-01
        3   -1    0    0  501    0  0.00000000000E+00  0.00000000000E+00  0.18303407574E+04  0.18303407601E+04  0.10100000352E+00 0. -1.
       -3   -1    0    0    0  501  0.00000000000E+00  0.00000000000E+00 -0.11480009295E+04  0.11480009339E+04  0.10100000352E+00 0.  1.
    10030    2    1    2    0    0  0.00000000000E+00  0.00000000000E+00  0.68233982787E+03  0.29783416941E+04  0.28991260073E+04 0.  0.
        1    1    3    3  502    0  0.20229900192E+03 -0.13954420100E+04 -0.42457017010E+01  0.14100359270E+04  0.50400001928E-02 0.  1.
       -1    1    3    3    0  502 -0.20229900192E+03  0.13954420100E+04  0.68658552958E+03  0.15683057670E+04  0.50400001928E-02 0. -1.
</event>
<event>
 5   0  0.4115143E-06  0.2900278E+04  0.7818609E-02  0.8272795E-01
        2   -1    0    0  501    0  0.00000000000E+00  0.00000000000E+00  0.12013564407E+04  0.12013564407E+04  0.25500000920E-02 0.  1.
       -2   -1    0    0    0  501  0.00000000000E+00  0.00000000000E+00 -0.17504402444E+04  0.17504402444E+04  0.25500000920E-02 0. -1.
    10030    2    1    2    0    0  0.00000000000E+00  0.00000000000E+00 -0.54908380368E+03  0.29517966851E+04  0.29002776845E+04 0.  0.
        1    1    3    3  502    0  0.56524709498E+03 -0.13150503732E+04 -0.51113830777E+03  0.15199092513E+04  0.50400001928E-02 0. -1.
       -1    1    3    3    0  502 -0.56524709498E+03  0.13150503732E+04 -0.37945495914E+02  0.14318874338E+04  0.50400001928E-02 0.  1.
</event>
<event>
 5   0  0.1543678E-06  0.2901480E+04  0.7818609E-02  0.8272437E-01
        1   -1    0    0  501    0  0.00000000000E+00  0.00000000000E+00  0.27160485818E+04  0.27160485818E+04  0.50400001928E-02 0.  1.
       -1   -1    0    0    0  501  0.00000000000E+00  0.00000000000E+00 -0.77489289853E+03  0.77489289854E+03  0.50400001928E-02 0. -1.
    10030    2    1    2    0    0  0.00000000000E+00  0.00000000000E+00  0.19411556832E+04  0.34909414803E+04  0.29014801451E+04 0.  0.
        3    1    3    3  502    0  0.58622638833E+03 -0.83656382684E+03 -0.26881962610E+03  0.10562975037E+04  0.10100000352E+00 0. -1.
       -3    1    3    3    0  502 -0.58622638833E+03  0.83656382684E+03  0.22099753093E+04  0.24346439766E+04  0.10100000352E+00 0.  1.
</event>
<event>
 5   0  0.4115143E-06  0.2944520E+04  0.7818609E-02  0.8259753E-01
       -2   -1    0    0    0  501  0.00000000000E+00  0.00000000000E+00  0.14390672849E+04  0.14390672849E+04  0.25500000920E-02 0.  1.
        2   -1    0    0  501    0  0.00000000000E+00  0.00000000000E+00 -0.15062186710E+04  0.15062186710E+04  0.25500000920E-02 0. -1.
    10030    2    1    2    0    0  0.00000000000E+00  0.00000000000E+00 -0.67151386187E+02  0.29452859559E+04  0.29445203435E+04 0.  0.
        1    1    3    3  502    0 -0.14654402277E+04  0.12355769283E+03 -0.10264760519E+03  0.14742177910E+04  0.50400001928E-02 0. -1.
       -1    1    3    3    0  502  0.14654402277E+04 -0.12355769283E+03  0.35496219006E+02  0.14710681649E+04  0.50400001928E-02 0.  1.
</event>
<event>
 5   0  0.1602873E-06  0.3097140E+04  0.7818609E-02  0.8216523E-01
        1   -1    0    0  501    0  0.00000000000E+00  0.00000000000E+00  0.15656216068E+04  0.15656216068E+04  0.50400001928E-02 0. -1.
       -1   -1    0    0    0  501  0.00000000000E+00  0.00000000000E+00 -0.15317039000E+04  0.15317039000E+04  0.50400001928E-02 0.  1.
    10030    2    1    2    0    0  0.00000000000E+00  0.00000000000E+00  0.33917706810E+02  0.30973255068E+04  0.30971397908E+04 0.  0.
        1    1    3    3  502    0  0.11632887662E+04 -0.92210102797E+03  0.45807221186E+03  0.15534932284E+04  0.50400001928E-02 0. -1.
       -1    1    3    3    0  502 -0.11632887662E+04  0.92210102797E+03 -0.42415450505E+03  0.15438322783E+04  0.50400001928E-02 0.  1.
</event>
<event>
 5   0  0.4148677E-06  0.2893469E+04  0.7818609E-02  0.8274823E-01
        2   -1    0    0  501    0  0.00000000000E+00  0.00000000000E+00  0.20305775183E+04  0.20305775183E+04  0.25500000920E-02 0.  1.
       -2   -1    0    0    0  501  0.00000000000E+00  0.00000000000E+00 -0.10307613281E+04  0.10307613281E+04  0.25500000920E-02 0. -1.
    10030    2    1    2    0    0  0.00000000000E+00  0.00000000000E+00  0.99981619018E+03  0.30613388464E+04  0.28934690457E+04 0.  0.
        5    1    3    3  502    0 -0.86096862186E+03 -0.25762649580E+03 -0.69961436264E+03  0.11389120798E+04  0.46999998093E+01 0. -1.
       -5    1    3    3    0  502  0.86096862186E+03  0.25762649580E+03  0.16994305528E+04  0.19224267666E+04  0.46999998093E+01 0.  1.
</event>
<event>
 5   0  0.1550278E-06  0.2896892E+04  0.7818609E-02  0.8273803E-01
        1   -1    0    0  501    0  0.00000000000E+00  0.00000000000E+00  0.17405645266E+04  0.17405645266E+04  0.50400001928E-02 0. -1.
       -1   -1    0    0    0  501  0.00000000000E+00  0.00000000000E+00 -0.12053533020E+04  0.12053533020E+04  0.50400001928E-02 0.  1.
    10030    2    1    2    0    0  0.00000000000E+00  0.00000000000E+00  0.53521122454E+03  0.29459178286E+04  0.28968915751E+04 0.  0.
        2    1    3    3  502    0 -0.96477800858E+03 -0.10550289644E+04  0.31047906886E+02  0.14299813614E+04  0.25500000920E-02 0. -1.
       -2    1    3    3    0  502  0.96477800858E+03  0.10550289644E+04  0.50416331766E+03  0.15159364671E+04  0.25500000920E-02 0.  1.
</event>
<event>
 5   0  0.4187518E-06  0.3021907E+04  0.7818609E-02  0.8237503E-01
       -2   -1    0    0    0  501  0.00000000000E+00  0.00000000000E+00  0.96156815000E+03  0.96156815000E+03  0.25500000920E-02 0.  1.
        2   -1    0    0  501    0  0.00000000000E+00  0.00000000000E+00 -0.23742264201E+04  0.23742264201E+04  0.25500000920E-02 0. -1.
    10030    2    1    2    0    0  0.00000000000E+00  0.00000000000E+00 -0.14126582701E+04  0.33357945701E+04  0.30219070180E+04 0.  0.
        3    1    3    3  502    0  0.14951994895E+03  0.12875053126E+04 -0.15634862154E+04  0.20308902730E+04  0.10100000352E+00 0. -1.
       -3    1    3    3    0  502 -0.14951994895E+03 -0.12875053126E+04  0.15082794533E+03  0.13049042970E+04  0.10100000352E+00 0.  1.
</event>
<event>
 5   0  0.4162450E-06  0.2914469E+04  0.7818609E-02  0.8268586E-01
        2   -1    0    0  501    0  0.00000000000E+00  0.00000000000E+00  0.18127382625E+04  0.18127382625E+04  0.25500000920E-02 0. -1.
       -2   -1    0    0    0  501  0.00000000000E+00  0.00000000000E+00 -0.11714501090E+04  0.11714501090E+04  0.25500000920E-02 0.  1.
    10030    2    1    2    0    0  0.00000000000E+00  0.00000000000E+00  0.64128815345E+03  0.29841883715E+04  0.29144690324E+04 0.  0.
        2    1    3    3  502    0 -0.10137276505E+04 -0.63148745693E+01 -0.75122590501E+03  0.12617543292E+04  0.25500000920E-02 0.  1.
       -2    1    3    3    0  502  0.10137276505E+04  0.63148745693E+01  0.13925140585E+04  0.17224340423E+04  0.25500000920E-02 0. -1.
</event>
<event>
 5   0  0.1550278E-06  0.2892017E+04  0.7818609E-02  0.8275257E-01
       -1   -1    0    0    0  501  0.00000000000E+00  0.00000000000E+00  0.14876591962E+04  0.14876591962E+04  0.50400001928E-02 0.  1.
        1   -1    0    0  501    0  0.00000000000E+00  0.00000000000E+00 -0.14055234754E+04  0.14055234754E+04  0.50400001928E-02 0. -1.
    10030    2    1    2    0    0  0.00000000000E+00  0.00000000000E+00  0.82135720779E+02  0.28931826717E+04  0.28920165447E+04 0.  0.
        2    1    3    3  502    0 -0.14288769599E+04 -0.21350269729E+03  0.10164932243E+03  0.14483112072E+04  0.25500000920E-02 0. -1.
       -2    1    3    3    0  502  0.14288769599E+04  0.21350269729E+03 -0.19513601654E+02  0.14448714645E+04  0.25500000920E-02 0.  1.
</event>
<event>
 5   0  0.4148677E-06  0.2900286E+04  0.7818609E-02  0.8272793E-01
        2   -1    0    0  501    0  0.00000000000E+00  0.00000000000E+00  0.19823819289E+04  0.19823819289E+04  0.25500000920E-02 0.  1.
       -2   -1    0    0    0  501  0.00000000000E+00  0.00000000000E+00 -0.10608016469E+04  0.10608016469E+04  0.25500000920E-02 0. -1.
    10030    2    1    2    0    0  0.00000000000E+00  0.00000000000E+00  0.92158028205E+03  0.30431835758E+04  0.29002855135E+04 0.  0.
        5    1    3    3  502    0  0.60062781812E+03  0.14342755363E+03  0.18375218746E+04  0.19385133399E+04  0.46999998093E+01 0.  1.
       -5    1    3    3    0  502 -0.60062781812E+03 -0.14342755363E+03 -0.91594159260E+03  0.11046702359E+04  0.46999998093E+01 0. -1.
</event>
<event>
 5   0  0.4148677E-06  0.2932914E+04  0.7818609E-02  0.8263151E-01
       -2   -1    0    0    0  501  0.00000000000E+00  0.00000000000E+00  0.94382262890E+03  0.94382262890E+03  0.25500000920E-02 0.  1.
        2   -1    0    0  501    0  0.00000000000E+00  0.00000000000E+00 -0.22784961749E+04  0.22784961749E+04  0.25500000920E-02 0. -1.
    10030    2    1    2    0    0  0.00000000000E+00  0.00000000000E+00 -0.13346735460E+04  0.32223188038E+04  0.29329140797E+04 0.  0.
        5    1    3    3  502    0 -0.11100073898E+04 -0.11617837505E+03  0.37776826633E+03  0.11782804307E+04  0.46999998093E+01 0.  1.
       -5    1    3    3    0  502  0.11100073898E+04  0.11617837505E+03 -0.17124418123E+04  0.20440383731E+04  0.46999998093E+01 0. -1.
</event>
<event>
 5   0  0.4187518E-06  0.2864341E+04  0.7818609E-02  0.8283567E-01
        2   -1    0    0  501    0  0.00000000000E+00  0.00000000000E+00  0.15674351282E+04  0.15674351282E+04  0.25500000920E-02 0.  1.
       -2   -1    0    0    0  501  0.00000000000E+00  0.00000000000E+00 -0.13085787779E+04  0.13085787779E+04  0.25500000920E-02 0. -1.
    10030    2    1    2    0    0  0.00000000000E+00  0.00000000000E+00  0.25885635027E+03  0.28760139062E+04  0.28643410024E+04 0.  0.
        3    1    3    3  502    0  0.14207930818E+03  0.11612923230E+04  0.95882468686E+03  0.15126569934E+04  0.10100000352E+00 0.  1.
       -3    1    3    3    0  502 -0.14207930818E+03 -0.11612923230E+04 -0.69996833659E+03  0.13633569128E+04  0.10100000352E+00 0. -1.
</event>
<event>
 5   0  0.4115143E-06  0.3122664E+04  0.7818609E-02  0.8209545E-01
       -2   -1    0    0    0  501  0.00000000000E+00  0.00000000000E+00  0.99250249443E+03  0.99250249443E+03  0.25500000920E-02 0.  1.
        2   -1    0    0  501    0  0.00000000000E+00  0.00000000000E+00 -0.24561732974E+04  0.24561732974E+04  0.25500000920E-02 0. -1.
    10030    2    1    2    0    0  0.00000000000E+00  0.00000000000E+00 -0.14636708029E+04  0.34486757918E+04  0.31226643267E+04 0.  0.
        1    1    3    3  502    0  0.74231777476E+03  0.95146027667E+03 -0.18259434788E+04  0.21886941140E+04  0.50400001928E-02 0. -1.
       -1    1    3    3    0  502 -0.74231777476E+03 -0.95146027667E+03  0.36227267583E+03  0.12599816778E+04  0.50400001928E-02 0.  1.
</event>
<event>
 5   0  0.1511126E-06  0.2991653E+04  0.7818609E-02  0.8246118E-01
        1   -1    0    0  501    0  0.00000000000E+00  0.00000000000E+00  0.16294300070E+04  0.16294300070E+04  0.50400001928E-02 0.  1.
       -1   -1    0    0    0  501  0.00000000000E+00  0.00000000000E+00 -0.13731779953E+04  0.13731779953E+04  0.50400001928E-02 0. -1.
    10030    2    1    2    0    0  0.00000000000E+00  0.00000000000E+00  0.25625201170E+03  0.30026080022E+04  0.29916533425E+04 0.  0.
        5    1    3    3  502    0  0.98861974435E+03 -0.73997153296E+03 -0.71909082703E+03  0.14289998517E+04  0.46999998093E+01 0. -1.
       -5    1    3    3    0  502 -0.98861974435E+03  0.73997153296E+03  0.97534283874E+03  0.15736081506E+04  0.46999998093E+01 0.  1.
</event>
<event>
 5   0  0.1602873E-06  0.3188497E+04  0.7818609E-02  0.8191862E-01
       -1   -1    0    0    0  501  0.00000000000E+00  0.00000000000E+00  0.84750084996E+03  0.84750084997E+03  0.50400001928E-02 0. -1.
        1   -1    0    0  501    0  0.00000000000E+00  0.00000000000E+00 -0.29989675625E+04  0.29989675625E+04  0.50400001928E-02 0.  1.
    10030    2    1    2    0    0  0.00000000000E+00  0.00000000000E+00 -0.21514667125E+04  0.38464684124E+04  0.31884965474E+04 0.  0.
        1    1    3    3  502    0 -0.11876406869E+04 -0.93850818794E+03 -0.47214487583E+03  0.15856256821E+04  0.50400001928E-02 0. -1.
       -1    1    3    3    0  502  0.11876406869E+04  0.93850818794E+03 -0.16793218367E+04  0.22608427303E+04  0.50400001928E-02 0.  1.
</event>
<event>
 5   0  0.4162450E-06  0.2953182E+04  0.7818609E-02  0.8257228E-01
        2   -1    0    0  501    0  0.00000000000E+00  0.00000000000E+00  0.26473436241E+04  0.26473436241E+04  0.25500000920E-02 0. -1.
       -2   -1    0    0    0  501  0.00000000000E+00  0.00000000000E+00 -0.82358812774E+03  0.82358812775E+03  0.25500000920E-02 0.  1.
    10030    2    1    2    0    0  0.00000000000E+00  0.00000000000E+00  0.18237554963E+04  0.34709317518E+04  0.29531818629E+04 0.  0.
        2    1    3    3  502    0  0.63113545033E+03  0.19928138960E+03 -0.63948846116E+03  0.92032087930E+03  0.25500000920E-02 0.  1.
       -2    1    3    3    0  502 -0.63113545033E+03 -0.19928138960E+03  0.24632439575E+04  0.25506108725E+04  0.25500000920E-02 0. -1.
</event>
<event>
 5   0  0.1550278E-06  0.2900707E+04  0.7818609E-02  0.8272667E-01
       -1   -1    0    0    0  501  0.00000000000E+00  0.00000000000E+00  0.23385723870E+04  0.23385723870E+04  0.50400001928E-02 0.  1.
        1   -1    0    0  501    0  0.00000000000E+00  0.00000000000E+00 -0.89949117339E+03  0.89949117341E+03  0.50400001928E-02 0. -1.
    10030    2    1    2    0    0  0.00000000000E+00  0.00000000000E+00  0.14390812136E+04  0.32380635604E+04  0.29007069624E+04 0.  0.
        2    1    3    3  502    0 -0.41778324459E+03  0.58769641041E+03 -0.68522419025E+03  0.99471709606E+03  0.25500000920E-02 0. -1.
       -2    1    3    3    0  502  0.41778324459E+03 -0.58769641041E+03  0.21243054039E+04  0.22433464644E+04  0.25500000920E-02 0.  1.
</event>
<event>
 5   0  0.4187518E-06  0.2877724E+04  0.7818609E-02  0.8279536E-01
       -2   -1    0    0    0  501  0.00000000000E+00  0.00000000000E+00  0.11931501720E+04  0.11931501720E+04  0.25500000920E-02 0. -1.
        2   -1    0    0  501    0  0.00000000000E+00  0.00000000000E+00 -0.17351745095E+04  0.17351745095E+04  0.25500000920E-02 0.  1.
    10030    2    1    2    0    0  0.00000000000E+00  0.00000000000E+00 -0.54202433748E+03  0.29283246815E+04  0.28777239370E+04 0.  0.
        3    1    3    3  502    0 -0.63070403073E+02 -0.12394012785E+04 -0.10119851801E+04  0.16013142789E+04  0.10100000352E+00 0.  1.
       -3    1    3    3    0  502  0.63070403073E+02  0.12394012785E+04  0.46996084264E+03  0.13270104026E+04  0.10100000352E+00 0. -1.
</event>
<event>
 5   0  0.4148677E-06  0.2906002E+04  0.7818609E-02  0.8271094E-01
       -2   -1    0    0    0  501  0.00000000000E+00  0.00000000000E+00  0.10314036136E+04  0.10314036136E+04  0.25500000920E-02 0. -1.
        2   -1    0    0  501    0  0.00000000000E+00  0.00000000000E+00 -0.20469307012E+04  0.20469307012E+04  0.25500000920E-02 0.  1.
    10030    2    1    2    0    0  0.00000000000E+00  0.00000000000E+00 -0.10155270877E+04  0.30783343148E+04  0.29060018733E+04 0.  0.
        5    1    3    3  502    0 -0.41831237184E+03  0.11469656877E+04 -0.13423122845E+04  0.18144806112E+04  0.46999998093E+01 0.  1.
       -5    1    3    3    0  502  0.41831237184E+03 -0.11469656877E+04  0.32678519679E+03  0.12638537036E+04  0.46999998093E+01 0. -1.
</event>
<event>
 5   0  0.1511126E-06  0.2909852E+04  0.7818609E-02  0.8269952E-01
       -1   -1    0    0    0  501  0.00000000000E+00  0.00000000000E+00  0.13316556915E+04  0.13316556915E+04  0.50400001928E-02 0.  1.
        1   -1    0    0  501    0  0.00000000000E+00  0.00000000000E+00 -0.15896071644E+04  0.15896071644E+04  0.50400001928E-02 0. -1.
    10030    2    1    2    0    0  0.00000000000E+00  0.00000000000E+00 -0.25795147295E+03  0.29212628559E+04  0.29098518366E+04 0.  0.
        5    1    3    3  502    0 -0.14569908558E+03 -0.38581975361E+03 -0.15296899120E+04  0.15843163898E+04  0.46999998093E+01 0. -1.
       -5    1    3    3    0  502  0.14569908558E+03  0.38581975361E+03  0.12717384391E+04  0.13369464661E+04  0.46999998093E+01 0.  1.
</event>
<event>
 5   0  0.1511126E-06  0.2915228E+04  0.7818609E-02  0.8268361E-01
       -1   -1    0    0    0  501  0.00000000000E+00  0.00000000000E+00  0.11231599451E+04  0.11231599451E+04  0.50400001928E-02 0.  1.
        1   -1    0    0  501    0  0.00000000000E+00  0.00000000000E+00 -0.18916622024E+04  0.18916622024E+04  0.50400001928E-02 0. -1.
    10030    2    1    2    0    0  0.00000000000E+00  0.00000000000E+00 -0.76850225731E+03  0.30148221475E+04  0.29152284407E+04 0.  0.
        5    1    3    3  502    0 -0.12433115928E+04  0.40325220287E+03  0.28290927946E+03  0.13373465543E+04  0.46999998093E+01 0.  1.
       -5    1    3    3    0  502  0.12433115928E+04 -0.40325220287E+03 -0.10514115368E+04  0.16774755932E+04  0.46999998093E+01 0. -1.
</event>
<event>
 5   0  0.4115143E-06  0.2899860E+04  0.7818609E-02  0.8272919E-01
       -2   -1    0    0    0  501  0.00000000000E+00  0.00000000000E+00  0.12004579005E+04  0.12004579005E+04  0.25500000920E-02 0.  1.
        2   -1    0    0  501    0  0.00000000000E+00  0.00000000000E+00 -0.17512459568E+04  0.17512459568E+04  0.25500000920E-02 0. -1.
    10030    2    1    2    0    0  0.00000000000E+00  0.00000000000E+00 -0.55078805630E+03  0.29517038573E+04  0.28998600273E+04 0.  0.
        1    1    3    3  502    0 -0.52342355710E+03  0.27742969461E+03  0.10716542515E+04  0.12244926665E+04  0.50400001928E-02 0.  1.
       -1    1    3    3    0  502  0.52342355710E+03 -0.27742969461E+03 -0.16224423078E+04  0.17272111908E+04  0.50400001928E-02 0. -1.
</event>
<event>
 5   0  0.4224163E-06  0.2923853E+04  0.7818609E-02  0.8265816E-01
       -2   -1    0    0    0  501  0.00000000000E+00  0.00000000000E+00  0.14293874162E+04  0.14293874162E+04  0.25500000920E-02 0. -1.
        2   -1    0    0  501    0  0.00000000000E+00  0.00000000000E+00 -0.14952064552E+04  0.14952064552E+04  0.25500000920E-02 0.  1.
    10030    2    1    2    0    0  0.00000000000E+00  0.00000000000E+00 -0.65819039035E+02  0.29245938714E+04  0.29238531370E+04 0.  0.
        4    1    3    3  502    0 -0.53493169778E+03 -0.62356665623E+03  0.11766281483E+04  0.14350758546E+04  0.12699999809E+01 0. -1.
       -4    1    3    3    0  502  0.53493169778E+03  0.62356665623E+03 -0.12424471874E+04  0.14895180168E+04  0.12699999809E+01 0.  1.
</event>
<event>
 5   0  0.1550278E-06  0.2826787E+04  0.7818609E-02  0.8295000E-01
        1   -1    0    0  501    0  0.00000000000E+00  0.00000000000E+00  0.25427301619E+04  0.25427301619E+04  0.50400001928E-02 0. -1.
       -1   -1    0    0    0  501  0.00000000000E+00  0.00000000000E+00 -0.78564404901E+03  0.78564404902E+03  0.50400001928E-02 0.  1.
    10030    2    1    2    0    0  0.00000000000E+00  0.00000000000E+00  0.17570861129E+04  0.33283742109E+04  0.28267867411E+04 0.  0.
        2    1    3    3  502    0  0.31846442329E+03  0.69310023112E+03  0.22795855217E+04  0.24038131521E+04  0.25500000920E-02 0. -1.
       -2    1    3    3    0  502 -0.31846442329E+03 -0.69310023112E+03 -0.52249940884E+03  0.92456105884E+03  0.25500000920E-02 0.  1.
</event>
<event>
 5   0  0.1580212E-06  0.2909457E+04  0.7818609E-02  0.8270069E-01
       -1   -1    0    0    0  501  0.00000000000E+00  0.00000000000E+00  0.19342844790E+04  0.19342844790E+04  0.50400001928E-02 0.  1.
        1   -1    0    0  501    0  0.00000000000E+00  0.00000000000E+00 -0.10940662474E+04  0.10940662474E+04  0.50400001928E-02 0. -1.
    10030    2    1    2    0    0  0.00000000000E+00  0.00000000000E+00  0.84021823162E+03  0.30283507264E+04  0.29094572424E+04 0.  0.
        4    1    3    3  502    0  0.10500017301E+04  0.48142096656E+03 -0.50031409726E+03  0.12588032368E+04  0.12699999809E+01 0. -1.
       -4    1    3    3    0  502 -0.10500017301E+04 -0.48142096656E+03  0.13405323289E+04  0.17695474896E+04  0.12699999809E+01 0.  1.
</event>
<event>
 5   0  0.4148677E-06  0.2880823E+04  0.7818609E-02  0.8278606E-01
        2   -1    0    0  501    0  0.00000000000E+00  0.00000000000E+00  0.24587855150E+04  0.24587855150E+04  0.25500000920E-02 0.  1.
       -2   -1    0    0    0  501  0.00000000000E+00  0.00000000000E+00 -0.84382548003E+03  0.84382548004E+03  0.25500000920E-02 0. -1.
    10030    2    1    2    0    0  0.00000000000E+00  0.00000000000E+00  0.16149600349E+04  0.33026109950E+04  0.28808234014E+04 0.  0.
        5    1    3    3  502    0 -0.13301248066E+04 -0.11974259014E+03  0.14261109276E+04  0.19538128766E+04  0.46999998093E+01 0.  1.
       -5    1    3    3    0  502  0.13301248066E+04  0.11974259014E+03  0.18884910733E+03  0.13487981184E+04  0.46999998093E+01 0. -1.
</event>
<event>
 5   0  0.1602873E-06  0.2896491E+04  0.7818609E-02  0.8273922E-01
        1   -1    0    0  501    0  0.00000000000E+00  0.00000000000E+00  0.21883011929E+04  0.21883011929E+04  0.50400001928E-02 0. -1.
       -1   -1    0    0    0  501  0.00000000000E+00  0.00000000000E+00 -0.95846714141E+03  0.95846714143E+03  0.50400001928E-02 0.  1.
    10030    2    1    2    0    0  0.00000000000E+00  0.00000000000E+00  0.12298340515E+04  0.31467683343E+04  0.28964908347E+04 0.  0.
        1    1    3    3  502    0 -0.12884387423E+04  0.51101828281E+02  0.13312285173E+04  0.18533362228E+04  0.50400001928E-02 0. -1.
       -1    1    3    3    0  502  0.12884387423E+04 -0.51101828281E+02 -0.10139446580E+03  0.12934321115E+04  0.50400001928E-02 0.  1.
</event>
<event>
 5   0  0.4148677E-06  0.2877189E+04  0.7818609E-02  0.8279697E-01
       -2   -1    0    0    0  501  0.00000000000E+00  0.00000000000E+00  0.19196413634E+04  0.19196413634E+04  0.25500000920E-02 0. -1.
        2   -1    0    0  501    0  0.00000000000E+00  0.00000000000E+00 -0.10780941011E+04  0.10780941011E+04  0.25500000920E-02 0.  1.
    10030    2    1    2    0    0  0.00000000000E+00  0.00000000000E+00  0.84154726233E+03  0.29977354645E+04  0.28771889268E+04 0.  0.
        5    1    3    3  502    0  0.74098724493E+03 -0.76904783080E+03  0.14250217531E+04  0.17807879576E+04  0.46999998093E+01 0. -1.
       -5    1    3    3    0  502 -0.74098724493E+03  0.76904783080E+03 -0.58347449074E+03  0.12169475069E+04  0.46999998093E+01 0.  1.
</event>
<event>
 5   0  0.1550278E-06  0.2895552E+04  0.7818609E-02  0.8274202E-01
       -1   -1    0    0    0  501  0.00000000000E+00  0.00000000000E+00  0.67055618634E+03  0.67055618636E+03  0.50400001928E-02 0.  1.
        1   -1    0    0  501    0  0.00000000000E+00  0.00000000000E+00 -0.31258457477E+04  0.31258457477E+04  0.50400001928E-02 0. -1.
    10030    2    1    2    0    0  0.00000000000E+00  0.00000000000E+00 -0.24552895614E+04  0.37964019341E+04  0.28955519016E+04 0.  0.
        2    1    3    3  502    0 -0.89594540240E+03 -0.61895793374E+03 -0.24785256633E+04  0.27071971763E+04  0.25500000920E-02 0. -1.
       -2    1    3    3    0  502  0.89594540240E+03  0.61895793374E+03  0.23236101950E+02  0.10892047577E+04  0.25500000920E-02 0.  1.
</event>
<event>
 5   0  0.4115143E-06  0.2917526E+04  0.7818609E-02  0.8267682E-01
       -2   -1    0    0    0  501  0.00000000000E+00  0.00000000000E+00  0.13512829049E+04  0.13512829049E+04  0.25500000920E-02 0. -1.
        2   -1    0    0  501    0  0.00000000000E+00  0.00000000000E+00 -0.15747920402E+04  0.15747920402E+04  0.25500000920E-02 0.  1.
    10030    2    1    2    0    0  0.00000000000E+00  0.00000000000E+00 -0.22350913526E+03  0.29260749451E+04  0.29175260497E+04 0.  0.
        1    1    3    3  502    0 -0.80941485474E+03 -0.10972085719E+04  0.40838876095E+03  0.14233061643E+04  0.50400001928E-02 0.  1.
       -1    1    3    3    0  502  0.80941485474E+03  0.10972085719E+04 -0.63189789621E+03  0.15027687808E+04  0.50400001928E-02 0. -1.
</event>
<event>
 5   0  0.4162450E-06  0.2895511E+04  0.7818609E-02  0.8274214E-01
       -2   -1    0    0    0  501  0.00000000000E+00  0.00000000000E+00  0.12475813286E+04  0.12475813286E+04  0.25500000920E-02 0. -1.
        2   -1    0    0  501    0  0.00000000000E+00  0.00000000000E+00 -0.16800474386E+04  0.16800474386E+04  0.25500000920E-02 0.  1.
    10030    2    1    2    0    0  0.00000000000E+00  0.00000000000E+00 -0.43246611001E+03  0.29276287672E+04  0.28955108811E+04 0.  0.
        2    1    3    3  502    0  0.13980766899E+04  0.34837039294E+03 -0.35927833325E+03  0.14849448752E+04  0.25500000920E-02 0. -1.
       -2    1    3    3    0  502 -0.13980766899E+04 -0.34837039294E+03 -0.73187776759E+02  0.14426838920E+04  0.25500000920E-02 0.  1.
</event>
<event>
 5   0  0.1580212E-06  0.2911252E+04  0.7818609E-02  0.8269538E-01
        1   -1    0    0  501    0  0.00000000000E+00  0.00000000000E+00  0.19882625891E+04  0.19882625891E+04  0.50400001928E-02 0.  1.
       -1   -1    0    0    0  501  0.00000000000E+00  0.00000000000E+00 -0.10656775445E+04  0.10656775445E+04  0.50400001928E-02 0. -1.
    10030    2    1    2    0    0  0.00000000000E+00  0.00000000000E+00  0.92258504458E+03  0.30539401336E+04  0.29112518227E+04 0.  0.
        4    1    3    3  502    0 -0.13104941389E+04  0.13914272913E+03  0.11097228974E+04  0.17228587026E+04  0.12699999809E+01 0.  1.
       -4    1    3    3    0  502  0.13104941389E+04 -0.13914272913E+03 -0.18713785278E+03  0.13310814310E+04  0.12699999809E+01 0. -1.
</event>
<event>
 5   0  0.4224163E-06  0.2899211E+04  0.7818609E-02  0.8273112E-01
        2   -1    0    0  501    0  0.00000000000E+00  0.00000000000E+00  0.28765797618E+04  0.28765797618E+04  0.25500000920E-02 0.  1.
       -2   -1    0    0    0  501  0.00000000000E+00  0.00000000000E+00 -0.73050531548E+03  0.73050531548E+03  0.25500000920E-02 0. -1.
    10030    2    1    2    0    0  0.00000000000E+00  0.00000000000E+00  0.21460744463E+04  0.36070850773E+04  0.28992114834E+04 0.  0.
        4    1    3    3  502    0  0.12292384054E+03 -0.24873313465E+03 -0.69716205800E+03  0.75034324869E+03  0.12699999809E+01 0. -1.
       -4    1    3    3    0  502 -0.12292384054E+03  0.24873313465E+03  0.28432365043E+04  0.28567418286E+04  0.12699999809E+01 0.  1.
</event>
<event>
 5   0  0.4148677E-06  0.2850695E+04  0.7818609E-02  0.8287700E-01
       -2   -1    0    0    0  501  0.00000000000E+00  0.00000000000E+00  0.14956477461E+04  0.14956477461E+04  0.25500000920E-02 0. -1.
        2   -1    0    0  501    0  0.00000000000E+00  0.00000000000E+00 -0.13583517511E+04  0.13583517511E+04  0.25500000920E-02 0.  1.
    10030    2    1    2    0    0  0.00000000000E+00  0.00000000000E+00  0.13729599506E+03  0.28539994972E+04  0.28506951678E+04 0.  0.
        5    1    3    3  502    0 -0.11946085525E+04  0.60756108443E+03  0.55436350452E+03  0.14503658332E+04  0.46999998093E+01 0. -1.
       -5    1    3    3    0  502  0.11946085525E+04 -0.60756108443E+03 -0.41706750946E+03  0.14036336639E+04  0.46999998093E+01 0.  1.
</event>
<event>
 5   0  0.1602873E-06  0.2895543E+04  0.7818609E-02  0.8274205E-01
       -1   -1    0    0    0  501  0.00000000000E+00  0.00000000000E+00  0.10023627811E+04  0.10023627811E+04  0.50400001928E-02 0.  1.
        1   -1    0    0  501    0  0.00000000000E+00  0.00000000000E+00 -0.20911022138E+04  0.20911022138E+04  0.50400001928E-02 0. -1.
    10030    2    1    2    0    0  0.00000000000E+00  0.00000000000E+00 -0.10887394328E+04  0.30934649949E+04  0.28955434934E+04 0.  0.
        1    1    3    3  502    0  0.75247309557E+03  0.76713570157E+02  0.77449234380E+03  0.10825613710E+04  0.50400001928E-02 0.  1.
       -1    1    3    3    0  502 -0.75247309557E+03 -0.76713570157E+02 -0.18632317766E+04  0.20109036239E+04  0.50400001928E-02 0. -1.
</event>
<event>
 5   0  0.4224163E-06  0.2822093E+04  0.7818609E-02  0.8296442E-01
       -2   -1    0    0    0  501  0.00000000000E+00  0.00000000000E+00  0.12531879740E+04  0.12531879740E+04  0.25500000920E-02 0. -1.
        2   -1    0    0  501    0  0.00000000000E+00  0.00000000000E+00 -0.15887898497E+04  0.15887898497E+04  0.25500000920E-02 0.  1.
    10030    2    1    2    0    0  0.00000000000E+00  0.00000000000E+00 -0.33560187563E+03  0.28419778237E+04  0.28220930763E+04 0.  0.
        4    1    3    3  502    0  0.42725454718E+03 -0.74541714895E+03 -0.12949989080E+04  0.15540968305E+04  0.12699999809E+01 0.  1.
       -4    1    3    3    0  502 -0.42725454718E+03  0.74541714895E+03  0.95939703235E+03  0.12878809932E+04  0.12699999809E+01 0. -1.
</event>
<event>
 5   0  0.1543678E-06  0.2652663E+04  0.7818609E-02  0.8350530E-01
        1   -1    0    0  501    0  0.00000000000E+00  0.00000000000E+00  0.15607306902E+04  0.15607306902E+04  0.50400001928E-02 0.  1.
       -1   -1    0    0    0  501  0.00000000000E+00  0.00000000000E+00 -0.11271354477E+04  0.11271354477E+04  0.50400001928E-02 0. -1.
    10030    2    1    2    0    0  0.00000000000E+00  0.00000000000E+00  0.43359524244E+03  0.26878661379E+04  0.26526627266E+04 0.  0.
        3    1    3    3  502    0 -0.38307037586E+03 -0.91808083084E+03  0.11056734029E+04  0.14873227656E+04  0.10100000352E+00 0.  1.
       -3    1    3    3    0  502  0.38307037586E+03  0.91808083084E+03 -0.67207816050E+03  0.12005433723E+04  0.10100000352E+00 0. -1.
</event>
<event>
 5   0  0.1550278E-06  0.2914455E+04  0.7818609E-02  0.8268590E-01
        1   -1    0    0  501    0  0.00000000000E+00  0.00000000000E+00  0.14651288108E+04  0.14651288109E+04  0.50400001928E-02 0. -1.
       -1   -1    0    0    0  501  0.00000000000E+00  0.00000000000E+00 -0.14493683475E+04  0.14493683475E+04  0.50400001928E-02 0.  1.
    10030    2    1    2    0    0  0.00000000000E+00  0.00000000000E+00  0.15760463396E+02  0.29144971583E+04  0.29144545448E+04 0.  0.
        2    1    3    3  502    0  0.27878261433E+03 -0.98192618023E+02  0.14348383006E+04  0.14649650116E+04  0.25500000920E-02 0. -1.
       -2    1    3    3    0  502 -0.27878261433E+03  0.98192618023E+02 -0.14190778372E+04  0.14495321467E+04  0.25500000920E-02 0.  1.
</event>
<event>
 5   0  0.1550278E-06  0.2923930E+04  0.7818609E-02  0.8265793E-01
       -1   -1    0    0    0  501  0.00000000000E+00  0.00000000000E+00  0.22213483517E+04  0.22213483517E+04  0.50400001928E-02 0. -1.
        1   -1    0    0  501    0  0.00000000000E+00  0.00000000000E+00 -0.96218224257E+03  0.96218224258E+03  0.50400001928E-02 0.  1.
    10030    2    1    2    0    0  0.00000000000E+00  0.00000000000E+00  0.12591661092E+04  0.31835305943E+04  0.29239301897E+04 0.  0.
        2    1    3    3  502    0  0.62149358274E+03  0.14231713024E+03 -0.80283463134E+03  0.10252082151E+04  0.25500000920E-02 0.  1.
       -2    1    3    3    0  502 -0.62149358274E+03 -0.14231713024E+03  0.20620007405E+04  0.21583223793E+04  0.25500000920E-02 0. -1.
</event>
<event>
 5   0  0.1543678E-06  0.2902658E+04  0.7818609E-02  0.8272087E-01
        1   -1    0    0  501    0  0.00000000000E+00  0.00000000000E+00  0.25869796618E+04  0.25869796618E+04  0.50400001928E-02 0.  1.
       -1   -1    0    0    0  501  0.00000000000E+00  0.00000000000E+00 -0.81421458556E+03  0.81421458557E+03  0.50400001928E-02 0. -1.
    10030    2    1    2    0    0  0.00000000000E+00  0.00000000000E+00  0.17727650762E+04  0.34011942474E+04  0.29026584871E+04 0.  0.
        3    1    3    3  502    0 -0.11488233446E+03  0.12089479257E+04  0.18176142709E+04  0.21859722519E+04  0.10100000352E+00 0.  1.
       -3    1    3    3    0  502  0.11488233446E+03 -0.12089479257E+04 -0.44849194712E+02  0.12152219955E+04  0.10100000352E+00 0. -1.
</event>
<event>
 5   0  0.1511126E-06  0.2849029E+04  0.7818609E-02  0.8288206E-01
        1   -1    0    0  501    0  0.00000000000E+00  0.00000000000E+00  0.10318417479E+04  0.10318417479E+04  0.50400001928E-02 0. -1.
       -1   -1    0    0    0  501  0.00000000000E+00  0.00000000000E+00 -0.19666208032E+04  0.19666208032E+04  0.50400001928E-02 0.  1.
    10030    2    1    2    0    0  0.00000000000E+00  0.00000000000E+00 -0.93477905529E+03  0.29984625511E+04  0.28490289202E+04 0.  0.
        5    1    3    3  502    0 -0.10307058576E+04  0.82510547799E+03  0.95514942453E+02  0.13237442385E+04  0.46999998093E+01 0.  1.
       -5    1    3    3    0  502  0.10307058576E+04 -0.82510547799E+03 -0.10302939977E+04  0.16747183126E+04  0.46999998093E+01 0. -1.
</event>
<event>
 5   0  0.1550278E-06  0.2894362E+04  0.7818609E-02  0.8274557E-01
       -1   -1    0    0    0  501  0.00000000000E+00  0.00000000000E+00  0.12908684038E+04  0.12908684038E+04  0.50400001928E-02 0.  1.
        1   -1    0    0  501    0  0.00000000000E+00  0.00000000000E+00 -0.16224219903E+04  0.16224219903E+04  0.50400001928E-02 0. -1.
    10030    2    1    2    0    0  0.00000000000E+00  0.00000000000E+00 -0.33155358649E+03  0.29132903942E+04  0.28943623028E+04 0.  0.
        2    1    3    3  502    0 -0.11062782404E+03 -0.46034294117E+03 -0.15422649805E+04  0.16132995410E+04  0.25500000920E-02 0. -1.
       -2    1    3    3    0  502  0.11062782404E+03  0.46034294117E+03  0.12107113940E+04  0.12999908532E+04  0.25500000920E-02 0.  1.
</event>
<event>
 5   0  0.4224163E-06  0.2830330E+04  0.7818609E-02  0.8293914E-01
       -2   -1    0    0    0  501  0.00000000000E+00  0.00000000000E+00  0.10324366091E+04  0.10324366092E+04  0.25500000920E-02 0.  1.
        2   -1    0    0  501    0  0.00000000000E+00  0.00000000000E+00 -0.19397720274E+04  0.19397720274E+04  0.25500000920E-02 0. -1.
    10030    2    1    2    0    0  0.00000000000E+00  0.00000000000E+00 -0.90733541822E+03  0.29722086365E+04  0.28303297719E+04 0.  0.
        4    1    3    3  502    0  0.49926656249E+03 -0.99043012519E+03 -0.13766287611E+04  0.17678595227E+04  0.12699999809E+01 0. -1.
       -4    1    3    3    0  502 -0.49926656249E+03  0.99043012519E+03  0.46929334289E+03  0.12043491138E+04  0.12699999809E+01 0.  1.
</event>
<event>
 5   0  0.4224163E-06  0.2895944E+04  0.7818609E-02  0.8274085E-01
       -2   -1    0    0    0  501  0.00000000000E+00  0.00000000000E+00  0.12638077699E+04  0.12638077699E+04  0.25500000920E-02 0. -1.
        2   -1    0    0  501    0  0.00000000000E+00  0.00000000000E+00 -0.16589728133E+04  0.16589728133E+04  0.25500000920E-02 0.  1.
    10030    2    1    2    0    0  0.00000000000E+00  0.00000000000E+00 -0.39516504336E+03  0.29227805832E+04  0.28959438748E+04 0.  0.
        4    1    3    3  502    0  0.12433992641E+04 -0.37989990875E+03  0.44570580680E+03  0.13744165853E+04  0.12699999809E+01 0.  1.
       -4    1    3    3    0  502 -0.12433992641E+04  0.37989990875E+03 -0.84087085016E+03  0.15483639980E+04  0.12699999809E+01 0. -1.
</event>
<event>
 5   0  0.4115143E-06  0.2906885E+04  0.7818609E-02  0.8270832E-01
        2   -1    0    0  501    0  0.00000000000E+00  0.00000000000E+00  0.22704477561E+04  0.22704477561E+04  0.25500000920E-02 0.  1.
       -2   -1    0    0    0  501  0.00000000000E+00  0.00000000000E+00 -0.93043085220E+03  0.93043085220E+03  0.25500000920E-02 0. -1.
    10030    2    1    2    0    0  0.00000000000E+00  0.00000000000E+00  0.13400169039E+04  0.32008786083E+04  0.29068846834E+04 0.  0.
        1    1    3    3  502    0 -0.10102842262E+04  0.32896282320E+01 -0.48056634069E+03  0.11187622836E+04  0.50400001928E-02 0. -1.
       -1    1    3    3    0  502  0.10102842262E+04 -0.32896282320E+01  0.18205832446E+04  0.20821163248E+04  0.50400001928E-02 0.  1.
</event>
<event>
 5   0  0.1580212E-06  0.3034137E+04  0.7818609E-02  0.8234050E-01
        1   -1    0    0  501    0  0.00000000000E+00  0.00000000000E+00  0.18063851549E+04  0.18063851549E+04  0.50400001928E-02 0.  1.
       -1   -1    0    0    0  501  0.00000000000E+00  0.00000000000E+00 -0.12740896423E+04  0.12740896423E+04  0.50400001928E-02 0. -1.
    10030    2    1    2    0    0  0.00000000000E+00  0.00000000000E+00  0.53229551262E+03  0.30804747973E+04  0.30341368565E+04 0.  0.
        4    1    3    3  502    0  0.10354858565E+04  0.56262700780E+01  0.13917876889E+04  0.17347441303E+04  0.12699999809E+01 0.  1.
       -4    1    3    3    0  502 -0.10354858565E+04 -0.56262700780E+01 -0.85949217629E+03  0.13457306669E+04  0.12699999809E+01 0. -1.
</event>
<event>
 5   0  0.1580212E-06  0.2843329E+04  0.7818609E-02  0.8289941E-01
        1   -1    0    0  501    0  0.00000000000E+00  0.00000000000E+00  0.16692056327E+04  0.16692056327E+04  0.50400001928E-02 0.  1.
       -1   -1    0    0    0  501  0.00000000000E+00  0.00000000000E+00 -0.12108331564E+04  0.12108331564E+04  0.50400001928E-02 0. -1.
    10030    2    1    2    0    0  0.00000000000E+00  0.00000000000E+00  0.45837247635E+03  0.28800387891E+04  0.28433287006E+04 0.  0.
        4    1    3    3  502    0  0.32265557877E+02  0.19050754358E+02  0.16687048093E+04  0.16691259242E+04  0.12699999809E+01 0.  1.
       -4    1    3    3    0  502 -0.32265557877E+02 -0.19050754358E+02 -0.12103323329E+04  0.12109128649E+04  0.12699999809E+01 0. -1.
</event>
<event>
 5   0  0.4148677E-06  0.2899569E+04  0.7818609E-02  0.8273006E-01
        2   -1    0    0  501    0  0.00000000000E+00  0.00000000000E+00  0.20763775763E+04  0.20763775763E+04  0.25500000920E-02 0. -1.
       -2   -1    0    0    0  501  0.00000000000E+00  0.00000000000E+00 -0.10122799334E+04  0.10122799334E+04  0.25500000920E-02 0.  1.
    10030    2    1    2    0    0  0.00000000000E+00  0.00000000000E+00  0.10640976429E+04  0.30886575097E+04  0.28995691781E+04 0.  0.
        5    1    3    3  502    0  0.13762657391E+04 -0.11787032189E+03  0.10010478525E+04  0.17059072924E+04  0.46999998093E+01 0.  1.
       -5    1    3    3    0  502 -0.13762657391E+04  0.11787032189E+03  0.63049790483E+02  0.13827502173E+04  0.46999998093E+01 0. -1.
</event>
<event>
 5   0  0.1511126E-06  0.2881843E+04  0.7818609E-02  0.8278300E-01
       -1   -1    0    0    0  501  0.00000000000E+00  0.00000000000E+00  0.13408815692E+04  0.13408815692E+04  0.50400001928E-02 0. -1.
        1   -1    0    0  501    0  0.00000000000E+00  0.00000000000E+00 -0.15484256425E+04  0.15484256425E+04  0.50400001928E-02 0.  1.
    10030    2    1    2    0    0  0.00000000000E+00  0.00000000000E+00 -0.20754407331E+03  0.28893072118E+04  0.28818434416E+04 0.  0.
        5    1    3    3  502    0 -0.37626531747E+03 -0.11385752912E+04 -0.90478055006E+03  0.15021914714E+04  0.46999998093E+01 0.  1.
       -5    1    3    3    0  502  0.37626531747E+03  0.11385752912E+04  0.69723647675E+03  0.13871157404E+04  0.46999998093E+01 0. -1.
</event>
<event>
 5   0  0.1360125E-06  0.2943272E+04  0.7818609E-02  0.8260118E-01
        3   -1    0    0  501    0  0.00000000000E+00  0.00000000000E+00  0.30875545474E+04  0.30875545491E+04  0.10100000352E+00 0. -1.
       -3   -1    0    0    0  501  0.00000000000E+00  0.00000000000E+00 -0.70143291853E+03  0.70143292580E+03  0.10100000352E+00 0.  1.
    10030    2    1    2    0    0  0.00000000000E+00  0.00000000000E+00  0.23861216289E+04  0.37889874748E+04  0.29432719305E+04 0.  0.
        3    1    3    3  502    0 -0.12093735867E+04  0.26726254097E+03  0.22162307272E+04  0.25388368172E+04  0.10100000352E+00 0. -1.
       -3    1    3    3    0  502  0.12093735867E+04 -0.26726254097E+03  0.16989090164E+03  0.12501506576E+04  0.10100000352E+00 0.  1.
</event>
<event>
 5   0  0.4162450E-06  0.2907291E+04  0.7818609E-02  0.8270711E-01
       -2   -1    0    0    0  501  0.00000000000E+00  0.00000000000E+00  0.11804828416E+04  0.11804828416E+04  0.25500000920E-02 0. -1.
        2   -1    0    0  501    0  0.00000000000E+00  0.00000000000E+00 -0.17900182426E+04  0.17900182426E+04  0.25500000920E-02 0.  1.
    10030    2    1    2    0    0  0.00000000000E+00  0.00000000000E+00 -0.60953540102E+03  0.29705010843E+04  0.29072914003E+04 0.  0.
        2    1    3    3  502    0 -0.31823147512E+03  0.35392147501E+03 -0.17081493325E+04  0.17732190571E+04  0.25500000920E-02 0.  1.
       -2    1    3    3    0  502  0.31823147512E+03 -0.35392147501E+03  0.10986139315E+04  0.11972820272E+04  0.25500000920E-02 0. -1.
</event>
<event>
 5   0  0.1543678E-06  0.2902932E+04  0.7818609E-02  0.8272006E-01
        1   -1    0    0  501    0  0.00000000000E+00  0.00000000000E+00  0.25969379827E+04  0.25969379827E+04  0.50400001928E-02 0.  1.
       -1   -1    0    0    0  501  0.00000000000E+00  0.00000000000E+00 -0.81124526094E+03  0.81124526095E+03  0.50400001928E-02 0. -1.
    10030    2    1    2    0    0  0.00000000000E+00  0.00000000000E+00  0.17856927218E+04  0.34081832437E+04  0.29029320567E+04 0.  0.
        3    1    3    3  502    0 -0.59471372304E+03 -0.12994832361E+04  0.11908154666E+04  0.18602103588E+04  0.10100000352E+00 0. -1.
       -3    1    3    3    0  502  0.59471372304E+03  0.12994832361E+04  0.59487725512E+03  0.15479728848E+04  0.10100000352E+00 0.  1.
</event>
<event>
 5   0  0.4187518E-06  0.2827073E+04  0.7818609E-02  0.8294912E-01
       -2   -1    0    0    0  501  0.00000000000E+00  0.00000000000E+00  0.17382491205E+04  0.17382491205E+04  0.25500000920E-02 0.  1.
        2   -1    0    0  501    0  0.00000000000E+00  0.00000000000E+00 -0.11494820079E+04  0.11494820079E+04  0.25500000920E-02 0. -1.
    10030    2    1    2    0    0  0.00000000000E+00  0.00000000000E+00  0.58876711254E+03  0.28877311284E+04  0.28270734615E+04 0.  0.
        3    1    3    3  502    0  0.12624897982E+04 -0.62432128288E+03  0.17168749602E+03  0.14188495908E+04  0.10100000352E+00 0. -1.
       -3    1    3    3    0  502 -0.12624897982E+04  0.62432128288E+03  0.41707961652E+03  0.14688815376E+04  0.10100000352E+00 0.  1.
</event>
<event>
 5   0  0.4224163E-06  0.2906926E+04  0.7818609E-02  0.8270820E-01
        2   -1    0    0  501    0  0.00000000000E+00  0.00000000000E+00  0.20634752188E+04  0.20634752188E+04  0.25500000920E-02 0.  1.
       -2   -1    0    0    0  501  0.00000000000E+00  0.00000000000E+00 -0.10237846566E+04  0.10237846566E+04  0.25500000920E-02 0. -1.
    10030    2    1    2    0    0  0.00000000000E+00  0.00000000000E+00  0.10396905621E+04  0.30872598754E+04  0.29069257083E+04 0.  0.
        4    1    3    3  502    0 -0.14507383310E+04 -0.87619980507E+02  0.53608052586E+03  0.15490974498E+04  0.12699999809E+01 0.  1.
       -4    1    3    3    0  502  0.14507383310E+04  0.87619980507E+02  0.50361003627E+03  0.15381624256E+04  0.12699999809E+01 0. -1.
</event>
<event>
 5   0  0.4224163E-06  0.2900669E+04  0.7818609E-02  0.8272678E-01
        2   -1    0    0  501    0  0.00000000000E+00  0.00000000000E+00  0.24107095234E+04  0.24107095234E+04  0.25500000920E-02 0. -1.
       -2   -1    0    0    0  501  0.00000000000E+00  0.00000000000E+00 -0.87255244852E+03  0.87255244852E+03  0.25500000920E-02 0.  1.
    10030    2    1    2    0    0  0.00000000000E+00  0.00000000000E+00  0.15381570749E+04  0.32832619719E+04  0.29006692313E+04 0.  0.
        4    1    3    3  502    0  0.18141568257E+03 -0.65514532788E+03  0.22192082385E+04  0.23209941554E+04  0.12699999809E+01 0. -1.
       -4    1    3    3    0  502 -0.18141568257E+03  0.65514532788E+03 -0.68105116359E+03  0.96226781659E+03  0.12699999809E+01 0.  1.
</event>
<event>
 5   0  0.1550278E-06  0.2900043E+04  0.7818609E-02  0.8272865E-01
        1   -1    0    0  501    0  0.00000000000E+00  0.00000000000E+00  0.14068258036E+04  0.14068258036E+04  0.50400001928E-02 0.  1.
       -1   -1    0    0    0  501  0.00000000000E+00  0.00000000000E+00 -0.14945437589E+04  0.14945437589E+04  0.50400001928E-02 0. -1.
    10030    2    1    2    0    0  0.00000000000E+00  0.00000000000E+00 -0.87717955274E+02  0.29013695625E+04  0.29000432580E+04 0.  0.
        2    1    3    3  502    0 -0.46762701033E+03 -0.13631872407E+04 -0.20395794500E+03  0.14555251002E+04  0.25500000920E-02 0. -1.
       -2    1    3    3    0  502  0.46762701033E+03  0.13631872407E+04  0.11623998973E+03  0.14458444623E+04  0.25500000920E-02 0.  1.
</event>
<event>
 5   0  0.4115143E-06  0.2891053E+04  0.7818609E-02  0.8275544E-01
       -2   -1    0    0    0  501  0.00000000000E+00  0.00000000000E+00  0.18904405815E+04  0.18904405815E+04  0.25500000920E-02 0.  1.
        2   -1    0    0  501    0  0.00000000000E+00  0.00000000000E+00 -0.11053227072E+04  0.11053227072E+04  0.25500000920E-02 0. -1.
    10030    2    1    2    0    0  0.00000000000E+00  0.00000000000E+00  0.78511787432E+03  0.29957632887E+04  0.28910530270E+04 0.  0.
        1    1    3    3  502    0 -0.42137484349E+03 -0.73203243947E+03 -0.82300939494E+03  0.11793102710E+04  0.50400001928E-02 0. -1.
       -1    1    3    3    0  502  0.42137484349E+03  0.73203243947E+03  0.16081272693E+04  0.18164530176E+04  0.50400001928E-02 0.  1.
</event>
<event>
 5   0  0.1602873E-06  0.2877169E+04  0.7818609E-02  0.8279703E-01
        1   -1    0    0  501    0  0.00000000000E+00  0.00000000000E+00  0.24069328339E+04  0.24069328339E+04  0.50400001928E-02 0. -1.
       -1   -1    0    0    0  501  0.00000000000E+00  0.00000000000E+00 -0.85981869690E+03  0.85981869691E+03  0.50400001928E-02 0.  1.
    10030    2    1    2    0    0  0.00000000000E+00  0.00000000000E+00  0.15471141370E+04  0.32667515308E+04  0.28771693400E+04 0.  0.
        1    1    3    3  502    0 -0.12124524905E+04  0.27573274846E+03 -0.47911365073E+02  0.12443331906E+04  0.50400001928E-02 0.  1.
       -1    1    3    3    0  502  0.12124524905E+04 -0.27573274846E+03  0.15950255020E+04  0.20224183402E+04  0.50400001928E-02 0. -1.
</event>
<event>
 5   0  0.1360125E-06  0.2897916E+04  0.7818609E-02  0.8273498E-01
       -3   -1    0    0    0  501  0.00000000000E+00  0.00000000000E+00  0.18079120751E+04  0.18079120779E+04  0.10100000352E+00 0. -1.
        3   -1    0    0  501    0  0.00000000000E+00  0.00000000000E+00 -0.11612730589E+04  0.11612730633E+04  0.10100000352E+00 0.  1.
    10030    2    1    2    0    0  0.00000000000E+00  0.00000000000E+00  0.64663901622E+03  0.29691851412E+04  0.28979162144E+04 0.  0.
        2    1    3    3  502    0  0.41693099216E+03 -0.26958091705E+03  0.17180366816E+04  0.17883387158E+04  0.25500000920E-02 0. -1.
       -2    1    3    3    0  502 -0.41693099216E+03  0.26958091705E+03 -0.10713976654E+04  0.11808464254E+04  0.25500000920E-02 0.  1.
</event>
<event>
 5   0  0.4115143E-06  0.2874803E+04  0.7818609E-02  0.8280414E-01
        2   -1    0    0  501    0  0.00000000000E+00  0.00000000000E+00  0.14680678809E+04  0.14680678809E+04  0.25500000920E-02 0.  1.
       -2   -1    0    0    0  501  0.00000000000E+00  0.00000000000E+00 -0.14073760668E+04  0.14073760668E+04  0.25500000920E-02 0. -1.
    10030    2    1    2    0    0  0.00000000000E+00  0.00000000000E+00  0.60691814084E+02  0.28754439476E+04  0.28748033671E+04 0.  0.
        1    1    3    3  502    0  0.14954556997E+03 -0.13125357871E+04  0.59704918417E+03  0.14496833441E+04  0.50400001928E-02 0.  1.
       -1    1    3    3    0  502 -0.14954556997E+03  0.13125357871E+04 -0.53635737009E+03  0.14257606035E+04  0.50400001928E-02 0. -1.
</event>
<event>
 5   0  0.1511126E-06  0.2921821E+04  0.7818609E-02  0.8266414E-01
       -1   -1    0    0    0  501  0.00000000000E+00  0.00000000000E+00  0.17681790447E+04  0.17681790447E+04  0.50400001928E-02 0. -1.
        1   -1    0    0  501    0  0.00000000000E+00  0.00000000000E+00 -0.12070384799E+04  0.12070384799E+04  0.50400001928E-02 0.  1.
    10030    2    1    2    0    0  0.00000000000E+00  0.00000000000E+00  0.56114056479E+03  0.29752175246E+04  0.29218214499E+04 0.  0.
        5    1    3    3  502    0 -0.62403056764E+03 -0.13039707911E+04  0.49533719375E+03  0.15281148513E+04  0.46999998093E+01 0. -1.
       -5    1    3    3    0  502  0.62403056764E+03  0.13039707911E+04  0.65803371037E+02  0.14471026733E+04  0.46999998093E+01 0.  1.
</event>
<event>
 5   0  0.1511126E-06  0.2894398E+04  0.7818609E-02  0.8274546E-01
        1   -1    0    0  501    0  0.00000000000E+00  0.00000000000E+00  0.16553194971E+04  0.16553194971E+04  0.50400001928E-02 0. -1.
       -1   -1    0    0    0  501  0.00000000000E+00  0.00000000000E+00 -0.12652448451E+04  0.12652448452E+04  0.50400001928E-02 0.  1.
    10030    2    1    2    0    0  0.00000000000E+00  0.00000000000E+00  0.39007465194E+03  0.29205643422E+04  0.28943976650E+04 0.  0.
        5    1    3    3  502    0  0.12720628201E+04  0.20738646262E+03 -0.46909943386E+03  0.13715791381E+04  0.46999998093E+01 0. -1.
       -5    1    3    3    0  502 -0.12720628201E+04 -0.20738646262E+03  0.85917408580E+03  0.15489852042E+04  0.46999998093E+01 0.  1.
</event>
<event>
 5   0  0.1602873E-06  0.2912829E+04  0.7818609E-02  0.8269071E-01
       -1   -1    0    0    0  501  0.00000000000E+00  0.00000000000E+00  0.79299560144E+03  0.79299560145E+03  0.50400001928E-02 0. -1.
        1   -1    0    0  501    0  0.00000000000E+00  0.00000000000E+00 -0.26748481106E+04  0.26748481106E+04  0.50400001928E-02 0.  1.
    10030    2    1    2    0    0  0.00000000000E+00  0.00000000000E+00 -0.18818525092E+04  0.34678437120E+04  0.29128287188E+04 0.  0.
        1    1    3    3  502    0 -0.27389452483E+03  0.11038717915E+04 -0.20239865052E+04  0.23216529707E+04  0.50400001928E-02 0.  1.
       -1    1    3    3    0  502  0.27389452483E+03 -0.11038717915E+04  0.14213399609E+03  0.11461907414E+04  0.50400001928E-02 0. -1.
</event>
<event>
 5   0  0.4148677E-06  0.2934667E+04  0.7818609E-02  0.8262637E-01
       -2   -1    0    0    0  501  0.00000000000E+00  0.00000000000E+00  0.11010141992E+04  0.11010141992E+04  0.25500000920E-02 0. -1.
        2   -1    0    0  501    0  0.00000000000E+00  0.00000000000E+00 -0.19555307066E+04  0.19555307066E+04  0.25500000920E-02 0.  1.
    10030    2    1    2    0    0  0.00000000000E+00  0.00000000000E+00 -0.85451650745E+03  0.30565449058E+04  0.29346666420E+04 0.  0.
        5    1    3    3  502    0  0.70797490659E+03  0.72417262688E+03 -0.15331412870E+04  0.18374435387E+04  0.46999998093E+01 0.  1.
       -5    1    3    3    0  502 -0.70797490659E+03 -0.72417262688E+03  0.67862477959E+03  0.12191013671E+04  0.46999998093E+01 0. -1.
</event>
<event>
 5   0  0.4115143E-06  0.2901579E+04  0.7818609E-02  0.8272408E-01
       -2   -1    0    0    0  501  0.00000000000E+00  0.00000000000E+00  0.10595654320E+04  0.10595654320E+04  0.25500000920E-02 0. -1.
        2   -1    0    0  501    0  0.00000000000E+00  0.00000000000E+00 -0.19864658411E+04  0.19864658411E+04  0.25500000920E-02 0.  1.
    10030    2    1    2    0    0  0.00000000000E+00  0.00000000000E+00 -0.92690040907E+03  0.30460312731E+04  0.29015792508E+04 0.  0.
        1    1    3    3  502    0 -0.11240857983E+03  0.10791931646E+04 -0.14744618747E+04  0.18306641952E+04  0.50400001928E-02 0.  1.
       -1    1    3    3    0  502  0.11240857983E+03 -0.10791931646E+04  0.54756146567E+03  0.12153670779E+04  0.50400001928E-02 0. -1.
</event>
<event>
 5   0  0.1550278E-06  0.2918533E+04  0.7818609E-02  0.8267385E-01
       -1   -1    0    0    0  501  0.00000000000E+00  0.00000000000E+00  0.23570848660E+04  0.23570848660E+04  0.50400001928E-02 0. -1.
        1   -1    0    0  501    0  0.00000000000E+00  0.00000000000E+00 -0.90342905637E+03  0.90342905639E+03  0.50400001928E-02 0.  1.
    10030    2    1    2    0    0  0.00000000000E+00  0.00000000000E+00  0.14536558097E+04  0.32605139224E+04  0.29185331633E+04 0.  0.
        2    1    3    3  502    0  0.11858833643E+04  0.74428108423E+03  0.11863460881E+04  0.18351268966E+04  0.25500000920E-02 0.  1.
       -2    1    3    3    0  502 -0.11858833643E+04 -0.74428108423E+03  0.26730972158E+03  0.14253870258E+04  0.25500000920E-02 0. -1.
</event>
<event>
 5   0  0.1511126E-06  0.3014709E+04  0.7818609E-02  0.8239543E-01
        1   -1    0    0  501    0  0.00000000000E+00  0.00000000000E+00  0.23320472049E+04  0.23320472049E+04  0.50400001928E-02 0. -1.
       -1   -1    0    0    0  501  0.00000000000E+00  0.00000000000E+00 -0.97430140577E+03  0.97430140578E+03  0.50400001928E-02 0.  1.
    10030    2    1    2    0    0  0.00000000000E+00  0.00000000000E+00  0.13577457991E+04  0.33063486107E+04  0.30147085233E+04 0.  0.
        5    1    3    3  502    0 -0.43099564367E+03  0.14183464475E+04  0.97848725908E+03  0.17762103750E+04  0.46999998093E+01 0. -1.
       -5    1    3    3    0  502  0.43099564367E+03 -0.14183464475E+04  0.37925854002E+03  0.15301382357E+04  0.46999998093E+01 0.  1.
</event>
<event>
 5   0  0.4187518E-06  0.2881281E+04  0.7818609E-02  0.8278469E-01
       -2   -1    0    0    0  501  0.00000000000E+00  0.00000000000E+00  0.16299782947E+04  0.16299782947E+04  0.25500000920E-02 0.  1.
        2   -1    0    0  501    0  0.00000000000E+00  0.00000000000E+00 -0.12732957850E+04  0.12732957850E+04  0.25500000920E-02 0. -1.
    10030    2    1    2    0    0  0.00000000000E+00  0.00000000000E+00  0.35668250970E+03  0.29032740797E+04  0.28812806127E+04 0.  0.
        3    1    3    3  502    0 -0.91952543953E+03 -0.14667261562E+03 -0.92932433207E+03  0.13155544894E+04  0.10100000352E+00 0.  1.
       -3    1    3    3    0  502  0.91952543953E+03  0.14667261562E+03  0.12860068418E+04  0.15877195903E+04  0.10100000352E+00 0. -1.
</event>
<event>
 5   0  0.4115143E-06  0.2894248E+04  0.7818609E-02  0.8274591E-01
        2   -1    0    0  501    0  0.00000000000E+00  0.00000000000E+00  0.18921797819E+04  0.18921797819E+04  0.25500000920E-02 0. -1.
       -2   -1    0    0    0  501  0.00000000000E+00  0.00000000000E+00 -0.11067490811E+04  0.11067490811E+04  0.25500000920E-02 0.  1.
    10030    2    1    2    0    0  0.00000000000E+00  0.00000000000E+00  0.78543070081E+03  0.29989288630E+04  0.28942482512E+04 0.  0.
        1    1    3    3  502    0  0.11743838791E+04  0.21952116640E+03  0.12388287441E+04  0.17210646982E+04  0.50400001928E-02 0. -1.
       -1    1    3    3    0  502 -0.11743838791E+04 -0.21952116640E+03 -0.45339804332E+03  0.12778641648E+04  0.50400001928E-02 0.  1.
</event>
<event>
 5   0  0.1360125E-06  0.2923703E+04  0.7818609E-02  0.8265860E-01
        3   -1    0    0  501    0  0.00000000000E+00  0.00000000000E+00  0.26798323469E+04  0.26798323488E+04  0.10100000352E+00 0. -1.
       -3   -1    0    0    0  501  0.00000000000E+00  0.00000000000E+00 -0.79744151947E+03  0.79744152586E+03  0.10100000352E+00 0.  1.
    10030    2    1    2    0    0  0.00000000000E+00  0.00000000000E+00  0.18823908274E+04  0.34772738747E+04  0.29237028529E+04 0.  0.
        5    1    3    3  502    0  0.11016745068E+04  0.75011192710E+03  0.22696502106E+03  0.13519947607E+04  0.46999998093E+01 0.  1.
       -5    1    3    3    0  502 -0.11016745068E+04 -0.75011192710E+03  0.16554258064E+04  0.21252791140E+04  0.46999998093E+01 0. -1.
</event>
<event>
 5   0  0.1550278E-06  0.2897813E+04  0.7818609E-02  0.8273528E-01
       -1   -1    0    0    0  501  0.00000000000E+00  0.00000000000E+00  0.78026644882E+03  0.78026644884E+03  0.50400001928E-02 0. -1.
        1   -1    0    0  501    0  0.00000000000E+00  0.00000000000E+00 -0.26905295737E+04  0.26905295737E+04  0.50400001928E-02 0.  1.
    10030    2    1    2    0    0  0.00000000000E+00  0.00000000000E+00 -0.19102631248E+04  0.34707960225E+04  0.28978129380E+04 0.  0.
        2    1    3    3  502    0 -0.17550653039E+03 -0.13195050407E+04 -0.26976874584E+03  0.13581867585E+04  0.25500000920E-02 0. -1.
       -2    1    3    3    0  502  0.17550653039E+03  0.13195050407E+04 -0.16404943790E+04  0.21126092640E+04  0.25500000920E-02 0.  1.
</event>
<event>
 5   0  0.1511126E-06  0.2857155E+04  0.7818609E-02  0.8285741E-01
        1   -1    0    0  501    0  0.00000000000E+00  0.00000000000E+00  0.24090502175E+04  0.24090502175E+04  0.50400001928E-02 0.  1.
       -1   -1    0    0    0  501  0.00000000000E+00  0.00000000000E+00 -0.84715260252E+03  0.84715260254E+03  0.50400001928E-02 0. -1.
    10030    2    1    2    0    0  0.00000000000E+00  0.00000000000E+00  0.15618976150E+04  0.32562028201E+04  0.28571546415E+04 0.  0.
        5    1    3    3  502    0  0.69710778268E+03 -0.11237230360E+04  0.16500335626E+03  0.13326518375E+04  0.46999998093E+01 0. -1.
       -5    1    3    3    0  502 -0.69710778268E+03  0.11237230360E+04  0.13968942588E+04  0.19235509826E+04  0.46999998093E+01 0.  1.
</event>
<event>
 5   0  0.1550278E-06  0.2926945E+04  0.7818609E-02  0.8264906E-01
       -1   -1    0    0    0  501  0.00000000000E+00  0.00000000000E+00  0.16038079311E+04  0.16038079311E+04  0.50400001928E-02 0.  1.
        1   -1    0    0  501    0  0.00000000000E+00  0.00000000000E+00 -0.13354163121E+04  0.13354163121E+04  0.50400001928E-02 0. -1.
    10030    2    1    2    0    0  0.00000000000E+00  0.00000000000E+00  0.26839161897E+03  0.29392242432E+04  0.29269446682E+04 0.  0.
        2    1    3    3  502    0 -0.86593729550E+03 -0.11622540083E+04 -0.69310500312E+02  0.14510291951E+04  0.25500000920E-02 0.  1.
       -2    1    3    3    0  502  0.86593729550E+03  0.11622540083E+04  0.33770211928E+03  0.14881950480E+04  0.25500000920E-02 0. -1.
</event>
<event>
 5   0  0.1511126E-06  0.2901502E+04  0.7818609E-02  0.8272431E-01
       -1   -1    0    0    0  501  0.00000000000E+00  0.00000000000E+00  0.79603169690E+03  0.79603169692E+03  0.50400001928E-02 0. -1.
        1   -1    0    0  501    0  0.00000000000E+00  0.00000000000E+00 -0.26439638304E+04  0.26439638304E+04  0.50400001928E-02 0.  1.
    10030    2    1    2    0    0  0.00000000000E+00  0.00000000000E+00 -0.18479321335E+04  0.34399955273E+04  0.29015023794E+04 0.  0.
        5    1    3    3  502    0 -0.24143260944E+03  0.84708099159E+03  0.44271818613E+03  0.98582827792E+03  0.46999998093E+01 0. -1.
       -5    1    3    3    0  502  0.24143260944E+03 -0.84708099159E+03 -0.22906503196E+04  0.24541672494E+04  0.46999998093E+01 0.  1.
</event>
<event>
 5   0  0.1550278E-06  0.2897150E+04  0.7818609E-02  0.8273726E-01
       -1   -1    0    0    0  501  0.00000000000E+00  0.00000000000E+00  0.12916360267E+04  0.12916360267E+04  0.50400001928E-02 0.  1.
        1   -1    0    0  501    0  0.00000000000E+00  0.00000000000E+00 -0.16245825884E+04  0.16245825884E+04  0.50400001928E-02 0. -1.
    10030    2    1    2    0    0  0.00000000000E+00  0.00000000000E+00 -0.33294656169E+03  0.29162186152E+04  0.28971499096E+04 0.  0.
        2    1    3    3  502    0  0.11336583980E+04 -0.51822023313E+03 -0.90932513730E+03  0.15429211835E+04  0.25500000920E-02 0. -1.
       -2    1    3    3    0  502 -0.11336583980E+04  0.51822023313E+03  0.57637857561E+03  0.13732974316E+04  0.25500000920E-02 0.  1.
</event>
<event>
 5   0  0.4187518E-06  0.2908466E+04  0.7818609E-02  0.8270363E-01
        2   -1    0    0  501    0  0.00000000000E+00  0.00000000000E+00  0.14545777209E+04  0.14545777209E+04  0.25500000920E-02 0. -1.
       -2   -1    0    0    0  501  0.00000000000E+00  0.00000000000E+00 -0.14538885229E+04  0.14538885229E+04  0.25500000920E-02 0.  1.
    10030    2    1    2    0    0  0.00000000000E+00  0.00000000000E+00  0.68919796304E+00  0.29084662438E+04  0.29084661621E+04 0.  0.
        3    1    3    3  502    0 -0.96153587771E+03  0.99813704889E+03  0.44075922438E+03  0.14543374837E+04  0.10100000352E+00 0.  1.
       -3    1    3    3    0  502  0.96153587771E+03 -0.99813704889E+03 -0.44007002642E+03  0.14541287601E+04  0.10100000352E+00 0. -1.
</event>
<event>
 5   0  0.4162450E-06  0.2887225E+04  0.7818609E-02  0.8276688E-01
       -2   -1    0    0    0  501  0.00000000000E+00  0.00000000000E+00  0.16871314212E+04  0.16871314212E+04  0.25500000920E-02 0. -1.
        2   -1    0    0  501    0  0.00000000000E+00  0.00000000000E+00 -0.12352431623E+04  0.12352431623E+04  0.25500000920E-02 0.  1.
    10030    2    1    2    0    0  0.00000000000E+00  0.00000000000E+00  0.45188825897E+03  0.29223745835E+04  0.28872253476E+04 0.  0.
        2    1    3    3  502    0 -0.24642432163E+03  0.39390327048E+02  0.16651335582E+04  0.16837298806E+04  0.25500000920E-02 0. -1.
       -2    1    3    3    0  502  0.24642432163E+03 -0.39390327048E+02 -0.12132452992E+04  0.12386447030E+04  0.25500000920E-02 0.  1.
</event>
<event>
 5   0  0.4115143E-06  0.2897168E+04  0.7818609E-02  0.8273721E-01
        2   -1    0    0  501    0  0.00000000000E+00  0.00000000000E+00  0.13232348420E+04  0.13232348420E+04  0.25500000920E-02 0. -1.
       -2   -1    0    0    0  501  0.00000000000E+00  0.00000000000E+00 -0.15858073069E+04  0.15858073069E+04  0.25500000920E-02 0.  1.
    10030    2    1    2    0    0  0.00000000000E+00  0.00000000000E+00 -0.26257246491E+03  0.29090421490E+04  0.28971679145E+04 0.  0.
        1    1    3    3  502    0 -0.53475616555E+03  0.18916266402E+03 -0.14696591555E+04  0.15753236821E+04  0.50400001928E-02 0.  1.
       -1    1    3    3    0  502  0.53475616555E+03 -0.18916266402E+03  0.12070866906E+04  0.13337184668E+04  0.50400001928E-02 0. -1.
</event>
<event>
 5   0  0.1550278E-06  0.2893647E+04  0.7818609E-02  0.8274770E-01
       -1   -1    0    0    0  501  0.00000000000E+00  0.00000000000E+00  0.22891587870E+04  0.22891587870E+04  0.50400001928E-02 0. -1.
        1   -1    0    0  501    0  0.00000000000E+00  0.00000000000E+00 -0.91444015502E+03  0.91444015504E+03  0.50400001928E-02 0.  1.
    10030    2    1    2    0    0  0.00000000000E+00  0.00000000000E+00  0.13747186319E+04  0.32035989420E+04  0.28936473289E+04 0.  0.
        2    1    3    3  502    0 -0.10817984489E+04  0.87128297570E+03  0.23918053518E+03  0.14094783560E+04  0.25500000920E-02 0.  1.
       -2    1    3    3    0  502  0.10817984489E+04 -0.87128297570E+03  0.11355380968E+04  0.17941205859E+04  0.25500000920E-02 0. -1.
</event>
<event>
 5   0  0.4224163E-06  0.2893162E+04  0.7818609E-02  0.8274915E-01
       -2   -1    0    0    0  501  0.00000000000E+00  0.00000000000E+00  0.18169836723E+04  0.18169836723E+04  0.25500000920E-02 0.  1.
        2   -1    0    0  501    0  0.00000000000E+00  0.00000000000E+00 -0.11516874179E+04  0.11516874179E+04  0.25500000920E-02 0. -1.
    10030    2    1    2    0    0  0.00000000000E+00  0.00000000000E+00  0.66529625446E+03  0.29686710902E+04  0.28931624455E+04 0.  0.
        4    1    3    3  502    0 -0.50846929649E+03 -0.13541936276E+04  0.31763007530E+03  0.14809699134E+04  0.12699999809E+01 0.  1.
       -4    1    3    3    0  502  0.50846929649E+03  0.13541936276E+04  0.34766617917E+03  0.14877011769E+04  0.12699999809E+01 0. -1.
</event>
<event>
 5   0  0.1602873E-06  0.2913131E+04  0.7818609E-02  0.8268981E-01
       -1   -1    0    0    0  501  0.00000000000E+00  0.00000000000E+00  0.83722533151E+03  0.83722533153E+03  0.50400001928E-02 0. -1.
        1   -1    0    0  501    0  0.00000000000E+00  0.00000000000E+00 -0.25340639301E+04  0.25340639301E+04  0.50400001928E-02 0.  1.
    10030    2    1    2    0    0  0.00000000000E+00  0.00000000000E+00 -0.16968385986E+04  0.33712892616E+04  0.29131306280E+04 0.  0.
        1    1    3    3  502    0 -0.91049722017E+03 -0.38106919190E+03  0.39119503983E+03  0.10617214683E+04  0.50400001928E-02 0. -1.
       -1    1    3    3    0  502  0.91049722017E+03  0.38106919190E+03 -0.20880336384E+04  0.23095677934E+04  0.50400001928E-02 0.  1.
</event>
<event>
 5   0  0.1580212E-06  0.2899332E+04  0.7818609E-02  0.8273076E-01
        1   -1    0    0  501    0  0.00000000000E+00  0.00000000000E+00  0.15921452803E+04  0.15921452803E+04  0.50400001928E-02 0. -1.
       -1   -1    0    0    0  501  0.00000000000E+00  0.00000000000E+00 -0.13199371479E+04  0.13199371479E+04  0.50400001928E-02 0.  1.
    10030    2    1    2    0    0  0.00000000000E+00  0.00000000000E+00  0.27220813242E+03  0.29120824283E+04  0.28993321303E+04 0.  0.
        4    1    3    3  502    0 -0.66059780102E+02  0.76946416382E+03 -0.10961126278E+04  0.13408592393E+04  0.12699999809E+01 0.  1.
       -4    1    3    3    0  502  0.66059780102E+02 -0.76946416382E+03  0.13683207602E+04  0.15712231890E+04  0.12699999809E+01 0. -1.
</event>
<event>
 5   0  0.4187518E-06  0.2947788E+04  0.7818609E-02  0.8258800E-01
        2   -1    0    0  501    0  0.00000000000E+00  0.00000000000E+00  0.16498472276E+04  0.16498472277E+04  0.25500000920E-02 0.  1.
       -2   -1    0    0    0  501  0.00000000000E+00  0.00000000000E+00 -0.13167055816E+04  0.13167055816E+04  0.25500000920E-02 0. -1.
    10030    2    1    2    0    0  0.00000000000E+00  0.00000000000E+00  0.33314164609E+03  0.29665528092E+04  0.29477876812E+04 0.  0.
        3    1    3    3  502    0  0.96677966600E+03 -0.11083876325E+04  0.70164460087E+02  0.14724500427E+04  0.10100000352E+00 0.  1.
       -3    1    3    3    0  502 -0.96677966600E+03  0.11083876325E+04  0.26297718600E+03  0.14941027666E+04  0.10100000352E+00 0. -1.
</event>
<event>
 5   0  0.1511126E-06  0.2638754E+04  0.7818609E-02  0.8355155E-01
       -1   -1    0    0    0  501  0.00000000000E+00  0.00000000000E+00  0.13384880189E+04  0.13384880189E+04  0.50400001928E-02 0. -1.
        1   -1    0    0  501    0  0.00000000000E+00  0.00000000000E+00 -0.13005389346E+04  0.13005389347E+04  0.50400001928E-02 0.  1.
    10030    2    1    2    0    0  0.00000000000E+00  0.00000000000E+00  0.37949084255E+02  0.26390269536E+04  0.26387540864E+04 0.  0.
        5    1    3    3  502    0 -0.22072610109E+03 -0.66371504435E+03 -0.10998439695E+04  0.13034249189E+04  0.46999998093E+01 0.  1.
       -5    1    3    3    0  502  0.22072610109E+03  0.66371504435E+03  0.11377930538E+04  0.13356020347E+04  0.46999998093E+01 0. -1.
</event>
<event>
 5   0  0.4187518E-06  0.2911547E+04  0.7818609E-02  0.8269450E-01
       -2   -1    0    0    0  501  0.00000000000E+00  0.00000000000E+00  0.11073265591E+04  0.11073265591E+04  0.25500000920E-02 0.  1.
        2   -1    0    0  501    0  0.00000000000E+00  0.00000000000E+00 -0.19138670888E+04  0.19138670888E+04  0.25500000920E-02 0. -1.
    10030    2    1    2    0    0  0.00000000000E+00  0.00000000000E+00 -0.80654052967E+03  0.30211936479E+04  0.29115465705E+04 0.  0.
        3    1    3    3  502    0  0.84142387187E+03 -0.94485250578E+03  0.34394210257E+03  0.13111203491E+04  0.10100000352E+00 0.  1.
       -3    1    3    3    0  502 -0.84142387187E+03  0.94485250578E+03 -0.11504826322E+04  0.17100732988E+04  0.10100000352E+00 0. -1.
</event>
<event>
 5   0  0.1602873E-06  0.2886716E+04  0.7818609E-02  0.8276841E-01
       -1   -1    0    0    0  501  0.00000000000E+00  0.00000000000E+00  0.11386308821E+04  0.11386308821E+04  0.50400001928E-02 0.  1.
        1   -1    0    0  501    0  0.00000000000E+00  0.00000000000E+00 -0.18296374819E+04  0.18296374819E+04  0.50400001928E-02 0. -1.
    10030    2    1    2    0    0  0.00000000000E+00  0.00000000000E+00 -0.69100659983E+03  0.29682683640E+04  0.28867156008E+04 0.  0.
        1    1    3    3  502    0 -0.11900071094E+04  0.77798241449E+03 -0.89660505271E+02  0.14245745203E+04  0.50400001928E-02 0.  1.
       -1    1    3    3    0  502  0.11900071094E+04 -0.77798241449E+03 -0.60134609456E+03  0.15436938437E+04  0.50400001928E-02 0. -1.
</event>
<event>
 5   0  0.1511126E-06  0.2861889E+04  0.7818609E-02  0.8284308E-01
       -1   -1    0    0    0  501  0.00000000000E+00  0.00000000000E+00  0.11721502997E+04  0.11721502997E+04  0.50400001928E-02 0. -1.
        1   -1    0    0  501    0  0.00000000000E+00  0.00000000000E+00 -0.17468765518E+04  0.17468765518E+04  0.50400001928E-02 0.  1.
    10030    2    1    2    0    0  0.00000000000E+00  0.00000000000E+00 -0.57472625211E+03  0.29190268516E+04  0.28618887986E+04 0.  0.
        5    1    3    3  502    0  0.10250163558E+04 -0.70059362893E+03  0.43823998560E+03  0.13166496640E+04  0.46999998093E+01 0. -1.
       -5    1    3    3    0  502 -0.10250163558E+04  0.70059362893E+03 -0.10129662377E+04  0.16023771876E+04  0.46999998093E+01 0.  1.
</event>
<event>
 5   0  0.4148677E-06  0.2912121E+04  0.7818609E-02  0.8269280E-01
        2   -1    0    0  501    0  0.00000000000E+00  0.00000000000E+00  0.17761596558E+04  0.17761596558E+04  0.25500000920E-02 0.  1.
       -2   -1    0    0    0  501  0.00000000000E+00  0.00000000000E+00 -0.11936498822E+04  0.11936498822E+04  0.25500000920E-02 0. -1.
    10030    2    1    2    0    0  0.00000000000E+00  0.00000000000E+00  0.58250977352E+03  0.29698095380E+04  0.29121214013E+04 0.  0.
        5    1    3    3  502    0  0.14109391553E+04 -0.17825234688E+03  0.60980051859E+03  0.15473855246E+04  0.46999998093E+01 0. -1.
       -5    1    3    3    0  502 -0.14109391553E+04  0.17825234688E+03 -0.27290745071E+02  0.14224240134E+04  0.46999998093E+01 0.  1.
</event>
<event>
 5   0  0.1602873E-06  0.3065148E+04  0.7818609E-02  0.8225368E-01
       -1   -1    0    0    0  501  0.00000000000E+00  0.00000000000E+00  0.22340714864E+04  0.22340714864E+04  0.50400001928E-02 0. -1.
        1   -1    0    0  501    0  0.00000000000E+00  0.00000000000E+00 -0.10513465278E+04  0.10513465278E+04  0.50400001928E-02 0.  1.
    10030    2    1    2    0    0  0.00000000000E+00  0.00000000000E+00  0.11827249586E+04  0.32854180143E+04  0.30651481532E+04 0.  0.
        1    1    3    3  502    0 -0.13192886941E+04 -0.26736686312E+03 -0.19393742971E+03  0.13600071414E+04  0.50400001928E-02 0.  1.
       -1    1    3    3    0  502  0.13192886941E+04  0.26736686312E+03  0.13766623883E+04  0.19254108729E+04  0.50400001928E-02 0. -1.
</event>
<event>
 5   0  0.4148677E-06  0.2880936E+04  0.7818609E-02  0.8278572E-01
        2   -1    0    0  501    0  0.00000000000E+00  0.00000000000E+00  0.10951325195E+04  0.10951325195E+04  0.25500000920E-02 0. -1.
       -2   -1    0    0    0  501  0.00000000000E+00  0.00000000000E+00 -0.18947006642E+04  0.18947006642E+04  0.25500000920E-02 0.  1.
    10030    2    1    2    0    0  0.00000000000E+00  0.00000000000E+00 -0.79956814477E+03  0.29898331837E+04  0.28809361756E+04 0.  0.
        5    1    3    3  502    0 -0.44335973658E+03 -0.11982084656E+04  0.29068770034E+03  0.13102644054E+04  0.46999998093E+01 0. -1.
       -5    1    3    3    0  502  0.44335973658E+03  0.11982084656E+04 -0.10902558451E+04  0.16795687782E+04  0.46999998093E+01 0.  1.
</event>
<event>
 5   0  0.1550278E-06  0.2877622E+04  0.7818609E-02  0.8279567E-01
        1   -1    0    0  501    0  0.00000000000E+00  0.00000000000E+00  0.25287620045E+04  0.25287620045E+04  0.50400001928E-02 0.  1.
       -1   -1    0    0    0  501  0.00000000000E+00  0.00000000000E+00 -0.81865227012E+03  0.81865227013E+03  0.50400001928E-02 0. -1.
    10030    2    1    2    0    0  0.00000000000E+00  0.00000000000E+00  0.17101097344E+04  0.33474142746E+04  0.28776217650E+04 0.  0.
        2    1    3    3  502    0 -0.10452659172E+03 -0.14347239714E+04  0.82178340989E+03  0.16567095869E+04  0.25500000920E-02 0.  1.
       -2    1    3    3    0  502  0.10452659172E+03  0.14347239714E+04  0.88832632449E+03  0.16907046878E+04  0.25500000920E-02 0. -1.
</event>
<event>
 5   0  0.1543678E-06  0.2872258E+04  0.7818609E-02  0.8281180E-01
       -1   -1    0    0    0  501  0.00000000000E+00  0.00000000000E+00  0.12620521081E+04  0.12620521081E+04  0.50400001928E-02 0.  1.
        1   -1    0    0  501    0  0.00000000000E+00  0.00000000000E+00 -0.16342162044E+04  0.16342162045E+04  0.50400001928E-02 0. -1.
    10030    2    1    2    0    0  0.00000000000E+00  0.00000000000E+00 -0.37216409631E+03  0.28962683126E+04  0.28722576528E+04 0.  0.
        3    1    3    3  502    0 -0.24738288607E+03  0.25086139585E+03  0.12177978579E+04  0.12677386818E+04  0.10100000352E+00 0.  1.
       -3    1    3    3    0  502  0.24738288607E+03 -0.25086139585E+03 -0.15899619543E+04  0.16285296308E+04  0.10100000352E+00 0. -1.
</event>
<event>
 5   0  0.1511126E-06  0.2893784E+04  0.7818609E-02  0.8274729E-01
       -1   -1    0    0    0  501  0.00000000000E+00  0.00000000000E+00  0.93922527458E+03  0.93922527460E+03  0.50400001928E-02 0. -1.
        1   -1    0    0  501    0  0.00000000000E+00  0.00000000000E+00 -0.22289608855E+04  0.22289608855E+04  0.50400001928E-02 0.  1.
    10030    2    1    2    0    0  0.00000000000E+00  0.00000000000E+00 -0.12897356109E+04  0.31681861601E+04  0.28937839586E+04 0.  0.
        5    1    3    3  502    0  0.81948997504E+03  0.60810705477E+03  0.47812367684E+03  0.11269349358E+04  0.46999998093E+01 0. -1.
       -5    1    3    3    0  502 -0.81948997504E+03 -0.60810705477E+03 -0.17678592877E+04  0.20412512243E+04  0.46999998093E+01 0.  1.
</event>
<event>
 5   0  0.4162450E-06  0.2901984E+04  0.7818609E-02  0.8272288E-01
       -2   -1    0    0    0  501  0.00000000000E+00  0.00000000000E+00  0.18613569133E+04  0.18613569133E+04  0.25500000920E-02 0.  1.
        2   -1    0    0  501    0  0.00000000000E+00  0.00000000000E+00 -0.11310980301E+04  0.11310980301E+04  0.25500000920E-02 0. -1.
    10030    2    1    2    0    0  0.00000000000E+00  0.00000000000E+00  0.73025888318E+03  0.29924549433E+04  0.29019835546E+04 0.  0.
        2    1    3    3  502    0 -0.11059718579E+04 -0.84985579730E+03  0.77753335136E+03  0.15968677902E+04  0.25500000920E-02 0.  1.
       -2    1    3    3    0  502  0.11059718579E+04  0.84985579730E+03 -0.47274468178E+02  0.13955871532E+04  0.25500000920E-02 0. -1.
</event>
<event>
 5   0  0.4115143E-06  0.2895646E+04  0.7818609E-02  0.8274174E-01
       -2   -1    0    0    0  501  0.00000000000E+00  0.00000000000E+00  0.11398784625E+04  0.11398784625E+04  0.25500000920E-02 0.  1.
        2   -1    0    0  501    0  0.00000000000E+00  0.00000000000E+00 -0.18389609613E+04  0.18389609613E+04  0.25500000920E-02 0. -1.
    10030    2    1    2    0    0  0.00000000000E+00  0.00000000000E+00 -0.69908249881E+03  0.29788394238E+04  0.28956463825E+04 0.  0.
        1    1    3    3  502    0 -0.12105150217E+04  0.16330369503E+03  0.45007896149E+03  0.13017625691E+04  0.50400001928E-02 0.  1.
       -1    1    3    3    0  502  0.12105150217E+04 -0.16330369503E+03 -0.11491614603E+04  0.16770768547E+04  0.50400001928E-02 0. -1.
</event>
<event>
 5   0  0.1602873E-06  0.3177004E+04  0.7818609E-02  0.8194917E-01
       -1   -1    0    0    0  501  0.00000000000E+00  0.00000000000E+00  0.13383564490E+04  0.13383564490E+04  0.50400001928E-02 0. -1.
        1   -1    0    0  501    0  0.00000000000E+00  0.00000000000E+00 -0.18854010207E+04  0.18854010207E+04  0.50400001928E-02 0.  1.
    10030    2    1    2    0    0  0.00000000000E+00  0.00000000000E+00 -0.54704457166E+03  0.32237574697E+04  0.31770040069E+04 0.  0.
        1    1    3    3  502    0 -0.35093076906E+03  0.24188066320E+03  0.12792521344E+04  0.13483859549E+04  0.50400001928E-02 0. -1.
       -1    1    3    3    0  502  0.35093076906E+03 -0.24188066320E+03 -0.18262967061E+04  0.18753715148E+04  0.50400001928E-02 0.  1.
</event>
<event>
 5   0  0.1543678E-06  0.2877949E+04  0.7818609E-02  0.8279469E-01
        1   -1    0    0  501    0  0.00000000000E+00  0.00000000000E+00  0.33176698206E+04  0.33176698206E+04  0.50400001928E-02 0.  1.
       -1   -1    0    0    0  501  0.00000000000E+00  0.00000000000E+00 -0.62412707853E+03  0.62412707855E+03  0.50400001928E-02 0. -1.
    10030    2    1    2    0    0  0.00000000000E+00  0.00000000000E+00  0.26935427421E+04  0.39417968991E+04  0.28779489729E+04 0.  0.
        3    1    3    3  502    0 -0.69593605022E+03 -0.90739610576E+03  0.25431262181E+04  0.27884019886E+04  0.10100000352E+00 0.  1.
       -3    1    3    3    0  502  0.69593605022E+03  0.90739610576E+03  0.15041652396E+03  0.11533949105E+04  0.10100000352E+00 0. -1.
</event>
<event>
 5   0  0.1543678E-06  0.2901904E+04  0.7818609E-02  0.8272311E-01
       -1   -1    0    0    0  501  0.00000000000E+00  0.00000000000E+00  0.97990003538E+03  0.97990003540E+03  0.50400001928E-02 0. -1.
        1   -1    0    0  501    0  0.00000000000E+00  0.00000000000E+00 -0.21484451479E+04  0.21484451479E+04  0.50400001928E-02 0.  1.
    10030    2    1    2    0    0  0.00000000000E+00  0.00000000000E+00 -0.11685451125E+04  0.31283451833E+04  0.29019038416E+04 0.  0.
        3    1    3    3  502    0  0.85567097409E+03 -0.41914136378E+03 -0.17639219241E+04  0.20048124260E+04  0.10100000352E+00 0.  1.
       -3    1    3    3    0  502 -0.85567097409E+03  0.41914136378E+03  0.59537681163E+03  0.11235327573E+04  0.10100000352E+00 0. -1.
</event>
<event>
 5   0  0.1580212E-06  0.2874888E+04  0.7818609E-02  0.8280389E-01
       -1   -1    0    0    0  501  0.00000000000E+00  0.00000000000E+00  0.11082995885E+04  0.11082995885E+04  0.50400001928E-02 0.  1.
        1   -1    0    0  501    0  0.00000000000E+00  0.00000000000E+00 -0.18643376957E+04  0.18643376957E+04  0.50400001928E-02 0. -1.
    10030    2    1    2    0    0  0.00000000000E+00  0.00000000000E+00 -0.75603810723E+03  0.29726372842E+04  0.28748876159E+04 0.  0.
        4    1    3    3  502    0 -0.12185146549E+02 -0.40612522751E+03 -0.18037252257E+04  0.18489219780E+04  0.12699999809E+01 0. -1.
       -4    1    3    3    0  502  0.12185146549E+02  0.40612522751E+03  0.10476871185E+04  0.11237153062E+04  0.12699999809E+01 0.  1.
</event>
<event>
 5   0  0.4115143E-06  0.2903272E+04  0.7818609E-02  0.8271905E-01
        2   -1    0    0  501    0  0.00000000000E+00  0.00000000000E+00  0.19417742620E+04  0.19417742620E+04  0.25500000920E-02 0.  1.
       -2   -1    0    0    0  501  0.00000000000E+00  0.00000000000E+00 -0.10852173713E+04  0.10852173713E+04  0.25500000920E-02 0. -1.
    10030    2    1    2    0    0  0.00000000000E+00  0.00000000000E+00  0.85655689073E+03  0.30269916333E+04  0.29032720577E+04 0.  0.
        1    1    3    3  502    0  0.14081944524E+04 -0.98349339982E+02  0.75383381474E+02  0.14136360432E+04  0.50400001928E-02 0. -1.
       -1    1    3    3    0  502 -0.14081944524E+04  0.98349339982E+02  0.78117350925E+03  0.16133555901E+04  0.50400001928E-02 0.  1.
</event>
<event>
 5   0  0.4187518E-06  0.2890389E+04  0.7818609E-02  0.8275743E-01
        2   -1    0    0  501    0  0.00000000000E+00  0.00000000000E+00  0.12039142691E+04  0.12039142691E+04  0.25500000920E-02 0. -1.
       -2   -1    0    0    0  501  0.00000000000E+00  0.00000000000E+00 -0.17348302555E+04  0.17348302555E+04  0.25500000920E-02 0.  1.
    10030    2    1    2    0    0  0.00000000000E+00  0.00000000000E+00 -0.53091598640E+03  0.29387445245E+04  0.28903888313E+04 0.  0.
        3    1    3    3  502    0  0.11966935089E+04 -0.12221190198E+03 -0.10798425785E+04  0.16164996467E+04  0.10100000352E+00 0.  1.
       -3    1    3    3    0  502 -0.11966935089E+04  0.12221190198E+03  0.54892659215E+03  0.13222448778E+04  0.10100000352E+00 0. -1.
</event>
<event>
 5   0  0.1543678E-06  0.2894226E+04  0.7818609E-02  0.8274597E-01
        1   -1    0    0  501    0  0.00000000000E+00  0.00000000000E+00  0.20719090717E+04  0.20719090717E+04  0.50400001928E-02 0.  1.
       -1   -1    0    0    0  501  0.00000000000E+00  0.00000000000E+00 -0.10107278484E+04  0.10107278484E+04  0.50400001928E-02 0. -1.
    10030    2    1    2    0    0  0.00000000000E+00  0.00000000000E+00  0.10611812233E+04  0.30826369201E+04  0.28942261129E+04 0.  0.
        3    1    3    3  502    0  0.82076276707E+02  0.48218059976E+03  0.19811995498E+04  0.20406828054E+04  0.10100000352E+00 0.  1.
       -3    1    3    3    0  502 -0.82076276707E+02 -0.48218059976E+03 -0.92001832648E+03  0.10419541147E+04  0.10100000352E+00 0. -1.
</event>
<event>
 5   0  0.4224163E-06  0.2877757E+04  0.7818609E-02  0.8279526E-01
        2   -1    0    0  501    0  0.00000000000E+00  0.00000000000E+00  0.15124007351E+04  0.15124007351E+04  0.25500000920E-02 0.  1.
       -2   -1    0    0    0  501  0.00000000000E+00  0.00000000000E+00 -0.13689307525E+04  0.13689307525E+04  0.25500000920E-02 0. -1.
    10030    2    1    2    0    0  0.00000000000E+00  0.00000000000E+00  0.14346998259E+03  0.28813314876E+04  0.28777573743E+04 0.  0.
        4    1    3    3  502    0  0.12415488529E+04  0.70510745652E+03 -0.10667212470E+03  0.14317823279E+04  0.12699999809E+01 0. -1.
       -4    1    3    3    0  502 -0.12415488529E+04 -0.70510745652E+03  0.25014210729E+03  0.14495491596E+04  0.12699999809E+01 0.  1.
</event>
<event>
 5   0  0.1543678E-06  0.2905587E+04  0.7818609E-02  0.8271217E-01
        1   -1    0    0  501    0  0.00000000000E+00  0.00000000000E+00  0.20581681223E+04  0.20581681223E+04  0.50400001928E-02 0. -1.
       -1   -1    0    0    0  501  0.00000000000E+00  0.00000000000E+00 -0.10254795431E+04  0.10254795431E+04  0.50400001928E-02 0.  1.
    10030    2    1    2    0    0  0.00000000000E+00  0.00000000000E+00  0.10326885792E+04  0.30836476654E+04  0.29055872423E+04 0.  0.
        3    1    3    3  502    0 -0.26433100337E+03 -0.83439653787E+03 -0.71424915777E+03  0.11297080735E+04  0.10100000352E+00 0.  1.
       -3    1    3    3    0  502  0.26433100337E+03  0.83439653787E+03  0.17469377370E+04  0.19539395919E+04  0.10100000352E+00 0. -1.
</event>
<event>
 5   0  0.1543678E-06  0.2899999E+04  0.7818609E-02  0.8272878E-01
       -1   -1    0    0    0  501  0.00000000000E+00  0.00000000000E+00  0.10883047189E+04  0.10883047189E+04  0.50400001928E-02 0.  1.
        1   -1    0    0  501    0  0.00000000000E+00  0.00000000000E+00 -0.19319018671E+04  0.19319018671E+04  0.50400001928E-02 0. -1.
    10030    2    1    2    0    0  0.00000000000E+00  0.00000000000E+00 -0.84359714826E+03  0.30202065860E+04  0.28999985644E+04 0.  0.
        3    1    3    3  502    0  0.91995915885E+03 -0.10542052710E+04 -0.81813098376E+03  0.16208059489E+04  0.10100000352E+00 0. -1.
       -3    1    3    3    0  502 -0.91995915885E+03  0.10542052710E+04 -0.25466164498E+02  0.13994006371E+04  0.10100000352E+00 0.  1.
</event>
<event>
 5   0  0.4148677E-06  0.2898511E+04  0.7818609E-02  0.8273321E-01
       -2   -1    0    0    0  501  0.00000000000E+00  0.00000000000E+00  0.80705536366E+03  0.80705536367E+03  0.25500000920E-02 0.  1.
        2   -1    0    0  501    0  0.00000000000E+00  0.00000000000E+00 -0.26024745646E+04  0.26024745646E+04  0.25500000920E-02 0. -1.
    10030    2    1    2    0    0  0.00000000000E+00  0.00000000000E+00 -0.17954192010E+04  0.34095299283E+04  0.28985106908E+04 0.  0.
        5    1    3    3  502    0 -0.17238047242E+03 -0.96520379792E+03 -0.21530997335E+04  0.23658389529E+04  0.46999998093E+01 0. -1.
       -5    1    3    3    0  502  0.17238047242E+03  0.96520379792E+03  0.35768053251E+03  0.10436909754E+04  0.46999998093E+01 0.  1.
</event>
<event>
 5   0  0.1580212E-06  0.3003576E+04  0.7818609E-02  0.8242711E-01
        1   -1    0    0  501    0  0.00000000000E+00  0.00000000000E+00  0.11566742474E+04  0.11566742474E+04  0.50400001928E-02 0.  1.
       -1   -1    0    0    0  501  0.00000000000E+00  0.00000000000E+00 -0.19498720659E+04  0.19498720659E+04  0.50400001928E-02 0. -1.
    10030    2    1    2    0    0  0.00000000000E+00  0.00000000000E+00 -0.79319781848E+03  0.31065463133E+04  0.30035757386E+04 0.  0.
        4    1    3    3  502    0 -0.20540326367E+03 -0.69527256185E+03  0.96369740127E+03  0.12059472336E+04  0.12699999809E+01 0.  1.
       -4    1    3    3    0  502  0.20540326367E+03  0.69527256185E+03 -0.17568952198E+04  0.19005990798E+04  0.12699999809E+01 0. -1.
</event>
<event>
 5   0  0.1543678E-06  0.2903836E+04  0.7818609E-02  0.8271737E-01
       -1   -1    0    0    0  501  0.00000000000E+00  0.00000000000E+00  0.11950096436E+04  0.11950096436E+04  0.50400001928E-02 0. -1.
        1   -1    0    0  501    0  0.00000000000E+00  0.00000000000E+00 -0.17640574273E+04  0.17640574273E+04  0.50400001928E-02 0.  1.
    10030    2    1    2    0    0  0.00000000000E+00  0.00000000000E+00 -0.56904778364E+03  0.29590670709E+04  0.29038358339E+04 0.  0.
        3    1    3    3  502    0 -0.65253109093E+03 -0.88320864145E+03 -0.12524381326E+04  0.16656697197E+04  0.10100000352E+00 0.  1.
       -3    1    3    3    0  502  0.65253109093E+03  0.88320864145E+03  0.68339034893E+03  0.12933973512E+04  0.10100000352E+00 0. -1.
</event>
<event>
 5   0  0.4162450E-06  0.2894859E+04  0.7818609E-02  0.8274409E-01
       -2   -1    0    0    0  501  0.00000000000E+00  0.00000000000E+00  0.17197838820E+04  0.17197838820E+04  0.25500000920E-02 0.  1.
        2   -1    0    0  501    0  0.00000000000E+00  0.00000000000E+00 -0.12182067011E+04  0.12182067011E+04  0.25500000920E-02 0. -1.
    10030    2    1    2    0    0  0.00000000000E+00  0.00000000000E+00  0.50157718088E+03  0.29379905830E+04  0.28948590635E+04 0.  0.
        2    1    3    3  502    0 -0.10253073181E+04 -0.55177915277E+03  0.11234467852E+04  0.16179765169E+04  0.25500000920E-02 0.  1.
       -2    1    3    3    0  502  0.10253073181E+04  0.55177915277E+03 -0.62186960436E+03  0.13200140661E+04  0.25500000920E-02 0. -1.
</event>
<event>
 5   0  0.1602873E-06  0.2897805E+04  0.7818609E-02  0.8273531E-01
        1   -1    0    0  501    0  0.00000000000E+00  0.00000000000E+00  0.12991626202E+04  0.12991626202E+04  0.50400001928E-02 0. -1.
       -1   -1    0    0    0  501  0.00000000000E+00  0.00000000000E+00 -0.16159007543E+04  0.16159007543E+04  0.50400001928E-02 0.  1.
    10030    2    1    2    0    0  0.00000000000E+00  0.00000000000E+00 -0.31673813410E+03  0.29150633746E+04  0.28978045883E+04 0.  0.
        1    1    3    3  502    0  0.13474860041E+04  0.14411501577E+03  0.35735396683E+03  0.14014954608E+04  0.50400001928E-02 0. -1.
       -1    1    3    3    0  502 -0.13474860041E+04 -0.14411501577E+03 -0.67409210093E+03  0.15135679138E+04  0.50400001928E-02 0.  1.
</event>
<event>
 5   0  0.4115143E-06  0.2936135E+04  0.7818609E-02  0.8262207E-01
        2   -1    0    0  501    0  0.00000000000E+00  0.00000000000E+00  0.24747104344E+04  0.24747104344E+04  0.25500000920E-02 0. -1.
       -2   -1    0    0    0  501  0.00000000000E+00  0.00000000000E+00 -0.87089878317E+03  0.87089878317E+03  0.25500000920E-02 0.  1.
    10030    2    1    2    0    0  0.00000000000E+00  0.00000000000E+00  0.16038116512E+04  0.33456092175E+04  0.29361350827E+04 0.  0.
        1    1    3    3  502    0  0.91840160382E+03 -0.75882497922E+03  0.17794175888E+04  0.21414023000E+04  0.50400001928E-02 0. -1.
       -1    1    3    3    0  502 -0.91840160382E+03  0.75882497922E+03 -0.17560593761E+03  0.12042069176E+04  0.50400001928E-02 0.  1.
</event>
<event>
 5   0  0.1550278E-06  0.2860139E+04  0.7818609E-02  0.8284837E-01
        1   -1    0    0  501    0  0.00000000000E+00  0.00000000000E+00  0.86568432893E+03  0.86568432894E+03  0.50400001928E-02 0. -1.
       -1   -1    0    0    0  501  0.00000000000E+00  0.00000000000E+00 -0.23624068547E+04  0.23624068547E+04  0.50400001928E-02 0.  1.
    10030    2    1    2    0    0  0.00000000000E+00  0.00000000000E+00 -0.14967225257E+04  0.32280911836E+04  0.28601388726E+04 0.  0.
        2    1    3    3  502    0 -0.51729842907E+03  0.10157384914E+04 -0.17230432633E+04  0.20659623508E+04  0.25500000920E-02 0.  1.
       -2    1    3    3    0  502  0.51729842907E+03 -0.10157384914E+04  0.22632073760E+03  0.11621288328E+04  0.25500000920E-02 0. -1.
</event>
<event>
 5   0  0.1580212E-06  0.2856129E+04  0.7818609E-02  0.8286051E-01
        1   -1    0    0  501    0  0.00000000000E+00  0.00000000000E+00  0.25291255211E+04  0.25291255211E+04  0.50400001928E-02 0. -1.
       -1   -1    0    0    0  501  0.00000000000E+00  0.00000000000E+00 -0.80635322127E+03  0.80635322129E+03  0.50400001928E-02 0.  1.
    10030    2    1    2    0    0  0.00000000000E+00  0.00000000000E+00  0.17227722998E+04  0.33354787424E+04  0.28561292064E+04 0.  0.
        4    1    3    3  502    0 -0.53560028340E+02 -0.35591593181E+03  0.24752867418E+04  0.25013178315E+04  0.12699999809E+01 0. -1.
       -4    1    3    3    0  502  0.53560028340E+02  0.35591593181E+03 -0.75251444192E+03  0.83416091094E+03  0.12699999809E+01 0.  1.
</event>
<event>
 5   0  0.4187518E-06  0.2896754E+04  0.7818609E-02  0.8273844E-01
        2   -1    0    0  501    0  0.00000000000E+00  0.00000000000E+00  0.10027692098E+04  0.10027692098E+04  0.25500000920E-02 0.  1.
       -2   -1    0    0    0  501  0.00000000000E+00  0.00000000000E+00 -0.20920024401E+04  0.20920024401E+04  0.25500000920E-02 0. -1.
    10030    2    1    2    0    0  0.00000000000E+00  0.00000000000E+00 -0.10892332303E+04  0.30947716499E+04  0.28967537926E+04 0.  0.
        3    1    3    3  502    0  0.46259949104E+03 -0.58751301599E+03  0.78058979961E+03  0.10809672884E+04  0.10100000352E+00 0.  1.
       -3    1    3    3    0  502 -0.46259949104E+03  0.58751301599E+03 -0.18698230299E+04  0.20138043615E+04  0.10100000352E+00 0. -1.
</event>
<event>
 5   0  0.1543678E-06  0.2901585E+04  0.7818609E-02  0.8272406E-01
       -1   -1    0    0    0  501  0.00000000000E+00  0.00000000000E+00  0.12322357418E+04  0.12322357418E+04  0.50400001928E-02 0. -1.
        1   -1    0    0  501    0  0.00000000000E+00  0.00000000000E+00 -0.17081142915E+04  0.17081142915E+04  0.50400001928E-02 0.  1.
    10030    2    1    2    0    0  0.00000000000E+00  0.00000000000E+00 -0.47587854969E+03  0.29403500332E+04  0.29015854156E+04 0.  0.
        3    1    3    3  502    0  0.73327143418E+03  0.29243994783E+03 -0.14714072874E+04  0.16698046397E+04  0.10100000352E+00 0.  1.
       -3    1    3    3    0  502 -0.73327143418E+03 -0.29243994783E+03  0.99552873767E+03  0.12705453935E+04  0.10100000352E+00 0. -1.
</event>
<event>
 5   0  0.4162450E-06  0.2907299E+04  0.7818609E-02  0.8270709E-01
       -2   -1    0    0    0  501  0.00000000000E+00  0.00000000000E+00  0.17288201459E+04  0.17288201459E+04  0.25500000920E-02 0. -1.
        2   -1    0    0  501    0  0.00000000000E+00  0.00000000000E+00 -0.12222768038E+04  0.12222768038E+04  0.25500000920E-02 0.  1.
    10030    2    1    2    0    0  0.00000000000E+00  0.00000000000E+00  0.50654334216E+03  0.29510969497E+04  0.29072989267E+04 0.  0.
        2    1    3    3  502    0 -0.44808032888E+03  0.11155882097E+03 -0.11458527923E+04  0.12353946630E+04  0.25500000920E-02 0.  1.
       -2    1    3    3    0  502  0.44808032888E+03 -0.11155882097E+03  0.16523961344E+04  0.17157022868E+04  0.25500000920E-02 0. -1.
</event>
<event>
 5   0  0.4187518E-06  0.2895838E+04  0.7818609E-02  0.8274117E-01
       -2   -1    0    0    0  501  0.00000000000E+00  0.00000000000E+00  0.16427798400E+04  0.16427798400E+04  0.25500000920E-02 0. -1.
        2   -1    0    0  501    0  0.00000000000E+00  0.00000000000E+00 -0.12761716776E+04  0.12761716776E+04  0.25500000920E-02 0.  1.
    10030    2    1    2    0    0  0.00000000000E+00  0.00000000000E+00  0.36660816242E+03  0.29189515176E+04  0.28958377747E+04 0.  0.
        3    1    3    3  502    0 -0.19147945278E+03  0.85789610609E+03  0.13430609546E+04  0.16051363954E+04  0.10100000352E+00 0. -1.
       -3    1    3    3    0  502  0.19147945278E+03 -0.85789610609E+03 -0.97645279222E+03  0.13138151222E+04  0.10100000352E+00 0.  1.
</event>
<event>
 5   0  0.4162450E-06  0.2907863E+04  0.7818609E-02  0.8270542E-01
       -2   -1    0    0    0  501  0.00000000000E+00  0.00000000000E+00  0.11013283913E+04  0.11013283913E+04  0.25500000920E-02 0.  1.
        2   -1    0    0  501    0  0.00000000000E+00  0.00000000000E+00 -0.19194244194E+04  0.19194244194E+04  0.25500000920E-02 0. -1.
    10030    2    1    2    0    0  0.00000000000E+00  0.00000000000E+00 -0.81809602813E+03  0.30207528107E+04  0.29078628634E+04 0.  0.
        2    1    3    3  502    0 -0.73791507827E+03 -0.12071499331E+04 -0.61101488277E+02  0.14161437129E+04  0.25500000920E-02 0.  1.
       -2    1    3    3    0  502  0.73791507827E+03  0.12071499331E+04 -0.75699453985E+03  0.16046090979E+04  0.25500000920E-02 0. -1.
</event>
<event>
 5   0  0.4162450E-06  0.2890404E+04  0.7818609E-02  0.8275738E-01
       -2   -1    0    0    0  501  0.00000000000E+00  0.00000000000E+00  0.80343244824E+03  0.80343244825E+03  0.25500000920E-02 0. -1.
        2   -1    0    0  501    0  0.00000000000E+00  0.00000000000E+00 -0.25996065248E+04  0.25996065248E+04  0.25500000920E-02 0.  1.
    10030    2    1    2    0    0  0.00000000000E+00  0.00000000000E+00 -0.17961740766E+04  0.34030389731E+04  0.28904035945E+04 0.  0.
        2    1    3    3  502    0 -0.62170656872E+03 -0.71405025065E+03  0.38745680786E+03  0.10229905161E+04  0.25500000920E-02 0. -1.
       -2    1    3    3    0  502  0.62170656872E+03  0.71405025065E+03 -0.21836308845E+04  0.23800484570E+04  0.25500000920E-02 0.  1.
</event>
<event>
 5   0  0.1511126E-06  0.2904287E+04  0.7818609E-02  0.8271603E-01
       -1   -1    0    0    0  501  0.00000000000E+00  0.00000000000E+00  0.20401598248E+04  0.20401598248E+04  0.50400001928E-02 0. -1.
        1   -1    0    0  501    0  0.00000000000E+00  0.00000000000E+00 -0.10336060037E+04  0.10336060037E+04  0.50400001928E-02 0.  1.
    10030    2    1    2    0    0  0.00000000000E+00  0.00000000000E+00  0.10065538211E+04  0.30737658285E+04  0.29042874812E+04 0.  0.
        5    1    3    3  502    0 -0.30951530361E+03 -0.10009993313E+04 -0.56083000814E+03  0.11884240710E+04  0.46999998093E+01 0.  1.
       -5    1    3    3    0  502  0.30951530361E+03  0.10009993313E+04  0.15673838292E+04  0.18853417575E+04  0.46999998093E+01 0. -1.
</event>
<event>
 5   0  0.1602873E-06  0.2882251E+04  0.7818609E-02  0.8278178E-01
       -1   -1    0    0    0  501  0.00000000000E+00  0.00000000000E+00  0.10304594693E+04  0.10304594693E+04  0.50400001928E-02 0. -1.
        1   -1    0    0  501    0  0.00000000000E+00  0.00000000000E+00 -0.20154534824E+04  0.20154534824E+04  0.50400001928E-02 0.  1.
    10030    2    1    2    0    0  0.00000000000E+00  0.00000000000E+00 -0.98499401314E+03  0.30459129517E+04  0.28822512909E+04 0.  0.
        1    1    3    3  502    0 -0.98729206276E+03  0.81597138657E+03  0.20553024996E+03  0.12972268902E+04  0.50400001928E-02 0.  1.
       -1    1    3    3    0  502  0.98729206276E+03 -0.81597138657E+03 -0.11905242631E+04  0.17486860616E+04  0.50400001928E-02 0. -1.
</event>
<event>
 5   0  0.4162450E-06  0.2899424E+04  0.7818609E-02  0.8273049E-01
        2   -1    0    0  501    0  0.00000000000E+00  0.00000000000E+00  0.20549152421E+04  0.20549152421E+04  0.25500000920E-02 0.  1.
       -2   -1    0    0    0  501  0.00000000000E+00  0.00000000000E+00 -0.10227500879E+04  0.10227500879E+04  0.25500000920E-02 0. -1.
    10030    2    1    2    0    0  0.00000000000E+00  0.00000000000E+00  0.10321651542E+04  0.30776653300E+04  0.28994239044E+04 0.  0.
        2    1    3    3  502    0  0.18643859013E+03 -0.14134550748E+04  0.23715465998E+03  0.14452878361E+04  0.25500000920E-02 0. -1.
       -2    1    3    3    0  502 -0.18643859013E+03  0.14134550748E+04  0.79501049425E+03  0.16323774938E+04  0.25500000920E-02 0.  1.
</event>
<event>
 5   0  0.4162450E-06  0.2886327E+04  0.7818609E-02  0.8276957E-01
       -2   -1    0    0    0  501  0.00000000000E+00  0.00000000000E+00  0.10611864439E+04  0.10611864439E+04  0.25500000920E-02 0.  1.
        2   -1    0    0  501    0  0.00000000000E+00  0.00000000000E+00 -0.19626345361E+04  0.19626345361E+04  0.25500000920E-02 0. -1.
    10030    2    1    2    0    0  0.00000000000E+00  0.00000000000E+00 -0.90144809222E+03  0.30238209800E+04  0.28863271914E+04 0.  0.
        2    1    3    3  502    0 -0.39231579315E+03 -0.55748060425E+03  0.88188608285E+03  0.11146386719E+04  0.25500000920E-02 0.  1.
       -2    1    3    3    0  502  0.39231579315E+03  0.55748060425E+03 -0.17833341751E+04  0.19091823081E+04  0.25500000920E-02 0. -1.
</event>
<event>
 5   0  0.4187518E-06  0.2911428E+04  0.7818609E-02  0.8269486E-01
        2   -1    0    0  501    0  0.00000000000E+00  0.00000000000E+00  0.18803252869E+04  0.18803252869E+04  0.25500000920E-02 0. -1.
       -2   -1    0    0    0  501  0.00000000000E+00  0.00000000000E+00 -0.11269873118E+04  0.11269873118E+04  0.25500000920E-02 0.  1.
    10030    2    1    2    0    0  0.00000000000E+00  0.00000000000E+00  0.75333797509E+03  0.30073125986E+04  0.29114276500E+04 0.  0.
        3    1    3    3  502    0  0.28393266875E+02  0.69699703739E+03 -0.94310042899E+03  0.11730513531E+04  0.10100000352E+00 0.  1.
       -3    1    3    3    0  502 -0.28393266875E+02 -0.69699703739E+03  0.16964384041E+04  0.18342612455E+04  0.10100000352E+00 0. -1.
</event>
<event>
 5   0  0.1550278E-06  0.2906806E+04  0.7818609E-02  0.8270855E-01
        1   -1    0    0  501    0  0.00000000000E+00  0.00000000000E+00  0.27726047659E+04  0.27726047659E+04  0.50400001928E-02 0. -1.
       -1   -1    0    0    0  501  0.00000000000E+00  0.00000000000E+00 -0.76187561791E+03  0.76187561793E+03  0.50400001928E-02 0.  1.
    10030    2    1    2    0    0  0.00000000000E+00  0.00000000000E+00  0.20107291479E+04  0.35344803838E+04  0.29068057859E+04 0.  0.
        2    1    3    3  502    0 -0.46800638562E+03 -0.13597194500E+04  0.74882578552E+03  0.16212979420E+04  0.25500000920E-02 0. -1.
       -2    1    3    3    0  502  0.46800638562E+03  0.13597194500E+04  0.12619033624E+04  0.19131824418E+04  0.25500000920E-02 0.  1.
</event>
<event>
 5   0  0.1602873E-06  0.2892607E+04  0.7818609E-02  0.8275080E-01
       -1   -1    0    0    0  501  0.00000000000E+00  0.00000000000E+00  0.13287506044E+04  0.13287506044E+04  0.50400001928E-02 0. -1.
        1   -1    0    0  501    0  0.00000000000E+00  0.00000000000E+00 -0.15742561908E+04  0.15742561908E+04  0.50400001928E-02 0.  1.
    10030    2    1    2    0    0  0.00000000000E+00  0.00000000000E+00 -0.24550558636E+03  0.29030067952E+04  0.28926070352E+04 0.  0.
        1    1    3    3  502    0 -0.80406545464E+03  0.32698385410E+03  0.10382790798E+04  0.13533156113E+04  0.50400001928E-02 0. -1.
       -1    1    3    3    0  502  0.80406545464E+03 -0.32698385410E+03 -0.12837846662E+04  0.15496911839E+04  0.50400001928E-02 0.  1.
</event>
<event>
 5   0  0.4162450E-06  0.2877288E+04  0.7818609E-02  0.8279667E-01
        2   -1    0    0  501    0  0.00000000000E+00  0.00000000000E+00  0.14236447933E+04  0.14236447933E+04  0.25500000920E-02 0. -1.
       -2   -1    0    0    0  501  0.00000000000E+00  0.00000000000E+00 -0.14538008366E+04  0.14538008366E+04  0.25500000920E-02 0.  1.
    10030    2    1    2    0    0  0.00000000000E+00  0.00000000000E+00 -0.30156043293E+02  0.28774456299E+04  0.28772876057E+04 0.  0.
        2    1    3    3  502    0 -0.13473001763E+04 -0.23978626292E+03  0.42877151592E+03  0.14340712081E+04  0.25500000920E-02 0. -1.
       -2    1    3    3    0  502  0.13473001763E+04  0.23978626292E+03 -0.45892755921E+03  0.14433744218E+04  0.25500000920E-02 0.  1.
</event>
<event>
 5   0  0.4148677E-06  0.2894816E+04  0.7818609E-02  0.8274421E-01
       -2   -1    0    0    0  501  0.00000000000E+00  0.00000000000E+00  0.75121049175E+03  0.75121049175E+03  0.25500000920E-02 0. -1.
        2   -1    0    0  501    0  0.00000000000E+00  0.00000000000E+00 -0.27888196361E+04  0.27888196361E+04  0.25500000920E-02 0.  1.
    10030    2    1    2    0    0  0.00000000000E+00  0.00000000000E+00 -0.20376091443E+04  0.35400301278E+04  0.28948164503E+04 0.  0.
        5    1    3    3  502    0 -0.91360342836E+03  0.61323007340E+03  0.13112835795E+03  0.11081241282E+04  0.46999998093E+01 0. -1.
       -5    1    3    3    0  502  0.91360342836E+03 -0.61323007340E+03 -0.21687375023E+04  0.24319059996E+04  0.46999998093E+01 0.  1.
</event>
<event>
 5   0  0.1550278E-06  0.2898436E+04  0.7818609E-02  0.8273343E-01
       -1   -1    0    0    0  501  0.00000000000E+00  0.00000000000E+00  0.10780585268E+04  0.10780585268E+04  0.50400001928E-02 0.  1.
        1   -1    0    0  501    0  0.00000000000E+00  0.00000000000E+00 -0.19481616363E+04  0.19481616363E+04  0.50400001928E-02 0. -1.
    10030    2    1    2    0    0  0.00000000000E+00  0.00000000000E+00 -0.87010310956E+03  0.30262201631E+04  0.28984356219E+04 0.  0.
        2    1    3    3  502    0 -0.27644900430E+03  0.14042402967E+04 -0.67295094684E+03  0.15815112519E+04  0.25500000920E-02 0.  1.
       -2    1    3    3    0  502  0.27644900430E+03 -0.14042402967E+04 -0.19715216272E+03  0.14447089112E+04  0.25500000920E-02 0. -1.
</event>
<event>
 5   0  0.1511126E-06  0.2888670E+04  0.7818609E-02  0.8276256E-01
       -1   -1    0    0    0  501  0.00000000000E+00  0.00000000000E+00  0.16014454240E+04  0.16014454240E+04  0.50400001928E-02 0. -1.
        1   -1    0    0  501    0  0.00000000000E+00  0.00000000000E+00 -0.13026383717E+04  0.13026383717E+04  0.50400001928E-02 0.  1.
    10030    2    1    2    0    0  0.00000000000E+00  0.00000000000E+00  0.29880705235E+03  0.29040837957E+04  0.28886704620E+04 0.  0.
        5    1    3    3  502    0 -0.13684191398E+04  0.44971511231E+03  0.42688445909E+02  0.14410617675E+04  0.46999998093E+01 0.  1.
       -5    1    3    3    0  502  0.13684191398E+04 -0.44971511231E+03  0.25611860644E+03  0.14630220282E+04  0.46999998093E+01 0. -1.
</event>
<event>
 5   0  0.4224163E-06  0.2853173E+04  0.7818609E-02  0.8286948E-01
       -2   -1    0    0    0  501  0.00000000000E+00  0.00000000000E+00  0.18912034604E+04  0.18912034604E+04  0.25500000920E-02 0.  1.
        2   -1    0    0  501    0  0.00000000000E+00  0.00000000000E+00 -0.10761134822E+04  0.10761134822E+04  0.25500000920E-02 0. -1.
    10030    2    1    2    0    0  0.00000000000E+00  0.00000000000E+00  0.81508997817E+03  0.29673169426E+04  0.28531733500E+04 0.  0.
        4    1    3    3  502    0 -0.13714305766E+03 -0.11010123883E+04  0.13401417342E+04  0.17398327443E+04  0.12699999809E+01 0.  1.
       -4    1    3    3    0  502  0.13714305766E+03  0.11010123883E+04 -0.52505175606E+03  0.12274841983E+04  0.12699999809E+01 0. -1.
</event>
<event>
 5   0  0.1543678E-06  0.2882777E+04  0.7818609E-02  0.8278020E-01
       -1   -1    0    0    0  501  0.00000000000E+00  0.00000000000E+00  0.12859481869E+04  0.12859481869E+04  0.50400001928E-02 0. -1.
        1   -1    0    0  501    0  0.00000000000E+00  0.00000000000E+00 -0.16156178333E+04  0.16156178333E+04  0.50400001928E-02 0.  1.
    10030    2    1    2    0    0  0.00000000000E+00  0.00000000000E+00 -0.32966964637E+03  0.29015660202E+04  0.28827770108E+04 0.  0.
        3    1    3    3  502    0 -0.22209076004E+03 -0.13855868394E+04  0.16659177528E+03  0.14131270379E+04  0.10100000352E+00 0. -1.
       -3    1    3    3    0  502  0.22209076004E+03  0.13855868394E+04 -0.49626142165E+03  0.14884389823E+04  0.10100000352E+00 0.  1.
</event>
<event>
 5   0  0.1550278E-06  0.2906841E+04  0.7818609E-02  0.8270845E-01
        1   -1    0    0  501    0  0.00000000000E+00  0.00000000000E+00  0.14418001370E+04  0.14418001370E+04  0.50400001928E-02 0. -1.
       -1   -1    0    0    0  501  0.00000000000E+00  0.00000000000E+00 -0.14651345417E+04  0.14651345417E+04  0.50400001928E-02 0.  1.
    10030    2    1    2    0    0  0.00000000000E+00  0.00000000000E+00 -0.23334404644E+02  0.29069346787E+04  0.29068410228E+04 0.  0.
        2    1    3    3  502    0  0.81860586154E+03 -0.11781259426E+04 -0.24477316789E+03  0.14553385162E+04  0.25500000920E-02 0.  1.
       -2    1    3    3    0  502 -0.81860586154E+03  0.11781259426E+04  0.22143876325E+03  0.14515961625E+04  0.25500000920E-02 0. -1.
</event>
<event>
 5   0  0.4162450E-06  0.2894194E+04  0.7818609E-02  0.8274607E-01
        2   -1    0    0  501    0  0.00000000000E+00  0.00000000000E+00  0.23752774146E+04  0.23752774146E+04  0.25500000920E-02 0.  1.
       -2   -1    0    0    0  501  0.00000000000E+00  0.00000000000E+00 -0.88161912574E+03  0.88161912575E+03  0.25500000920E-02 0. -1.
    10030    2    1    2    0    0  0.00000000000E+00  0.00000000000E+00  0.14936582889E+04  0.32568965403E+04  0.28941941868E+04 0.  0.
        2    1    3    3  502    0  0.12012261648E+04  0.59375409535E+03  0.13190366699E+03  0.13464348488E+04  0.25500000920E-02 0.  1.
       -2    1    3    3    0  502 -0.12012261648E+04 -0.59375409535E+03  0.13617546219E+04  0.19104616915E+04  0.25500000920E-02 0. -1.
</event>
<event>
 5   0  0.4148677E-06  0.2853403E+04  0.7818609E-02  0.8286878E-01
       -2   -1    0    0    0  501  0.00000000000E+00  0.00000000000E+00  0.16818262529E+04  0.16818262529E+04  0.25500000920E-02 0.  1.
        2   -1    0    0  501    0  0.00000000000E+00  0.00000000000E+00 -0.12102775746E+04  0.12102775746E+04  0.25500000920E-02 0. -1.
    10030    2    1    2    0    0  0.00000000000E+00  0.00000000000E+00  0.47154867831E+03  0.28921038276E+04  0.28534025993E+04 0.  0.
        5    1    3    3  502    0  0.74240318716E+03  0.15782326661E+03  0.14602089383E+04  0.16456922280E+04  0.46999998093E+01 0.  1.
       -5    1    3    3    0  502 -0.74240318716E+03 -0.15782326661E+03 -0.98866026002E+03  0.12464115996E+04  0.46999998093E+01 0. -1.
</event>
<event>
 5   0  0.1580212E-06  0.2901614E+04  0.7818609E-02  0.8272397E-01
       -1   -1    0    0    0  501  0.00000000000E+00  0.00000000000E+00  0.13142246779E+04  0.13142246779E+04  0.50400001928E-02 0.  1.
        1   -1    0    0  501    0  0.00000000000E+00  0.00000000000E+00 -0.16015838150E+04  0.16015838150E+04  0.50400001928E-02 0. -1.
    10030    2    1    2    0    0  0.00000000000E+00  0.00000000000E+00 -0.28735913711E+03  0.29158084930E+04  0.29016140154E+04 0.  0.
        4    1    3    3  502    0  0.16468219117E+03  0.67720368861E+03 -0.14223484930E+04  0.15839197923E+04  0.12699999809E+01 0. -1.
       -4    1    3    3    0  502 -0.16468219117E+03 -0.67720368861E+03  0.11349893559E+04  0.13318887007E+04  0.12699999809E+01 0.  1.
</event>
<event>
 5   0  0.4148677E-06  0.2899282E+04  0.7818609E-02  0.8273091E-01
        2   -1    0    0  501    0  0.00000000000E+00  0.00000000000E+00  0.22118948271E+04  0.22118948271E+04  0.25500000920E-02 0.  1.
       -2   -1    0    0    0  501  0.00000000000E+00  0.00000000000E+00 -0.95007199721E+03  0.95007199721E+03  0.25500000920E-02 0. -1.
    10030    2    1    2    0    0  0.00000000000E+00  0.00000000000E+00  0.12618228299E+04  0.31619668243E+04  0.28992822119E+04 0.  0.
        5    1    3    3  502    0  0.86544036878E+03 -0.19677925365E+03  0.18809389200E+04  0.20798226890E+04  0.46999998093E+01 0.  1.
       -5    1    3    3    0  502 -0.86544036878E+03  0.19677925365E+03 -0.61911609015E+03  0.10821441353E+04  0.46999998093E+01 0. -1.
</event>
<event>
 5   0  0.1543678E-06  0.2923362E+04  0.7818609E-02  0.8265960E-01
        1   -1    0    0  501    0  0.00000000000E+00  0.00000000000E+00  0.11290379030E+04  0.11290379030E+04  0.50400001928E-02 0.  1.
       -1   -1    0    0    0  501  0.00000000000E+00  0.00000000000E+00 -0.18923289596E+04  0.18923289596E+04  0.50400001928E-02 0. -1.
    10030    2    1    2    0    0  0.00000000000E+00  0.00000000000E+00 -0.76329105663E+03  0.30213668626E+04  0.29233618458E+04 0.  0.
        3    1    3    3  502    0 -0.36288099124E+03  0.12318073108E+04 -0.11032495621E+04  0.16929830098E+04  0.10100000352E+00 0. -1.
       -3    1    3    3    0  502  0.36288099124E+03 -0.12318073108E+04  0.33995850547E+03  0.13283838528E+04  0.10100000352E+00 0.  1.
</event>
<event>
 5   0  0.4162450E-06  0.2880859E+04  0.7818609E-02  0.8278595E-01
       -2   -1    0    0    0  501  0.00000000000E+00  0.00000000000E+00  0.10107795877E+04  0.10107795877E+04  0.25500000920E-02 0.  1.
        2   -1    0    0  501    0  0.00000000000E+00  0.00000000000E+00 -0.20527091244E+04  0.20527091244E+04  0.25500000920E-02 0. -1.
    10030    2    1    2    0    0  0.00000000000E+00  0.00000000000E+00 -0.10419295367E+04  0.30634887121E+04  0.28808585404E+04 0.  0.
        2    1    3    3  502    0 -0.50319158079E+03  0.83701722606E+03  0.60494685043E+03  0.11488082066E+04  0.25500000920E-02 0.  1.
       -2    1    3    3    0  502  0.50319158079E+03 -0.83701722606E+03 -0.16468763871E+04  0.19146805055E+04  0.25500000920E-02 0. -1.
</event>
<event>
 5   0  0.4187518E-06  0.2878903E+04  0.7818609E-02  0.8279182E-01
       -2   -1    0    0    0  501  0.00000000000E+00  0.00000000000E+00  0.10977196178E+04  0.10977196178E+04  0.25500000920E-02 0. -1.
        2   -1    0    0  501    0  0.00000000000E+00  0.00000000000E+00 -0.18875682903E+04  0.18875682903E+04  0.25500000920E-02 0.  1.
    10030    2    1    2    0    0  0.00000000000E+00  0.00000000000E+00 -0.78984867250E+03  0.29852879080E+04  0.28789030842E+04 0.  0.
        3    1    3    3  502    0 -0.61673143640E+03 -0.43641255799E+03  0.87558976172E+03  0.11564908242E+04  0.10100000352E+00 0. -1.
       -3    1    3    3    0  502  0.61673143640E+03  0.43641255799E+03 -0.16654384342E+04  0.18287970838E+04  0.10100000352E+00 0.  1.
</event>
<event>
 5   0  0.4115143E-06  0.2876681E+04  0.7818609E-02  0.8279850E-01
        2   -1    0    0  501    0  0.00000000000E+00  0.00000000000E+00  0.12893104755E+04  0.12893104755E+04  0.25500000920E-02 0. -1.
       -2   -1    0    0    0  501  0.00000000000E+00  0.00000000000E+00 -0.16045964081E+04  0.16045964081E+04  0.25500000920E-02 0.  1.
    10030    2    1    2    0    0  0.00000000000E+00  0.00000000000E+00 -0.31528593259E+03  0.28939068835E+04  0.28766806968E+04 0.  0.
        1    1    3    3  502    0  0.95580777943E+03 -0.52993699892E+03  0.78306157103E+03  0.13444653800E+04  0.50400001928E-02 0. -1.
       -1    1    3    3    0  502 -0.95580777943E+03  0.52993699892E+03 -0.10983475036E+04  0.15494415035E+04  0.50400001928E-02 0.  1.
</event>
<event>
 5   0  0.1602873E-06  0.2865535E+04  0.7818609E-02  0.8283206E-01
        1   -1    0    0  501    0  0.00000000000E+00  0.00000000000E+00  0.14332463779E+04  0.14332463779E+04  0.50400001928E-02 0. -1.
       -1   -1    0    0    0  501  0.00000000000E+00  0.00000000000E+00 -0.14322888625E+04  0.14322888626E+04  0.50400001928E-02 0.  1.
    10030    2    1    2    0    0  0.00000000000E+00  0.00000000000E+00  0.95751532110E+00  0.28655352404E+04  0.28655350804E+04 0.  0.
        1    1    3    3  502    0  0.20753147764E+03 -0.13697651613E+04 -0.36489355631E+03  0.14326455315E+04  0.50400001928E-02 0.  1.
       -1    1    3    3    0  502 -0.20753147764E+03  0.13697651613E+04  0.36585107164E+03  0.14328897090E+04  0.50400001928E-02 0. -1.
</event>
<event>
 5   0  0.4187518E-06  0.2924066E+04  0.7818609E-02  0.8265753E-01
        2   -1    0    0  501    0  0.00000000000E+00  0.00000000000E+00  0.14079438183E+04  0.14079438183E+04  0.25500000920E-02 0.  1.
       -2   -1    0    0    0  501  0.00000000000E+00  0.00000000000E+00 -0.15182004570E+04  0.15182004570E+04  0.25500000920E-02 0. -1.
    10030    2    1    2    0    0  0.00000000000E+00  0.00000000000E+00 -0.11025663864E+03  0.29261442753E+04  0.29240663114E+04 0.  0.
        3    1    3    3  502    0  0.45475557724E+03 -0.13777218459E+04  0.12561237453E+03  0.14562618578E+04  0.10100000352E+00 0.  1.
       -3    1    3    3    0  502 -0.45475557724E+03  0.13777218459E+04 -0.23586901317E+03  0.14698824175E+04  0.10100000352E+00 0. -1.
</event>
<event>
 5   0  0.1580212E-06  0.2899389E+04  0.7818609E-02  0.8273059E-01
        1   -1    0    0  501    0  0.00000000000E+00  0.00000000000E+00  0.19692148696E+04  0.19692148696E+04  0.50400001928E-02 0. -1.
       -1   -1    0    0    0  501  0.00000000000E+00  0.00000000000E+00 -0.10672341925E+04  0.10672341925E+04  0.50400001928E-02 0.  1.
    10030    2    1    2    0    0  0.00000000000E+00  0.00000000000E+00  0.90198067710E+03  0.30364490621E+04  0.28993885157E+04 0.  0.
        4    1    3    3  502    0 -0.95229375209E+03  0.42266178694E+03  0.15066622746E+04  0.18318130906E+04  0.12699999809E+01 0. -1.
       -4    1    3    3    0  502  0.95229375209E+03 -0.42266178694E+03 -0.60468159750E+03  0.12046359714E+04  0.12699999809E+01 0.  1.
</event>
<event>
 5   0  0.4148677E-06  0.2844350E+04  0.7818609E-02  0.8289630E-01
        2   -1    0    0  501    0  0.00000000000E+00  0.00000000000E+00  0.17771299778E+04  0.17771299778E+04  0.25500000920E-02 0.  1.
       -2   -1    0    0    0  501  0.00000000000E+00  0.00000000000E+00 -0.11381166586E+04  0.11381166586E+04  0.25500000920E-02 0. -1.
    10030    2    1    2    0    0  0.00000000000E+00  0.00000000000E+00  0.63901331922E+03  0.29152466364E+04  0.28443496495E+04 0.  0.
        5    1    3    3  502    0  0.20953584804E+03 -0.99791956645E+03 -0.69657168293E+03  0.12349019929E+04  0.46999998093E+01 0. -1.
       -5    1    3    3    0  502 -0.20953584804E+03  0.99791956645E+03  0.13355850021E+04  0.16803446434E+04  0.46999998093E+01 0.  1.
</event>
<event>
 5   0  0.1580212E-06  0.2890372E+04  0.7818609E-02  0.8275748E-01
        1   -1    0    0  501    0  0.00000000000E+00  0.00000000000E+00  0.16614274263E+04  0.16614274263E+04  0.50400001928E-02 0.  1.
       -1   -1    0    0    0  501  0.00000000000E+00  0.00000000000E+00 -0.12570889773E+04  0.12570889773E+04  0.50400001928E-02 0. -1.
    10030    2    1    2    0    0  0.00000000000E+00  0.00000000000E+00  0.40433844895E+03  0.29185164036E+04  0.28903716745E+04 0.  0.
        4    1    3    3  502    0 -0.59880627443E+03 -0.91225368505E+03 -0.75457215640E+03  0.13267088951E+04  0.12699999809E+01 0. -1.
       -4    1    3    3    0  502  0.59880627443E+03  0.91225368505E+03  0.11589106053E+04  0.15918075086E+04  0.12699999809E+01 0.  1.
</event>
<event>
 5   0  0.1511126E-06  0.2917095E+04  0.7818609E-02  0.8267809E-01
        1   -1    0    0  501    0  0.00000000000E+00  0.00000000000E+00  0.18130477201E+04  0.18130477201E+04  0.50400001928E-02 0.  1.
       -1   -1    0    0    0  501  0.00000000000E+00  0.00000000000E+00 -0.11733614653E+04  0.11733614653E+04  0.50400001928E-02 0. -1.
    10030    2    1    2    0    0  0.00000000000E+00  0.00000000000E+00  0.63968625481E+03  0.29864091854E+04  0.29170946707E+04 0.  0.
        5    1    3    3  502    0 -0.80975185599E+03  0.29698617007E+03  0.15239883216E+04  0.17511314479E+04  0.46999998093E+01 0.  1.
       -5    1    3    3    0  502  0.80975185599E+03 -0.29698617007E+03 -0.88430206676E+03  0.12352777375E+04  0.46999998093E+01 0. -1.
</event>
<event>
 5   0  0.4115143E-06  0.2905743E+04  0.7818609E-02  0.8271171E-01
       -2   -1    0    0    0  501  0.00000000000E+00  0.00000000000E+00  0.10908719710E+04  0.10908719710E+04  0.25500000920E-02 0.  1.
        2   -1    0    0  501    0  0.00000000000E+00  0.00000000000E+00 -0.19349988306E+04  0.19349988306E+04  0.25500000920E-02 0. -1.
    10030    2    1    2    0    0  0.00000000000E+00  0.00000000000E+00 -0.84412685960E+03  0.30258708017E+04  0.29057432704E+04 0.  0.
        1    1    3    3  502    0 -0.36015511777E+03  0.70884328742E+03  0.84421178417E+03  0.11596827374E+04  0.50400001928E-02 0.  1.
       -1    1    3    3    0  502  0.36015511777E+03 -0.70884328742E+03 -0.16883386438E+04  0.18661880642E+04  0.50400001928E-02 0. -1.
</event>
<event>
 5   0  0.4224163E-06  0.2898780E+04  0.7818609E-02  0.8273240E-01
       -2   -1    0    0    0  501  0.00000000000E+00  0.00000000000E+00  0.13460308887E+04  0.13460308887E+04  0.25500000920E-02 0.  1.
        2   -1    0    0  501    0  0.00000000000E+00  0.00000000000E+00 -0.15606863238E+04  0.15606863238E+04  0.25500000920E-02 0. -1.
    10030    2    1    2    0    0  0.00000000000E+00  0.00000000000E+00 -0.21465543506E+03  0.29067172125E+04  0.28987804328E+04 0.  0.
        4    1    3    3  502    0 -0.10733121776E+04  0.47743359351E+02 -0.10828489835E+04  0.15253989619E+04  0.12699999809E+01 0. -1.
       -4    1    3    3    0  502  0.10733121776E+04 -0.47743359351E+02  0.86819354843E+03  0.13813182506E+04  0.12699999809E+01 0.  1.
</event>
<event>
 5   0  0.4187518E-06  0.2798597E+04  0.7818609E-02  0.8303704E-01
        2   -1    0    0  501    0  0.00000000000E+00  0.00000000000E+00  0.15642503029E+04  0.15642503029E+04  0.25500000920E-02 0. -1.
       -2   -1    0    0    0  501  0.00000000000E+00  0.00000000000E+00 -0.12517413578E+04  0.12517413578E+04  0.25500000920E-02 0.  1.
    10030    2    1    2    0    0  0.00000000000E+00  0.00000000000E+00  0.31250894517E+03  0.28159916607E+04  0.27985973616E+04 0.  0.
        3    1    3    3  502    0  0.81361456036E+03 -0.30708420177E+03  0.12593196091E+04  0.15304101567E+04  0.10100000352E+00 0. -1.
       -3    1    3    3    0  502 -0.81361456036E+03  0.30708420177E+03 -0.94681066393E+03  0.12855815040E+04  0.10100000352E+00 0.  1.
</event>
<event>
 5   0  0.1580212E-06  0.2690258E+04  0.7818609E-02  0.8338173E-01
        1   -1    0    0  501    0  0.00000000000E+00  0.00000000000E+00  0.56066551484E+03  0.56066551486E+03  0.50400001928E-02 0.  1.
       -1   -1    0    0    0  501  0.00000000000E+00  0.00000000000E+00 -0.32271855207E+04  0.32271855207E+04  0.50400001928E-02 0. -1.
    10030    2    1    2    0    0  0.00000000000E+00  0.00000000000E+00 -0.26665200059E+04  0.37878510356E+04  0.26902577062E+04 0.  0.
        4    1    3    3  502    0 -0.12884211914E+04  0.78848212296E+02 -0.18659259751E+04  0.22689044855E+04  0.12699999809E+01 0.  1.
       -4    1    3    3    0  502  0.12884211914E+04 -0.78848212296E+02 -0.80059403079E+03  0.15189465501E+04  0.12699999809E+01 0. -1.
</event>
<event>
 5   0  0.1550278E-06  0.2865163E+04  0.7818609E-02  0.8283318E-01
       -1   -1    0    0    0  501  0.00000000000E+00  0.00000000000E+00  0.10940601811E+04  0.10940601811E+04  0.50400001928E-02 0. -1.
        1   -1    0    0  501    0  0.00000000000E+00  0.00000000000E+00 -0.18758476115E+04  0.18758476115E+04  0.50400001928E-02 0.  1.
    10030    2    1    2    0    0  0.00000000000E+00  0.00000000000E+00 -0.78178743043E+03  0.29699077926E+04  0.28651632956E+04 0.  0.
        2    1    3    3  502    0 -0.32100768514E+03  0.44002107186E+01  0.10562929768E+04  0.11040018789E+04  0.25500000920E-02 0. -1.
       -2    1    3    3    0  502  0.32100768514E+03 -0.44002107186E+01 -0.18380804072E+04  0.18659059138E+04  0.25500000920E-02 0.  1.
</event>
<event>
 5   0  0.4148677E-06  0.2880626E+04  0.7818609E-02  0.8278665E-01
       -2   -1    0    0    0  501  0.00000000000E+00  0.00000000000E+00  0.13967974812E+04  0.13967974812E+04  0.25500000920E-02 0. -1.
        2   -1    0    0  501    0  0.00000000000E+00  0.00000000000E+00 -0.14851846035E+04  0.14851846035E+04  0.25500000920E-02 0.  1.
    10030    2    1    2    0    0  0.00000000000E+00  0.00000000000E+00 -0.88387122241E+02  0.28819820847E+04  0.28806263995E+04 0.  0.
        5    1    3    3  502    0 -0.15726006553E+01  0.14152798281E+04 -0.31164044575E+03  0.14491933350E+04  0.46999998093E+01 0. -1.
       -5    1    3    3    0  502  0.15726006553E+01 -0.14152798281E+04  0.22325332351E+03  0.14327887497E+04  0.46999998093E+01 0.  1.
</event>
<event>
 5   0  0.1602873E-06  0.2901322E+04  0.7818609E-02  0.8272484E-01
       -1   -1    0    0    0  501  0.00000000000E+00  0.00000000000E+00  0.74799354696E+03  0.74799354697E+03  0.50400001928E-02 0.  1.
        1   -1    0    0  501    0  0.00000000000E+00  0.00000000000E+00 -0.28134167621E+04  0.28134167621E+04  0.50400001928E-02 0. -1.
    10030    2    1    2    0    0  0.00000000000E+00  0.00000000000E+00 -0.20654232151E+04  0.35614103091E+04  0.29013221696E+04 0.  0.
        1    1    3    3  502    0  0.16869518590E+03  0.33571791619E+03 -0.27526551432E+04  0.27781783460E+04  0.50400001928E-02 0. -1.
       -1    1    3    3    0  502 -0.16869518590E+03 -0.33571791619E+03  0.68723192804E+03  0.78323196305E+03  0.50400001928E-02 0.  1.
</event>
<event>
 5   0  0.4187518E-06  0.2976108E+04  0.7818609E-02  0.8250586E-01
       -2   -1    0    0    0  501  0.00000000000E+00  0.00000000000E+00  0.99107568304E+03  0.99107568305E+03  0.25500000920E-02 0. -1.
        2   -1    0    0  501    0  0.00000000000E+00  0.00000000000E+00 -0.22342436944E+04  0.22342436944E+04  0.25500000920E-02 0.  1.
    10030    2    1    2    0    0  0.00000000000E+00  0.00000000000E+00 -0.12431680113E+04  0.32253193774E+04  0.29761079251E+04 0.  0.
        3    1    3    3  502    0 -0.85694875813E+03  0.21415358991E+02  0.69660990871E+03  0.11045746542E+04  0.10100000352E+00 0. -1.
       -3    1    3    3    0  502  0.85694875813E+03 -0.21415358991E+02 -0.19397779200E+04  0.21207447232E+04  0.10100000352E+00 0.  1.
</event>
<event>
 5   0  0.1550278E-06  0.2535933E+04  0.7818609E-02  0.8390295E-01
        1   -1    0    0  501    0  0.00000000000E+00  0.00000000000E+00  0.16568388154E+04  0.16568388154E+04  0.50400001928E-02 0. -1.
       -1   -1    0    0    0  501  0.00000000000E+00  0.00000000000E+00 -0.97036551384E+03  0.97036551385E+03  0.50400001928E-02 0.  1.
    10030    2    1    2    0    0  0.00000000000E+00  0.00000000000E+00  0.68647330158E+03  0.26272043293E+04  0.25359331604E+04 0.  0.
        2    1    3    3  502    0 -0.12205231656E+04 -0.20946416607E+03  0.61060321707E+02  0.12398711213E+04  0.25500000920E-02 0.  1.
       -2    1    3    3    0  502  0.12205231656E+04  0.20946416607E+03  0.62541297987E+03  0.13873332080E+04  0.25500000920E-02 0. -1.
</event>
<event>
 5   0  0.1580212E-06  0.2896051E+04  0.7818609E-02  0.8274053E-01
       -1   -1    0    0    0  501  0.00000000000E+00  0.00000000000E+00  0.24115633039E+04  0.24115633039E+04  0.50400001928E-02 0. -1.
        1   -1    0    0  501    0  0.00000000000E+00  0.00000000000E+00 -0.86946847888E+03  0.86946847889E+03  0.50400001928E-02 0.  1.
    10030    2    1    2    0    0  0.00000000000E+00  0.00000000000E+00  0.15420948250E+04  0.32810317828E+04  0.28960512962E+04 0.  0.
        4    1    3    3  502    0  0.12794836331E+04 -0.37086504923E+01  0.29184549430E+01  0.12794929667E+04  0.12699999809E+01 0.  1.
       -4    1    3    3    0  502 -0.12794836331E+04  0.37086504923E+01  0.15391763701E+04  0.20015388161E+04  0.12699999809E+01 0. -1.
</event>
<event>
 5   0  0.4224163E-06  0.2940891E+04  0.7818609E-02  0.8260814E-01
        2   -1    0    0  501    0  0.00000000000E+00  0.00000000000E+00  0.23259061715E+04  0.23259061715E+04  0.25500000920E-02 0. -1.
       -2   -1    0    0    0  501  0.00000000000E+00  0.00000000000E+00 -0.92962050893E+03  0.92962050893E+03  0.25500000920E-02 0.  1.
    10030    2    1    2    0    0  0.00000000000E+00  0.00000000000E+00  0.13962856626E+04  0.32555266805E+04  0.29408910751E+04 0.  0.
        4    1    3    3  502    0  0.10713094962E+04  0.98630542917E+03  0.47207345113E+03  0.15308028588E+04  0.12699999809E+01 0. -1.
       -4    1    3    3    0  502 -0.10713094962E+04 -0.98630542917E+03  0.92421221147E+03  0.17247238217E+04  0.12699999809E+01 0.  1.
</event>
<event>
 5   0  0.1511126E-06  0.2931844E+04  0.7818609E-02  0.8263466E-01
        1   -1    0    0  501    0  0.00000000000E+00  0.00000000000E+00  0.19525735573E+04  0.19525735573E+04  0.50400001928E-02 0. -1.
       -1   -1    0    0    0  501  0.00000000000E+00  0.00000000000E+00 -0.11005612406E+04  0.11005612407E+04  0.50400001928E-02 0.  1.
    10030    2    1    2    0    0  0.00000000000E+00  0.00000000000E+00  0.85201231669E+03  0.30531347980E+04  0.29318436362E+04 0.  0.
        5    1    3    3  502    0 -0.39272266152E+03  0.55908700836E+02 -0.10435985803E+04  0.11164573250E+04  0.46999998093E+01 0.  1.
       -5    1    3    3    0  502  0.39272266152E+03 -0.55908700836E+02  0.18956108970E+04  0.19366774730E+04  0.46999998093E+01 0. -1.
</event>
<event>
 5   0  0.4162450E-06  0.2906041E+04  0.7818609E-02  0.8271082E-01
        2   -1    0    0  501    0  0.00000000000E+00  0.00000000000E+00  0.16542863978E+04  0.16542863978E+04  0.25500000920E-02 0. -1.
       -2   -1    0    0    0  501  0.00000000000E+00  0.00000000000E+00 -0.12762409435E+04  0.12762409435E+04  0.25500000920E-02 0.  1.
    10030    2    1    2    0    0  0.00000000000E+00  0.00000000000E+00  0.37804545425E+03  0.29305273413E+04  0.29060406282E+04 0.  0.
        2    1    3    3  502    0  0.13439166974E+04 -0.50777551238E+03 -0.30341768498E+02  0.14369650947E+04  0.25500000920E-02 0.  1.
       -2    1    3    3    0  502 -0.13439166974E+04  0.50777551238E+03  0.40838722275E+03  0.14935622465E+04  0.25500000920E-02 0. -1.
</event>
<event>
 5   0  0.1580212E-06  0.2903759E+04  0.7818609E-02  0.8271760E-01
       -1   -1    0    0    0  501  0.00000000000E+00  0.00000000000E+00  0.11485056861E+04  0.11485056861E+04  0.50400001928E-02 0.  1.
        1   -1    0    0  501    0  0.00000000000E+00  0.00000000000E+00 -0.18353884570E+04  0.18353884570E+04  0.50400001928E-02 0. -1.
    10030    2    1    2    0    0  0.00000000000E+00  0.00000000000E+00 -0.68688277094E+03  0.29838941431E+04  0.29037589976E+04 0.  0.
        4    1    3    3  502    0 -0.13010142575E+04  0.22039151704E+03  0.27886339427E+03  0.13486945261E+04  0.12699999809E+01 0.  1.
       -4    1    3    3    0  502  0.13010142575E+04 -0.22039151704E+03 -0.96574616521E+03  0.16351996170E+04  0.12699999809E+01 0. -1.
</event>
<event>
 5   0  0.1602873E-06  0.2906554E+04  0.7818609E-02  0.8270930E-01
       -1   -1    0    0    0  501  0.00000000000E+00  0.00000000000E+00  0.17927396753E+04  0.17927396753E+04  0.50400001928E-02 0. -1.
        1   -1    0    0  501    0  0.00000000000E+00  0.00000000000E+00 -0.11780929947E+04  0.11780929947E+04  0.50400001928E-02 0.  1.
    10030    2    1    2    0    0  0.00000000000E+00  0.00000000000E+00  0.61464668063E+03  0.29708326700E+04  0.29065540096E+04 0.  0.
        1    1    3    3  502    0 -0.39354134572E+03  0.64514492578E+03 -0.96146993028E+03  0.12229109505E+04  0.50400001928E-02 0.  1.
       -1    1    3    3    0  502  0.39354134572E+03 -0.64514492578E+03  0.15761166109E+04  0.17479217194E+04  0.50400001928E-02 0. -1.
</event>
<event>
 5   0  0.4162450E-06  0.2894823E+04  0.7818609E-02  0.8274420E-01
       -2   -1    0    0    0  501  0.00000000000E+00  0.00000000000E+00  0.14132922482E+04  0.14132922482E+04  0.25500000920E-02 0.  1.
        2   -1    0    0  501    0  0.00000000000E+00  0.00000000000E+00 -0.14823540577E+04  0.14823540577E+04  0.25500000920E-02 0. -1.
    10030    2    1    2    0    0  0.00000000000E+00  0.00000000000E+00 -0.69061809500E+02  0.28956463059E+04  0.28948226189E+04 0.  0.
        2    1    3    3  502    0 -0.35106806312E+03  0.12772945339E+04 -0.61802302470E+03  0.14617395700E+04  0.25500000920E-02 0. -1.
       -2    1    3    3    0  502  0.35106806312E+03 -0.12772945339E+04  0.54896121520E+03  0.14339067359E+04  0.25500000920E-02 0.  1.
</event>
<event>
 5   0  0.4115143E-06  0.2908804E+04  0.7818609E-02  0.8270263E-01
       -2   -1    0    0    0  501  0.00000000000E+00  0.00000000000E+00  0.89216726027E+03  0.89216726027E+03  0.25500000920E-02 0.  1.
        2   -1    0    0  501    0  0.00000000000E+00  0.00000000000E+00 -0.23709513244E+04  0.23709513244E+04  0.25500000920E-02 0. -1.
    10030    2    1    2    0    0  0.00000000000E+00  0.00000000000E+00 -0.14787840642E+04  0.32631185847E+04  0.29088039792E+04 0.  0.
        1    1    3    3  502    0 -0.70656078705E+03 -0.46476187836E+03  0.58797400432E+03  0.10300219314E+04  0.50400001928E-02 0.  1.
       -1    1    3    3    0  502  0.70656078705E+03  0.46476187836E+03 -0.20667580685E+04  0.22330966533E+04  0.50400001928E-02 0. -1.
</event>
<event>
 5   0  0.1550278E-06  0.2907809E+04  0.7818609E-02  0.8270558E-01
        1   -1    0    0  501    0  0.00000000000E+00  0.00000000000E+00  0.11461162985E+04  0.11461162985E+04  0.50400001928E-02 0.  1.
       -1   -1    0    0    0  501  0.00000000000E+00  0.00000000000E+00 -0.18443491922E+04  0.18443491922E+04  0.50400001928E-02 0. -1.
    10030    2    1    2    0    0  0.00000000000E+00  0.00000000000E+00 -0.69823289373E+03  0.29904654907E+04  0.29078092573E+04 0.  0.
        2    1    3    3  502    0 -0.90043060924E+03  0.17968885873E+03  0.81021405677E+03  0.12245448893E+04  0.25500000920E-02 0.  1.
       -2    1    3    3    0  502  0.90043060924E+03 -0.17968885873E+03 -0.15084469505E+04  0.17659206014E+04  0.25500000920E-02 0. -1.
</event>
<event>
 5   0  0.1543678E-06  0.2888554E+04  0.7818609E-02  0.8276291E-01
        1   -1    0    0  501    0  0.00000000000E+00  0.00000000000E+00  0.17368447201E+04  0.17368447201E+04  0.50400001928E-02 0. -1.
       -1   -1    0    0    0  501  0.00000000000E+00  0.00000000000E+00 -0.12009912619E+04  0.12009912619E+04  0.50400001928E-02 0.  1.
    10030    2    1    2    0    0  0.00000000000E+00  0.00000000000E+00  0.53585345817E+03  0.29378359820E+04  0.28885535011E+04 0.  0.
        3    1    3    3  502    0  0.65671439156E+03 -0.12732110022E+04  0.45434403274E+03  0.15029200107E+04  0.10100000352E+00 0.  1.
       -3    1    3    3    0  502 -0.65671439156E+03  0.12732110022E+04  0.81509425427E+02  0.14349159714E+04  0.10100000352E+00 0. -1.
</event>
<event>
 5   0  0.1602873E-06  0.2907507E+04  0.7818609E-02  0.8270647E-01
       -1   -1    0    0    0  501  0.00000000000E+00  0.00000000000E+00  0.14287345449E+04  0.14287345449E+04  0.50400001928E-02 0.  1.
        1   -1    0    0  501    0  0.00000000000E+00  0.00000000000E+00 -0.14792103461E+04  0.14792103461E+04  0.50400001928E-02 0. -1.
    10030    2    1    2    0    0  0.00000000000E+00  0.00000000000E+00 -0.50475801263E+02  0.29079448910E+04  0.29075067812E+04 0.  0.
        1    1    3    3  502    0  0.12645557051E+04  0.45600610950E+03 -0.57881585290E+03  0.14635813933E+04  0.50400001928E-02 0. -1.
       -1    1    3    3    0  502 -0.12645557051E+04 -0.45600610950E+03  0.52834005164E+03  0.14443634977E+04  0.50400001928E-02 0.  1.
</event>
<event>
 5   0  0.4224163E-06  0.2913681E+04  0.7818609E-02  0.8268819E-01
       -2   -1    0    0    0  501  0.00000000000E+00  0.00000000000E+00  0.12674052628E+04  0.12674052628E+04  0.25500000920E-02 0. -1.
        2   -1    0    0  501    0  0.00000000000E+00  0.00000000000E+00 -0.16745898436E+04  0.16745898436E+04  0.25500000920E-02 0.  1.
    10030    2    1    2    0    0  0.00000000000E+00  0.00000000000E+00 -0.40718458081E+03  0.29419951065E+04  0.29136808205E+04 0.  0.
        4    1    3    3  502    0 -0.11667898076E+04 -0.72269806517E+03 -0.69690053572E+03  0.15392735033E+04  0.12699999809E+01 0.  1.
       -4    1    3    3    0  502  0.11667898076E+04  0.72269806517E+03  0.28971595492E+03  0.14027216031E+04  0.12699999809E+01 0. -1.
</event>
<event>
 5   0  0.1543678E-06  0.2913846E+04  0.7818609E-02  0.8268770E-01
        1   -1    0    0  501    0  0.00000000000E+00  0.00000000000E+00  0.12799441864E+04  0.12799441864E+04  0.50400001928E-02 0.  1.
       -1   -1    0    0    0  501  0.00000000000E+00  0.00000000000E+00 -0.16583732634E+04  0.16583732634E+04  0.50400001928E-02 0. -1.
    10030    2    1    2    0    0  0.00000000000E+00  0.00000000000E+00 -0.37842907700E+03  0.29383174498E+04  0.29138464046E+04 0.  0.
        3    1    3    3  502    0  0.16401378385E+03 -0.28630917771E+03  0.12417702701E+04  0.12848606463E+04  0.10100000352E+00 0.  1.
       -3    1    3    3    0  502 -0.16401378385E+03  0.28630917771E+03 -0.16201993471E+04  0.16534568035E+04  0.10100000352E+00 0. -1.
</event>
<event>
 5   0  0.1602873E-06  0.2907424E+04  0.7818609E-02  0.8270672E-01
       -1   -1    0    0    0  501  0.00000000000E+00  0.00000000000E+00  0.12251654216E+04  0.12251654216E+04  0.50400001928E-02 0. -1.
        1   -1    0    0  501    0  0.00000000000E+00  0.00000000000E+00 -0.17248925625E+04  0.17248925625E+04  0.50400001928E-02 0.  1.
    10030    2    1    2    0    0  0.00000000000E+00  0.00000000000E+00 -0.49972714087E+03  0.29500579841E+04  0.29074240995E+04 0.  0.
        1    1    3    3  502    0 -0.98420491961E+02 -0.14191895187E+04 -0.55340451612E+03  0.15264475234E+04  0.50400001928E-02 0.  1.
       -1    1    3    3    0  502  0.98420491961E+02  0.14191895187E+04  0.53677375245E+02  0.14236104607E+04  0.50400001928E-02 0. -1.
</event>
<event>
 5   0  0.1602873E-06  0.2849595E+04  0.7818609E-02  0.8288034E-01
       -1   -1    0    0    0  501  0.00000000000E+00  0.00000000000E+00  0.21078831030E+04  0.21078831030E+04  0.50400001928E-02 0. -1.
        1   -1    0    0  501    0  0.00000000000E+00  0.00000000000E+00 -0.96307453372E+03  0.96307453374E+03  0.50400001928E-02 0.  1.
    10030    2    1    2    0    0  0.00000000000E+00  0.00000000000E+00  0.11448085693E+04  0.30709576368E+04  0.28495954356E+04 0.  0.
        1    1    3    3  502    0  0.23892716431E+03 -0.11298588350E+04 -0.32691558298E+03  0.12002253852E+04  0.50400001928E-02 0.  1.
       -1    1    3    3    0  502 -0.23892716431E+03  0.11298588350E+04  0.14717241523E+04  0.18707322516E+04  0.50400001928E-02 0. -1.
</event>
<event>
 5   0  0.4224163E-06  0.2924964E+04  0.7818609E-02  0.8265489E-01
        2   -1    0    0  501    0  0.00000000000E+00  0.00000000000E+00  0.19809186580E+04  0.19809186580E+04  0.25500000920E-02 0. -1.
       -2   -1    0    0    0  501  0.00000000000E+00  0.00000000000E+00 -0.10797277968E+04  0.10797277968E+04  0.25500000920E-02 0.  1.
    10030    2    1    2    0    0  0.00000000000E+00  0.00000000000E+00  0.90119086118E+03  0.30606464548E+04  0.29249635473E+04 0.  0.
        4    1    3    3  502    0  0.71916165169E+03 -0.61132788552E+03  0.16195264269E+04  0.18745086623E+04  0.12699999809E+01 0. -1.
       -4    1    3    3    0  502 -0.71916165169E+03  0.61132788552E+03 -0.71833556568E+03  0.11861377925E+04  0.12699999809E+01 0.  1.
</event>
<event>
 5   0  0.4187518E-06  0.2904749E+04  0.7818609E-02  0.8271466E-01
       -2   -1    0    0    0  501  0.00000000000E+00  0.00000000000E+00  0.78039791833E+03  0.78039791833E+03  0.25500000920E-02 0.  1.
        2   -1    0    0  501    0  0.00000000000E+00  0.00000000000E+00 -0.27029686061E+04  0.27029686061E+04  0.25500000920E-02 0. -1.
    10030    2    1    2    0    0  0.00000000000E+00  0.00000000000E+00 -0.19225706877E+04  0.34833665244E+04  0.29047485767E+04 0.  0.
        3    1    3    3  502    0 -0.33622260454E+03  0.11257840786E+04  0.62576065289E+02  0.11765845510E+04  0.10100000352E+00 0.  1.
       -3    1    3    3    0  502  0.33622260454E+03 -0.11257840786E+04 -0.19851467530E+04  0.23067819734E+04  0.10100000352E+00 0. -1.
</event>
<event>
 5   0  0.4148677E-06  0.3015077E+04  0.7818609E-02  0.8239439E-01
       -2   -1    0    0    0  501  0.00000000000E+00  0.00000000000E+00  0.24968501595E+04  0.24968501595E+04  0.25500000920E-02 0.  1.
        2   -1    0    0  501    0  0.00000000000E+00  0.00000000000E+00 -0.91021549898E+03  0.91021549899E+03  0.25500000920E-02 0. -1.
    10030    2    1    2    0    0  0.00000000000E+00  0.00000000000E+00  0.15866346605E+04  0.34070656585E+04  0.30150765919E+04 0.  0.
        5    1    3    3  502    0  0.20030549401E+03  0.83462325256E+02  0.24791013848E+04  0.24885847417E+04  0.46999998093E+01 0.  1.
       -5    1    3    3    0  502 -0.20030549401E+03 -0.83462325256E+02 -0.89246672424E+03  0.91848091680E+03  0.46999998093E+01 0. -1.
</event>
<event>
 5   0  0.4187518E-06  0.2897041E+04  0.7818609E-02  0.8273758E-01
       -2   -1    0    0    0  501  0.00000000000E+00  0.00000000000E+00  0.11532027010E+04  0.11532027010E+04  0.25500000920E-02 0.  1.
        2   -1    0    0  501    0  0.00000000000E+00  0.00000000000E+00 -0.18194651919E+04  0.18194651919E+04  0.25500000920E-02 0. -1.
    10030    2    1    2    0    0  0.00000000000E+00  0.00000000000E+00 -0.66626249085E+03  0.29726678929E+04  0.28970413692E+04 0.  0.
        3    1    3    3  502    0 -0.18056922421E+02 -0.34758648112E+03 -0.17759198087E+04  0.18097053881E+04  0.10100000352E+00 0. -1.
       -3    1    3    3    0  502  0.18056922421E+02  0.34758648112E+03  0.11096573179E+04  0.11629625048E+04  0.10100000352E+00 0.  1.
</event>
<event>
 5   0  0.1511126E-06  0.2906956E+04  0.7818609E-02  0.8270811E-01
        1   -1    0    0  501    0  0.00000000000E+00  0.00000000000E+00  0.20517344750E+04  0.20517344750E+04  0.50400001928E-02 0.  1.
       -1   -1    0    0    0  501  0.00000000000E+00  0.00000000000E+00 -0.10296646495E+04  0.10296646495E+04  0.50400001928E-02 0. -1.
    10030    2    1    2    0    0  0.00000000000E+00  0.00000000000E+00  0.10220698254E+04  0.30813991245E+04  0.29069561119E+04 0.  0.
        5    1    3    3  502    0 -0.12410818798E+04 -0.52670721363E+03 -0.64571983229E+02  0.13497764082E+04  0.46999998093E+01 0. -1.
       -5    1    3    3    0  502  0.12410818798E+04  0.52670721363E+03  0.10866418087E+04  0.17316227163E+04  0.46999998093E+01 0.  1.
</event>
<event>
 5   0  0.4148677E-06  0.2902405E+04  0.7818609E-02  0.8272162E-01
        2   -1    0    0  501    0  0.00000000000E+00  0.00000000000E+00  0.25939093329E+04  0.25939093329E+04  0.25500000920E-02 0. -1.
       -2   -1    0    0    0  501  0.00000000000E+00  0.00000000000E+00 -0.81189781762E+03  0.81189781762E+03  0.25500000920E-02 0.  1.
    10030    2    1    2    0    0  0.00000000000E+00  0.00000000000E+00  0.17820115153E+04  0.34058071506E+04  0.29024054345E+04 0.  0.
        5    1    3    3  502    0  0.14406157700E+04 -0.17360389101E+03  0.91603969373E+03  0.17160020158E+04  0.46999998093E+01 0. -1.
       -5    1    3    3    0  502 -0.14406157700E+04  0.17360389101E+03  0.86597182158E+03  0.16898051348E+04  0.46999998093E+01 0.  1.
</event>
<event>
 5   0  0.4162450E-06  0.2908213E+04  0.7818609E-02  0.8270438E-01
       -2   -1    0    0    0  501  0.00000000000E+00  0.00000000000E+00  0.17334515853E+04  0.17334515853E+04  0.25500000920E-02 0. -1.
        2   -1    0    0  501    0  0.00000000000E+00  0.00000000000E+00 -0.12197779277E+04  0.12197779277E+04  0.25500000920E-02 0.  1.
    10030    2    1    2    0    0  0.00000000000E+00  0.00000000000E+00  0.51367365763E+03  0.29532295130E+04  0.29082131851E+04 0.  0.
        2    1    3    3  502    0  0.88691130713E+03  0.11448642570E+04  0.38962852067E+03  0.14997120450E+04  0.25500000920E-02 0.  1.
       -2    1    3    3    0  502 -0.88691130713E+03 -0.11448642570E+04  0.12404513695E+03  0.14535174680E+04  0.25500000920E-02 0. -1.
</event>
<event>
 5   0  0.4148677E-06  0.2977189E+04  0.7818609E-02  0.8250275E-01
        2   -1    0    0  501    0  0.00000000000E+00  0.00000000000E+00  0.12202911715E+04  0.12202911715E+04  0.25500000920E-02 0. -1.
       -2   -1    0    0    0  501  0.00000000000E+00  0.00000000000E+00 -0.18158893251E+04  0.18158893251E+04  0.25500000920E-02 0.  1.
    10030    2    1    2    0    0  0.00000000000E+00  0.00000000000E+00 -0.59559815354E+03  0.30361804966E+04  0.29771890849E+04 0.  0.
        5    1    3    3  502    0  0.63093708169E+03 -0.46527485943E+03 -0.15883094407E+04  0.17712456818E+04  0.46999998093E+01 0.  1.
       -5    1    3    3    0  502 -0.63093708169E+03  0.46527485943E+03  0.99271128720E+03  0.12649348148E+04  0.46999998093E+01 0. -1.
</event>
<event>
 5   0  0.1602873E-06  0.2896651E+04  0.7818609E-02  0.8273875E-01
       -1   -1    0    0    0  501  0.00000000000E+00  0.00000000000E+00  0.91162734514E+03  0.91162734515E+03  0.50400001928E-02 0. -1.
        1   -1    0    0  501    0  0.00000000000E+00  0.00000000000E+00 -0.23009918523E+04  0.23009918524E+04  0.50400001928E-02 0.  1.
    10030    2    1    2    0    0  0.00000000000E+00  0.00000000000E+00 -0.13893645072E+04  0.32126191975E+04  0.28966512345E+04 0.  0.
        1    1    3    3  502    0 -0.26927158921E+03  0.12292729554E+04  0.10048116229E+03  0.12624245132E+04  0.50400001928E-02 0. -1.
       -1    1    3    3    0  502  0.26927158921E+03 -0.12292729554E+04 -0.14898456695E+04  0.19501946843E+04  0.50400001928E-02 0.  1.
</event>
<event>
 5   0  0.4162450E-06  0.2912317E+04  0.7818609E-02  0.8269222E-01
        2   -1    0    0  501    0  0.00000000000E+00  0.00000000000E+00  0.11742980604E+04  0.11742980604E+04  0.25500000920E-02 0.  1.
       -2   -1    0    0    0  501  0.00000000000E+00  0.00000000000E+00 -0.18056717825E+04  0.18056717825E+04  0.25500000920E-02 0. -1.
    10030    2    1    2    0    0  0.00000000000E+00  0.00000000000E+00 -0.63137372212E+03  0.29799698430E+04  0.29123165158E+04 0.  0.
        2    1    3    3  502    0 -0.12327933151E+03  0.92388349381E+03 -0.14604423375E+04  0.17325271498E+04  0.25500000920E-02 0. -1.
       -2    1    3    3    0  502  0.12327933151E+03 -0.92388349381E+03  0.82906861536E+03  0.12474426932E+04  0.25500000920E-02 0.  1.
</event>
<event>
 5   0  0.1511126E-06  0.2921686E+04  0.7818609E-02  0.8266454E-01
       -1   -1    0    0    0  501  0.00000000000E+00  0.00000000000E+00  0.12212623957E+04  0.12212623957E+04  0.50400001928E-02 0. -1.
        1   -1    0    0  501    0  0.00000000000E+00  0.00000000000E+00 -0.17474230846E+04  0.17474230846E+04  0.50400001928E-02 0.  1.
    10030    2    1    2    0    0  0.00000000000E+00  0.00000000000E+00 -0.52616068886E+03  0.29686854803E+04  0.29216858850E+04 0.  0.
        5    1    3    3  502    0 -0.84127024883E+03  0.79686502961E+03 -0.11669465141E+04  0.16445412016E+04  0.46999998093E+01 0.  1.
       -5    1    3    3    0  502  0.84127024883E+03 -0.79686502961E+03  0.64078582525E+03  0.13241442787E+04  0.46999998093E+01 0. -1.
</event>
<event>
 5   0  0.1511126E-06  0.2909838E+04  0.7818609E-02  0.8269956E-01
        1   -1    0    0  501    0  0.00000000000E+00  0.00000000000E+00  0.24306137107E+04  0.24306137107E+04  0.50400001928E-02 0.  1.
       -1   -1    0    0    0  501  0.00000000000E+00  0.00000000000E+00 -0.87088695918E+03  0.87088695919E+03  0.50400001928E-02 0. -1.
    10030    2    1    2    0    0  0.00000000000E+00  0.00000000000E+00  0.15597267516E+04  0.33015006699E+04  0.29098383347E+04 0.  0.
        5    1    3    3  502    0 -0.11363205838E+02 -0.12025257192E+04 -0.14924150066E+03  0.12118136587E+04  0.46999998093E+01 0. -1.
       -5    1    3    3    0  502  0.11363205838E+02  0.12025257192E+04  0.17089682522E+04  0.20896870112E+04  0.46999998093E+01 0.  1.
</event>
<event>
 5   0  0.4224163E-06  0.2893821E+04  0.7818609E-02  0.8274718E-01
        2   -1    0    0  501    0  0.00000000000E+00  0.00000000000E+00  0.15801872649E+04  0.15801872649E+04  0.25500000920E-02 0.  1.
       -2   -1    0    0    0  501  0.00000000000E+00  0.00000000000E+00 -0.13248742250E+04  0.13248742250E+04  0.25500000920E-02 0. -1.
    10030    2    1    2    0    0  0.00000000000E+00  0.00000000000E+00  0.25531303986E+03  0.29050614899E+04  0.28938205735E+04 0.  0.
        4    1    3    3  502    0  0.78279810960E+03  0.65710334828E+03 -0.90052411224E+03  0.13621684846E+04  0.12699999809E+01 0. -1.
       -4    1    3    3    0  502 -0.78279810960E+03 -0.65710334828E+03  0.11558371521E+04  0.15428930053E+04  0.12699999809E+01 0.  1.
</event>
<event>
 5   0  0.1511126E-06  0.2903609E+04  0.7818609E-02  0.8271804E-01
        1   -1    0    0  501    0  0.00000000000E+00  0.00000000000E+00  0.16193838396E+04  0.16193838396E+04  0.50400001928E-02 0.  1.
       -1   -1    0    0    0  501  0.00000000000E+00  0.00000000000E+00 -0.13015671996E+04  0.13015671996E+04  0.50400001928E-02 0. -1.
    10030    2    1    2    0    0  0.00000000000E+00  0.00000000000E+00  0.31781664005E+03  0.29209510392E+04  0.29036094015E+04 0.  0.
        5    1    3    3  502    0 -0.46312129515E+03  0.11049216170E+04 -0.66597784787E+03  0.13707230565E+04  0.46999998093E+01 0. -1.
       -5    1    3    3    0  502  0.46312129515E+03 -0.11049216170E+04  0.98379448792E+03  0.15502279827E+04  0.46999998093E+01 0.  1.
</event>
<event>
 5   0  0.1602873E-06  0.2869444E+04  0.7818609E-02  0.8282027E-01
       -1   -1    0    0    0  501  0.00000000000E+00  0.00000000000E+00  0.17017050909E+04  0.17017050909E+04  0.50400001928E-02 0.  1.
        1   -1    0    0  501    0  0.00000000000E+00  0.00000000000E+00 -0.12096261865E+04  0.12096261866E+04  0.50400001928E-02 0. -1.
    10030    2    1    2    0    0  0.00000000000E+00  0.00000000000E+00  0.49207890433E+03  0.29113312774E+04  0.28694438762E+04 0.  0.
        1    1    3    3  502    0  0.69947785558E+03 -0.89879801962E+03 -0.63923407871E+03  0.13060349758E+04  0.50400001928E-02 0. -1.
       -1    1    3    3    0  502 -0.69947785558E+03  0.89879801962E+03  0.11313129830E+04  0.16052963017E+04  0.50400001928E-02 0.  1.
</event>
<event>
 5   0  0.1511126E-06  0.2897645E+04  0.7818609E-02  0.8273579E-01
       -1   -1    0    0    0  501  0.00000000000E+00  0.00000000000E+00  0.15863699472E+04  0.15863699472E+04  0.50400001928E-02 0. -1.
        1   -1    0    0  501    0  0.00000000000E+00  0.00000000000E+00 -0.13232008306E+04  0.13232008306E+04  0.50400001928E-02 0.  1.
    10030    2    1    2    0    0  0.00000000000E+00  0.00000000000E+00  0.26316911659E+03  0.29095707777E+04  0.28976445825E+04 0.  0.
        5    1    3    3  502    0  0.48240624404E+03  0.56599775478E+03  0.13800824447E+04  0.15677113532E+04  0.46999998093E+01 0. -1.
       -5    1    3    3    0  502 -0.48240624404E+03 -0.56599775478E+03 -0.11169133281E+04  0.13418594245E+04  0.46999998093E+01 0.  1.
</event>
<event>
 5   0  0.4148677E-06  0.2886261E+04  0.7818609E-02  0.8276977E-01
       -2   -1    0    0    0  501  0.00000000000E+00  0.00000000000E+00  0.11282049667E+04  0.11282049667E+04  0.25500000920E-02 0.  1.
        2   -1    0    0  501    0  0.00000000000E+00  0.00000000000E+00 -0.18459640544E+04  0.18459640544E+04  0.25500000920E-02 0. -1.
    10030    2    1    2    0    0  0.00000000000E+00  0.00000000000E+00 -0.71775908769E+03  0.29741690211E+04  0.28862611209E+04 0.  0.
        5    1    3    3  502    0 -0.55136585607E+03  0.28605804160E+03  0.98339558230E+03  0.11631519555E+04  0.46999998093E+01 0.  1.
       -5    1    3    3    0  502  0.55136585607E+03 -0.28605804160E+03 -0.17011546700E+04  0.18110170655E+04  0.46999998093E+01 0. -1.
</event>
<event>
 5   0  0.1602873E-06  0.2913205E+04  0.7818609E-02  0.8268959E-01
       -1   -1    0    0    0  501  0.00000000000E+00  0.00000000000E+00  0.13542623601E+04  0.13542623601E+04  0.50400001928E-02 0.  1.
        1   -1    0    0  501    0  0.00000000000E+00  0.00000000000E+00 -0.15666763531E+04  0.15666763531E+04  0.50400001928E-02 0. -1.
    10030    2    1    2    0    0  0.00000000000E+00  0.00000000000E+00 -0.21241399298E+03  0.29209387133E+04  0.29132049811E+04 0.  0.
        1    1    3    3  502    0 -0.11012233902E+04 -0.27897464926E+03  0.80789907457E+03  0.13939945211E+04  0.50400001928E-02 0.  1.
       -1    1    3    3    0  502  0.11012233902E+04  0.27897464926E+03 -0.10203130675E+04  0.15269441922E+04  0.50400001928E-02 0. -1.
</event>
<event>
 5   0  0.1360125E-06  0.2975867E+04  0.7818609E-02  0.8250656E-01
        3   -1    0    0  501    0  0.00000000000E+00  0.00000000000E+00  0.24834305686E+04  0.24834305706E+04  0.10100000352E+00 0.  1.
       -3   -1    0    0    0  501  0.00000000000E+00  0.00000000000E+00 -0.89148726431E+03  0.89148727003E+03  0.10100000352E+00 0. -1.
    10030    2    1    2    0    0  0.00000000000E+00  0.00000000000E+00  0.15919433043E+04  0.33749178407E+04  0.29758674277E+04 0.  0.
        5    1    3    3  502    0 -0.45696885863E+03 -0.11779691893E+04  0.16871518710E+04  0.21078271928E+04  0.46999998093E+01 0.  1.
       -5    1    3    3    0  502  0.45696885863E+03  0.11779691893E+04 -0.95208566732E+02  0.12670906479E+04  0.46999998093E+01 0. -1.
</event>
<event>
 5   0  0.4148677E-06  0.2903105E+04  0.7818609E-02  0.8271954E-01
       -2   -1    0    0    0  501  0.00000000000E+00  0.00000000000E+00  0.11584823803E+04  0.11584823803E+04  0.25500000920E-02 0. -1.
        2   -1    0    0  501    0  0.00000000000E+00  0.00000000000E+00 -0.18187627432E+04  0.18187627432E+04  0.25500000920E-02 0.  1.
    10030    2    1    2    0    0  0.00000000000E+00  0.00000000000E+00 -0.66028036293E+03  0.29772451236E+04  0.29031049530E+04 0.  0.
        5    1    3    3  502    0 -0.48502527059E+03 -0.96790836906E+02 -0.17296765895E+04  0.17990056069E+04  0.46999998093E+01 0.  1.
       -5    1    3    3    0  502  0.48502527059E+03  0.96790836906E+02  0.10693962266E+04  0.11782395167E+04  0.46999998093E+01 0. -1.
</event>
<event>
 5   0  0.1511126E-06  0.2892537E+04  0.7818609E-02  0.8275101E-01
       -1   -1    0    0    0  501  0.00000000000E+00  0.00000000000E+00  0.10337218682E+04  0.10337218682E+04  0.50400001928E-02 0. -1.
        1   -1    0    0  501    0  0.00000000000E+00  0.00000000000E+00 -0.20234573387E+04  0.20234573387E+04  0.50400001928E-02 0.  1.
    10030    2    1    2    0    0  0.00000000000E+00  0.00000000000E+00 -0.98973547051E+03  0.30571792070E+04  0.28925366726E+04 0.  0.
        5    1    3    3  502    0 -0.44016195427E+02 -0.71619557541E+03 -0.18220477846E+04  0.19582527281E+04  0.46999998093E+01 0.  1.
       -5    1    3    3    0  502  0.44016195427E+02  0.71619557541E+03  0.83231231414E+03  0.10989264789E+04  0.46999998093E+01 0. -1.
</event>
<event>
 5   0  0.4224163E-06  0.2958672E+04  0.7818609E-02  0.8255632E-01
        2   -1    0    0  501    0  0.00000000000E+00  0.00000000000E+00  0.13550682195E+04  0.13550682195E+04  0.25500000920E-02 0.  1.
       -2   -1    0    0    0  501  0.00000000000E+00  0.00000000000E+00 -0.16149993428E+04  0.16149993428E+04  0.25500000920E-02 0. -1.
    10030    2    1    2    0    0  0.00000000000E+00  0.00000000000E+00 -0.25993112332E+03  0.29700675623E+04  0.29586715154E+04 0.  0.
        4    1    3    3  502    0  0.10470798593E+04 -0.46115299113E+03  0.81140673967E+03  0.14026477901E+04  0.12699999809E+01 0.  1.
       -4    1    3    3    0  502 -0.10470798593E+04  0.46115299113E+03 -0.10713378630E+04  0.15674197723E+04  0.12699999809E+01 0. -1.
</event>
<event>
 5   0  0.1580212E-06  0.2908306E+04  0.7818609E-02  0.8270410E-01
        1   -1    0    0  501    0  0.00000000000E+00  0.00000000000E+00  0.21843770072E+04  0.21843770072E+04  0.50400001928E-02 0. -1.
       -1   -1    0    0    0  501  0.00000000000E+00  0.00000000000E+00 -0.96803858550E+03  0.96803858551E+03  0.50400001928E-02 0.  1.
    10030    2    1    2    0    0  0.00000000000E+00  0.00000000000E+00  0.12163384217E+04  0.31524155927E+04  0.29083061931E+04 0.  0.
        4    1    3    3  502    0 -0.29642876401E+03 -0.79283688898E+03  0.18898277738E+04  0.20707271602E+04  0.12699999809E+01 0. -1.
       -4    1    3    3    0  502  0.29642876401E+03  0.79283688898E+03 -0.67348935210E+03  0.10816884325E+04  0.12699999809E+01 0.  1.
</event>
<event>
 5   0  0.1550278E-06  0.2902957E+04  0.7818609E-02  0.8271998E-01
       -1   -1    0    0    0  501  0.00000000000E+00  0.00000000000E+00  0.11694840590E+04  0.11694840590E+04  0.50400001928E-02 0. -1.
        1   -1    0    0  501    0  0.00000000000E+00  0.00000000000E+00 -0.18014696609E+04  0.18014696609E+04  0.50400001928E-02 0.  1.
    10030    2    1    2    0    0  0.00000000000E+00  0.00000000000E+00 -0.63198560193E+03  0.29709537199E+04  0.29029571483E+04 0.  0.
        2    1    3    3  502    0  0.96692358106E+03  0.17190199783E+03 -0.14098108186E+04  0.17181554216E+04  0.25500000920E-02 0.  1.
       -2    1    3    3    0  502 -0.96692358106E+03 -0.17190199783E+03  0.77782521671E+03  0.12527982983E+04  0.25500000920E-02 0. -1.
</event>
<event>
 5   0  0.1543678E-06  0.3002165E+04  0.7818609E-02  0.8243113E-01
       -1   -1    0    0    0  501  0.00000000000E+00  0.00000000000E+00  0.11617438112E+04  0.11617438112E+04  0.50400001928E-02 0. -1.
        1   -1    0    0  501    0  0.00000000000E+00  0.00000000000E+00 -0.19395404042E+04  0.19395404042E+04  0.50400001928E-02 0.  1.
    10030    2    1    2    0    0  0.00000000000E+00  0.00000000000E+00 -0.77779659298E+03  0.31012842155E+04  0.30021652594E+04 0.  0.
        3    1    3    3  502    0  0.12002492437E+04 -0.89946317273E+03 -0.32677285118E+03  0.15350611560E+04  0.10100000352E+00 0.  1.
       -3    1    3    3    0  502 -0.12002492437E+04  0.89946317273E+03 -0.45102374180E+03  0.15662230595E+04  0.10100000352E+00 0. -1.
</event>
<event>
 5   0  0.4187518E-06  0.2902257E+04  0.7818609E-02  0.8272206E-01
        2   -1    0    0  501    0  0.00000000000E+00  0.00000000000E+00  0.13411737321E+04  0.13411737321E+04  0.25500000920E-02 0.  1.
       -2   -1    0    0    0  501  0.00000000000E+00  0.00000000000E+00 -0.15700977737E+04  0.15700977737E+04  0.25500000920E-02 0. -1.
    10030    2    1    2    0    0  0.00000000000E+00  0.00000000000E+00 -0.22892404160E+03  0.29112715059E+04  0.29022569776E+04 0.  0.
        3    1    3    3  502    0 -0.65133722419E+03  0.81537143069E+03 -0.11259108739E+04  0.15351697156E+04  0.10100000352E+00 0. -1.
       -3    1    3    3    0  502  0.65133722419E+03 -0.81537143069E+03  0.89698683230E+03  0.13761017902E+04  0.10100000352E+00 0.  1.
</event>
<event>
 5   0  0.1550278E-06  0.2943932E+04  0.7818609E-02  0.8259925E-01
        1   -1    0    0  501    0  0.00000000000E+00  0.00000000000E+00  0.17476626026E+04  0.17476626026E+04  0.50400001928E-02 0.  1.
       -1   -1    0    0    0  501  0.00000000000E+00  0.00000000000E+00 -0.12397606697E+04  0.12397606697E+04  0.50400001928E-02 0. -1.
    10030    2    1    2    0    0  0.00000000000E+00  0.00000000000E+00  0.50790193298E+03  0.29874232723E+04  0.29439316287E+04 0.  0.
        2    1    3    3  502    0  0.13708395825E+04 -0.39543169106E+03 -0.11349784344E+03  0.14312404214E+04  0.25500000920E-02 0. -1.
       -2    1    3    3    0  502 -0.13708395825E+04  0.39543169106E+03  0.62139977641E+03  0.15561828509E+04  0.25500000920E-02 0.  1.
</event>
<event>
 5   0  0.1580212E-06  0.2865119E+04  0.7818609E-02  0.8283332E-01
       -1   -1    0    0    0  501  0.00000000000E+00  0.00000000000E+00  0.10143417514E+04  0.10143417514E+04  0.50400001928E-02 0. -1.
        1   -1    0    0  501    0  0.00000000000E+00  0.00000000000E+00 -0.20232098396E+04  0.20232098396E+04  0.50400001928E-02 0.  1.
    10030    2    1    2    0    0  0.00000000000E+00  0.00000000000E+00 -0.10088680882E+04  0.30375515911E+04  0.28651186448E+04 0.  0.
        4    1    3    3  502    0  0.14712701727E+03  0.11576113426E+04  0.37654862559E+03  0.12261732585E+04  0.12699999809E+01 0. -1.
       -4    1    3    3    0  502 -0.14712701727E+03 -0.11576113426E+04 -0.13854167138E+04  0.18113783325E+04  0.12699999809E+01 0.  1.
</event>
<event>
 5   0  0.4148677E-06  0.2902044E+04  0.7818609E-02  0.8272270E-01
       -2   -1    0    0    0  501  0.00000000000E+00  0.00000000000E+00  0.11051816816E+04  0.11051816816E+04  0.25500000920E-02 0.  1.
        2   -1    0    0  501    0  0.00000000000E+00  0.00000000000E+00 -0.19050851176E+04  0.19050851176E+04  0.25500000920E-02 0. -1.
    10030    2    1    2    0    0  0.00000000000E+00  0.00000000000E+00 -0.79990343603E+03  0.30102667992E+04  0.29020442270E+04 0.  0.
        5    1    3    3  502    0 -0.55310446321E+03 -0.52532713921E+03 -0.16803034939E+04  0.18453549990E+04  0.46999998093E+01 0. -1.
       -5    1    3    3    0  502  0.55310446321E+03  0.52532713921E+03  0.88040005792E+03  0.11649118003E+04  0.46999998093E+01 0.  1.
</event>
<event>
 5   0  0.4224163E-06  0.2958707E+04  0.7818609E-02  0.8255622E-01
        2   -1    0    0  501    0  0.00000000000E+00  0.00000000000E+00  0.24861984424E+04  0.24861984424E+04  0.25500000920E-02 0.  1.
       -2   -1    0    0    0  501  0.00000000000E+00  0.00000000000E+00 -0.88025430804E+03  0.88025430804E+03  0.25500000920E-02 0. -1.
    10030    2    1    2    0    0  0.00000000000E+00  0.00000000000E+00  0.16059441344E+04  0.33664527504E+04  0.29587070754E+04 0.  0.
        4    1    3    3  502    0  0.13311303332E+04  0.63422222202E+03  0.93922232824E+03  0.17482236658E+04  0.12699999809E+01 0.  1.
       -4    1    3    3    0  502 -0.13311303332E+04 -0.63422222202E+03  0.66672180611E+03  0.16182290847E+04  0.12699999809E+01 0. -1.
</event>
<event>
 5   0  0.1550278E-06  0.2914393E+04  0.7818609E-02  0.8268608E-01
        1   -1    0    0  501    0  0.00000000000E+00  0.00000000000E+00  0.24970827004E+04  0.24970827004E+04  0.50400001928E-02 0.  1.
       -1   -1    0    0    0  501  0.00000000000E+00  0.00000000000E+00 -0.85036094805E+03  0.85036094807E+03  0.50400001928E-02 0. -1.
    10030    2    1    2    0    0  0.00000000000E+00  0.00000000000E+00  0.16467217523E+04  0.33474436485E+04  0.29143929814E+04 0.  0.
        2    1    3    3  502    0  0.51620178168E+02  0.13230556128E+04  0.12443556584E+03  0.13298966153E+04  0.25500000920E-02 0. -1.
       -2    1    3    3    0  502 -0.51620178168E+02 -0.13230556128E+04  0.15222861865E+04  0.20175470332E+04  0.25500000920E-02 0.  1.
</event>
<event>
 5   0  0.1543678E-06  0.2920782E+04  0.7818609E-02  0.8266721E-01
       -1   -1    0    0    0  501  0.00000000000E+00  0.00000000000E+00  0.76308507326E+03  0.76308507327E+03  0.50400001928E-02 0. -1.
        1   -1    0    0  501    0  0.00000000000E+00  0.00000000000E+00 -0.27948945876E+04  0.27948945876E+04  0.50400001928E-02 0.  1.
    10030    2    1    2    0    0  0.00000000000E+00  0.00000000000E+00 -0.20318095144E+04  0.35579796609E+04  0.29207823207E+04 0.  0.
        3    1    3    3  502    0  0.12993630625E+04  0.31345166954E+02 -0.18270706421E+04  0.22422118609E+04  0.10100000352E+00 0.  1.
       -3    1    3    3    0  502 -0.12993630625E+04 -0.31345166954E+02 -0.20473887232E+03  0.13157678001E+04  0.10100000352E+00 0. -1.
</event>
<event>
 5   0  0.1511126E-06  0.2893922E+04  0.7818609E-02  0.8274688E-01
        1   -1    0    0  501    0  0.00000000000E+00  0.00000000000E+00  0.19396896026E+04  0.19396896026E+04  0.50400001928E-02 0.  1.
       -1   -1    0    0    0  501  0.00000000000E+00  0.00000000000E+00 -0.10793975513E+04  0.10793975513E+04  0.50400001928E-02 0. -1.
    10030    2    1    2    0    0  0.00000000000E+00  0.00000000000E+00  0.86029205130E+03  0.30190871539E+04  0.28939220496E+04 0.  0.
        5    1    3    3  502    0  0.61887337996E+03  0.81372174562E+03 -0.63811795309E+03  0.12051406357E+04  0.46999998093E+01 0. -1.
       -5    1    3    3    0  502 -0.61887337996E+03 -0.81372174562E+03  0.14984100044E+04  0.18139465182E+04  0.46999998093E+01 0.  1.
</event>
<event>
 5   0  0.4162450E-06  0.2893083E+04  0.7818609E-02  0.8274939E-01
       -2   -1    0    0    0  501  0.00000000000E+00  0.00000000000E+00  0.10140866297E+04  0.10140866297E+04  0.25500000920E-02 0. -1.
        2   -1    0    0  501    0  0.00000000000E+00  0.00000000000E+00 -0.20634150724E+04  0.20634150724E+04  0.25500000920E-02 0.  1.
    10030    2    1    2    0    0  0.00000000000E+00  0.00000000000E+00 -0.10493284427E+04  0.30775017021E+04  0.28930825335E+04 0.  0.
        2    1    3    3  502    0  0.23942749324E+03 -0.14248760574E+04 -0.59900722544E+03  0.15640994085E+04  0.25500000920E-02 0.  1.
       -2    1    3    3    0  502 -0.23942749324E+03  0.14248760574E+04 -0.45032121727E+03  0.15134022936E+04  0.25500000920E-02 0. -1.
</event>
<event>
 5   0  0.1602873E-06  0.2926252E+04  0.7818609E-02  0.8265109E-01
       -1   -1    0    0    0  501  0.00000000000E+00  0.00000000000E+00  0.14202967637E+04  0.14202967637E+04  0.50400001928E-02 0. -1.
        1   -1    0    0  501    0  0.00000000000E+00  0.00000000000E+00 -0.15072467378E+04  0.15072467378E+04  0.50400001928E-02 0.  1.
    10030    2    1    2    0    0  0.00000000000E+00  0.00000000000E+00 -0.86949974029E+02  0.29275435015E+04  0.29262519808E+04 0.  0.
        1    1    3    3  502    0 -0.33940027763E+03 -0.14097988644E+04 -0.23852841215E+03  0.14695649662E+04  0.50400001928E-02 0.  1.
       -1    1    3    3    0  502  0.33940027763E+03  0.14097988644E+04  0.15157843812E+03  0.14579785353E+04  0.50400001928E-02 0. -1.
</event>
<event>
 5   0  0.4148677E-06  0.2870518E+04  0.7818609E-02  0.8281704E-01
        2   -1    0    0  501    0  0.00000000000E+00  0.00000000000E+00  0.12971784233E+04  0.12971784233E+04  0.25500000920E-02 0. -1.
       -2   -1    0    0    0  501  0.00000000000E+00  0.00000000000E+00 -0.15880382359E+04  0.15880382359E+04  0.25500000920E-02 0.  1.
    10030    2    1    2    0    0  0.00000000000E+00  0.00000000000E+00 -0.29085981260E+03  0.28852166592E+04  0.28705183748E+04 0.  0.
        5    1    3    3  502    0 -0.12481067077E+04  0.24777492462E+03 -0.81274515529E+03  0.15098806392E+04  0.46999998093E+01 0. -1.
       -5    1    3    3    0  502  0.12481067077E+04 -0.24777492462E+03  0.52188534269E+03  0.13753360200E+04  0.46999998093E+01 0.  1.
</event>
<event>
 5   0  0.1543678E-06  0.2895894E+04  0.7818609E-02  0.8274100E-01
        1   -1    0    0  501    0  0.00000000000E+00  0.00000000000E+00  0.12942931694E+04  0.12942931695E+04  0.50400001928E-02 0.  1.
       -1   -1    0    0    0  501  0.00000000000E+00  0.00000000000E+00 -0.16198419102E+04  0.16198419102E+04  0.50400001928E-02 0. -1.
    10030    2    1    2    0    0  0.00000000000E+00  0.00000000000E+00 -0.32554874072E+03  0.29141350796E+04  0.28958938654E+04 0.  0.
        3    1    3    3  502    0 -0.52560168421E+03  0.51862000748E+03  0.10905937351E+04  0.13170491820E+04  0.10100000352E+00 0.  1.
       -3    1    3    3    0  502  0.52560168421E+03 -0.51862000748E+03 -0.14161424758E+04  0.15970858977E+04  0.10100000352E+00 0. -1.
</event>
<event>
 5   0  0.4162450E-06  0.2913561E+04  0.7818609E-02  0.8268854E-01
       -2   -1    0    0    0  501  0.00000000000E+00  0.00000000000E+00  0.24556095205E+04  0.24556095205E+04  0.25500000920E-02 0.  1.
        2   -1    0    0  501    0  0.00000000000E+00  0.00000000000E+00 -0.86422915862E+03  0.86422915862E+03  0.25500000920E-02 0. -1.
    10030    2    1    2    0    0  0.00000000000E+00  0.00000000000E+00  0.15913803618E+04  0.33198386791E+04  0.29135609482E+04 0.  0.
        2    1    3    3  502    0  0.56476337845E+02  0.11649677926E+04 -0.19887501377E+03  0.11831698127E+04  0.25500000920E-02 0. -1.
       -2    1    3    3    0  502 -0.56476337845E+02 -0.11649677926E+04  0.17902553756E+04  0.21366688664E+04  0.25500000920E-02 0.  1.
</event>
<event>
 5   0  0.4148677E-06  0.2898361E+04  0.7818609E-02  0.8273365E-01
        2   -1    0    0  501    0  0.00000000000E+00  0.00000000000E+00  0.19461800065E+04  0.19461800065E+04  0.25500000920E-02 0. -1.
       -2   -1    0    0    0  501  0.00000000000E+00  0.00000000000E+00 -0.10791005953E+04  0.10791005953E+04  0.25500000920E-02 0.  1.
    10030    2    1    2    0    0  0.00000000000E+00  0.00000000000E+00  0.86707941117E+03  0.30252806019E+04  0.28983609186E+04 0.  0.
        5    1    3    3  502    0 -0.58168806272E+03 -0.58730692342E+03  0.16759619905E+04  0.18687324871E+04  0.46999998093E+01 0. -1.
       -5    1    3    3    0  502  0.58168806272E+03  0.58730692342E+03 -0.80888257935E+03  0.11565481148E+04  0.46999998093E+01 0.  1.
</event>
<event>
 5   0  0.1602873E-06  0.2613650E+04  0.7818609E-02  0.8363579E-01
       -1   -1    0    0    0  501  0.00000000000E+00  0.00000000000E+00  0.88452509812E+03  0.88452509814E+03  0.50400001928E-02 0.  1.
        1   -1    0    0  501    0  0.00000000000E+00  0.00000000000E+00 -0.19307444666E+04  0.19307444666E+04  0.50400001928E-02 0. -1.
    10030    2    1    2    0    0  0.00000000000E+00  0.00000000000E+00 -0.10462193685E+04  0.28152695647E+04  0.26136502741E+04 0.  0.
        1    1    3    3  502    0 -0.42671000592E+03  0.94467295178E+03  0.33408301259E+03  0.10890821247E+04  0.50400001928E-02 0.  1.
       -1    1    3    3    0  502  0.42671000592E+03 -0.94467295178E+03 -0.13803023810E+04  0.17261874400E+04  0.50400001928E-02 0. -1.
</event>
<event>
 5   0  0.1580212E-06  0.2900020E+04  0.7818609E-02  0.8272872E-01
       -1   -1    0    0    0  501  0.00000000000E+00  0.00000000000E+00  0.83666497732E+03  0.83666497733E+03  0.50400001928E-02 0.  1.
        1   -1    0    0  501    0  0.00000000000E+00  0.00000000000E+00 -0.25129879855E+04  0.25129879855E+04  0.50400001928E-02 0. -1.
    10030    2    1    2    0    0  0.00000000000E+00  0.00000000000E+00 -0.16763230082E+04  0.33496529628E+04  0.29000200247E+04 0.  0.
        4    1    3    3  502    0  0.55776175104E+03  0.12580058295E+04 -0.13660189671E+04  0.19389910442E+04  0.12699999809E+01 0. -1.
       -4    1    3    3    0  502 -0.55776175104E+03 -0.12580058295E+04 -0.31030404109E+03  0.14106619187E+04  0.12699999809E+01 0.  1.
</event>
<event>
 5   0  0.4187518E-06  0.3026941E+04  0.7818609E-02  0.8236079E-01
        2   -1    0    0  501    0  0.00000000000E+00  0.00000000000E+00  0.22159734337E+04  0.22159734337E+04  0.25500000920E-02 0.  1.
       -2   -1    0    0    0  501  0.00000000000E+00  0.00000000000E+00 -0.10336732850E+04  0.10336732850E+04  0.25500000920E-02 0. -1.
    10030    2    1    2    0    0  0.00000000000E+00  0.00000000000E+00  0.11823001487E+04  0.32496467187E+04  0.30269407254E+04 0.  0.
        3    1    3    3  502    0 -0.70852486950E+03 -0.40479871529E+03  0.19595779189E+04  0.21226905382E+04  0.10100000352E+00 0.  1.
       -3    1    3    3    0  502  0.70852486950E+03  0.40479871529E+03 -0.77727777019E+03  0.11269561805E+04  0.10100000352E+00 0. -1.
</event>
<event>
 5   0  0.1511126E-06  0.2922508E+04  0.7818609E-02  0.8266212E-01
       -1   -1    0    0    0  501  0.00000000000E+00  0.00000000000E+00  0.11259724972E+04  0.11259724972E+04  0.50400001928E-02 0. -1.
        1   -1    0    0  501    0  0.00000000000E+00  0.00000000000E+00 -0.18963728437E+04  0.18963728437E+04  0.50400001928E-02 0.  1.
    10030    2    1    2    0    0  0.00000000000E+00  0.00000000000E+00 -0.77040034654E+03  0.30223453409E+04  0.29225082833E+04 0.  0.
        5    1    3    3  502    0  0.11981096847E+04 -0.21658544385E+03 -0.12208035709E+04  0.17241692259E+04  0.46999998093E+01 0.  1.
       -5    1    3    3    0  502 -0.11981096847E+04  0.21658544385E+03  0.45040322436E+03  0.12981761150E+04  0.46999998093E+01 0. -1.
</event>
<event>
 5   0  0.4115143E-06  0.2890358E+04  0.7818609E-02  0.8275752E-01
        2   -1    0    0  501    0  0.00000000000E+00  0.00000000000E+00  0.13893548279E+04  0.13893548279E+04  0.25500000920E-02 0. -1.
       -2   -1    0    0    0  501  0.00000000000E+00  0.00000000000E+00 -0.15032463771E+04  0.15032463771E+04  0.25500000920E-02 0.  1.
    10030    2    1    2    0    0  0.00000000000E+00  0.00000000000E+00 -0.11389154914E+03  0.28926012050E+04  0.28903581865E+04 0.  0.
        1    1    3    3  502    0 -0.13617373327E+04 -0.37570099504E+03  0.24835294230E+03  0.14342799535E+04  0.50400001928E-02 0.  1.
       -1    1    3    3    0  502  0.13617373327E+04  0.37570099504E+03 -0.36224449144E+03  0.14583212515E+04  0.50400001928E-02 0. -1.
</event>
<event>
 5   0  0.1602873E-06  0.2932231E+04  0.7818609E-02  0.8263352E-01
       -1   -1    0    0    0  501  0.00000000000E+00  0.00000000000E+00  0.99730077586E+03  0.99730077588E+03  0.50400001928E-02 0.  1.
        1   -1    0    0  501    0  0.00000000000E+00  0.00000000000E+00 -0.21553117660E+04  0.21553117660E+04  0.50400001928E-02 0. -1.
    10030    2    1    2    0    0  0.00000000000E+00  0.00000000000E+00 -0.11580109901E+04  0.31526125419E+04  0.29322306161E+04 0.  0.
        1    1    3    3  502    0  0.74463315112E+03  0.91872290103E+02 -0.19332677835E+04  0.20737510386E+04  0.50400001928E-02 0. -1.
       -1    1    3    3    0  502 -0.74463315112E+03 -0.91872290103E+02  0.77525679339E+03  0.10788615032E+04  0.50400001928E-02 0.  1.
</event>
<event>
 5   0  0.4162450E-06  0.2911701E+04  0.7818609E-02  0.8269405E-01
       -2   -1    0    0    0  501  0.00000000000E+00  0.00000000000E+00  0.92854989566E+03  0.92854989566E+03  0.25500000920E-02 0. -1.
        2   -1    0    0  501    0  0.00000000000E+00  0.00000000000E+00 -0.22825919546E+04  0.22825919546E+04  0.25500000920E-02 0.  1.
    10030    2    1    2    0    0  0.00000000000E+00  0.00000000000E+00 -0.13540420590E+04  0.32111418503E+04  0.29117008921E+04 0.  0.
        2    1    3    3  502    0 -0.11146598179E+04 -0.18877557566E+03 -0.16886317324E+04  0.20321367709E+04  0.25500000920E-02 0.  1.
       -2    1    3    3    0  502  0.11146598179E+04  0.18877557566E+03  0.33458967347E+03  0.11790050794E+04  0.25500000920E-02 0. -1.
</event>
<event>
 5   0  0.1543678E-06  0.2902021E+04  0.7818609E-02  0.8272276E-01
       -1   -1    0    0    0  501  0.00000000000E+00  0.00000000000E+00  0.76997490180E+03  0.76997490181E+03  0.50400001928E-02 0.  1.
        1   -1    0    0  501    0  0.00000000000E+00  0.00000000000E+00 -0.27344164477E+04  0.27344164477E+04  0.50400001928E-02 0. -1.
    10030    2    1    2    0    0  0.00000000000E+00  0.00000000000E+00 -0.19644415459E+04  0.35043913495E+04  0.29020213892E+04 0.  0.
        3    1    3    3  502    0 -0.13263360510E+04  0.58743060058E+03 -0.94056410129E+03  0.17288443740E+04  0.10100000352E+00 0. -1.
       -3    1    3    3    0  502  0.13263360510E+04 -0.58743060058E+03 -0.10238774446E+04  0.17755469755E+04  0.10100000352E+00 0.  1.
</event>
<event>
 5   0  0.4224163E-06  0.2972243E+04  0.7818609E-02  0.8251702E-01
       -2   -1    0    0    0  501  0.00000000000E+00  0.00000000000E+00  0.26920208429E+04  0.26920208429E+04  0.25500000920E-02 0. -1.
        2   -1    0    0  501    0  0.00000000000E+00  0.00000000000E+00 -0.82040871162E+03  0.82040871162E+03  0.25500000920E-02 0.  1.
    10030    2    1    2    0    0  0.00000000000E+00  0.00000000000E+00  0.18716121313E+04  0.35124295545E+04  0.29722431606E+04 0.  0.
        4    1    3    3  502    0 -0.30338600582E+03 -0.14546860952E+04  0.91214065598E+03  0.17436045691E+04  0.12699999809E+01 0.  1.
       -4    1    3    3    0  502  0.30338600582E+03  0.14546860952E+04  0.95947147532E+03  0.17688249854E+04  0.12699999809E+01 0. -1.
</event>
<event>
 5   0  0.4115143E-06  0.2896797E+04  0.7818609E-02  0.8273831E-01
        2   -1    0    0  501    0  0.00000000000E+00  0.00000000000E+00  0.20525205170E+04  0.20525205170E+04  0.25500000920E-02 0.  1.
       -2   -1    0    0    0  501  0.00000000000E+00  0.00000000000E+00 -0.10220886892E+04  0.10220886892E+04  0.25500000920E-02 0. -1.
    10030    2    1    2    0    0  0.00000000000E+00  0.00000000000E+00  0.10304318278E+04  0.30746092062E+04  0.28967968550E+04 0.  0.
        1    1    3    3  502    0 -0.25780348546E+03  0.10960217990E+04  0.14822579479E+04  0.18614013659E+04  0.50400001928E-02 0.  1.
       -1    1    3    3    0  502  0.25780348546E+03 -0.10960217990E+04 -0.45182612006E+03  0.12132078403E+04  0.50400001928E-02 0. -1.
</event>
<event>
 5   0  0.1543678E-06  0.2897304E+04  0.7818609E-02  0.8273680E-01
        1   -1    0    0  501    0  0.00000000000E+00  0.00000000000E+00  0.74019261554E+03  0.74019261556E+03  0.50400001928E-02 0. -1.
       -1   -1    0    0    0  501  0.00000000000E+00  0.00000000000E+00 -0.28351988577E+04  0.28351988577E+04  0.50400001928E-02 0.  1.
    10030    2    1    2    0    0  0.00000000000E+00  0.00000000000E+00 -0.20950062421E+04  0.35753914732E+04  0.28973044424E+04 0.  0.
        3    1    3    3  502    0  0.10815754175E+04  0.23434816198E+03  0.10608980830E+03  0.11117461501E+04  0.10100000352E+00 0. -1.
       -3    1    3    3    0  502 -0.10815754175E+04 -0.23434816198E+03 -0.22010960504E+04  0.24636453231E+04  0.10100000352E+00 0.  1.
</event>
<event>
 5   0  0.1511126E-06  0.2905253E+04  0.7818609E-02  0.8271316E-01
       -1   -1    0    0    0  501  0.00000000000E+00  0.00000000000E+00  0.67955879301E+03  0.67955879303E+03  0.50400001928E-02 0. -1.
        1   -1    0    0  501    0  0.00000000000E+00  0.00000000000E+00 -0.31051368708E+04  0.31051368708E+04  0.50400001928E-02 0.  1.
    10030    2    1    2    0    0  0.00000000000E+00  0.00000000000E+00 -0.24255780778E+04  0.37846956638E+04  0.29052525288E+04 0.  0.
        5    1    3    3  502    0  0.95143992956E+03  0.59061197880E+02 -0.26406513664E+04  0.28074522069E+04  0.46999998093E+01 0. -1.
       -5    1    3    3    0  502 -0.95143992956E+03 -0.59061197880E+02  0.21507328868E+03  0.97724345696E+03  0.46999998093E+01 0.  1.
</event>
<event>
 5   0  0.1543678E-06  0.2766266E+04  0.7818609E-02  0.8313819E-01
       -1   -1    0    0    0  501  0.00000000000E+00  0.00000000000E+00  0.11007327074E+04  0.11007327074E+04  0.50400001928E-02 0. -1.
        1   -1    0    0  501    0  0.00000000000E+00  0.00000000000E+00 -0.17379846379E+04  0.17379846380E+04  0.50400001928E-02 0.  1.
    10030    2    1    2    0    0  0.00000000000E+00  0.00000000000E+00 -0.63725193051E+03  0.28387173454E+04  0.27662657400E+04 0.  0.
        3    1    3    3  502    0 -0.85716522509E+03 -0.96640127548E+03 -0.82593491702E+03  0.15332423637E+04  0.10100000352E+00 0.  1.
       -3    1    3    3    0  502  0.85716522509E+03  0.96640127548E+03  0.18868298651E+03  0.13054749817E+04  0.10100000352E+00 0. -1.
</event>
<event>
 5   0  0.1360125E-06  0.2887858E+04  0.7818609E-02  0.8276499E-01
        3   -1    0    0  501    0  0.00000000000E+00  0.00000000000E+00  0.19776348364E+04  0.19776348390E+04  0.10100000352E+00 0.  1.
       -3   -1    0    0    0  501  0.00000000000E+00  0.00000000000E+00 -0.10542546362E+04  0.10542546411E+04  0.10100000352E+00 0. -1.
    10030    2    1    2    0    0  0.00000000000E+00  0.00000000000E+00  0.92338020016E+03  0.30318894801E+04  0.28878578264E+04 0.  0.
        3    1    3    3  502    0  0.77314710278E+03 -0.83699165771E+03  0.13928404999E+04  0.17995322020E+04  0.10100000352E+00 0.  1.
       -3    1    3    3    0  502 -0.77314710278E+03  0.83699165771E+03 -0.46946029973E+03  0.12323572781E+04  0.10100000352E+00 0. -1.
</event>
<event>
 5   0  0.4162450E-06  0.2912672E+04  0.7818609E-02  0.8269117E-01
       -2   -1    0    0    0  501  0.00000000000E+00  0.00000000000E+00  0.78324575393E+03  0.78324575394E+03  0.25500000920E-02 0.  1.
        2   -1    0    0  501    0  0.00000000000E+00  0.00000000000E+00 -0.27078533398E+04  0.27078533398E+04  0.25500000920E-02 0. -1.
    10030    2    1    2    0    0  0.00000000000E+00  0.00000000000E+00 -0.19246075859E+04  0.34910990938E+04  0.29126720589E+04 0.  0.
        2    1    3    3  502    0  0.54031813930E+03  0.12724123136E+04 -0.41312222542E+03  0.14427913087E+04  0.25500000920E-02 0.  1.
       -2    1    3    3    0  502 -0.54031813930E+03 -0.12724123136E+04 -0.15114853605E+04  0.20483077851E+04  0.25500000920E-02 0. -1.
</event>
<event>
 5   0  0.1543678E-06  0.2873240E+04  0.7818609E-02  0.8280884E-01
        1   -1    0    0  501    0  0.00000000000E+00  0.00000000000E+00  0.12691143743E+04  0.12691143743E+04  0.50400001928E-02 0. -1.
       -1   -1    0    0    0  501  0.00000000000E+00  0.00000000000E+00 -0.16262336193E+04  0.16262336193E+04  0.50400001928E-02 0.  1.
    10030    2    1    2    0    0  0.00000000000E+00  0.00000000000E+00 -0.35711924498E+03  0.28953479936E+04  0.28732396087E+04 0.  0.
        3    1    3    3  502    0 -0.84958893574E+03 -0.56131555360E+03  0.84264820278E+03  0.13217157464E+04  0.10100000352E+00 0. -1.
       -3    1    3    3    0  502  0.84958893574E+03  0.56131555360E+03 -0.11997674478E+04  0.15736322472E+04  0.10100000352E+00 0.  1.
</event>
<event>
 5   0  0.4115143E-06  0.2975220E+04  0.7818609E-02  0.8250843E-01
        2   -1    0    0  501    0  0.00000000000E+00  0.00000000000E+00  0.18898385669E+04  0.18898385669E+04  0.25500000920E-02 0. -1.
       -2   -1    0    0    0  501  0.00000000000E+00  0.00000000000E+00 -0.11709907586E+04  0.11709907586E+04  0.25500000920E-02 0.  1.
    10030    2    1    2    0    0  0.00000000000E+00  0.00000000000E+00  0.71884780836E+03  0.30608293255E+04  0.29752199899E+04 0.  0.
        1    1    3    3  502    0 -0.87476319752E+03 -0.12028281288E+04  0.39158585744E+03  0.15379680240E+04  0.50400001928E-02 0.  1.
       -1    1    3    3    0  502  0.87476319752E+03  0.12028281288E+04  0.32726195092E+03  0.15228613015E+04  0.50400001928E-02 0. -1.
</event>
<event>
 5   0  0.4224163E-06  0.2900686E+04  0.7818609E-02  0.8272673E-01
       -2   -1    0    0    0  501  0.00000000000E+00  0.00000000000E+00  0.93934111552E+03  0.93934111552E+03  0.25500000920E-02 0. -1.
        2   -1    0    0  501    0  0.00000000000E+00  0.00000000000E+00 -0.22393298115E+04  0.22393298115E+04  0.25500000920E-02 0.  1.
    10030    2    1    2    0    0  0.00000000000E+00  0.00000000000E+00 -0.12999886960E+04  0.31786709270E+04  0.29006858245E+04 0.  0.
        4    1    3    3  502    0  0.83346466211E+03  0.75060635375E+03 -0.16575778811E+04  0.20014093250E+04  0.12699999809E+01 0.  1.
       -4    1    3    3    0  502 -0.83346466211E+03 -0.75060635375E+03  0.35758918518E+03  0.11772616020E+04  0.12699999809E+01 0. -1.
</event>
<event>
 5   0  0.1511126E-06  0.2862210E+04  0.7818609E-02  0.8284211E-01
        1   -1    0    0  501    0  0.00000000000E+00  0.00000000000E+00  0.30150384036E+04  0.30150384036E+04  0.50400001928E-02 0. -1.
       -1   -1    0    0    0  501  0.00000000000E+00  0.00000000000E+00 -0.67928192347E+03  0.67928192349E+03  0.50400001928E-02 0.  1.
    10030    2    1    2    0    0  0.00000000000E+00  0.00000000000E+00  0.23357564801E+04  0.36943203271E+04  0.28622096961E+04 0.  0.
        5    1    3    3  502    0 -0.17475516121E+03 -0.12883019870E+04  0.19399180342E+04  0.23352870157E+04  0.46999998093E+01 0.  1.
       -5    1    3    3    0  502  0.17475516121E+03  0.12883019870E+04  0.39583844585E+03  0.13590333114E+04  0.46999998093E+01 0. -1.
</event>
<event>
 5   0  0.4187518E-06  0.2838819E+04  0.7818609E-02  0.8291317E-01
        2   -1    0    0  501    0  0.00000000000E+00  0.00000000000E+00  0.25558817527E+04  0.25558817527E+04  0.25500000920E-02 0. -1.
       -2   -1    0    0    0  501  0.00000000000E+00  0.00000000000E+00 -0.78826945348E+03  0.78826945348E+03  0.25500000920E-02 0.  1.
    10030    2    1    2    0    0  0.00000000000E+00  0.00000000000E+00  0.17676122993E+04  0.33441512062E+04  0.28388191294E+04 0.  0.
        3    1    3    3  502    0  0.12224491293E+04 -0.26349476413E+03  0.92773979950E+02  0.12539610784E+04  0.10100000352E+00 0. -1.
       -3    1    3    3    0  502 -0.12224491293E+04  0.26349476413E+03  0.16748383193E+04  0.20901901278E+04  0.10100000352E+00 0.  1.
</event>
<event>
 5   0  0.4187518E-06  0.2910481E+04  0.7818609E-02  0.8269766E-01
       -2   -1    0    0    0  501  0.00000000000E+00  0.00000000000E+00  0.10932515691E+04  0.10932515691E+04  0.25500000920E-02 0. -1.
        2   -1    0    0  501    0  0.00000000000E+00  0.00000000000E+00 -0.19370879100E+04  0.19370879100E+04  0.25500000920E-02 0.  1.
    10030    2    1    2    0    0  0.00000000000E+00  0.00000000000E+00 -0.84383634096E+03  0.30303394791E+04  0.29104806456E+04 0.  0.
        3    1    3    3  502    0  0.36008110256E+03 -0.25399564764E+03 -0.18659559518E+04  0.19172803169E+04  0.10100000352E+00 0.  1.
       -3    1    3    3    0  502 -0.36008110256E+03  0.25399564764E+03  0.10221196108E+04  0.11130591622E+04  0.10100000352E+00 0. -1.
</event>
<event>
 5   0  0.1550278E-06  0.2899640E+04  0.7818609E-02  0.8272985E-01
       -1   -1    0    0    0  501  0.00000000000E+00  0.00000000000E+00  0.10054641573E+04  0.10054641573E+04  0.50400001928E-02 0. -1.
        1   -1    0    0  501    0  0.00000000000E+00  0.00000000000E+00 -0.20905547233E+04  0.20905547233E+04  0.50400001928E-02 0.  1.
    10030    2    1    2    0    0  0.00000000000E+00  0.00000000000E+00 -0.10850905661E+04  0.30960188806E+04  0.28996398694E+04 0.  0.
        2    1    3    3  502    0  0.34058775815E+03 -0.77563427474E+03 -0.17988225957E+04  0.19883086480E+04  0.25500000920E-02 0.  1.
       -2    1    3    3    0  502 -0.34058775815E+03  0.77563427474E+03  0.71373202963E+03  0.11077102325E+04  0.25500000920E-02 0. -1.
</event>
<event>
 5   0  0.1511126E-06  0.2896258E+04  0.7818609E-02  0.8273992E-01
        1   -1    0    0  501    0  0.00000000000E+00  0.00000000000E+00  0.20677453971E+04  0.20677453971E+04  0.50400001928E-02 0. -1.
       -1   -1    0    0    0  501  0.00000000000E+00  0.00000000000E+00 -0.10141857990E+04  0.10141857991E+04  0.50400001928E-02 0.  1.
    10030    2    1    2    0    0  0.00000000000E+00  0.00000000000E+00  0.10535595981E+04  0.30819311962E+04  0.28962582881E+04 0.  0.
        5    1    3    3  502    0 -0.77667739687E+03 -0.12077465088E+04  0.32720206727E+03  0.14727398586E+04  0.46999998093E+01 0.  1.
       -5    1    3    3    0  502  0.77667739687E+03  0.12077465088E+04  0.72635753082E+03  0.16091913376E+04  0.46999998093E+01 0. -1.
</event>
<event>
 5   0  0.1602873E-06  0.2883655E+04  0.7818609E-02  0.8277757E-01
       -1   -1    0    0    0  501  0.00000000000E+00  0.00000000000E+00  0.85764280475E+03  0.85764280476E+03  0.50400001928E-02 0. -1.
        1   -1    0    0  501    0  0.00000000000E+00  0.00000000000E+00 -0.24239309788E+04  0.24239309788E+04  0.50400001928E-02 0.  1.
    10030    2    1    2    0    0  0.00000000000E+00  0.00000000000E+00 -0.15662881740E+04  0.32815737836E+04  0.28836552937E+04 0.  0.
        1    1    3    3  502    0 -0.59924331525E+03  0.40801080612E+02 -0.22747849489E+04  0.23527438965E+04  0.50400001928E-02 0.  1.
       -1    1    3    3    0  502  0.59924331525E+03 -0.40801080612E+02  0.70849677483E+03  0.92882988702E+03  0.50400001928E-02 0. -1.
</event>
<event>
 5   0  0.4148677E-06  0.2892983E+04  0.7818609E-02  0.8274968E-01
        2   -1    0    0  501    0  0.00000000000E+00  0.00000000000E+00  0.11475664547E+04  0.11475664547E+04  0.25500000920E-02 0. -1.
       -2   -1    0    0    0  501  0.00000000000E+00  0.00000000000E+00 -0.18232827542E+04  0.18232827542E+04  0.25500000920E-02 0.  1.
    10030    2    1    2    0    0  0.00000000000E+00  0.00000000000E+00 -0.67571629952E+03  0.29708492088E+04  0.28929833225E+04 0.  0.
        5    1    3    3  502    0 -0.22279406833E+03  0.70249929264E+03 -0.16160166724E+04  0.17761403178E+04  0.46999998093E+01 0.  1.
       -5    1    3    3    0  502  0.22279406833E+03 -0.70249929264E+03  0.94030037288E+03  0.11947088910E+04  0.46999998093E+01 0. -1.
</event>
<event>
 5   0  0.4187518E-06  0.2924357E+04  0.7818609E-02  0.8265667E-01
       -2   -1    0    0    0  501  0.00000000000E+00  0.00000000000E+00  0.85487419208E+03  0.85487419208E+03  0.25500000920E-02 0.  1.
        2   -1    0    0  501    0  0.00000000000E+00  0.00000000000E+00 -0.25009127620E+04  0.25009127620E+04  0.25500000920E-02 0. -1.
    10030    2    1    2    0    0  0.00000000000E+00  0.00000000000E+00 -0.16460385699E+04  0.33557869541E+04  0.29243568708E+04 0.  0.
        3    1    3    3  502    0 -0.54075450207E+03 -0.11376194227E+04 -0.16751113410E+04  0.20958509960E+04  0.10100000352E+00 0. -1.
       -3    1    3    3    0  502  0.54075450207E+03  0.11376194227E+04  0.29072771071E+02  0.12599359581E+04  0.10100000352E+00 0.  1.
</event>
<event>
 5   0  0.4224163E-06  0.2861285E+04  0.7818609E-02  0.8284490E-01
        2   -1    0    0  501    0  0.00000000000E+00  0.00000000000E+00  0.23764422222E+04  0.23764422222E+04  0.25500000920E-02 0. -1.
       -2   -1    0    0    0  501  0.00000000000E+00  0.00000000000E+00 -0.86126151082E+03  0.86126151082E+03  0.25500000920E-02 0.  1.
    10030    2    1    2    0    0  0.00000000000E+00  0.00000000000E+00  0.15151807113E+04  0.32377037330E+04  0.28612851788E+04 0.  0.
        4    1    3    3  502    0  0.11556062329E+04 -0.23407047031E+03 -0.15926442690E+03  0.11897821318E+04  0.12699999809E+01 0.  1.
       -4    1    3    3    0  502 -0.11556062329E+04  0.23407047031E+03  0.16744451382E+04  0.20479216012E+04  0.12699999809E+01 0. -1.
</event>
<event>
 5   0  0.4187518E-06  0.2920094E+04  0.7818609E-02  0.8266924E-01
       -2   -1    0    0    0  501  0.00000000000E+00  0.00000000000E+00  0.10673319305E+04  0.10673319305E+04  0.25500000920E-02 0.  1.
        2   -1    0    0  501    0  0.00000000000E+00  0.00000000000E+00 -0.19972576424E+04  0.19972576424E+04  0.25500000920E-02 0. -1.
    10030    2    1    2    0    0  0.00000000000E+00  0.00000000000E+00 -0.92992571185E+03  0.30645895729E+04  0.29200937350E+04 0.  0.
        3    1    3    3  502    0 -0.53836025589E+03 -0.62167406622E+03 -0.17310705748E+04  0.19164852608E+04  0.10100000352E+00 0. -1.
       -3    1    3    3    0  502  0.53836025589E+03  0.62167406622E+03  0.80114486300E+03  0.11481043121E+04  0.10100000352E+00 0.  1.
</event>
<event>
 5   0  0.1511126E-06  0.2901232E+04  0.7818609E-02  0.8272511E-01
        1   -1    0    0  501    0  0.00000000000E+00  0.00000000000E+00  0.13790720160E+04  0.13790720160E+04  0.50400001928E-02 0. -1.
       -1   -1    0    0    0  501  0.00000000000E+00  0.00000000000E+00 -0.15258720856E+04  0.15258720856E+04  0.50400001928E-02 0.  1.
    10030    2    1    2    0    0  0.00000000000E+00  0.00000000000E+00 -0.14680006960E+03  0.29049441017E+04  0.29012324921E+04 0.  0.
        5    1    3    3  502    0 -0.25391397192E+03  0.51659456010E+03  0.12598150035E+04  0.13850986166E+04  0.46999998093E+01 0. -1.
       -5    1    3    3    0  502  0.25391397192E+03 -0.51659456010E+03 -0.14066150731E+04  0.15198454851E+04  0.46999998093E+01 0.  1.
</event>
<event>
 5   0  0.1580212E-06  0.2559597E+04  0.7818609E-02  0.8382056E-01
        1   -1    0    0  501    0  0.00000000000E+00  0.00000000000E+00  0.75749483507E+03  0.75749483509E+03  0.50400001928E-02 0.  1.
       -1   -1    0    0    0  501  0.00000000000E+00  0.00000000000E+00 -0.21622379233E+04  0.21622379233E+04  0.50400001928E-02 0. -1.
    10030    2    1    2    0    0  0.00000000000E+00  0.00000000000E+00 -0.14047430883E+04  0.29197327584E+04  0.25595968895E+04 0.  0.
        4    1    3    3  502    0 -0.10454986227E+04  0.81274097051E+02 -0.15392208258E+04  0.18624916678E+04  0.12699999809E+01 0. -1.
       -4    1    3    3    0  502  0.10454986227E+04 -0.81274097051E+02  0.13447773756E+03  0.10572410907E+04  0.12699999809E+01 0.  1.
</event>
<event>
 5   0  0.1511126E-06  0.2899562E+04  0.7818609E-02  0.8273008E-01
        1   -1    0    0  501    0  0.00000000000E+00  0.00000000000E+00  0.21464659532E+04  0.21464659532E+04  0.50400001928E-02 0. -1.
       -1   -1    0    0    0  501  0.00000000000E+00  0.00000000000E+00 -0.97922115387E+03  0.97922115389E+03  0.50400001928E-02 0.  1.
    10030    2    1    2    0    0  0.00000000000E+00  0.00000000000E+00  0.11672447993E+04  0.31256871071E+04  0.28995619445E+04 0.  0.
        5    1    3    3  502    0  0.25639552984E+03 -0.13970497055E+04  0.89671419826E+03  0.16797633735E+04  0.46999998093E+01 0. -1.
       -5    1    3    3    0  502 -0.25639552984E+03  0.13970497055E+04  0.27053060108E+03  0.14459237337E+04  0.46999998093E+01 0.  1.
</event>
<event>
 5   0  0.1580212E-06  0.2917799E+04  0.7818609E-02  0.8267601E-01
        1   -1    0    0  501    0  0.00000000000E+00  0.00000000000E+00  0.12085026132E+04  0.12085026133E+04  0.50400001928E-02 0.  1.
       -1   -1    0    0    0  501  0.00000000000E+00  0.00000000000E+00 -0.17611776111E+04  0.17611776111E+04  0.50400001928E-02 0. -1.
    10030    2    1    2    0    0  0.00000000000E+00  0.00000000000E+00 -0.55267499780E+03  0.29696802243E+04  0.29177989961E+04 0.  0.
        4    1    3    3  502    0  0.46322355488E+03  0.37365122003E+01  0.11316608647E+04  0.12228033157E+04  0.12699999809E+01 0.  1.
       -4    1    3    3    0  502 -0.46322355488E+03 -0.37365122003E+01 -0.16843358625E+04  0.17468769086E+04  0.12699999809E+01 0. -1.
</event>
<event>
 5   0  0.4187518E-06  0.3030048E+04  0.7818609E-02  0.8235202E-01
       -2   -1    0    0    0  501  0.00000000000E+00  0.00000000000E+00  0.23365371380E+04  0.23365371380E+04  0.25500000920E-02 0.  1.
        2   -1    0    0  501    0  0.00000000000E+00  0.00000000000E+00 -0.98235022818E+03  0.98235022818E+03  0.25500000920E-02 0. -1.
    10030    2    1    2    0    0  0.00000000000E+00  0.00000000000E+00  0.13541869098E+04  0.33188873662E+04  0.30300480463E+04 0.  0.
        3    1    3    3  502    0 -0.95831915718E+03  0.20668117314E+03 -0.58809229471E+03  0.11432170711E+04  0.10100000352E+00 0. -1.
       -3    1    3    3    0  502  0.95831915718E+03 -0.20668117314E+03  0.19422792045E+04  0.21756702951E+04  0.10100000352E+00 0.  1.
</event>
<event>
 5   0  0.1543678E-06  0.2913105E+04  0.7818609E-02  0.8268989E-01
        1   -1    0    0  501    0  0.00000000000E+00  0.00000000000E+00  0.18252444076E+04  0.18252444076E+04  0.50400001928E-02 0. -1.
       -1   -1    0    0    0  501  0.00000000000E+00  0.00000000000E+00 -0.11623350251E+04  0.11623350251E+04  0.50400001928E-02 0.  1.
    10030    2    1    2    0    0  0.00000000000E+00  0.00000000000E+00  0.66290938253E+03  0.29875794327E+04  0.29131052191E+04 0.  0.
        3    1    3    3  502    0 -0.70784938034E+03  0.30049854284E+03 -0.93718043519E+03  0.12122942291E+04  0.10100000352E+00 0.  1.
       -3    1    3    3    0  502  0.70784938034E+03 -0.30049854284E+03  0.16000898177E+04  0.17752852037E+04  0.10100000352E+00 0. -1.
</event>
<event>
 5   0  0.1360125E-06  0.2899551E+04  0.7818609E-02  0.8273011E-01
       -4   -1    0    0    0  501  0.00000000000E+00  0.00000000000E+00  0.24963575698E+04  0.24963578928E+04  0.12699999809E+01 0.  1.
        4   -1    0    0  501    0  0.00000000000E+00  0.00000000000E+00 -0.84196551688E+03  0.84196647470E+03  0.12699999809E+01 0. -1.
    10030    2    1    2    0    0  0.00000000000E+00  0.00000000000E+00  0.16543920529E+04  0.33383243675E+04  0.28995510891E+04 0.  0.
        5    1    3    3  502    0 -0.12362665791E+04  0.32833523995E+03  0.16128583802E+04  0.20585172647E+04  0.46999998093E+01 0.  1.
       -5    1    3    3    0  502  0.12362665791E+04 -0.32833523995E+03  0.41533672711E+02  0.12798071028E+04  0.46999998093E+01 0. -1.
</event>
<event>
 5   0  0.4187518E-06  0.3073757E+04  0.7818609E-02  0.8222977E-01
       -2   -1    0    0    0  501  0.00000000000E+00  0.00000000000E+00  0.13024778270E+04  0.13024778270E+04  0.25500000920E-02 0. -1.
        2   -1    0    0  501    0  0.00000000000E+00  0.00000000000E+00 -0.18134635727E+04  0.18134635727E+04  0.25500000920E-02 0.  1.
    10030    2    1    2    0    0  0.00000000000E+00  0.00000000000E+00 -0.51098574572E+03  0.31159413996E+04  0.30737573706E+04 0.  0.
        3    1    3    3  502    0  0.58996174442E+02 -0.15263494431E+04 -0.83539139851E+02  0.15297718683E+04  0.10100000352E+00 0.  1.
       -3    1    3    3    0  502 -0.58996174442E+02  0.15263494431E+04 -0.42744660587E+03  0.15861695313E+04  0.10100000352E+00 0. -1.
</event>
<event>
 5   0  0.1543678E-06  0.2908131E+04  0.7818609E-02  0.8270462E-01
        1   -1    0    0  501    0  0.00000000000E+00  0.00000000000E+00  0.24290320075E+04  0.24290320075E+04  0.50400001928E-02 0.  1.
       -1   -1    0    0    0  501  0.00000000000E+00  0.00000000000E+00 -0.87043190067E+03  0.87043190068E+03  0.50400001928E-02 0. -1.
    10030    2    1    2    0    0  0.00000000000E+00  0.00000000000E+00  0.15586001069E+04  0.32994639082E+04  0.29081313224E+04 0.  0.
        3    1    3    3  502    0  0.58048512457E+03  0.11903683802E+04  0.98214103500E+02  0.13280007081E+04  0.10100000352E+00 0. -1.
       -3    1    3    3    0  502 -0.58048512457E+03 -0.11903683802E+04  0.14603860034E+04  0.19714632001E+04  0.10100000352E+00 0.  1.
</event>
<event>
 5   0  0.4224163E-06  0.2912711E+04  0.7818609E-02  0.8269105E-01
        2   -1    0    0  501    0  0.00000000000E+00  0.00000000000E+00  0.20945218087E+04  0.20945218087E+04  0.25500000920E-02 0.  1.
       -2   -1    0    0    0  501  0.00000000000E+00  0.00000000000E+00 -0.10126282267E+04  0.10126282267E+04  0.25500000920E-02 0. -1.
    10030    2    1    2    0    0  0.00000000000E+00  0.00000000000E+00  0.10818935820E+04  0.31071500355E+04  0.29127113863E+04 0.  0.
        4    1    3    3  502    0  0.65117392398E+02 -0.82075323025E+03  0.18224275934E+04  0.19997800094E+04  0.12699999809E+01 0.  1.
       -4    1    3    3    0  502 -0.65117392398E+02  0.82075323025E+03 -0.74053401140E+03  0.11073700261E+04  0.12699999809E+01 0. -1.
</event>
<event>
 5   0  0.1550278E-06  0.2892437E+04  0.7818609E-02  0.8275131E-01
        1   -1    0    0  501    0  0.00000000000E+00  0.00000000000E+00  0.15505731075E+04  0.15505731075E+04  0.50400001928E-02 0. -1.
       -1   -1    0    0    0  501  0.00000000000E+00  0.00000000000E+00 -0.13488874800E+04  0.13488874800E+04  0.50400001928E-02 0.  1.
    10030    2    1    2    0    0  0.00000000000E+00  0.00000000000E+00  0.20168562748E+03  0.28994605875E+04  0.28924374853E+04 0.  0.
        2    1    3    3  502    0 -0.38105670242E+03 -0.11860289710E+04 -0.63556990082E+03  0.13985056415E+04  0.25500000920E-02 0.  1.
       -2    1    3    3    0  502  0.38105670242E+03  0.11860289710E+04  0.83725552830E+03  0.15009549461E+04  0.25500000920E-02 0. -1.
</event>
<event>
 5   0  0.1550278E-06  0.2872096E+04  0.7818609E-02  0.8281229E-01
       -1   -1    0    0    0  501  0.00000000000E+00  0.00000000000E+00  0.10234585145E+04  0.10234585145E+04  0.50400001928E-02 0. -1.
        1   -1    0    0  501    0  0.00000000000E+00  0.00000000000E+00 -0.20149653493E+04  0.20149653493E+04  0.50400001928E-02 0.  1.
    10030    2    1    2    0    0  0.00000000000E+00  0.00000000000E+00 -0.99150683479E+03  0.30384238639E+04  0.28720957110E+04 0.  0.
        2    1    3    3  502    0 -0.96237444169E+03 -0.77689516794E+03  0.27623429486E+03  0.12672947777E+04  0.25500000920E-02 0.  1.
       -2    1    3    3    0  502  0.96237444169E+03  0.77689516794E+03 -0.12677411296E+04  0.17711290861E+04  0.25500000920E-02 0. -1.
</event>
<event>
 5   0  0.1580212E-06  0.2868405E+04  0.7818609E-02  0.8282340E-01
        1   -1    0    0  501    0  0.00000000000E+00  0.00000000000E+00  0.17799488069E+04  0.17799488069E+04  0.50400001928E-02 0. -1.
       -1   -1    0    0    0  501  0.00000000000E+00  0.00000000000E+00 -0.11556157482E+04  0.11556157482E+04  0.50400001928E-02 0.  1.
    10030    2    1    2    0    0  0.00000000000E+00  0.00000000000E+00  0.62433305870E+03  0.29355645551E+04  0.28684050427E+04 0.  0.
        4    1    3    3  502    0 -0.41040570284E+03  0.10119137662E+03 -0.10904189153E+04  0.11694817482E+04  0.12699999809E+01 0.  1.
       -4    1    3    3    0  502  0.41040570284E+03 -0.10119137662E+03  0.17147519740E+04  0.17660828069E+04  0.12699999809E+01 0. -1.
</event>
<event>
 5   0  0.1543678E-06  0.2906098E+04  0.7818609E-02  0.8271065E-01
       -1   -1    0    0    0  501  0.00000000000E+00  0.00000000000E+00  0.67486175348E+03  0.67486175350E+03  0.50400001928E-02 0.  1.
        1   -1    0    0  501    0  0.00000000000E+00  0.00000000000E+00 -0.31285689285E+04  0.31285689285E+04  0.50400001928E-02 0. -1.
    10030    2    1    2    0    0  0.00000000000E+00  0.00000000000E+00 -0.24537071751E+04  0.38034306820E+04  0.29060980803E+04 0.  0.
        3    1    3    3  502    0  0.70362784475E+00 -0.28616736436E+03 -0.30913236118E+04  0.31045408580E+04  0.10100000352E+00 0. -1.
       -3    1    3    3    0  502 -0.70362784475E+00  0.28616736436E+03  0.63761643678E+03  0.69888982406E+03  0.10100000352E+00 0.  1.
</event>
<event>
 5   0  0.1511126E-06  0.2860935E+04  0.7818609E-02  0.8284596E-01
       -1   -1    0    0    0  501  0.00000000000E+00  0.00000000000E+00  0.81961231642E+03  0.81961231644E+03  0.50400001928E-02 0.  1.
        1   -1    0    0  501    0  0.00000000000E+00  0.00000000000E+00 -0.24965921889E+04  0.24965921889E+04  0.50400001928E-02 0. -1.
    10030    2    1    2    0    0  0.00000000000E+00  0.00000000000E+00 -0.16769798725E+04  0.33162045054E+04  0.28609353066E+04 0.  0.
        5    1    3    3  502    0  0.16571871505E+03 -0.14194567531E+04 -0.76614433569E+03  0.16215176223E+04  0.46999998093E+01 0.  1.
       -5    1    3    3    0  502 -0.16571871505E+03  0.14194567531E+04 -0.91083553681E+03  0.16946868830E+04  0.46999998093E+01 0. -1.
</event>
<event>
 5   0  0.4187518E-06  0.2899840E+04  0.7818609E-02  0.8272925E-01
       -2   -1    0    0    0  501  0.00000000000E+00  0.00000000000E+00  0.81939596641E+03  0.81939596641E+03  0.25500000920E-02 0.  1.
        2   -1    0    0  501    0  0.00000000000E+00  0.00000000000E+00 -0.25656317000E+04  0.25656317000E+04  0.25500000920E-02 0. -1.
    10030    2    1    2    0    0  0.00000000000E+00  0.00000000000E+00 -0.17462357336E+04  0.33850276664E+04  0.28998401792E+04 0.  0.
        3    1    3    3  502    0  0.10216641643E+04 -0.27802524399E+03  0.28315638703E+03  0.10960261176E+04  0.10100000352E+00 0.  1.
       -3    1    3    3    0  502 -0.10216641643E+04  0.27802524399E+03 -0.20293921206E+04  0.22890015487E+04  0.10100000352E+00 0. -1.
</event>
<event>
 5   0  0.1602873E-06  0.2899718E+04  0.7818609E-02  0.8272961E-01
        1   -1    0    0  501    0  0.00000000000E+00  0.00000000000E+00  0.14848143514E+04  0.14848143514E+04  0.50400001928E-02 0.  1.
       -1   -1    0    0    0  501  0.00000000000E+00  0.00000000000E+00 -0.14157266066E+04  0.14157266066E+04  0.50400001928E-02 0. -1.
    10030    2    1    2    0    0  0.00000000000E+00  0.00000000000E+00  0.69087744719E+02  0.29005409580E+04  0.28997180436E+04 0.  0.
        1    1    3    3  502    0  0.18250310421E+03 -0.13309512486E+04 -0.51091132280E+03  0.14372783269E+04  0.50400001928E-02 0.  1.
       -1    1    3    3    0  502 -0.18250310421E+03  0.13309512486E+04  0.57999906751E+03  0.14632626311E+04  0.50400001928E-02 0. -1.
</event>
<event>
 5   0  0.4115143E-06  0.2906579E+04  0.7818609E-02  0.8270923E-01
       -2   -1    0    0    0  501  0.00000000000E+00  0.00000000000E+00  0.28272656218E+04  0.28272656218E+04  0.25500000920E-02 0.  1.
        2   -1    0    0  501    0  0.00000000000E+00  0.00000000000E+00 -0.74702927692E+03  0.74702927692E+03  0.25500000920E-02 0. -1.
    10030    2    1    2    0    0  0.00000000000E+00  0.00000000000E+00  0.20802363449E+04  0.35742948987E+04  0.29065788777E+04 0.  0.
        1    1    3    3  502    0  0.44011861283E+03 -0.41966212613E+03 -0.58304039946E+03  0.84247065283E+03  0.50400001928E-02 0. -1.
       -1    1    3    3    0  502 -0.44011861283E+03  0.41966212613E+03  0.26632767444E+04  0.27318242459E+04  0.50400001928E-02 0.  1.
</event>
<event>
 5   0  0.1543678E-06  0.2902732E+04  0.7818609E-02  0.8272065E-01
        1   -1    0    0  501    0  0.00000000000E+00  0.00000000000E+00  0.17194406132E+04  0.17194406132E+04  0.50400001928E-02 0.  1.
       -1   -1    0    0    0  501  0.00000000000E+00  0.00000000000E+00 -0.12250862011E+04  0.12250862011E+04  0.50400001928E-02 0. -1.
    10030    2    1    2    0    0  0.00000000000E+00  0.00000000000E+00  0.49435441212E+03  0.29445268144E+04  0.29027317954E+04 0.  0.
        3    1    3    3  502    0  0.10968274396E+04 -0.46325427288E+03  0.10890839752E+04  0.16136105071E+04  0.10100000352E+00 0.  1.
       -3    1    3    3    0  502 -0.10968274396E+04  0.46325427288E+03 -0.59472956306E+03  0.13309163072E+04  0.10100000352E+00 0. -1.
</event>
<event>
 5   0  0.1550278E-06  0.2890340E+04  0.7818609E-02  0.8275758E-01
       -1   -1    0    0    0  501  0.00000000000E+00  0.00000000000E+00  0.14986062254E+04  0.14986062255E+04  0.50400001928E-02 0.  1.
        1   -1    0    0  501    0  0.00000000000E+00  0.00000000000E+00 -0.13936387575E+04  0.13936387575E+04  0.50400001928E-02 0. -1.
    10030    2    1    2    0    0  0.00000000000E+00  0.00000000000E+00  0.10496746799E+03  0.28922449829E+04  0.28903395773E+04 0.  0.
        2    1    3    3  502    0  0.18475201326E+03 -0.94462750818E+03 -0.10262163747E+04  0.14069735190E+04  0.25500000920E-02 0. -1.
       -2    1    3    3    0  502 -0.18475201326E+03  0.94462750818E+03  0.11311838426E+04  0.14852714639E+04  0.25500000920E-02 0.  1.
</event>
<event>
 5   0  0.1360125E-06  0.2904439E+04  0.7818609E-02  0.8271558E-01
        3   -1    0    0  501    0  0.00000000000E+00  0.00000000000E+00  0.21213264616E+04  0.21213264640E+04  0.10100000352E+00 0.  1.
       -3   -1    0    0    0  501  0.00000000000E+00  0.00000000000E+00 -0.99416182895E+03  0.99416183408E+03  0.10100000352E+00 0. -1.
    10030    2    1    2    0    0  0.00000000000E+00  0.00000000000E+00  0.11271646326E+04  0.31154882981E+04  0.29044392275E+04 0.  0.
        2    1    3    3  502    0 -0.48529124268E+03 -0.80004648818E+03 -0.62768364038E+03  0.11267514038E+04  0.25500000920E-02 0. -1.
       -2    1    3    3    0  502  0.48529124268E+03  0.80004648818E+03  0.17548482730E+04  0.19887368943E+04  0.25500000920E-02 0.  1.
</event>
<event>
 5   0  0.4148677E-06  0.2886823E+04  0.7818609E-02  0.8276809E-01
        2   -1    0    0  501    0  0.00000000000E+00  0.00000000000E+00  0.21009950085E+04  0.21009950085E+04  0.25500000920E-02 0.  1.
       -2   -1    0    0    0  501  0.00000000000E+00  0.00000000000E+00 -0.99164260334E+03  0.99164260335E+03  0.25500000920E-02 0. -1.
    10030    2    1    2    0    0  0.00000000000E+00  0.00000000000E+00  0.11093524051E+04  0.30926376118E+04  0.28868225853E+04 0.  0.
        5    1    3    3  502    0  0.98110127914E+03 -0.49915392342E+03  0.15548889607E+04  0.19051026559E+04  0.46999998093E+01 0.  1.
       -5    1    3    3    0  502 -0.98110127914E+03  0.49915392342E+03 -0.44553655561E+03  0.11875349559E+04  0.46999998093E+01 0. -1.
</event>
<event>
 5   0  0.4148677E-06  0.2904559E+04  0.7818609E-02  0.8271522E-01
        2   -1    0    0  501    0  0.00000000000E+00  0.00000000000E+00  0.20517068009E+04  0.20517068009E+04  0.25500000920E-02 0. -1.
       -2   -1    0    0    0  501  0.00000000000E+00  0.00000000000E+00 -0.10279808610E+04  0.10279808610E+04  0.25500000920E-02 0.  1.
    10030    2    1    2    0    0  0.00000000000E+00  0.00000000000E+00  0.10237259399E+04  0.30796876619E+04  0.29045587092E+04 0.  0.
        5    1    3    3  502    0 -0.80487373511E+02  0.13440056020E+04  0.10889827034E+04  0.17316855066E+04  0.46999998093E+01 0.  1.
       -5    1    3    3    0  502  0.80487373511E+02 -0.13440056020E+04 -0.65256763506E+02  0.13480021553E+04  0.46999998093E+01 0. -1.
</event>
<event>
 5   0  0.4148677E-06  0.2873933E+04  0.7818609E-02  0.8280676E-01
       -2   -1    0    0    0  501  0.00000000000E+00  0.00000000000E+00  0.15109154423E+04  0.15109154423E+04  0.25500000920E-02 0. -1.
        2   -1    0    0  501    0  0.00000000000E+00  0.00000000000E+00 -0.13666371012E+04  0.13666371012E+04  0.25500000920E-02 0.  1.
    10030    2    1    2    0    0  0.00000000000E+00  0.00000000000E+00  0.14427834107E+03  0.28775525434E+04  0.28739332631E+04 0.  0.
        5    1    3    3  502    0  0.48355050414E+03 -0.32619715626E+03  0.13870429219E+04  0.15047045664E+04  0.46999998093E+01 0. -1.
       -5    1    3    3    0  502 -0.48355050414E+03  0.32619715626E+03 -0.12427645808E+04  0.13728479771E+04  0.46999998093E+01 0.  1.
</event>
<event>
 5   0  0.1580212E-06  0.3001354E+04  0.7818609E-02  0.8243344E-01
       -1   -1    0    0    0  501  0.00000000000E+00  0.00000000000E+00  0.94970207807E+03  0.94970207808E+03  0.50400001928E-02 0. -1.
        1   -1    0    0  501    0  0.00000000000E+00  0.00000000000E+00 -0.23713037289E+04  0.23713037289E+04  0.50400001928E-02 0.  1.
    10030    2    1    2    0    0  0.00000000000E+00  0.00000000000E+00 -0.14216016508E+04  0.33210058070E+04  0.30013544137E+04 0.  0.
        4    1    3    3  502    0 -0.36911257155E+03 -0.12709379362E+04 -0.14936097269E+04  0.19955948881E+04  0.12699999809E+01 0.  1.
       -4    1    3    3    0  502  0.36911257155E+03  0.12709379362E+04  0.72008076105E+02  0.13254109189E+04  0.12699999809E+01 0. -1.
</event>
<event>
 5   0  0.4162450E-06  0.2944204E+04  0.7818609E-02  0.8259846E-01
        2   -1    0    0  501    0  0.00000000000E+00  0.00000000000E+00  0.16314604048E+04  0.16314604049E+04  0.25500000920E-02 0. -1.
       -2   -1    0    0    0  501  0.00000000000E+00  0.00000000000E+00 -0.13283091197E+04  0.13283091197E+04  0.25500000920E-02 0.  1.
    10030    2    1    2    0    0  0.00000000000E+00  0.00000000000E+00  0.30315128519E+03  0.29597695245E+04  0.29442036167E+04 0.  0.
        2    1    3    3  502    0 -0.21291477679E+03 -0.76950628126E+03 -0.10917376237E+04  0.13525397067E+04  0.25500000920E-02 0.  1.
       -2    1    3    3    0  502  0.21291477679E+03  0.76950628126E+03  0.13948889089E+04  0.16072298178E+04  0.25500000920E-02 0. -1.
</event>
<event>
 5   0  0.4187518E-06  0.2911648E+04  0.7818609E-02  0.8269420E-01
        2   -1    0    0  501    0  0.00000000000E+00  0.00000000000E+00  0.20437237397E+04  0.20437237397E+04  0.25500000920E-02 0.  1.
       -2   -1    0    0    0  501  0.00000000000E+00  0.00000000000E+00 -0.10370399003E+04  0.10370399003E+04  0.25500000920E-02 0. -1.
    10030    2    1    2    0    0  0.00000000000E+00  0.00000000000E+00  0.10066838394E+04  0.30807636399E+04  0.29116476869E+04 0.  0.
        3    1    3    3  502    0 -0.76993246996E+03 -0.96467933981E+03 -0.31352304618E+03  0.12734594409E+04  0.10100000352E+00 0. -1.
       -3    1    3    3    0  502  0.76993246996E+03  0.96467933981E+03  0.13202068856E+04  0.18073041990E+04  0.10100000352E+00 0.  1.
</event>
<event>
 5   0  0.1543678E-06  0.2890401E+04  0.7818609E-02  0.8275739E-01
        1   -1    0    0  501    0  0.00000000000E+00  0.00000000000E+00  0.16772029775E+04  0.16772029775E+04  0.50400001928E-02 0. -1.
       -1   -1    0    0    0  501  0.00000000000E+00  0.00000000000E+00 -0.12452898174E+04  0.12452898174E+04  0.50400001928E-02 0.  1.
    10030    2    1    2    0    0  0.00000000000E+00  0.00000000000E+00  0.43191316015E+03  0.29224927949E+04  0.28904005187E+04 0.  0.
        3    1    3    3  502    0 -0.52989086586E+03  0.16616951873E+03  0.15650147985E+04  0.16606227652E+04  0.10100000352E+00 0. -1.
       -3    1    3    3    0  502  0.52989086586E+03 -0.16616951873E+03 -0.11331016384E+04  0.12618700296E+04  0.10100000352E+00 0.  1.
</event>
<event>
 5   0  0.4187518E-06  0.2901928E+04  0.7818609E-02  0.8272304E-01
       -2   -1    0    0    0  501  0.00000000000E+00  0.00000000000E+00  0.13783262005E+04  0.13783262005E+04  0.25500000920E-02 0. -1.
        2   -1    0    0  501    0  0.00000000000E+00  0.00000000000E+00 -0.15274302607E+04  0.15274302607E+04  0.25500000920E-02 0.  1.
    10030    2    1    2    0    0  0.00000000000E+00  0.00000000000E+00 -0.14910406022E+03  0.29057564612E+04  0.29019284262E+04 0.  0.
        3    1    3    3  502    0 -0.50435491846E+03 -0.24668638938E+03  0.12651475179E+04  0.13841337763E+04  0.10100000352E+00 0. -1.
       -3    1    3    3    0  502  0.50435491846E+03  0.24668638938E+03 -0.14142515782E+04  0.15216226848E+04  0.10100000352E+00 0.  1.
</event>
<event>
 5   0  0.1602873E-06  0.2836908E+04  0.7818609E-02  0.8291901E-01
        1   -1    0    0  501    0  0.00000000000E+00  0.00000000000E+00  0.17753980637E+04  0.17753980637E+04  0.50400001928E-02 0.  1.
       -1   -1    0    0    0  501  0.00000000000E+00  0.00000000000E+00 -0.11332737483E+04  0.11332737483E+04  0.50400001928E-02 0. -1.
    10030    2    1    2    0    0  0.00000000000E+00  0.00000000000E+00  0.64212431541E+03  0.29086718120E+04  0.28369081891E+04 0.  0.
        1    1    3    3  502    0 -0.10367848459E+04 -0.42885115521E+03  0.12108729019E+04  0.16507723388E+04  0.50400001928E-02 0.  1.
       -1    1    3    3    0  502  0.10367848459E+04  0.42885115521E+03 -0.56874858654E+03  0.12578994732E+04  0.50400001928E-02 0. -1.
</event>
<event>
 5   0  0.4148677E-06  0.2901211E+04  0.7818609E-02  0.8272517E-01
       -2   -1    0    0    0  501  0.00000000000E+00  0.00000000000E+00  0.11675417932E+04  0.11675417932E+04  0.25500000920E-02 0. -1.
        2   -1    0    0  501    0  0.00000000000E+00  0.00000000000E+00 -0.18022960201E+04  0.18022960201E+04  0.25500000920E-02 0.  1.
    10030    2    1    2    0    0  0.00000000000E+00  0.00000000000E+00 -0.63475422682E+03  0.29698378133E+04  0.29012107316E+04 0.  0.
        5    1    3    3  502    0  0.90352428137E+03 -0.87034201956E+03  0.42812356302E+03  0.13255803383E+04  0.46999998093E+01 0. -1.
       -5    1    3    3    0  502 -0.90352428137E+03  0.87034201956E+03 -0.10628777898E+04  0.16442574750E+04  0.46999998093E+01 0.  1.
</event>
<event>
 5   0  0.1543678E-06  0.2891025E+04  0.7818609E-02  0.8275553E-01
        1   -1    0    0  501    0  0.00000000000E+00  0.00000000000E+00  0.21399412323E+04  0.21399412323E+04  0.50400001928E-02 0.  1.
       -1   -1    0    0    0  501  0.00000000000E+00  0.00000000000E+00 -0.97643198216E+03  0.97643198217E+03  0.50400001928E-02 0. -1.
    10030    2    1    2    0    0  0.00000000000E+00  0.00000000000E+00  0.11635092501E+04  0.31163732144E+04  0.28910254645E+04 0.  0.
        3    1    3    3  502    0 -0.10210848703E+04 -0.10204106219E+04  0.50069399363E+03  0.15279223263E+04  0.10100000352E+00 0.  1.
       -3    1    3    3    0  502  0.10210848703E+04  0.10204106219E+04  0.66281525648E+03  0.15884508882E+04  0.10100000352E+00 0. -1.
</event>
<event>
 5   0  0.4162450E-06  0.2890769E+04  0.7818609E-02  0.8275629E-01
        2   -1    0    0  501    0  0.00000000000E+00  0.00000000000E+00  0.69436668403E+03  0.69436668403E+03  0.25500000920E-02 0. -1.
       -2   -1    0    0    0  501  0.00000000000E+00  0.00000000000E+00 -0.30086932102E+04  0.30086932102E+04  0.25500000920E-02 0.  1.
    10030    2    1    2    0    0  0.00000000000E+00  0.00000000000E+00 -0.23143265261E+04  0.37030598942E+04  0.28907689826E+04 0.  0.
        2    1    3    3  502    0 -0.12315720645E+04 -0.24648175010E+03 -0.24090422066E+03  0.12788893020E+04  0.25500000920E-02 0.  1.
       -2    1    3    3    0  502  0.12315720645E+04  0.24648175010E+03 -0.20734223055E+04  0.24241705922E+04  0.25500000920E-02 0. -1.
</event>
<event>
 5   0  0.1511126E-06  0.2875775E+04  0.7818609E-02  0.8280122E-01
        1   -1    0    0  501    0  0.00000000000E+00  0.00000000000E+00  0.14982332762E+04  0.14982332762E+04  0.50400001928E-02 0. -1.
       -1   -1    0    0    0  501  0.00000000000E+00  0.00000000000E+00 -0.13799720682E+04  0.13799720682E+04  0.50400001928E-02 0.  1.
    10030    2    1    2    0    0  0.00000000000E+00  0.00000000000E+00  0.11826120805E+03  0.28782053444E+04  0.28757747289E+04 0.  0.
        5    1    3    3  502    0 -0.66067519237E+03  0.12104576267E+04 -0.34839730013E+03  0.14223579523E+04  0.46999998093E+01 0.  1.
       -5    1    3    3    0  502  0.66067519237E+03 -0.12104576267E+04  0.46665850818E+03  0.14558473921E+04  0.46999998093E+01 0. -1.
</event>
<event>
 5   0  0.1550278E-06  0.2880804E+04  0.7818609E-02  0.8278612E-01
       -1   -1    0    0    0  501  0.00000000000E+00  0.00000000000E+00  0.22914868734E+04  0.22914868734E+04  0.50400001928E-02 0. -1.
        1   -1    0    0  501    0  0.00000000000E+00  0.00000000000E+00 -0.90541976889E+03  0.90541976890E+03  0.50400001928E-02 0.  1.
    10030    2    1    2    0    0  0.00000000000E+00  0.00000000000E+00  0.13860671045E+04  0.31969066423E+04  0.28808037179E+04 0.  0.
        2    1    3    3  502    0 -0.38149738951E+03  0.10058780703E+04 -0.36988978099E+03  0.11376068744E+04  0.25500000920E-02 0.  1.
       -2    1    3    3    0  502  0.38149738951E+03 -0.10058780703E+04  0.17559568855E+04  0.20592997679E+04  0.25500000920E-02 0. -1.
</event>
<event>
 5   0  0.1360125E-06  0.2898026E+04  0.7818609E-02  0.8273465E-01
        3   -1    0    0  501    0  0.00000000000E+00  0.00000000000E+00  0.13371642904E+04  0.13371642942E+04  0.10100000352E+00 0.  1.
       -3   -1    0    0    0  501  0.00000000000E+00  0.00000000000E+00 -0.15702178105E+04  0.15702178138E+04  0.10100000352E+00 0. -1.
    10030    2    1    2    0    0  0.00000000000E+00  0.00000000000E+00 -0.23305352009E+03  0.29073821080E+04  0.28980263592E+04 0.  0.
        4    1    3    3  502    0 -0.11296384214E+04 -0.89664163123E+03  0.23883649250E+02  0.14424358633E+04  0.12699999809E+01 0.  1.
       -4    1    3    3    0  502  0.11296384214E+04  0.89664163123E+03 -0.25693716934E+03  0.14649462447E+04  0.12699999809E+01 0. -1.
</event>
<event>
 5   0  0.4148677E-06  0.2859475E+04  0.7818609E-02  0.8285038E-01
       -2   -1    0    0    0  501  0.00000000000E+00  0.00000000000E+00  0.15939030781E+04  0.15939030781E+04  0.25500000920E-02 0.  1.
        2   -1    0    0  501    0  0.00000000000E+00  0.00000000000E+00 -0.12824800047E+04  0.12824800047E+04  0.25500000920E-02 0. -1.
    10030    2    1    2    0    0  0.00000000000E+00  0.00000000000E+00  0.31142307340E+03  0.28763830828E+04  0.28594746560E+04 0.  0.
        5    1    3    3  502    0  0.14029417707E+04  0.86413273081E+02  0.41881863050E+03  0.14666778791E+04  0.46999998093E+01 0.  1.
       -5    1    3    3    0  502 -0.14029417707E+04 -0.86413273081E+02 -0.10739555710E+03  0.14097052037E+04  0.46999998093E+01 0. -1.
</event>
<event>
 5   0  0.1360125E-06  0.2909462E+04  0.7818609E-02  0.8270068E-01
        3   -1    0    0  501    0  0.00000000000E+00  0.00000000000E+00  0.10139497309E+04  0.10139497360E+04  0.10100000352E+00 0.  1.
       -3   -1    0    0    0  501  0.00000000000E+00  0.00000000000E+00 -0.20871279765E+04  0.20871279789E+04  0.10100000352E+00 0. -1.
    10030    2    1    2    0    0  0.00000000000E+00  0.00000000000E+00 -0.10731782455E+04  0.31010777149E+04  0.29094623983E+04 0.  0.
        2    1    3    3  502    0 -0.71073929443E+02  0.91215996245E+03  0.66889524484E+03  0.11333614380E+04  0.25500000920E-02 0.  1.
       -2    1    3    3    0  502  0.71073929443E+02 -0.91215996245E+03 -0.17420734904E+04  0.19677162769E+04  0.25500000920E-02 0. -1.
</event>
<event>
 5   0  0.4115143E-06  0.2892163E+04  0.7818609E-02  0.8275213E-01
        2   -1    0    0  501    0  0.00000000000E+00  0.00000000000E+00  0.15913825197E+04  0.15913825197E+04  0.25500000920E-02 0. -1.
       -2   -1    0    0    0  501  0.00000000000E+00  0.00000000000E+00 -0.13140471090E+04  0.13140471090E+04  0.25500000920E-02 0.  1.
    10030    2    1    2    0    0  0.00000000000E+00  0.00000000000E+00  0.27733541065E+03  0.29054296287E+04  0.28921629272E+04 0.  0.
        1    1    3    3  502    0 -0.88320807977E+03  0.47505662486E+03 -0.90794444880E+03  0.13528113065E+04  0.50400001928E-02 0.  1.
       -1    1    3    3    0  502  0.88320807977E+03 -0.47505662486E+03  0.11852798594E+04  0.15526183221E+04  0.50400001928E-02 0. -1.
</event>
<event>
 5   0  0.4148677E-06  0.2880747E+04  0.7818609E-02  0.8278629E-01
        2   -1    0    0  501    0  0.00000000000E+00  0.00000000000E+00  0.23154511548E+04  0.23154511548E+04  0.25500000920E-02 0. -1.
       -2   -1    0    0    0  501  0.00000000000E+00  0.00000000000E+00 -0.89601342451E+03  0.89601342451E+03  0.25500000920E-02 0.  1.
    10030    2    1    2    0    0  0.00000000000E+00  0.00000000000E+00  0.14194377303E+04  0.32114645793E+04  0.28807466522E+04 0.  0.
        5    1    3    3  502    0 -0.11397326305E+04 -0.12871616353E+03 -0.26156485571E+03  0.11764338415E+04  0.46999998093E+01 0.  1.
       -5    1    3    3    0  502  0.11397326305E+04  0.12871616353E+03  0.16810025860E+04  0.20350307378E+04  0.46999998093E+01 0. -1.
</event>
<event>
 5   0  0.4148677E-06  0.2835437E+04  0.7818609E-02  0.8292350E-01
        2   -1    0    0  501    0  0.00000000000E+00  0.00000000000E+00  0.13129560942E+04  0.13129560942E+04  0.25500000920E-02 0. -1.
       -2   -1    0    0    0  501  0.00000000000E+00  0.00000000000E+00 -0.15308401505E+04  0.15308401505E+04  0.25500000920E-02 0.  1.
    10030    2    1    2    0    0  0.00000000000E+00  0.00000000000E+00 -0.21788405622E+03  0.28437962447E+04  0.28354371126E+04 0.  0.
        5    1    3    3  502    0  0.10012901844E+04 -0.14883718481E+03 -0.11044251156E+04  0.14981693719E+04  0.46999998093E+01 0.  1.
       -5    1    3    3    0  502 -0.10012901844E+04  0.14883718481E+03  0.88654105935E+03  0.13456268728E+04  0.46999998093E+01 0. -1.
</event>
<event>
 5   0  0.1511126E-06  0.2917179E+04  0.7818609E-02  0.8267785E-01
       -1   -1    0    0    0  501  0.00000000000E+00  0.00000000000E+00  0.11169643036E+04  0.11169643036E+04  0.50400001928E-02 0. -1.
        1   -1    0    0  501    0  0.00000000000E+00  0.00000000000E+00 -0.19047009656E+04  0.19047009656E+04  0.50400001928E-02 0.  1.
    10030    2    1    2    0    0  0.00000000000E+00  0.00000000000E+00 -0.78773666196E+03  0.30216652692E+04  0.29171787656E+04 0.  0.
        5    1    3    3  502    0 -0.11302435349E+04  0.75051842357E+03 -0.94852189021E+03  0.16554287114E+04  0.46999998093E+01 0.  1.
       -5    1    3    3    0  502  0.11302435349E+04 -0.75051842357E+03  0.16078522825E+03  0.13662365578E+04  0.46999998093E+01 0. -1.
</event>
<event>
 5   0  0.1360125E-06  0.2929970E+04  0.7818609E-02  0.8264016E-01
       -3   -1    0    0    0  501  0.00000000000E+00  0.00000000000E+00  0.15013266078E+04  0.15013266111E+04  0.10100000352E+00 0. -1.
        3   -1    0    0  501    0  0.00000000000E+00  0.00000000000E+00 -0.14295230887E+04  0.14295230922E+04  0.10100000352E+00 0.  1.
    10030    2    1    2    0    0  0.00000000000E+00  0.00000000000E+00  0.71803519075E+02  0.29308497034E+04  0.29299700064E+04 0.  0.
        2    1    3    3  502    0 -0.17513862922E+03  0.13314782173E+04 -0.54965701385E+03  0.14510791210E+04  0.25500000920E-02 0.  1.
       -2    1    3    3    0  502  0.17513862922E+03 -0.13314782173E+04  0.62146053293E+03  0.14797705824E+04  0.25500000920E-02 0. -1.
</event>
<event>
 5   0  0.4148677E-06  0.2890825E+04  0.7818609E-02  0.8275612E-01
       -2   -1    0    0    0  501  0.00000000000E+00  0.00000000000E+00  0.15633201222E+04  0.15633201222E+04  0.25500000920E-02 0. -1.
        2   -1    0    0  501    0  0.00000000000E+00  0.00000000000E+00 -0.13363980475E+04  0.13363980475E+04  0.25500000920E-02 0.  1.
    10030    2    1    2    0    0  0.00000000000E+00  0.00000000000E+00  0.22692207464E+03  0.28997181697E+04  0.28908254592E+04 0.  0.
        5    1    3    3  502    0 -0.34229642566E+03 -0.12258552188E+04  0.80062899705E+03  0.15036345106E+04  0.46999998093E+01 0.  1.
       -5    1    3    3    0  502  0.34229642566E+03  0.12258552188E+04 -0.57370692241E+03  0.13960836591E+04  0.46999998093E+01 0. -1.
</event>
<event>
 5   0  0.1580212E-06  0.2878928E+04  0.7818609E-02  0.8279175E-01
       -1   -1    0    0    0  501  0.00000000000E+00  0.00000000000E+00  0.92367786384E+03  0.92367786385E+03  0.50400001928E-02 0. -1.
        1   -1    0    0  501    0  0.00000000000E+00  0.00000000000E+00 -0.22432683198E+04  0.22432683198E+04  0.50400001928E-02 0.  1.
    10030    2    1    2    0    0  0.00000000000E+00  0.00000000000E+00 -0.13195904559E+04  0.31669461836E+04  0.28789284740E+04 0.  0.
        4    1    3    3  502    0  0.11695223228E+02  0.13765340889E+04 -0.11226936886E+04  0.17763517690E+04  0.12699999809E+01 0.  1.
       -4    1    3    3    0  502 -0.11695223228E+02 -0.13765340889E+04 -0.19689676734E+03  0.13905944146E+04  0.12699999809E+01 0. -1.
</event>
<event>
 5   0  0.4115143E-06  0.2908443E+04  0.7818609E-02  0.8270370E-01
        2   -1    0    0  501    0  0.00000000000E+00  0.00000000000E+00  0.15837422023E+04  0.15837422023E+04  0.25500000920E-02 0. -1.
       -2   -1    0    0    0  501  0.00000000000E+00  0.00000000000E+00 -0.13352932347E+04  0.13352932347E+04  0.25500000920E-02 0.  1.
    10030    2    1    2    0    0  0.00000000000E+00  0.00000000000E+00  0.24844896760E+03  0.29190354371E+04  0.29084430531E+04 0.  0.
        1    1    3    3  502    0  0.46295809662E+03 -0.13462569332E+04  0.42199055134E+03  0.14848615945E+04  0.50400001928E-02 0. -1.
       -1    1    3    3    0  502 -0.46295809662E+03  0.13462569332E+04 -0.17354158374E+03  0.14341738426E+04  0.50400001928E-02 0.  1.
</event>
<event>
 5   0  0.1511126E-06  0.2891945E+04  0.7818609E-02  0.8275278E-01
        1   -1    0    0  501    0  0.00000000000E+00  0.00000000000E+00  0.16242674735E+04  0.16242674735E+04  0.50400001928E-02 0.  1.
       -1   -1    0    0    0  501  0.00000000000E+00  0.00000000000E+00 -0.12872486398E+04  0.12872486398E+04  0.50400001928E-02 0. -1.
    10030    2    1    2    0    0  0.00000000000E+00  0.00000000000E+00  0.33701883365E+03  0.29115161133E+04  0.28919447408E+04 0.  0.
        5    1    3    3  502    0  0.74453055024E+03  0.56873124689E+03 -0.94032199855E+03  0.13274066906E+04  0.46999998093E+01 0. -1.
       -5    1    3    3    0  502 -0.74453055024E+03 -0.56873124689E+03  0.12773408322E+04  0.15841094227E+04  0.46999998093E+01 0.  1.
</event>
<event>
 5   0  0.1602873E-06  0.2793381E+04  0.7818609E-02  0.8305326E-01
        1   -1    0    0  501    0  0.00000000000E+00  0.00000000000E+00  0.15493549244E+04  0.15493549244E+04  0.50400001928E-02 0.  1.
       -1   -1    0    0    0  501  0.00000000000E+00  0.00000000000E+00 -0.12590684747E+04  0.12590684747E+04  0.50400001928E-02 0. -1.
    10030    2    1    2    0    0  0.00000000000E+00  0.00000000000E+00  0.29028644974E+03  0.28084233991E+04  0.27933807055E+04 0.  0.
        1    1    3    3  502    0 -0.86946753467E+03 -0.23455458725E+03 -0.92819864773E+03  0.12932680998E+04  0.50400001928E-02 0. -1.
       -1    1    3    3    0  502  0.86946753467E+03  0.23455458725E+03  0.12184850975E+04  0.15151552993E+04  0.50400001928E-02 0.  1.
</event>
<event>
 5   0  0.1543678E-06  0.2901415E+04  0.7818609E-02  0.8272457E-01
       -1   -1    0    0    0  501  0.00000000000E+00  0.00000000000E+00  0.11298479079E+04  0.11298479079E+04  0.50400001928E-02 0.  1.
        1   -1    0    0  501    0  0.00000000000E+00  0.00000000000E+00 -0.18626865555E+04  0.18626865556E+04  0.50400001928E-02 0. -1.
    10030    2    1    2    0    0  0.00000000000E+00  0.00000000000E+00 -0.73283864764E+03  0.29925344635E+04  0.29014151774E+04 0.  0.
        3    1    3    3  502    0  0.71153374635E+03 -0.65125765044E+03  0.75118591366E+03  0.12225780493E+04  0.10100000352E+00 0.  1.
       -3    1    3    3    0  502 -0.71153374635E+03  0.65125765044E+03 -0.14840245613E+04  0.17699564142E+04  0.10100000352E+00 0. -1.
</event>
<event>
 5   0  0.1580212E-06  0.2847281E+04  0.7818609E-02  0.8288738E-01
        1   -1    0    0  501    0  0.00000000000E+00  0.00000000000E+00  0.20059975927E+04  0.20059975927E+04  0.50400001928E-02 0. -1.
       -1   -1    0    0    0  501  0.00000000000E+00  0.00000000000E+00 -0.10103460274E+04  0.10103460275E+04  0.50400001928E-02 0.  1.
    10030    2    1    2    0    0  0.00000000000E+00  0.00000000000E+00  0.99565156527E+03  0.30163436202E+04  0.28472805966E+04 0.  0.
        4    1    3    3  502    0  0.45245005257E+02  0.25529393936E+03  0.19807750051E+04  0.19976719800E+04  0.12699999809E+01 0. -1.
       -4    1    3    3    0  502 -0.45245005257E+02 -0.25529393936E+03 -0.98512343981E+03  0.10186716402E+04  0.12699999809E+01 0.  1.
</event>
<event>
 5   0  0.4224163E-06  0.2894943E+04  0.7818609E-02  0.8274384E-01
        2   -1    0    0  501    0  0.00000000000E+00  0.00000000000E+00  0.21072408574E+04  0.21072408574E+04  0.25500000920E-02 0.  1.
       -2   -1    0    0    0  501  0.00000000000E+00  0.00000000000E+00 -0.99427334582E+03  0.99427334582E+03  0.25500000920E-02 0. -1.
    10030    2    1    2    0    0  0.00000000000E+00  0.00000000000E+00  0.11129675116E+04  0.31015142033E+04  0.28949427751E+04 0.  0.
        4    1    3    3  502    0 -0.32679876230E+03  0.23434391717E+03 -0.93322401721E+03  0.10161806836E+04  0.12699999809E+01 0. -1.
       -4    1    3    3    0  502  0.32679876230E+03 -0.23434391717E+03  0.20461915288E+04  0.20853335196E+04  0.12699999809E+01 0.  1.
</event>
<event>
 5   0  0.4187518E-06  0.2985642E+04  0.7818609E-02  0.8247843E-01
       -2   -1    0    0    0  501  0.00000000000E+00  0.00000000000E+00  0.16744312563E+04  0.16744312564E+04  0.25500000920E-02 0. -1.
        2   -1    0    0  501    0  0.00000000000E+00  0.00000000000E+00 -0.13309083522E+04  0.13309083522E+04  0.25500000920E-02 0.  1.
    10030    2    1    2    0    0  0.00000000000E+00  0.00000000000E+00  0.34352290414E+03  0.30053396086E+04  0.29856420042E+04 0.  0.
        3    1    3    3  502    0  0.16690155436E+03 -0.42366499055E+03  0.16028182003E+04  0.16662455841E+04  0.10100000352E+00 0. -1.
       -3    1    3    3    0  502 -0.16690155436E+03  0.42366499055E+03 -0.12592952962E+04  0.13390940244E+04  0.10100000352E+00 0.  1.
</event>
<event>
 5   0  0.1602873E-06  0.2799441E+04  0.7818609E-02  0.8303442E-01
       -1   -1    0    0    0  501  0.00000000000E+00  0.00000000000E+00  0.20954294877E+04  0.20954294877E+04  0.50400001928E-02 0.  1.
        1   -1    0    0  501    0  0.00000000000E+00  0.00000000000E+00 -0.93499581111E+03  0.93499581112E+03  0.50400001928E-02 0. -1.
    10030    2    1    2    0    0  0.00000000000E+00  0.00000000000E+00  0.11604336766E+04  0.30304252988E+04  0.27994412253E+04 0.  0.
        1    1    3    3  502    0  0.72504577073E+03  0.80096229759E+02 -0.71296950213E+03  0.10200158267E+04  0.50400001928E-02 0. -1.
       -1    1    3    3    0  502 -0.72504577073E+03 -0.80096229759E+02  0.18734031787E+04  0.20104094721E+04  0.50400001928E-02 0.  1.
</event>
<event>
 5   0  0.4148677E-06  0.2862590E+04  0.7818609E-02  0.8284096E-01
        2   -1    0    0  501    0  0.00000000000E+00  0.00000000000E+00  0.21846432600E+04  0.21846432600E+04  0.25500000920E-02 0.  1.
       -2   -1    0    0    0  501  0.00000000000E+00  0.00000000000E+00 -0.93773010228E+03  0.93773010228E+03  0.25500000920E-02 0. -1.
    10030    2    1    2    0    0  0.00000000000E+00  0.00000000000E+00  0.12469131577E+04  0.31223733623E+04  0.28625902589E+04 0.  0.
        5    1    3    3  502    0 -0.48041784925E+03 -0.11304897104E+04 -0.17791174703E+03  0.12411619455E+04  0.46999998093E+01 0. -1.
       -5    1    3    3    0  502  0.48041784925E+03  0.11304897104E+04  0.14248249048E+04  0.18812114168E+04  0.46999998093E+01 0.  1.
</event>
<event>
 5   0  0.4187518E-06  0.2922657E+04  0.7818609E-02  0.8266168E-01
        2   -1    0    0  501    0  0.00000000000E+00  0.00000000000E+00  0.13042762364E+04  0.13042762364E+04  0.25500000920E-02 0.  1.
       -2   -1    0    0    0  501  0.00000000000E+00  0.00000000000E+00 -0.16372921881E+04  0.16372921881E+04  0.25500000920E-02 0. -1.
    10030    2    1    2    0    0  0.00000000000E+00  0.00000000000E+00 -0.33301595168E+03  0.29415684245E+04  0.29226572108E+04 0.  0.
        3    1    3    3  502    0  0.12319929451E+04 -0.74978149179E+03 -0.40362180253E+03  0.14976279484E+04  0.10100000352E+00 0. -1.
       -3    1    3    3    0  502 -0.12319929451E+04  0.74978149179E+03  0.70605850855E+02  0.14439404761E+04  0.10100000352E+00 0.  1.
</event>
<event>
 5   0  0.4224163E-06  0.2941254E+04  0.7818609E-02  0.8260708E-01
       -2   -1    0    0    0  501  0.00000000000E+00  0.00000000000E+00  0.14105106622E+04  0.14105106622E+04  0.25500000920E-02 0. -1.
        2   -1    0    0  501    0  0.00000000000E+00  0.00000000000E+00 -0.15333056508E+04  0.15333056508E+04  0.25500000920E-02 0.  1.
    10030    2    1    2    0    0  0.00000000000E+00  0.00000000000E+00 -0.12279498864E+03  0.29438163130E+04  0.29412541331E+04 0.  0.
        4    1    3    3  502    0  0.34718063197E+03  0.13953291170E+04 -0.37031603665E+03  0.14847940314E+04  0.12699999809E+01 0.  1.
       -4    1    3    3    0  502 -0.34718063197E+03 -0.13953291170E+04  0.24752104801E+03  0.14590222815E+04  0.12699999809E+01 0. -1.
</event>
<event>
 5   0  0.4162450E-06  0.2886624E+04  0.7818609E-02  0.8276869E-01
       -2   -1    0    0    0  501  0.00000000000E+00  0.00000000000E+00  0.73823565004E+03  0.73823565005E+03  0.25500000920E-02 0.  1.
        2   -1    0    0  501    0  0.00000000000E+00  0.00000000000E+00 -0.28217939162E+04  0.28217939162E+04  0.25500000920E-02 0. -1.
    10030    2    1    2    0    0  0.00000000000E+00  0.00000000000E+00 -0.20835582662E+04  0.35600295663E+04  0.28866235404E+04 0.  0.
        2    1    3    3  502    0 -0.10953221243E+04 -0.93356265316E+03 -0.90736191349E+03  0.17013451812E+04  0.25500000920E-02 0. -1.
       -2    1    3    3    0  502  0.10953221243E+04  0.93356265316E+03 -0.11761963527E+04  0.18586843851E+04  0.25500000920E-02 0.  1.
</event>
<event>
 5   0  0.4162450E-06  0.2896205E+04  0.7818609E-02  0.8274007E-01
        2   -1    0    0  501    0  0.00000000000E+00  0.00000000000E+00  0.11585026145E+04  0.11585026145E+04  0.25500000920E-02 0. -1.
       -2   -1    0    0    0  501  0.00000000000E+00  0.00000000000E+00 -0.18100963235E+04  0.18100963235E+04  0.25500000920E-02 0.  1.
    10030    2    1    2    0    0  0.00000000000E+00  0.00000000000E+00 -0.65159370899E+03  0.29685989379E+04  0.28962053264E+04 0.  0.
        2    1    3    3  502    0 -0.96738308201E+03 -0.10744809181E+04 -0.24213524719E+03  0.14659361339E+04  0.25500000920E-02 0.  1.
       -2    1    3    3    0  502  0.96738308201E+03  0.10744809181E+04 -0.40945846181E+03  0.15026628040E+04  0.25500000920E-02 0. -1.
</event>
<event>
 5   0  0.4162450E-06  0.2911857E+04  0.7818609E-02  0.8269358E-01
       -2   -1    0    0    0  501  0.00000000000E+00  0.00000000000E+00  0.18257920561E+04  0.18257920562E+04  0.25500000920E-02 0.  1.
        2   -1    0    0  501    0  0.00000000000E+00  0.00000000000E+00 -0.11609907140E+04  0.11609907140E+04  0.25500000920E-02 0. -1.
    10030    2    1    2    0    0  0.00000000000E+00  0.00000000000E+00  0.66480134213E+03  0.29867827702E+04  0.29118568804E+04 0.  0.
        2    1    3    3  502    0  0.71660414872E+03  0.81426467203E+03 -0.66376302497E+03  0.12716641913E+04  0.25500000920E-02 0. -1.
       -2    1    3    3    0  502 -0.71660414872E+03 -0.81426467203E+03  0.13285643671E+04  0.17151185789E+04  0.25500000920E-02 0.  1.
</event>
<event>
 5   0  0.4187518E-06  0.2907222E+04  0.7818609E-02  0.8270732E-01
        2   -1    0    0  501    0  0.00000000000E+00  0.00000000000E+00  0.15198670781E+04  0.15198670781E+04  0.25500000920E-02 0. -1.
       -2   -1    0    0    0  501  0.00000000000E+00  0.00000000000E+00 -0.13902430038E+04  0.13902430038E+04  0.25500000920E-02 0.  1.
    10030    2    1    2    0    0  0.00000000000E+00  0.00000000000E+00  0.12962407427E+03  0.29101100818E+04  0.29072217473E+04 0.  0.
        3    1    3    3  502    0  0.23305909155E+03 -0.13723199563E+04 -0.35441900317E+03  0.14363813709E+04  0.10100000352E+00 0.  1.
       -3    1    3    3    0  502 -0.23305909155E+03  0.13723199563E+04  0.48404307744E+03  0.14737287110E+04  0.10100000352E+00 0. -1.
</event>
<event>
 5   0  0.4224163E-06  0.2766489E+04  0.7818609E-02  0.8313748E-01
        2   -1    0    0  501    0  0.00000000000E+00  0.00000000000E+00  0.19972714847E+04  0.19972714847E+04  0.25500000920E-02 0. -1.
       -2   -1    0    0    0  501  0.00000000000E+00  0.00000000000E+00 -0.95798952938E+03  0.95798952939E+03  0.25500000920E-02 0.  1.
    10030    2    1    2    0    0  0.00000000000E+00  0.00000000000E+00  0.10392819554E+04  0.29552610141E+04  0.27664888720E+04 0.  0.
        4    1    3    3  502    0 -0.82708495709E+02 -0.13771031886E+04  0.62704867257E+03  0.15154027643E+04  0.12699999809E+01 0.  1.
       -4    1    3    3    0  502  0.82708495709E+02  0.13771031886E+04  0.41223328278E+03  0.14398582498E+04  0.12699999809E+01 0. -1.
</event>
<event>
 5   0  0.4115143E-06  0.2904031E+04  0.7818609E-02  0.8271679E-01
       -2   -1    0    0    0  501  0.00000000000E+00  0.00000000000E+00  0.13908719338E+04  0.13908719338E+04  0.25500000920E-02 0.  1.
        2   -1    0    0  501    0  0.00000000000E+00  0.00000000000E+00 -0.15158471212E+04  0.15158471212E+04  0.25500000920E-02 0. -1.
    10030    2    1    2    0    0  0.00000000000E+00  0.00000000000E+00 -0.12497518744E+03  0.29067190550E+04  0.29040311408E+04 0.  0.
        1    1    3    3  502    0  0.18264382934E+03  0.13025497008E+04 -0.67816238187E+03  0.14798306348E+04  0.50400001928E-02 0. -1.
       -1    1    3    3    0  502 -0.18264382934E+03 -0.13025497008E+04  0.55318719443E+03  0.14268884202E+04  0.50400001928E-02 0.  1.
</event>
<event>
 5   0  0.1602873E-06  0.2898824E+04  0.7818609E-02  0.8273228E-01
        1   -1    0    0  501    0  0.00000000000E+00  0.00000000000E+00  0.97256014194E+03  0.97256014195E+03  0.50400001928E-02 0. -1.
       -1   -1    0    0    0  501  0.00000000000E+00  0.00000000000E+00 -0.21600663452E+04  0.21600663452E+04  0.50400001928E-02 0.  1.
    10030    2    1    2    0    0  0.00000000000E+00  0.00000000000E+00 -0.11875062032E+04  0.31326264871E+04  0.28988235071E+04 0.  0.
        1    1    3    3  502    0 -0.55801326105E+03 -0.13016481005E+04 -0.92705722871E+03  0.16926611245E+04  0.50400001928E-02 0. -1.
       -1    1    3    3    0  502  0.55801326105E+03  0.13016481005E+04 -0.26044897452E+03  0.14399653626E+04  0.50400001928E-02 0.  1.
</event>
<event>
 5   0  0.1543678E-06  0.2893760E+04  0.7818609E-02  0.8274736E-01
       -1   -1    0    0    0  501  0.00000000000E+00  0.00000000000E+00  0.24408067302E+04  0.24408067302E+04  0.50400001928E-02 0.  1.
        1   -1    0    0  501    0  0.00000000000E+00  0.00000000000E+00 -0.85769272280E+03  0.85769272281E+03  0.50400001928E-02 0. -1.
    10030    2    1    2    0    0  0.00000000000E+00  0.00000000000E+00  0.15831140074E+04  0.32984994530E+04  0.28937603013E+04 0.  0.
        3    1    3    3  502    0 -0.74360008037E+03  0.45031588603E+03 -0.52681866786E+03  0.10164956447E+04  0.10100000352E+00 0. -1.
       -3    1    3    3    0  502  0.74360008037E+03 -0.45031588603E+03  0.21099326753E+04  0.22820038083E+04  0.10100000352E+00 0.  1.
</event>
<event>
 5   0  0.1602873E-06  0.2895579E+04  0.7818609E-02  0.8274194E-01
        1   -1    0    0  501    0  0.00000000000E+00  0.00000000000E+00  0.18595450541E+04  0.18595450541E+04  0.50400001928E-02 0. -1.
       -1   -1    0    0    0  501  0.00000000000E+00  0.00000000000E+00 -0.11272079799E+04  0.11272079799E+04  0.50400001928E-02 0.  1.
    10030    2    1    2    0    0  0.00000000000E+00  0.00000000000E+00  0.73233707421E+03  0.29867530340E+04  0.28955787152E+04 0.  0.
        1    1    3    3  502    0 -0.82752652948E+03 -0.36057193995E+02  0.15909892754E+04  0.17936965052E+04  0.50400001928E-02 0. -1.
       -1    1    3    3    0  502  0.82752652948E+03  0.36057193995E+02 -0.85865220122E+03  0.11930565288E+04  0.50400001928E-02 0.  1.
</event>
<event>
 5   0  0.4224163E-06  0.2904340E+04  0.7818609E-02  0.8271587E-01
        2   -1    0    0  501    0  0.00000000000E+00  0.00000000000E+00  0.13221710586E+04  0.13221710586E+04  0.25500000920E-02 0.  1.
       -2   -1    0    0    0  501  0.00000000000E+00  0.00000000000E+00 -0.15949511582E+04  0.15949511582E+04  0.25500000920E-02 0. -1.
    10030    2    1    2    0    0  0.00000000000E+00  0.00000000000E+00 -0.27278009960E+03  0.29171222169E+04  0.29043403805E+04 0.  0.
        4    1    3    3  502    0 -0.37832255304E+03 -0.13893261166E+04  0.52697960456E+02  0.14408794885E+04  0.12699999809E+01 0. -1.
       -4    1    3    3    0  502  0.37832255304E+03  0.13893261166E+04 -0.32547806005E+03  0.14762427284E+04  0.12699999809E+01 0.  1.
</event>
<event>
 5   0  0.4162450E-06  0.2840541E+04  0.7818609E-02  0.8290791E-01
       -2   -1    0    0    0  501  0.00000000000E+00  0.00000000000E+00  0.15668453966E+04  0.15668453966E+04  0.25500000920E-02 0. -1.
        2   -1    0    0  501    0  0.00000000000E+00  0.00000000000E+00 -0.12874074372E+04  0.12874074372E+04  0.25500000920E-02 0.  1.
    10030    2    1    2    0    0  0.00000000000E+00  0.00000000000E+00  0.27943795945E+03  0.28542528338E+04  0.28405410868E+04 0.  0.
        2    1    3    3  502    0 -0.36305729876E+03 -0.80617205234E+03 -0.97715191723E+03  0.13177821707E+04  0.25500000920E-02 0.  1.
       -2    1    3    3    0  502  0.36305729876E+03  0.80617205234E+03  0.12565898767E+04  0.15364706630E+04  0.25500000920E-02 0. -1.
</event>
<event>
 5   0  0.4162450E-06  0.2901174E+04  0.7818609E-02  0.8272528E-01
        2   -1    0    0  501    0  0.00000000000E+00  0.00000000000E+00  0.60387464097E+03  0.60387464098E+03  0.25500000920E-02 0.  1.
       -2   -1    0    0    0  501  0.00000000000E+00  0.00000000000E+00 -0.34845019355E+04  0.34845019355E+04  0.25500000920E-02 0. -1.
    10030    2    1    2    0    0  0.00000000000E+00  0.00000000000E+00 -0.28806272945E+04  0.40883765765E+04  0.29011738006E+04 0.  0.
        2    1    3    3  502    0 -0.12201494209E+04  0.29424417532E+03 -0.41549568369E+03  0.13221122900E+04  0.25500000920E-02 0.  1.
       -2    1    3    3    0  502  0.12201494209E+04 -0.29424417532E+03 -0.24651316108E+04  0.27662642865E+04  0.25500000920E-02 0. -1.
</event>
<event>
 5   0  0.4115143E-06  0.2912790E+04  0.7818609E-02  0.8269082E-01
       -2   -1    0    0    0  501  0.00000000000E+00  0.00000000000E+00  0.14420233788E+04  0.14420233788E+04  0.25500000920E-02 0. -1.
        2   -1    0    0  501    0  0.00000000000E+00  0.00000000000E+00 -0.14709097284E+04  0.14709097284E+04  0.25500000920E-02 0.  1.
    10030    2    1    2    0    0  0.00000000000E+00  0.00000000000E+00 -0.28886349603E+02  0.29129331071E+04  0.29127898767E+04 0.  0.
        1    1    3    3  502    0  0.78152175187E+03 -0.11064803991E+04  0.52038317354E+03  0.14511629025E+04  0.50400001928E-02 0.  1.
       -1    1    3    3    0  502 -0.78152175187E+03  0.11064803991E+04 -0.54926952314E+03  0.14617702047E+04  0.50400001928E-02 0. -1.
</event>
<event>
 5   0  0.4148677E-06  0.2917755E+04  0.7818609E-02  0.8267614E-01
       -2   -1    0    0    0  501  0.00000000000E+00  0.00000000000E+00  0.12345788744E+04  0.12345788744E+04  0.25500000920E-02 0.  1.
        2   -1    0    0  501    0  0.00000000000E+00  0.00000000000E+00 -0.17239268444E+04  0.17239268444E+04  0.25500000920E-02 0. -1.
    10030    2    1    2    0    0  0.00000000000E+00  0.00000000000E+00 -0.48934797002E+03  0.29585057188E+04  0.29177550706E+04 0.  0.
        5    1    3    3  502    0 -0.98278698620E+03  0.26108406347E+03 -0.13053557866E+04  0.16546936176E+04  0.46999998093E+01 0. -1.
       -5    1    3    3    0  502  0.98278698620E+03 -0.26108406347E+03  0.81600781660E+03  0.13038121012E+04  0.46999998093E+01 0.  1.
</event>
<event>
 5   0  0.1550278E-06  0.2896996E+04  0.7818609E-02  0.8273772E-01
       -1   -1    0    0    0  501  0.00000000000E+00  0.00000000000E+00  0.15673831290E+04  0.15673831290E+04  0.50400001928E-02 0.  1.
        1   -1    0    0  501    0  0.00000000000E+00  0.00000000000E+00 -0.13386305532E+04  0.13386305532E+04  0.50400001928E-02 0. -1.
    10030    2    1    2    0    0  0.00000000000E+00  0.00000000000E+00  0.22875257585E+03  0.29060136822E+04  0.28969963376E+04 0.  0.
        2    1    3    3  502    0  0.48131066639E+03  0.52728883098E+03  0.13786379204E+04  0.15525256791E+04  0.25500000920E-02 0.  1.
       -2    1    3    3    0  502 -0.48131066639E+03 -0.52728883098E+03 -0.11498853445E+04  0.13534880031E+04  0.25500000920E-02 0. -1.
</event>
<event>
 5   0  0.1543678E-06  0.2894707E+04  0.7818609E-02  0.8274454E-01
        1   -1    0    0  501    0  0.00000000000E+00  0.00000000000E+00  0.90061188039E+03  0.90061188041E+03  0.50400001928E-02 0.  1.
       -1   -1    0    0    0  501  0.00000000000E+00  0.00000000000E+00 -0.23260091954E+04  0.23260091954E+04  0.50400001928E-02 0. -1.
    10030    2    1    2    0    0  0.00000000000E+00  0.00000000000E+00 -0.14253973150E+04  0.32266210758E+04  0.28947065588E+04 0.  0.
        3    1    3    3  502    0 -0.50768641180E+02  0.13350625441E+04 -0.92218898827E+02  0.13392064020E+04  0.10100000352E+00 0.  1.
       -3    1    3    3    0  502  0.50768641180E+02 -0.13350625441E+04 -0.13331784162E+04  0.18874146739E+04  0.10100000352E+00 0. -1.
</event>
<event>
 5   0  0.1602873E-06  0.2904386E+04  0.7818609E-02  0.8271574E-01
       -1   -1    0    0    0  501  0.00000000000E+00  0.00000000000E+00  0.15132328092E+04  0.15132328092E+04  0.50400001928E-02 0.  1.
        1   -1    0    0  501    0  0.00000000000E+00  0.00000000000E+00 -0.13936154107E+04  0.13936154107E+04  0.50400001928E-02 0. -1.
    10030    2    1    2    0    0  0.00000000000E+00  0.00000000000E+00  0.11961739846E+03  0.29068482199E+04  0.29043860369E+04 0.  0.
        1    1    3    3  502    0 -0.63689471493E+03  0.55787634263E+03  0.12406409498E+04  0.15020155984E+04  0.50400001928E-02 0.  1.
       -1    1    3    3    0  502  0.63689471493E+03 -0.55787634263E+03 -0.11210235514E+04  0.14048326214E+04  0.50400001928E-02 0. -1.
</event>
<event>
 5   0  0.1550278E-06  0.2980565E+04  0.7818609E-02  0.8249302E-01
        1   -1    0    0  501    0  0.00000000000E+00  0.00000000000E+00  0.84156103181E+03  0.84156103182E+03  0.50400001928E-02 0.  1.
       -1   -1    0    0    0  501  0.00000000000E+00  0.00000000000E+00 -0.26390748869E+04  0.26390748869E+04  0.50400001928E-02 0. -1.
    10030    2    1    2    0    0  0.00000000000E+00  0.00000000000E+00 -0.17975138551E+04  0.34806359187E+04  0.29805654396E+04 0.  0.
        2    1    3    3  502    0  0.45081920767E+03  0.85222350040E+03  0.42831250302E+03  0.10549760437E+04  0.25500000920E-02 0.  1.
       -2    1    3    3    0  502 -0.45081920767E+03 -0.85222350040E+03 -0.22258263581E+04  0.24256598750E+04  0.25500000920E-02 0. -1.
</event>
<event>
 5   0  0.4187518E-06  0.2899411E+04  0.7818609E-02  0.8273053E-01
        2   -1    0    0  501    0  0.00000000000E+00  0.00000000000E+00  0.23874469359E+04  0.23874469359E+04  0.25500000920E-02 0. -1.
       -2   -1    0    0    0  501  0.00000000000E+00  0.00000000000E+00 -0.88029032233E+03  0.88029032233E+03  0.25500000920E-02 0.  1.
    10030    2    1    2    0    0  0.00000000000E+00  0.00000000000E+00  0.15071566136E+04  0.32677372583E+04  0.28994112732E+04 0.  0.
        3    1    3    3  502    0  0.12726310119E+04 -0.62523113454E+03  0.41332810529E+03  0.14769373030E+04  0.10100000352E+00 0.  1.
       -3    1    3    3    0  502 -0.12726310119E+04  0.62523113454E+03  0.10938285083E+04  0.17907999553E+04  0.10100000352E+00 0. -1.
</event>
<event>
 5   0  0.1550278E-06  0.2928400E+04  0.7818609E-02  0.8264477E-01
       -1   -1    0    0    0  501  0.00000000000E+00  0.00000000000E+00  0.17066838813E+04  0.17066838813E+04  0.50400001928E-02 0.  1.
        1   -1    0    0  501    0  0.00000000000E+00  0.00000000000E+00 -0.12561679623E+04  0.12561679623E+04  0.50400001928E-02 0. -1.
    10030    2    1    2    0    0  0.00000000000E+00  0.00000000000E+00  0.45051591893E+03  0.29628518436E+04  0.29283999819E+04 0.  0.
        2    1    3    3  502    0 -0.42564314594E+02  0.13636929542E+04 -0.31241805910E+03  0.13996696888E+04  0.25500000920E-02 0. -1.
       -2    1    3    3    0  502  0.42564314594E+02 -0.13636929542E+04  0.76293397803E+03  0.15631821548E+04  0.25500000920E-02 0.  1.
</event>
<event>
 5   0  0.4148677E-06  0.2922035E+04  0.7818609E-02  0.8266352E-01
        2   -1    0    0  501    0  0.00000000000E+00  0.00000000000E+00  0.17509193442E+04  0.17509193442E+04  0.25500000920E-02 0. -1.
       -2   -1    0    0    0  501  0.00000000000E+00  0.00000000000E+00 -0.12191146956E+04  0.12191146957E+04  0.25500000920E-02 0.  1.
    10030    2    1    2    0    0  0.00000000000E+00  0.00000000000E+00  0.53180464858E+03  0.29700340399E+04  0.29220345675E+04 0.  0.
        5    1    3    3  502    0  0.12674339639E+04  0.34625703550E+03 -0.38355110950E+03  0.13687279975E+04  0.46999998093E+01 0. -1.
       -5    1    3    3    0  502 -0.12674339639E+04 -0.34625703550E+03  0.91535575808E+03  0.16013060424E+04  0.46999998093E+01 0.  1.
</event>
<event>
 5   0  0.4115143E-06  0.2909291E+04  0.7818609E-02  0.8270118E-01
       -2   -1    0    0    0  501  0.00000000000E+00  0.00000000000E+00  0.77893243447E+03  0.77893243447E+03  0.25500000920E-02 0.  1.
        2   -1    0    0  501    0  0.00000000000E+00  0.00000000000E+00 -0.27165307629E+04  0.27165307629E+04  0.25500000920E-02 0. -1.
    10030    2    1    2    0    0  0.00000000000E+00  0.00000000000E+00 -0.19375983284E+04  0.34954631974E+04  0.29092912680E+04 0.  0.
        1    1    3    3  502    0 -0.32941469158E+03 -0.87228699472E+03  0.37266868861E+03  0.10041317601E+04  0.50400001928E-02 0.  1.
       -1    1    3    3    0  502  0.32941469158E+03  0.87228699472E+03 -0.23102670171E+04  0.24913314373E+04  0.50400001928E-02 0. -1.
</event>
<event>
 5   0  0.1511126E-06  0.2888678E+04  0.7818609E-02  0.8276254E-01
       -1   -1    0    0    0  501  0.00000000000E+00  0.00000000000E+00  0.17228917291E+04  0.17228917291E+04  0.50400001928E-02 0. -1.
        1   -1    0    0  501    0  0.00000000000E+00  0.00000000000E+00 -0.12108223343E+04  0.12108223343E+04  0.50400001928E-02 0.  1.
    10030    2    1    2    0    0  0.00000000000E+00  0.00000000000E+00  0.51206939479E+03  0.29337140634E+04  0.28886784419E+04 0.  0.
        5    1    3    3  502    0 -0.10514944965E+04  0.19265514084E+03 -0.73036293344E+03  0.12946848203E+04  0.46999998093E+01 0.  1.
       -5    1    3    3    0  502  0.10514944965E+04 -0.19265514084E+03  0.12424323282E+04  0.16390292431E+04  0.46999998093E+01 0. -1.
</event>
<event>
 5   0  0.1543678E-06  0.2901706E+04  0.7818609E-02  0.8272370E-01
       -1   -1    0    0    0  501  0.00000000000E+00  0.00000000000E+00  0.19269829355E+04  0.19269829355E+04  0.50400001928E-02 0. -1.
        1   -1    0    0  501    0  0.00000000000E+00  0.00000000000E+00 -0.10923682837E+04  0.10923682837E+04  0.50400001928E-02 0.  1.
    10030    2    1    2    0    0  0.00000000000E+00  0.00000000000E+00  0.83461465179E+03  0.30193512192E+04  0.29017064235E+04 0.  0.
        3    1    3    3  502    0  0.11828985780E+04  0.17753669267E+03  0.12716983910E+04  0.17458479690E+04  0.10100000352E+00 0. -1.
       -3    1    3    3    0  502 -0.11828985780E+04 -0.17753669267E+03 -0.43708373917E+03  0.12735032502E+04  0.10100000352E+00 0.  1.
</event>
<event>
 5   0  0.1602873E-06  0.2929335E+04  0.7818609E-02  0.8264202E-01
       -1   -1    0    0    0  501  0.00000000000E+00  0.00000000000E+00  0.16758081370E+04  0.16758081370E+04  0.50400001928E-02 0.  1.
        1   -1    0    0  501    0  0.00000000000E+00  0.00000000000E+00 -0.12801295599E+04  0.12801295599E+04  0.50400001928E-02 0. -1.
    10030    2    1    2    0    0  0.00000000000E+00  0.00000000000E+00  0.39567857713E+03  0.29559376969E+04  0.29293354419E+04 0.  0.
        1    1    3    3  502    0 -0.12812877064E+04 -0.68204683746E+03  0.39548908044E+03  0.15044260327E+04  0.50400001928E-02 0.  1.
       -1    1    3    3    0  502  0.12812877064E+04  0.68204683746E+03  0.18949668799E+00  0.14515116641E+04  0.50400001928E-02 0. -1.
</event>
<event>
 5   0  0.1511126E-06  0.2912047E+04  0.7818609E-02  0.8269302E-01
       -1   -1    0    0    0  501  0.00000000000E+00  0.00000000000E+00  0.23260308259E+04  0.23260308259E+04  0.50400001928E-02 0.  1.
        1   -1    0    0  501    0  0.00000000000E+00  0.00000000000E+00 -0.91142570730E+03  0.91142570732E+03  0.50400001928E-02 0. -1.
    10030    2    1    2    0    0  0.00000000000E+00  0.00000000000E+00  0.14146051186E+04  0.32374565333E+04  0.29120469026E+04 0.  0.
        5    1    3    3  502    0 -0.34810288569E+03 -0.72651632114E+03 -0.64106736091E+03  0.10295586604E+04  0.46999998093E+01 0. -1.
       -5    1    3    3    0  502  0.34810288569E+03  0.72651632114E+03  0.20556724796E+04  0.22078978729E+04  0.46999998093E+01 0.  1.
</event>
<event>
 5   0  0.4162450E-06  0.2909552E+04  0.7818609E-02  0.8270041E-01
       -2   -1    0    0    0  501  0.00000000000E+00  0.00000000000E+00  0.76712145120E+03  0.76712145120E+03  0.25500000920E-02 0.  1.
        2   -1    0    0  501    0  0.00000000000E+00  0.00000000000E+00 -0.27588511940E+04  0.27588511940E+04  0.25500000920E-02 0. -1.
    10030    2    1    2    0    0  0.00000000000E+00  0.00000000000E+00 -0.19917297428E+04  0.35259726452E+04  0.29095524959E+04 0.  0.
        2    1    3    3  502    0  0.61701020729E+01  0.57399899651E+02  0.76573274842E+03  0.76790589309E+03  0.25500000920E-02 0.  1.
       -2    1    3    3    0  502 -0.61701020729E+01 -0.57399899651E+02 -0.27574624913E+04  0.27580667521E+04  0.25500000920E-02 0. -1.
</event>
<event>
 5   0  0.1550278E-06  0.2843188E+04  0.7818609E-02  0.8289984E-01
       -1   -1    0    0    0  501  0.00000000000E+00  0.00000000000E+00  0.10324247806E+04  0.10324247806E+04  0.50400001928E-02 0.  1.
        1   -1    0    0  501    0  0.00000000000E+00  0.00000000000E+00 -0.19574587350E+04  0.19574587350E+04  0.50400001928E-02 0. -1.
    10030    2    1    2    0    0  0.00000000000E+00  0.00000000000E+00 -0.92503395442E+03  0.29898835156E+04  0.28431875809E+04 0.  0.
        2    1    3    3  502    0 -0.82642729793E+03 -0.64364465305E+03 -0.14731809746E+04  0.18076290278E+04  0.25500000920E-02 0. -1.
       -2    1    3    3    0  502  0.82642729793E+03  0.64364465305E+03  0.54814702022E+03  0.11822544878E+04  0.25500000920E-02 0.  1.
</event>
<event>
 5   0  0.4148677E-06  0.2891859E+04  0.7818609E-02  0.8275304E-01
        2   -1    0    0  501    0  0.00000000000E+00  0.00000000000E+00  0.20670250708E+04  0.20670250708E+04  0.25500000920E-02 0. -1.
       -2   -1    0    0    0  501  0.00000000000E+00  0.00000000000E+00 -0.10114595860E+04  0.10114595860E+04  0.25500000920E-02 0.  1.
    10030    2    1    2    0    0  0.00000000000E+00  0.00000000000E+00  0.10555654847E+04  0.30784846568E+04  0.28918591407E+04 0.  0.
        5    1    3    3  502    0  0.18362764842E+03 -0.60521490922E+03 -0.85639334018E+03  0.10646294391E+04  0.46999998093E+01 0.  1.
       -5    1    3    3    0  502 -0.18362764842E+03  0.60521490922E+03  0.19119588249E+04  0.20138552177E+04  0.46999998093E+01 0. -1.
</event>
<event>
 5   0  0.1543678E-06  0.2886116E+04  0.7818609E-02  0.8277020E-01
        1   -1    0    0  501    0  0.00000000000E+00  0.00000000000E+00  0.21573571337E+04  0.21573571337E+04  0.50400001928E-02 0. -1.
       -1   -1    0    0    0  501  0.00000000000E+00  0.00000000000E+00 -0.96526294918E+03  0.96526294920E+03  0.50400001928E-02 0.  1.
    10030    2    1    2    0    0  0.00000000000E+00  0.00000000000E+00  0.11920941845E+04  0.31226200829E+04  0.28861163589E+04 0.  0.
        3    1    3    3  502    0 -0.13282225536E+04 -0.85524889292E+02 -0.72548150821E+01  0.13309929756E+04  0.10100000352E+00 0. -1.
       -3    1    3    3    0  502  0.13282225536E+04  0.85524889292E+02  0.11993489996E+04  0.17916271073E+04  0.10100000352E+00 0.  1.
</event>
<event>
 5   0  0.4187518E-06  0.2919170E+04  0.7818609E-02  0.8267197E-01
        2   -1    0    0  501    0  0.00000000000E+00  0.00000000000E+00  0.13367551935E+04  0.13367551935E+04  0.25500000920E-02 0. -1.
       -2   -1    0    0    0  501  0.00000000000E+00  0.00000000000E+00 -0.15937007861E+04  0.15937007861E+04  0.25500000920E-02 0.  1.
    10030    2    1    2    0    0  0.00000000000E+00  0.00000000000E+00 -0.25694559265E+03  0.29304559796E+04  0.29191696098E+04 0.  0.
        3    1    3    3  502    0 -0.27037242499E+03 -0.50830005687E+03 -0.14748957529E+04  0.15832838306E+04  0.10100000352E+00 0.  1.
       -3    1    3    3    0  502  0.27037242499E+03  0.50830005687E+03  0.12179501603E+04  0.13471721490E+04  0.10100000352E+00 0. -1.
</event>
<event>
 5   0  0.4148677E-06  0.2901779E+04  0.7818609E-02  0.8272348E-01
       -2   -1    0    0    0  501  0.00000000000E+00  0.00000000000E+00  0.10679633287E+04  0.10679633287E+04  0.25500000920E-02 0.  1.
        2   -1    0    0  501    0  0.00000000000E+00  0.00000000000E+00 -0.19711161992E+04  0.19711161992E+04  0.25500000920E-02 0. -1.
    10030    2    1    2    0    0  0.00000000000E+00  0.00000000000E+00 -0.90315287045E+03  0.30390795279E+04  0.29017786389E+04 0.  0.
        5    1    3    3  502    0  0.41447909152E+03  0.54362200913E+03 -0.17918709905E+04  0.19178481543E+04  0.46999998093E+01 0. -1.
       -5    1    3    3    0  502 -0.41447909152E+03 -0.54362200913E+03  0.88871812009E+03  0.11212313736E+04  0.46999998093E+01 0.  1.
</event>
<event>
 5   0  0.4148677E-06  0.2875229E+04  0.7818609E-02  0.8280286E-01
        2   -1    0    0  501    0  0.00000000000E+00  0.00000000000E+00  0.10151712389E+04  0.10151712389E+04  0.25500000920E-02 0. -1.
       -2   -1    0    0    0  501  0.00000000000E+00  0.00000000000E+00 -0.20358489973E+04  0.20358489973E+04  0.25500000920E-02 0.  1.
    10030    2    1    2    0    0  0.00000000000E+00  0.00000000000E+00 -0.10206777584E+04  0.30510202362E+04  0.28752289292E+04 0.  0.
        5    1    3    3  502    0 -0.57441682486E+03 -0.11646395201E+04  0.14411297744E+03  0.13065720573E+04  0.46999998093E+01 0. -1.
       -5    1    3    3    0  502  0.57441682486E+03  0.11646395201E+04 -0.11647907359E+04  0.17444481789E+04  0.46999998093E+01 0.  1.
</event>
<event>
 5   0  0.4187518E-06  0.2918927E+04  0.7818609E-02  0.8267268E-01
        2   -1    0    0  501    0  0.00000000000E+00  0.00000000000E+00  0.21810679067E+04  0.21810679067E+04  0.25500000920E-02 0. -1.
       -2   -1    0    0    0  501  0.00000000000E+00  0.00000000000E+00 -0.97660105048E+03  0.97660105048E+03  0.25500000920E-02 0.  1.
    10030    2    1    2    0    0  0.00000000000E+00  0.00000000000E+00  0.12044668563E+04  0.31576689572E+04  0.29189266581E+04 0.  0.
        3    1    3    3  502    0 -0.36475650727E+03 -0.14044088659E+04  0.43248655470E+03  0.15140859297E+04  0.10100000352E+00 0.  1.
       -3    1    3    3    0  502  0.36475650727E+03  0.14044088659E+04  0.77198030156E+03  0.16435830275E+04  0.10100000352E+00 0. -1.
</event>
<event>
 5   0  0.1602873E-06  0.2878639E+04  0.7818609E-02  0.8279261E-01
        1   -1    0    0  501    0  0.00000000000E+00  0.00000000000E+00  0.18656414351E+04  0.18656414351E+04  0.50400001928E-02 0.  1.
       -1   -1    0    0    0  501  0.00000000000E+00  0.00000000000E+00 -0.11104175373E+04  0.11104175373E+04  0.50400001928E-02 0. -1.
    10030    2    1    2    0    0  0.00000000000E+00  0.00000000000E+00  0.75522389774E+03  0.29760589724E+04  0.28786392396E+04 0.  0.
        1    1    3    3  502    0  0.11259013247E+04  0.44617298398E+03  0.11816972631E+04  0.16920793558E+04  0.50400001928E-02 0.  1.
       -1    1    3    3    0  502 -0.11259013247E+04 -0.44617298398E+03 -0.42647336534E+03  0.12839796166E+04  0.50400001928E-02 0. -1.
</event>
<event>
 5   0  0.1580212E-06  0.2924500E+04  0.7818609E-02  0.8265625E-01
       -1   -1    0    0    0  501  0.00000000000E+00  0.00000000000E+00  0.90294618431E+03  0.90294618433E+03  0.50400001928E-02 0.  1.
        1   -1    0    0  501    0  0.00000000000E+00  0.00000000000E+00 -0.23679975442E+04  0.23679975442E+04  0.50400001928E-02 0. -1.
    10030    2    1    2    0    0  0.00000000000E+00  0.00000000000E+00 -0.14650513599E+04  0.32709437285E+04  0.29244995107E+04 0.  0.
        4    1    3    3  502    0  0.13833382989E+04 -0.33278723958E+03 -0.11098316504E+04  0.18044667083E+04  0.12699999809E+01 0. -1.
       -4    1    3    3    0  502 -0.13833382989E+04  0.33278723958E+03 -0.35521970947E+03  0.14664770203E+04  0.12699999809E+01 0.  1.
</event>
<event>
 5   0  0.1511126E-06  0.2889956E+04  0.7818609E-02  0.8275872E-01
       -1   -1    0    0    0  501  0.00000000000E+00  0.00000000000E+00  0.13939792140E+04  0.13939792141E+04  0.50400001928E-02 0. -1.
        1   -1    0    0  501    0  0.00000000000E+00  0.00000000000E+00 -0.14978424033E+04  0.14978424033E+04  0.50400001928E-02 0.  1.
    10030    2    1    2    0    0  0.00000000000E+00  0.00000000000E+00 -0.10386318928E+03  0.28918216174E+04  0.28899558309E+04 0.  0.
        5    1    3    3  502    0  0.41768829741E+03 -0.12859776906E+04  0.45804138292E+03  0.14275945268E+04  0.46999998093E+01 0. -1.
       -5    1    3    3    0  502 -0.41768829741E+03  0.12859776906E+04 -0.56190457221E+03  0.14642270906E+04  0.46999998093E+01 0.  1.
</event>
<event>
 5   0  0.4162450E-06  0.2896075E+04  0.7818609E-02  0.8274046E-01
        2   -1    0    0  501    0  0.00000000000E+00  0.00000000000E+00  0.12972477100E+04  0.12972477101E+04  0.25500000920E-02 0.  1.
       -2   -1    0    0    0  501  0.00000000000E+00  0.00000000000E+00 -0.16163543683E+04  0.16163543683E+04  0.25500000920E-02 0. -1.
    10030    2    1    2    0    0  0.00000000000E+00  0.00000000000E+00 -0.31910665827E+03  0.29136020784E+04  0.28960745867E+04 0.  0.
        2    1    3    3  502    0  0.35588030295E+03  0.12318087841E+04  0.51742957329E+03  0.13826557901E+04  0.25500000920E-02 0.  1.
       -2    1    3    3    0  502 -0.35588030295E+03 -0.12318087841E+04 -0.83653623156E+03  0.15309462882E+04  0.25500000920E-02 0. -1.
</event>
<event>
 5   0  0.1543678E-06  0.2942931E+04  0.7818609E-02  0.8260218E-01
       -1   -1    0    0    0  501  0.00000000000E+00  0.00000000000E+00  0.16235893623E+04  0.16235893623E+04  0.50400001928E-02 0. -1.
        1   -1    0    0  501    0  0.00000000000E+00  0.00000000000E+00 -0.13335947287E+04  0.13335947287E+04  0.50400001928E-02 0.  1.
    10030    2    1    2    0    0  0.00000000000E+00  0.00000000000E+00  0.28999463361E+03  0.29571840910E+04  0.29429306584E+04 0.  0.
        3    1    3    3  502    0 -0.31350930512E+03  0.74788471225E+03  0.13787838881E+04  0.15995826479E+04  0.10100000352E+00 0. -1.
       -3    1    3    3    0  502  0.31350930512E+03 -0.74788471225E+03 -0.10887892545E+04  0.13576014430E+04  0.10100000352E+00 0.  1.
</event>
<event>
 5   0  0.1580212E-06  0.2691045E+04  0.7818609E-02  0.8337917E-01
        1   -1    0    0  501    0  0.00000000000E+00  0.00000000000E+00  0.77389366101E+03  0.77389366102E+03  0.50400001928E-02 0. -1.
       -1   -1    0    0    0  501  0.00000000000E+00  0.00000000000E+00 -0.23393786365E+04  0.23393786365E+04  0.50400001928E-02 0.  1.
    10030    2    1    2    0    0  0.00000000000E+00  0.00000000000E+00 -0.15654849755E+04  0.31132722975E+04  0.26910446280E+04 0.  0.
        4    1    3    3  502    0  0.10509881274E+04  0.84013791338E+03 -0.77745010031E+03  0.15539749125E+04  0.12699999809E+01 0.  1.
       -4    1    3    3    0  502 -0.10509881274E+04 -0.84013791338E+03 -0.78803487519E+03  0.15592973850E+04  0.12699999809E+01 0. -1.
</event>
<event>
 5   0  0.4224163E-06  0.2902874E+04  0.7818609E-02  0.8272023E-01
       -2   -1    0    0    0  501  0.00000000000E+00  0.00000000000E+00  0.31873438176E+04  0.31873438176E+04  0.25500000920E-02 0. -1.
        2   -1    0    0  501    0  0.00000000000E+00  0.00000000000E+00 -0.66094813896E+03  0.66094813896E+03  0.25500000920E-02 0.  1.
    10030    2    1    2    0    0  0.00000000000E+00  0.00000000000E+00  0.25263956787E+04  0.38482919566E+04  0.29028737241E+04 0.  0.
        4    1    3    3  502    0 -0.10978478752E+04 -0.57220011822E+03  0.25883665405E+03  0.12647849457E+04  0.12699999809E+01 0.  1.
       -4    1    3    3    0  502  0.10978478752E+04  0.57220011822E+03  0.22675590246E+04  0.25835070109E+04  0.12699999809E+01 0. -1.
</event>
<event>
 5   0  0.1580212E-06  0.2891853E+04  0.7818609E-02  0.8275306E-01
       -1   -1    0    0    0  501  0.00000000000E+00  0.00000000000E+00  0.33591527308E+04  0.33591527308E+04  0.50400001928E-02 0.  1.
        1   -1    0    0  501    0  0.00000000000E+00  0.00000000000E+00 -0.62239018616E+03  0.62239018618E+03  0.50400001928E-02 0. -1.
    10030    2    1    2    0    0  0.00000000000E+00  0.00000000000E+00  0.27367625447E+04  0.39815429170E+04  0.28918531730E+04 0.  0.
        4    1    3    3  502    0  0.78998361175E+03  0.77745880746E+03  0.26468072574E+04  0.28695132993E+04  0.12699999809E+01 0.  1.
       -4    1    3    3    0  502 -0.78998361175E+03 -0.77745880746E+03  0.89955287290E+02  0.11120296177E+04  0.12699999809E+01 0. -1.
</event>
<event>
 5   0  0.1580212E-06  0.2869912E+04  0.7818609E-02  0.8281886E-01
        1   -1    0    0  501    0  0.00000000000E+00  0.00000000000E+00  0.14906170153E+04  0.14906170153E+04  0.50400001928E-02 0.  1.
       -1   -1    0    0    0  501  0.00000000000E+00  0.00000000000E+00 -0.13813731862E+04  0.13813731862E+04  0.50400001928E-02 0. -1.
    10030    2    1    2    0    0  0.00000000000E+00  0.00000000000E+00  0.10924382911E+03  0.28719902015E+04  0.28699117588E+04 0.  0.
        4    1    3    3  502    0  0.19960780334E+03  0.89615844107E+03  0.11582140926E+04  0.14779731810E+04  0.12699999809E+01 0.  1.
       -4    1    3    3    0  502 -0.19960780334E+03 -0.89615844107E+03 -0.10489702635E+04  0.13940170204E+04  0.12699999809E+01 0. -1.
</event>
<event>
 5   0  0.1602873E-06  0.2898083E+04  0.7818609E-02  0.8273448E-01
        1   -1    0    0  501    0  0.00000000000E+00  0.00000000000E+00  0.23145309674E+04  0.23145309674E+04  0.50400001928E-02 0. -1.
       -1   -1    0    0    0  501  0.00000000000E+00  0.00000000000E+00 -0.90719088799E+03  0.90719088800E+03  0.50400001928E-02 0.  1.
    10030    2    1    2    0    0  0.00000000000E+00  0.00000000000E+00  0.14073400794E+04  0.32217218554E+04  0.28980830931E+04 0.  0.
        1    1    3    3  502    0  0.11450762760E+03  0.10840125799E+03  0.23049654537E+04  0.23103524779E+04  0.50400001928E-02 0. -1.
       -1    1    3    3    0  502 -0.11450762760E+03 -0.10840125799E+03 -0.89762537432E+03  0.91136937745E+03  0.50400001928E-02 0.  1.
</event>
<event>
 5   0  0.4115143E-06  0.2874896E+04  0.7818609E-02  0.8280386E-01
       -2   -1    0    0    0  501  0.00000000000E+00  0.00000000000E+00  0.75947305882E+03  0.75947305883E+03  0.25500000920E-02 0. -1.
        2   -1    0    0  501    0  0.00000000000E+00  0.00000000000E+00 -0.27206450645E+04  0.27206450645E+04  0.25500000920E-02 0.  1.
    10030    2    1    2    0    0  0.00000000000E+00  0.00000000000E+00 -0.19611720056E+04  0.34801181233E+04  0.28748959140E+04 0.  0.
        1    1    3    3  502    0  0.39440370142E+03  0.68914216628E+03  0.46991031144E+03  0.92265210446E+03  0.50400001928E-02 0. -1.
       -1    1    3    3    0  502 -0.39440370142E+03 -0.68914216628E+03 -0.24310823171E+04  0.25574660188E+04  0.50400001928E-02 0.  1.
</event>
<event>
 5   0  0.1543678E-06  0.2909502E+04  0.7818609E-02  0.8270056E-01
       -1   -1    0    0    0  501  0.00000000000E+00  0.00000000000E+00  0.98004081202E+03  0.98004081203E+03  0.50400001928E-02 0. -1.
        1   -1    0    0  501    0  0.00000000000E+00  0.00000000000E+00 -0.21594005465E+04  0.21594005465E+04  0.50400001928E-02 0.  1.
    10030    2    1    2    0    0  0.00000000000E+00  0.00000000000E+00 -0.11793597345E+04  0.31394413585E+04  0.29095021327E+04 0.  0.
        3    1    3    3  502    0 -0.41209929399E+03 -0.58481334266E+03 -0.19564618646E+04  0.20831647827E+04  0.10100000352E+00 0.  1.
       -3    1    3    3    0  502  0.41209929399E+03  0.58481334266E+03  0.77710213013E+03  0.10562765759E+04  0.10100000352E+00 0. -1.
</event>
<event>
 5   0  0.4162450E-06  0.2890418E+04  0.7818609E-02  0.8275734E-01
       -2   -1    0    0    0  501  0.00000000000E+00  0.00000000000E+00  0.19600813871E+04  0.19600813871E+04  0.25500000920E-02 0.  1.
        2   -1    0    0  501    0  0.00000000000E+00  0.00000000000E+00 -0.10655829521E+04  0.10655829521E+04  0.25500000920E-02 0. -1.
    10030    2    1    2    0    0  0.00000000000E+00  0.00000000000E+00  0.89449843497E+03  0.30256643393E+04  0.28904181780E+04 0.  0.
        2    1    3    3  502    0 -0.71715167516E+03  0.11290528987E+04 -0.12568356435E+03  0.13434520206E+04  0.25500000920E-02 0. -1.
       -2    1    3    3    0  502  0.71715167516E+03 -0.11290528987E+04  0.10201819993E+04  0.16822123187E+04  0.25500000920E-02 0.  1.
</event>
<event>
 5   0  0.4187518E-06  0.2887591E+04  0.7818609E-02  0.8276579E-01
       -2   -1    0    0    0  501  0.00000000000E+00  0.00000000000E+00  0.18258336093E+04  0.18258336093E+04  0.25500000920E-02 0. -1.
        2   -1    0    0  501    0  0.00000000000E+00  0.00000000000E+00 -0.11416954719E+04  0.11416954719E+04  0.25500000920E-02 0.  1.
    10030    2    1    2    0    0  0.00000000000E+00  0.00000000000E+00  0.68413813736E+03  0.29675290811E+04  0.28875913590E+04 0.  0.
        3    1    3    3  502    0 -0.11050417402E+04  0.91812098938E+03  0.48914828852E+03  0.15176723813E+04  0.10100000352E+00 0. -1.
       -3    1    3    3    0  502  0.11050417402E+04 -0.91812098938E+03  0.19498984884E+03  0.14498566998E+04  0.10100000352E+00 0.  1.
</event>
<event>
 5   0  0.1511126E-06  0.2872359E+04  0.7818609E-02  0.8281149E-01
        1   -1    0    0  501    0  0.00000000000E+00  0.00000000000E+00  0.15948294867E+04  0.15948294868E+04  0.50400001928E-02 0. -1.
       -1   -1    0    0    0  501  0.00000000000E+00  0.00000000000E+00 -0.12933118294E+04  0.12933118294E+04  0.50400001928E-02 0.  1.
    10030    2    1    2    0    0  0.00000000000E+00  0.00000000000E+00  0.30151765733E+03  0.28881413162E+04  0.28723591984E+04 0.  0.
        5    1    3    3  502    0 -0.17871391262E+02  0.14198036230E+04 -0.65896737034E+02  0.14214521393E+04  0.46999998093E+01 0.  1.
       -5    1    3    3    0  502  0.17871391262E+02 -0.14198036230E+04  0.36741439437E+03  0.14666891769E+04  0.46999998093E+01 0. -1.
</event>
<event>
 5   0  0.4224163E-06  0.2937067E+04  0.7818609E-02  0.8261934E-01
       -2   -1    0    0    0  501  0.00000000000E+00  0.00000000000E+00  0.16407503917E+04  0.16407503917E+04  0.25500000920E-02 0. -1.
        2   -1    0    0  501    0  0.00000000000E+00  0.00000000000E+00 -0.13143928900E+04  0.13143928900E+04  0.25500000920E-02 0.  1.
    10030    2    1    2    0    0  0.00000000000E+00  0.00000000000E+00  0.32635750174E+03  0.29551432817E+04  0.29370670058E+04 0.  0.
        4    1    3    3  502    0  0.55955254537E+03 -0.12000441891E+04  0.80221277828E+03  0.15481447159E+04  0.12699999809E+01 0.  1.
       -4    1    3    3    0  502 -0.55955254537E+03  0.12000441891E+04 -0.47585527654E+03  0.14069985658E+04  0.12699999809E+01 0. -1.
</event>
<event>
 5   0  0.4224163E-06  0.2842096E+04  0.7818609E-02  0.8290317E-01
        2   -1    0    0  501    0  0.00000000000E+00  0.00000000000E+00  0.16783696409E+04  0.16783696409E+04  0.25500000920E-02 0. -1.
       -2   -1    0    0    0  501  0.00000000000E+00  0.00000000000E+00 -0.12031782629E+04  0.12031782629E+04  0.25500000920E-02 0.  1.
    10030    2    1    2    0    0  0.00000000000E+00  0.00000000000E+00  0.47519137792E+03  0.28815479038E+04  0.28420963172E+04 0.  0.
        4    1    3    3  502    0  0.74040743907E+03  0.11905711430E+04  0.26169817275E+01  0.14020239955E+04  0.12699999809E+01 0. -1.
       -4    1    3    3    0  502 -0.74040743907E+03 -0.11905711430E+04  0.47257439619E+03  0.14795239083E+04  0.12699999809E+01 0.  1.
</event>
<event>
 5   0  0.4162450E-06  0.2899804E+04  0.7818609E-02  0.8272936E-01
       -2   -1    0    0    0  501  0.00000000000E+00  0.00000000000E+00  0.18096567527E+04  0.18096567527E+04  0.25500000920E-02 0.  1.
        2   -1    0    0  501    0  0.00000000000E+00  0.00000000000E+00 -0.11616655479E+04  0.11616655479E+04  0.25500000920E-02 0. -1.
    10030    2    1    2    0    0  0.00000000000E+00  0.00000000000E+00  0.64799120477E+03  0.29713223006E+04  0.28998040645E+04 0.  0.
        2    1    3    3  502    0  0.49085084175E+03 -0.10086062371E+04  0.12653453205E+04  0.16909523561E+04  0.25500000920E-02 0.  1.
       -2    1    3    3    0  502 -0.49085084175E+03  0.10086062371E+04 -0.61735411578E+03  0.12803699445E+04  0.25500000920E-02 0. -1.
</event>
<event>
 5   0  0.1511126E-06  0.2847521E+04  0.7818609E-02  0.8288665E-01
       -1   -1    0    0    0  501  0.00000000000E+00  0.00000000000E+00  0.96292365679E+03  0.96292365680E+03  0.50400001928E-02 0.  1.
        1   -1    0    0  501    0  0.00000000000E+00  0.00000000000E+00 -0.21051443562E+04  0.21051443562E+04  0.50400001928E-02 0. -1.
    10030    2    1    2    0    0  0.00000000000E+00  0.00000000000E+00 -0.11422206994E+04  0.30680680130E+04  0.28475205366E+04 0.  0.
        5    1    3    3  502    0  0.43185469531E+03 -0.48340622010E+03  0.79470298560E+03  0.10255510601E+04  0.46999998093E+01 0.  1.
       -5    1    3    3    0  502 -0.43185469531E+03  0.48340622010E+03 -0.19369236850E+04  0.20425169529E+04  0.46999998093E+01 0. -1.
</event>
<event>
 5   0  0.4187518E-06  0.2895063E+04  0.7818609E-02  0.8274348E-01
       -2   -1    0    0    0  501  0.00000000000E+00  0.00000000000E+00  0.10259464041E+04  0.10259464042E+04  0.25500000920E-02 0.  1.
        2   -1    0    0  501    0  0.00000000000E+00  0.00000000000E+00 -0.20423556553E+04  0.20423556553E+04  0.25500000920E-02 0. -1.
    10030    2    1    2    0    0  0.00000000000E+00  0.00000000000E+00 -0.10164092511E+04  0.30683020594E+04  0.28950629979E+04 0.  0.
        3    1    3    3  502    0 -0.11632421868E+04 -0.34074066125E+03  0.33041632295E+03  0.12563484947E+04  0.10100000352E+00 0.  1.
       -3    1    3    3    0  502  0.11632421868E+04  0.34074066125E+03 -0.13468255741E+04  0.18119535647E+04  0.10100000352E+00 0. -1.
</event>
<event>
 5   0  0.1511126E-06  0.2896373E+04  0.7818609E-02  0.8273957E-01
        1   -1    0    0  501    0  0.00000000000E+00  0.00000000000E+00  0.12509420811E+04  0.12509420812E+04  0.50400001928E-02 0. -1.
       -1   -1    0    0    0  501  0.00000000000E+00  0.00000000000E+00 -0.16765322325E+04  0.16765322325E+04  0.50400001928E-02 0.  1.
    10030    2    1    2    0    0  0.00000000000E+00  0.00000000000E+00 -0.42559015138E+03  0.29274743137E+04  0.28963734014E+04 0.  0.
        5    1    3    3  502    0 -0.10880770320E+04 -0.93847841298E+03 -0.39520252114E+03  0.14902551734E+04  0.46999998093E+01 0.  1.
       -5    1    3    3    0  502  0.10880770320E+04  0.93847841298E+03 -0.30387630241E+02  0.14372191403E+04  0.46999998093E+01 0. -1.
</event>
<event>
 5   0  0.4224163E-06  0.2916353E+04  0.7818609E-02  0.8268029E-01
       -2   -1    0    0    0  501  0.00000000000E+00  0.00000000000E+00  0.12670235645E+04  0.12670235645E+04  0.25500000920E-02 0.  1.
        2   -1    0    0  501    0  0.00000000000E+00  0.00000000000E+00 -0.16781682854E+04  0.16781682854E+04  0.25500000920E-02 0. -1.
    10030    2    1    2    0    0  0.00000000000E+00  0.00000000000E+00 -0.41114472090E+03  0.29451918499E+04  0.29163530395E+04 0.  0.
        4    1    3    3  502    0 -0.95389798954E+03 -0.48532928346E+03  0.79458011813E+03  0.13329760181E+04  0.12699999809E+01 0.  1.
       -4    1    3    3    0  502  0.95389798954E+03  0.48532928346E+03 -0.12057248390E+04  0.16122158318E+04  0.12699999809E+01 0. -1.
</event>
<event>
 5   0  0.1580212E-06  0.2917134E+04  0.7818609E-02  0.8267798E-01
        1   -1    0    0  501    0  0.00000000000E+00  0.00000000000E+00  0.14400530742E+04  0.14400530742E+04  0.50400001928E-02 0. -1.
       -1   -1    0    0    0  501  0.00000000000E+00  0.00000000000E+00 -0.14773190582E+04  0.14773190582E+04  0.50400001928E-02 0.  1.
    10030    2    1    2    0    0  0.00000000000E+00  0.00000000000E+00 -0.37265983992E+02  0.29173721324E+04  0.29171341083E+04 0.  0.
        4    1    3    3  502    0 -0.11867517683E+04 -0.83951858443E+03 -0.13799525564E+03  0.14602107782E+04  0.12699999809E+01 0.  1.
       -4    1    3    3    0  502  0.11867517683E+04  0.83951858443E+03  0.10072927165E+03  0.14571613543E+04  0.12699999809E+01 0. -1.
</event>
<event>
 5   0  0.1543678E-06  0.2909352E+04  0.7818609E-02  0.8270100E-01
        1   -1    0    0  501    0  0.00000000000E+00  0.00000000000E+00  0.22672996168E+04  0.22672996168E+04  0.50400001928E-02 0.  1.
       -1   -1    0    0    0  501  0.00000000000E+00  0.00000000000E+00 -0.93330509888E+03  0.93330509889E+03  0.50400001928E-02 0. -1.
    10030    2    1    2    0    0  0.00000000000E+00  0.00000000000E+00  0.13339945179E+04  0.32006047157E+04  0.29093520193E+04 0.  0.
        3    1    3    3  502    0  0.10056762151E+04  0.36198985843E+03 -0.41852729270E+03  0.11478616694E+04  0.10100000352E+00 0. -1.
       -3    1    3    3    0  502 -0.10056762151E+04 -0.36198985843E+03  0.17525218106E+04  0.20527430463E+04  0.10100000352E+00 0.  1.
</event>
<event>
 5   0  0.4162450E-06  0.2893363E+04  0.7818609E-02  0.8274855E-01
       -2   -1    0    0    0  501  0.00000000000E+00  0.00000000000E+00  0.13067234818E+04  0.13067234818E+04  0.25500000920E-02 0. -1.
        2   -1    0    0  501    0  0.00000000000E+00  0.00000000000E+00 -0.16016296134E+04  0.16016296134E+04  0.25500000920E-02 0.  1.
    10030    2    1    2    0    0  0.00000000000E+00  0.00000000000E+00 -0.29490613160E+03  0.29083530953E+04  0.28933627668E+04 0.  0.
        2    1    3    3  502    0  0.92910419969E+02  0.11070527111E+04  0.78400259534E+03  0.13597272229E+04  0.25500000920E-02 0. -1.
       -2    1    3    3    0  502 -0.92910419969E+02 -0.11070527111E+04 -0.10789087269E+04  0.15486258723E+04  0.25500000920E-02 0.  1.
</event>
<event>
 5   0  0.1543678E-06  0.2931832E+04  0.7818609E-02  0.8263469E-01
        1   -1    0    0  501    0  0.00000000000E+00  0.00000000000E+00  0.21358283049E+04  0.21358283049E+04  0.50400001928E-02 0. -1.
       -1   -1    0    0    0  501  0.00000000000E+00  0.00000000000E+00 -0.10061248351E+04  0.10061248351E+04  0.50400001928E-02 0.  1.
    10030    2    1    2    0    0  0.00000000000E+00  0.00000000000E+00  0.11297034698E+04  0.31419531400E+04  0.29318321242E+04 0.  0.
        3    1    3    3  502    0 -0.85556317034E+03  0.10844708197E+04  0.38920389539E+02  0.13818755748E+04  0.10100000352E+00 0.  1.
       -3    1    3    3    0  502  0.85556317034E+03 -0.10844708197E+04  0.10907830802E+04  0.17600775652E+04  0.10100000352E+00 0. -1.
</event>
<event>
 5   0  0.4115143E-06  0.3151501E+04  0.7818609E-02  0.8201744E-01
        2   -1    0    0  501    0  0.00000000000E+00  0.00000000000E+00  0.14156173819E+04  0.14156173819E+04  0.25500000920E-02 0. -1.
       -2   -1    0    0    0  501  0.00000000000E+00  0.00000000000E+00 -0.17539976068E+04  0.17539976069E+04  0.25500000920E-02 0.  1.
    10030    2    1    2    0    0  0.00000000000E+00  0.00000000000E+00 -0.33838022492E+03  0.31696149888E+04  0.31515009123E+04 0.  0.
        1    1    3    3  502    0 -0.82628313463E+03  0.74331199267E+03 -0.12926301544E+04  0.17047431634E+04  0.50400001928E-02 0.  1.
       -1    1    3    3    0  502  0.82628313463E+03 -0.74331199267E+03  0.95424992944E+03  0.14648718254E+04  0.50400001928E-02 0. -1.
</event>
<event>
 5   0  0.4115143E-06  0.2753512E+04  0.7818609E-02  0.8317848E-01
       -2   -1    0    0    0  501  0.00000000000E+00  0.00000000000E+00  0.10304613593E+04  0.10304613593E+04  0.25500000920E-02 0.  1.
        2   -1    0    0  501    0  0.00000000000E+00  0.00000000000E+00 -0.18394261097E+04  0.18394261097E+04  0.25500000920E-02 0. -1.
    10030    2    1    2    0    0  0.00000000000E+00  0.00000000000E+00 -0.80896475040E+03  0.28698874691E+04  0.27535123239E+04 0.  0.
        1    1    3    3  502    0 -0.68763930677E+03  0.68632439797E+03 -0.14211942118E+04  0.17215347755E+04  0.50400001928E-02 0. -1.
       -1    1    3    3    0  502  0.68763930677E+03 -0.68632439797E+03  0.61222946139E+03  0.11483526936E+04  0.50400001928E-02 0.  1.
</event>
<event>
 5   0  0.4187518E-06  0.2903935E+04  0.7818609E-02  0.8271708E-01
       -2   -1    0    0    0  501  0.00000000000E+00  0.00000000000E+00  0.16784135581E+04  0.16784135581E+04  0.25500000920E-02 0. -1.
        2   -1    0    0  501    0  0.00000000000E+00  0.00000000000E+00 -0.12560730386E+04  0.12560730386E+04  0.25500000920E-02 0.  1.
    10030    2    1    2    0    0  0.00000000000E+00  0.00000000000E+00  0.42234051951E+03  0.29344865967E+04  0.29039352734E+04 0.  0.
        3    1    3    3  502    0 -0.12118261485E+04 -0.77896187231E+03  0.27862270925E+02  0.14408610374E+04  0.10100000352E+00 0. -1.
       -3    1    3    3    0  502  0.12118261485E+04  0.77896187231E+03  0.39447824858E+03  0.14936255593E+04  0.10100000352E+00 0.  1.
</event>
<event>
 5   0  0.4187518E-06  0.2876976E+04  0.7818609E-02  0.8279761E-01
        2   -1    0    0  501    0  0.00000000000E+00  0.00000000000E+00  0.12182679138E+04  0.12182679138E+04  0.25500000920E-02 0. -1.
       -2   -1    0    0    0  501  0.00000000000E+00  0.00000000000E+00 -0.16985166599E+04  0.16985166599E+04  0.25500000920E-02 0.  1.
    10030    2    1    2    0    0  0.00000000000E+00  0.00000000000E+00 -0.48024874615E+03  0.29167845737E+04  0.28769764321E+04 0.  0.
        3    1    3    3  502    0  0.31855358107E+03 -0.17455173873E+03  0.11710052143E+04  0.12260497199E+04  0.10100000352E+00 0. -1.
       -3    1    3    3    0  502 -0.31855358107E+03  0.17455173873E+03 -0.16512539605E+04  0.16907348538E+04  0.10100000352E+00 0.  1.
</event>
<event>
 5   0  0.4148677E-06  0.2922669E+04  0.7818609E-02  0.8266165E-01
       -2   -1    0    0    0  501  0.00000000000E+00  0.00000000000E+00  0.10156546053E+04  0.10156546053E+04  0.25500000920E-02 0. -1.
        2   -1    0    0  501    0  0.00000000000E+00  0.00000000000E+00 -0.21025829058E+04  0.21025829058E+04  0.25500000920E-02 0.  1.
    10030    2    1    2    0    0  0.00000000000E+00  0.00000000000E+00 -0.10869283006E+04  0.31182375111E+04  0.29226686513E+04 0.  0.
        5    1    3    3  502    0 -0.13644249823E+04  0.39535155875E+03 -0.90921129555E+03  0.16866077366E+04  0.46999998093E+01 0.  1.
       -5    1    3    3    0  502  0.13644249823E+04 -0.39535155875E+03 -0.17771700502E+03  0.14316297745E+04  0.46999998093E+01 0. -1.
</event>
<event>
 5   0  0.1543678E-06  0.2901448E+04  0.7818609E-02  0.8272447E-01
        1   -1    0    0  501    0  0.00000000000E+00  0.00000000000E+00  0.16998096115E+04  0.16998096116E+04  0.50400001928E-02 0. -1.
       -1   -1    0    0    0  501  0.00000000000E+00  0.00000000000E+00 -0.12381386673E+04  0.12381386673E+04  0.50400001928E-02 0.  1.
    10030    2    1    2    0    0  0.00000000000E+00  0.00000000000E+00  0.46167094428E+03  0.29379482788E+04  0.29014479193E+04 0.  0.
        3    1    3    3  502    0 -0.10932057122E+04  0.89250559464E+03  0.57112117682E+03  0.15224468379E+04  0.10100000352E+00 0. -1.
       -3    1    3    3    0  502  0.10932057122E+04 -0.89250559464E+03 -0.10945023254E+03  0.14155014409E+04  0.10100000352E+00 0.  1.
</event>
<event>
 5   0  0.1580212E-06  0.2886466E+04  0.7818609E-02  0.8276916E-01
       -1   -1    0    0    0  501  0.00000000000E+00  0.00000000000E+00  0.10626957278E+04  0.10626957278E+04  0.50400001928E-02 0.  1.
        1   -1    0    0  501    0  0.00000000000E+00  0.00000000000E+00 -0.19600354795E+04  0.19600354795E+04  0.50400001928E-02 0. -1.
    10030    2    1    2    0    0  0.00000000000E+00  0.00000000000E+00 -0.89733975170E+03  0.30227312072E+04  0.28864658877E+04 0.  0.
        4    1    3    3  502    0  0.59101983635E+03 -0.12554311599E+04 -0.86427819680E+03  0.16347447075E+04  0.12699999809E+01 0. -1.
       -4    1    3    3    0  502 -0.59101983635E+03  0.12554311599E+04 -0.33061554898E+02  0.13879864998E+04  0.12699999809E+01 0.  1.
</event>
<event>
 5   0  0.4224163E-06  0.2902216E+04  0.7818609E-02  0.8272219E-01
       -2   -1    0    0    0  501  0.00000000000E+00  0.00000000000E+00  0.88387778154E+03  0.88387778154E+03  0.25500000920E-02 0.  1.
        2   -1    0    0  501    0  0.00000000000E+00  0.00000000000E+00 -0.23823585238E+04  0.23823585238E+04  0.25500000920E-02 0. -1.
    10030    2    1    2    0    0  0.00000000000E+00  0.00000000000E+00 -0.14984807423E+04  0.32662363054E+04  0.29022155446E+04 0.  0.
        4    1    3    3  502    0 -0.12592695325E+04  0.42708127137E+03 -0.14031075803E+04  0.19330987203E+04  0.12699999809E+01 0. -1.
       -4    1    3    3    0  502  0.12592695325E+04 -0.42708127137E+03 -0.95373161988E+02  0.13331375850E+04  0.12699999809E+01 0.  1.
</event>
<event>
 5   0  0.1543678E-06  0.2936386E+04  0.7818609E-02  0.8262133E-01
       -1   -1    0    0    0  501  0.00000000000E+00  0.00000000000E+00  0.11980230524E+04  0.11980230524E+04  0.50400001928E-02 0.  1.
        1   -1    0    0  501    0  0.00000000000E+00  0.00000000000E+00 -0.17992898123E+04  0.17992898123E+04  0.50400001928E-02 0. -1.
    10030    2    1    2    0    0  0.00000000000E+00  0.00000000000E+00 -0.60126675997E+03  0.29973128647E+04  0.29363859917E+04 0.  0.
        3    1    3    3  502    0  0.34223880218E+03  0.77411571759E+03  0.92392849627E+03  0.12530069506E+04  0.10100000352E+00 0.  1.
       -3    1    3    3    0  502 -0.34223880218E+03 -0.77411571759E+03 -0.15251952562E+04  0.17443059141E+04  0.10100000352E+00 0. -1.
</event>
<event>
 5   0  0.1580212E-06  0.2939742E+04  0.7818609E-02  0.8261150E-01
        1   -1    0    0  501    0  0.00000000000E+00  0.00000000000E+00  0.13431288689E+04  0.13431288689E+04  0.50400001928E-02 0. -1.
       -1   -1    0    0    0  501  0.00000000000E+00  0.00000000000E+00 -0.16085734488E+04  0.16085734488E+04  0.50400001928E-02 0.  1.
    10030    2    1    2    0    0  0.00000000000E+00  0.00000000000E+00 -0.26544457985E+03  0.29517023177E+04  0.29397424628E+04 0.  0.
        4    1    3    3  502    0  0.32231048226E+03  0.99041712960E+03 -0.11741060731E+04  0.15695020935E+04  0.12699999809E+01 0.  1.
       -4    1    3    3    0  502 -0.32231048226E+03 -0.99041712960E+03  0.90866149330E+03  0.13822002242E+04  0.12699999809E+01 0. -1.
</event>
<event>
 5   0  0.1511126E-06  0.2888834E+04  0.7818609E-02  0.8276207E-01
        1   -1    0    0  501    0  0.00000000000E+00  0.00000000000E+00  0.18707745556E+04  0.18707745556E+04  0.50400001928E-02 0. -1.
       -1   -1    0    0    0  501  0.00000000000E+00  0.00000000000E+00 -0.11152282641E+04  0.11152282641E+04  0.50400001928E-02 0.  1.
    10030    2    1    2    0    0  0.00000000000E+00  0.00000000000E+00  0.75554629149E+03  0.29860028196E+04  0.28888341317E+04 0.  0.
        5    1    3    3  502    0  0.47770391339E+03 -0.42823818540E+03 -0.95986903347E+03  0.11545387060E+04  0.46999998093E+01 0.  1.
       -5    1    3    3    0  502 -0.47770391339E+03  0.42823818540E+03  0.17154153250E+04  0.18314641136E+04  0.46999998093E+01 0. -1.
</event>
<event>
 5   0  0.1543678E-06  0.2882546E+04  0.7818609E-02  0.8278090E-01
       -1   -1    0    0    0  501  0.00000000000E+00  0.00000000000E+00  0.15183167054E+04  0.15183167054E+04  0.50400001928E-02 0.  1.
        1   -1    0    0  501    0  0.00000000000E+00  0.00000000000E+00 -0.13681383000E+04  0.13681383000E+04  0.50400001928E-02 0. -1.
    10030    2    1    2    0    0  0.00000000000E+00  0.00000000000E+00  0.15017840539E+03  0.28864550053E+04  0.28825455668E+04 0.  0.
        3    1    3    3  502    0 -0.42472630103E+03 -0.52137128017E+03  0.13515913360E+04  0.15096422067E+04  0.10100000352E+00 0.  1.
       -3    1    3    3    0  502  0.42472630103E+03  0.52137128017E+03 -0.12014129306E+04  0.13768127987E+04  0.10100000352E+00 0. -1.
</event>
<event>
 5   0  0.1511126E-06  0.2910906E+04  0.7818609E-02  0.8269640E-01
        1   -1    0    0  501    0  0.00000000000E+00  0.00000000000E+00  0.29693889567E+04  0.29693889567E+04  0.50400001928E-02 0.  1.
       -1   -1    0    0    0  501  0.00000000000E+00  0.00000000000E+00 -0.71339380922E+03  0.71339380924E+03  0.50400001928E-02 0. -1.
    10030    2    1    2    0    0  0.00000000000E+00  0.00000000000E+00  0.22559951475E+04  0.36827827660E+04  0.29109061812E+04 0.  0.
        5    1    3    3  502    0 -0.59358751147E+03 -0.40764222838E+03 -0.47222792532E+03  0.86112694975E+03  0.46999998093E+01 0. -1.
       -5    1    3    3    0  502  0.59358751147E+03  0.40764222838E+03  0.27282230728E+04  0.28216558162E+04  0.46999998093E+01 0.  1.
</event>
<event>
 5   0  0.1550278E-06  0.2902782E+04  0.7818609E-02  0.8272050E-01
       -1   -1    0    0    0  501  0.00000000000E+00  0.00000000000E+00  0.13071678705E+04  0.13071678705E+04  0.50400001928E-02 0. -1.
        1   -1    0    0  501    0  0.00000000000E+00  0.00000000000E+00 -0.16115265973E+04  0.16115265974E+04  0.50400001928E-02 0.  1.
    10030    2    1    2    0    0  0.00000000000E+00  0.00000000000E+00 -0.30435872688E+03  0.29186944678E+04  0.29027819694E+04 0.  0.
        2    1    3    3  502    0  0.62490377144E+03  0.71630181240E+03 -0.12549792256E+04  0.15743461712E+04  0.25500000920E-02 0.  1.
       -2    1    3    3    0  502 -0.62490377144E+03 -0.71630181240E+03  0.95062049875E+03  0.13443482966E+04  0.25500000920E-02 0. -1.
</event>
<event>
 5   0  0.1550278E-06  0.2900308E+04  0.7818609E-02  0.8272786E-01
       -1   -1    0    0    0  501  0.00000000000E+00  0.00000000000E+00  0.11857730319E+04  0.11857730319E+04  0.50400001928E-02 0. -1.
        1   -1    0    0  501    0  0.00000000000E+00  0.00000000000E+00 -0.17734813762E+04  0.17734813762E+04  0.50400001928E-02 0.  1.
    10030    2    1    2    0    0  0.00000000000E+00  0.00000000000E+00 -0.58770834430E+03  0.29592544082E+04  0.29003078378E+04 0.  0.
        2    1    3    3  502    0 -0.31765878140E+03  0.51405476542E+03  0.10511897834E+04  0.12125012841E+04  0.25500000920E-02 0. -1.
       -2    1    3    3    0  502  0.31765878140E+03 -0.51405476542E+03 -0.16388981277E+04  0.17467531240E+04  0.25500000920E-02 0.  1.
</event>
<event>
 5   0  0.4148677E-06  0.2914773E+04  0.7818609E-02  0.8268496E-01
        2   -1    0    0  501    0  0.00000000000E+00  0.00000000000E+00  0.89947033903E+03  0.89947033903E+03  0.25500000920E-02 0. -1.
       -2   -1    0    0    0  501  0.00000000000E+00  0.00000000000E+00 -0.23613617225E+04  0.23613617225E+04  0.25500000920E-02 0.  1.
    10030    2    1    2    0    0  0.00000000000E+00  0.00000000000E+00 -0.14618913835E+04  0.32608320616E+04  0.29147726012E+04 0.  0.
        5    1    3    3  502    0 -0.17060936909E+03 -0.10661959935E+04 -0.18259672415E+04  0.21213344645E+04  0.46999998093E+01 0.  1.
       -5    1    3    3    0  502  0.17060936909E+03  0.10661959935E+04  0.36407585800E+03  0.11394975970E+04  0.46999998093E+01 0. -1.
</event>
<event>
 5   0  0.1543678E-06  0.2910524E+04  0.7818609E-02  0.8269753E-01
       -1   -1    0    0    0  501  0.00000000000E+00  0.00000000000E+00  0.12496142566E+04  0.12496142566E+04  0.50400001928E-02 0.  1.
        1   -1    0    0  501    0  0.00000000000E+00  0.00000000000E+00 -0.16947529458E+04  0.16947529458E+04  0.50400001928E-02 0. -1.
    10030    2    1    2    0    0  0.00000000000E+00  0.00000000000E+00 -0.44513868921E+03  0.29443672024E+04  0.29105239683E+04 0.  0.
        3    1    3    3  502    0 -0.11698562720E+02  0.11151312086E+04  0.72325293570E+03  0.13291912157E+04  0.10100000352E+00 0.  1.
       -3    1    3    3    0  502  0.11698562720E+02 -0.11151312086E+04 -0.11683916249E+04  0.16151759867E+04  0.10100000352E+00 0. -1.
</event>
<event>
 5   0  0.4148677E-06  0.2911033E+04  0.7818609E-02  0.8269602E-01
        2   -1    0    0  501    0  0.00000000000E+00  0.00000000000E+00  0.15971125697E+04  0.15971125697E+04  0.25500000920E-02 0. -1.
       -2   -1    0    0    0  501  0.00000000000E+00  0.00000000000E+00 -0.13264739585E+04  0.13264739585E+04  0.25500000920E-02 0.  1.
    10030    2    1    2    0    0  0.00000000000E+00  0.00000000000E+00  0.27063861124E+03  0.29235865282E+04  0.29110329662E+04 0.  0.
        5    1    3    3  502    0 -0.72697539734E+03  0.59389280869E+03 -0.98181935076E+03  0.13583788956E+04  0.46999998093E+01 0.  1.
       -5    1    3    3    0  502  0.72697539734E+03 -0.59389280869E+03  0.12524579620E+04  0.15652076326E+04  0.46999998093E+01 0. -1.
</event>
<event>
 5   0  0.1543678E-06  0.2893536E+04  0.7818609E-02  0.8274803E-01
        1   -1    0    0  501    0  0.00000000000E+00  0.00000000000E+00  0.13165414942E+04  0.13165414943E+04  0.50400001928E-02 0. -1.
       -1   -1    0    0    0  501  0.00000000000E+00  0.00000000000E+00 -0.15898761719E+04  0.15898761720E+04  0.50400001928E-02 0.  1.
    10030    2    1    2    0    0  0.00000000000E+00  0.00000000000E+00 -0.27333467771E+03  0.29064176662E+04  0.28935362110E+04 0.  0.
        3    1    3    3  502    0 -0.80338772865E+02 -0.12174690278E+04 -0.91759408216E+03  0.15266512575E+04  0.10100000352E+00 0. -1.
       -3    1    3    3    0  502  0.80338772865E+02  0.12174690278E+04  0.64425940445E+03  0.13797664087E+04  0.10100000352E+00 0.  1.
</event>
<event>
 5   0  0.4224163E-06  0.2909722E+04  0.7818609E-02  0.8269991E-01
       -2   -1    0    0    0  501  0.00000000000E+00  0.00000000000E+00  0.10285931311E+04  0.10285931311E+04  0.25500000920E-02 0. -1.
        2   -1    0    0  501    0  0.00000000000E+00  0.00000000000E+00 -0.20577822363E+04  0.20577822363E+04  0.25500000920E-02 0.  1.
    10030    2    1    2    0    0  0.00000000000E+00  0.00000000000E+00 -0.10291891052E+04  0.30863753674E+04  0.29097220991E+04 0.  0.
        4    1    3    3  502    0 -0.86467301175E+03 -0.82071855722E+03 -0.13991163627E+04  0.18381421536E+04  0.12699999809E+01 0.  1.
       -4    1    3    3    0  502  0.86467301175E+03  0.82071855722E+03  0.36992725746E+03  0.12482332138E+04  0.12699999809E+01 0. -1.
</event>
<event>
 5   0  0.1580212E-06  0.2856157E+04  0.7818609E-02  0.8286043E-01
        1   -1    0    0  501    0  0.00000000000E+00  0.00000000000E+00  0.11315189351E+04  0.11315189351E+04  0.50400001928E-02 0. -1.
       -1   -1    0    0    0  501  0.00000000000E+00  0.00000000000E+00 -0.18023630198E+04  0.18023630198E+04  0.50400001928E-02 0.  1.
    10030    2    1    2    0    0  0.00000000000E+00  0.00000000000E+00 -0.67084408467E+03  0.29338819549E+04  0.28561567778E+04 0.  0.
        4    1    3    3  502    0  0.71524377663E+03 -0.68162720874E+03  0.72376227341E+03  0.12247541602E+04  0.12699999809E+01 0. -1.
       -4    1    3    3    0  502 -0.71524377663E+03  0.68162720874E+03 -0.13946063581E+04  0.17091277947E+04  0.12699999809E+01 0.  1.
</event>
<event>
 5   0  0.4224163E-06  0.2860006E+04  0.7818609E-02  0.8284877E-01
       -2   -1    0    0    0  501  0.00000000000E+00  0.00000000000E+00  0.17913020657E+04  0.17913020657E+04  0.25500000920E-02 0. -1.
        2   -1    0    0  501    0  0.00000000000E+00  0.00000000000E+00 -0.11415769880E+04  0.11415769880E+04  0.25500000920E-02 0.  1.
    10030    2    1    2    0    0  0.00000000000E+00  0.00000000000E+00  0.64972507768E+03  0.29328790537E+04  0.28600064453E+04 0.  0.
        4    1    3    3  502    0  0.24077106415E+03  0.12199014555E+04  0.10490991885E+04  0.16268807536E+04  0.12699999809E+01 0. -1.
       -4    1    3    3    0  502 -0.24077106415E+03 -0.12199014555E+04 -0.39937411078E+03  0.13059983000E+04  0.12699999809E+01 0.  1.
</event>
<event>
 5   0  0.4162450E-06  0.3038369E+04  0.7818609E-02  0.8232858E-01
       -2   -1    0    0    0  501  0.00000000000E+00  0.00000000000E+00  0.10619799855E+04  0.10619799855E+04  0.25500000920E-02 0.  1.
        2   -1    0    0  501    0  0.00000000000E+00  0.00000000000E+00 -0.21732250592E+04  0.21732250592E+04  0.25500000920E-02 0. -1.
    10030    2    1    2    0    0  0.00000000000E+00  0.00000000000E+00 -0.11112450736E+04  0.32352050447E+04  0.30383689815E+04 0.  0.
        2    1    3    3  502    0  0.11538451275E+04 -0.84997082698E+03 -0.18869711436E+02  0.14332358672E+04  0.25500000920E-02 0.  1.
       -2    1    3    3    0  502 -0.11538451275E+04  0.84997082698E+03 -0.10923753622E+04  0.18019691775E+04  0.25500000920E-02 0. -1.
</event>
<event>
 5   0  0.1602873E-06  0.2896318E+04  0.7818609E-02  0.8273974E-01
       -1   -1    0    0    0  501  0.00000000000E+00  0.00000000000E+00  0.19271783086E+04  0.19271783086E+04  0.50400001928E-02 0.  1.
        1   -1    0    0  501    0  0.00000000000E+00  0.00000000000E+00 -0.10882044375E+04  0.10882044375E+04  0.50400001928E-02 0. -1.
    10030    2    1    2    0    0  0.00000000000E+00  0.00000000000E+00  0.83897387108E+03  0.30153827461E+04  0.28963176533E+04 0.  0.
        1    1    3    3  502    0 -0.14325369477E+04  0.15100266061E+02  0.19918995945E+03  0.14463978583E+04  0.50400001928E-02 0. -1.
       -1    1    3    3    0  502  0.14325369477E+04 -0.15100266061E+02  0.63978391163E+03  0.15689848878E+04  0.50400001928E-02 0.  1.
</event>
<event>
 5   0  0.1602873E-06  0.3012135E+04  0.7818609E-02  0.8240274E-01
        1   -1    0    0  501    0  0.00000000000E+00  0.00000000000E+00  0.13770249517E+04  0.13770249517E+04  0.50400001928E-02 0.  1.
       -1   -1    0    0    0  501  0.00000000000E+00  0.00000000000E+00 -0.16472029504E+04  0.16472029504E+04  0.50400001928E-02 0. -1.
    10030    2    1    2    0    0  0.00000000000E+00  0.00000000000E+00 -0.27017799872E+03  0.30242279021E+04  0.30121351651E+04 0.  0.
        1    1    3    3  502    0  0.43832450181E+03  0.12405125187E+04 -0.87099811673E+03  0.15778584846E+04  0.50400001928E-02 0. -1.
       -1    1    3    3    0  502 -0.43832450181E+03 -0.12405125187E+04  0.60082011801E+03  0.14463694176E+04  0.50400001928E-02 0.  1.
</event>
<event>
 5   0  0.4148677E-06  0.2917871E+04  0.7818609E-02  0.8267580E-01
       -2   -1    0    0    0  501  0.00000000000E+00  0.00000000000E+00  0.20036845345E+04  0.20036845345E+04  0.25500000920E-02 0. -1.
        2   -1    0    0  501    0  0.00000000000E+00  0.00000000000E+00 -0.10622895745E+04  0.10622895745E+04  0.25500000920E-02 0.  1.
    10030    2    1    2    0    0  0.00000000000E+00  0.00000000000E+00  0.94139495993E+03  0.30659741090E+04  0.29178712731E+04 0.  0.
        5    1    3    3  502    0  0.89140755737E+03 -0.22484856743E+03  0.16610280871E+04  0.18984732571E+04  0.46999998093E+01 0. -1.
       -5    1    3    3    0  502 -0.89140755737E+03  0.22484856743E+03 -0.71963312718E+03  0.11675008520E+04  0.46999998093E+01 0.  1.
</event>
<event>
 5   0  0.4187518E-06  0.2888749E+04  0.7818609E-02  0.8276233E-01
       -2   -1    0    0    0  501  0.00000000000E+00  0.00000000000E+00  0.10382281513E+04  0.10382281513E+04  0.25500000920E-02 0. -1.
        2   -1    0    0  501    0  0.00000000000E+00  0.00000000000E+00 -0.20094021521E+04  0.20094021521E+04  0.25500000920E-02 0.  1.
    10030    2    1    2    0    0  0.00000000000E+00  0.00000000000E+00 -0.97117400083E+03  0.30476303035E+04  0.28887491284E+04 0.  0.
        3    1    3    3  502    0  0.14027978893E+04  0.59828338809E+02 -0.12813574774E+03  0.14099078439E+04  0.10100000352E+00 0. -1.
       -3    1    3    3    0  502 -0.14027978893E+04 -0.59828338809E+02 -0.84303825309E+03  0.16377224596E+04  0.10100000352E+00 0.  1.
</event>
<event>
 5   0  0.4148677E-06  0.2895278E+04  0.7818609E-02  0.8274284E-01
        2   -1    0    0  501    0  0.00000000000E+00  0.00000000000E+00  0.20354343305E+04  0.20354343305E+04  0.25500000920E-02 0.  1.
       -2   -1    0    0    0  501  0.00000000000E+00  0.00000000000E+00 -0.10295882642E+04  0.10295882642E+04  0.25500000920E-02 0. -1.
    10030    2    1    2    0    0  0.00000000000E+00  0.00000000000E+00  0.10058460664E+04  0.30650225947E+04  0.28952784317E+04 0.  0.
        5    1    3    3  502    0  0.84028879856E+03  0.86489082734E+03  0.13508276973E+04  0.18107675075E+04  0.46999998093E+01 0.  1.
       -5    1    3    3    0  502 -0.84028879856E+03 -0.86489082734E+03 -0.34498163095E+03  0.12542550873E+04  0.46999998093E+01 0. -1.
</event>
<event>
 5   0  0.1550278E-06  0.2883112E+04  0.7818609E-02  0.8277920E-01
       -1   -1    0    0    0  501  0.00000000000E+00  0.00000000000E+00  0.14535431951E+04  0.14535431951E+04  0.50400001928E-02 0.  1.
        1   -1    0    0  501    0  0.00000000000E+00  0.00000000000E+00 -0.14296679541E+04  0.14296679541E+04  0.50400001928E-02 0. -1.
    10030    2    1    2    0    0  0.00000000000E+00  0.00000000000E+00  0.23875241028E+02  0.28832111492E+04  0.28831122947E+04 0.  0.
        2    1    3    3  502    0 -0.68379856049E+03  0.72976432436E+03  0.10502158139E+04  0.14502033293E+04  0.25500000920E-02 0.  1.
       -2    1    3    3    0  502  0.68379856049E+03 -0.72976432436E+03 -0.10263405729E+04  0.14330078199E+04  0.25500000920E-02 0. -1.
</event>
<event>
 5   0  0.4224163E-06  0.2886747E+04  0.7818609E-02  0.8276831E-01
        2   -1    0    0  501    0  0.00000000000E+00  0.00000000000E+00  0.15325143112E+04  0.15325143112E+04  0.25500000920E-02 0.  1.
       -2   -1    0    0    0  501  0.00000000000E+00  0.00000000000E+00 -0.13594179851E+04  0.13594179851E+04  0.25500000920E-02 0. -1.
    10030    2    1    2    0    0  0.00000000000E+00  0.00000000000E+00  0.17309632609E+03  0.28919322963E+04  0.28867473163E+04 0.  0.
        4    1    3    3  502    0  0.10272171452E+04  0.32954402283E+03 -0.87410672660E+03  0.13884662433E+04  0.12699999809E+01 0. -1.
       -4    1    3    3    0  502 -0.10272171452E+04 -0.32954402283E+03  0.10472030527E+04  0.15034660531E+04  0.12699999809E+01 0.  1.
</event>
<event>
 5   0  0.1543678E-06  0.2879189E+04  0.7818609E-02  0.8279096E-01
        1   -1    0    0  501    0  0.00000000000E+00  0.00000000000E+00  0.22210846808E+04  0.22210846808E+04  0.50400001928E-02 0. -1.
       -1   -1    0    0    0  501  0.00000000000E+00  0.00000000000E+00 -0.93307208102E+03  0.93307208103E+03  0.50400001928E-02 0.  1.
    10030    2    1    2    0    0  0.00000000000E+00  0.00000000000E+00  0.12880125998E+04  0.31541567618E+04  0.28791888477E+04 0.  0.
        3    1    3    3  502    0 -0.97362739355E+03 -0.77876591633E+03 -0.14445482149E+03  0.12551071108E+04  0.10100000352E+00 0.  1.
       -3    1    3    3    0  502  0.97362739355E+03  0.77876591633E+03  0.14324674212E+04  0.18990496510E+04  0.10100000352E+00 0. -1.
</event>
<event>
 5   0  0.4187518E-06  0.2895839E+04  0.7818609E-02  0.8274117E-01
       -2   -1    0    0    0  501  0.00000000000E+00  0.00000000000E+00  0.13806479065E+04  0.13806479065E+04  0.25500000920E-02 0.  1.
        2   -1    0    0  501    0  0.00000000000E+00  0.00000000000E+00 -0.15184690583E+04  0.15184690583E+04  0.25500000920E-02 0. -1.
    10030    2    1    2    0    0  0.00000000000E+00  0.00000000000E+00 -0.13782115187E+03  0.28991169648E+04  0.28958391712E+04 0.  0.
        3    1    3    3  502    0 -0.21097557444E+03 -0.36819276829E+03  0.13169953692E+04  0.13836738851E+04  0.10100000352E+00 0.  1.
       -3    1    3    3    0  502  0.21097557444E+03  0.36819276829E+03 -0.14548165211E+04  0.15154430797E+04  0.10100000352E+00 0. -1.
</event>
<event>
 5   0  0.1602873E-06  0.2901060E+04  0.7818609E-02  0.8272562E-01
       -1   -1    0    0    0  501  0.00000000000E+00  0.00000000000E+00  0.16204116506E+04  0.16204116506E+04  0.50400001928E-02 0. -1.
        1   -1    0    0  501    0  0.00000000000E+00  0.00000000000E+00 -0.12984587083E+04  0.12984587083E+04  0.50400001928E-02 0.  1.
    10030    2    1    2    0    0  0.00000000000E+00  0.00000000000E+00  0.32195294229E+03  0.29188703590E+04  0.29010602330E+04 0.  0.
        1    1    3    3  502    0 -0.28087862930E+03  0.10158214659E+04 -0.84176202709E+03  0.13488325935E+04  0.50400001928E-02 0.  1.
       -1    1    3    3    0  502  0.28087862930E+03 -0.10158214659E+04  0.11637149694E+04  0.15700377655E+04  0.50400001928E-02 0. -1.
</event>
<event>
 5   0  0.4148677E-06  0.2905424E+04  0.7818609E-02  0.8271265E-01
        2   -1    0    0  501    0  0.00000000000E+00  0.00000000000E+00  0.83675017987E+03  0.83675017987E+03  0.25500000920E-02 0.  1.
       -2   -1    0    0    0  501  0.00000000000E+00  0.00000000000E+00 -0.25221056603E+04  0.25221056603E+04  0.25500000920E-02 0. -1.
    10030    2    1    2    0    0  0.00000000000E+00  0.00000000000E+00 -0.16853554804E+04  0.33588558401E+04  0.29054241445E+04 0.  0.
        5    1    3    3  502    0 -0.77689971484E+03 -0.14647937382E+03 -0.22516160225E+04  0.23863834932E+04  0.46999998093E+01 0. -1.
       -5    1    3    3    0  502  0.77689971484E+03  0.14647937382E+03  0.56626054215E+03  0.97247234689E+03  0.46999998093E+01 0.  1.
</event>
<event>
 5   0  0.1580212E-06  0.2756656E+04  0.7818609E-02  0.8316853E-01
       -1   -1    0    0    0  501  0.00000000000E+00  0.00000000000E+00  0.69844129844E+03  0.69844129845E+03  0.50400001928E-02 0. -1.
        1   -1    0    0  501    0  0.00000000000E+00  0.00000000000E+00 -0.27200391377E+04  0.27200391377E+04  0.50400001928E-02 0.  1.
    10030    2    1    2    0    0  0.00000000000E+00  0.00000000000E+00 -0.20215978393E+04  0.34184804362E+04  0.27566557037E+04 0.  0.
        4    1    3    3  502    0 -0.43842807937E+03  0.10908843673E+04 -0.19029158150E+04  0.22368142738E+04  0.12699999809E+01 0.  1.
       -4    1    3    3    0  502  0.43842807937E+03 -0.10908843673E+04 -0.11868202427E+03  0.11816661624E+04  0.12699999809E+01 0. -1.
</event>
<event>
 5   0  0.4162450E-06  0.2870006E+04  0.7818609E-02  0.8281858E-01
        2   -1    0    0  501    0  0.00000000000E+00  0.00000000000E+00  0.14167867428E+04  0.14167867428E+04  0.25500000920E-02 0. -1.
       -2   -1    0    0    0  501  0.00000000000E+00  0.00000000000E+00 -0.14534533843E+04  0.14534533843E+04  0.25500000920E-02 0.  1.
    10030    2    1    2    0    0  0.00000000000E+00  0.00000000000E+00 -0.36666641563E+02  0.28702401271E+04  0.28700059137E+04 0.  0.
        2    1    3    3  502    0 -0.10532905915E+03  0.45096409516E+03 -0.13766675087E+04  0.14524724629E+04  0.25500000920E-02 0.  1.
       -2    1    3    3    0  502  0.10532905915E+03 -0.45096409516E+03  0.13400008671E+04  0.14177676642E+04  0.25500000920E-02 0. -1.
</event>
<event>
 5   0  0.4187518E-06  0.2940800E+04  0.7818609E-02  0.8260841E-01
        2   -1    0    0  501    0  0.00000000000E+00  0.00000000000E+00  0.22447920735E+04  0.22447920735E+04  0.25500000920E-02 0.  1.
       -2   -1    0    0    0  501  0.00000000000E+00  0.00000000000E+00 -0.96315223844E+03  0.96315223844E+03  0.25500000920E-02 0. -1.
    10030    2    1    2    0    0  0.00000000000E+00  0.00000000000E+00  0.12816398351E+04  0.32079443120E+04  0.29408002383E+04 0.  0.
        3    1    3    3  502    0  0.41525767900E+03  0.13284310775E+04  0.12349408524E+03  0.13972898293E+04  0.10100000352E+00 0. -1.
       -3    1    3    3    0  502 -0.41525767900E+03 -0.13284310775E+04  0.11581457499E+04  0.18106544827E+04  0.10100000352E+00 0.  1.
</event>
<event>
 5   0  0.1511126E-06  0.2916909E+04  0.7818609E-02  0.8267864E-01
       -1   -1    0    0    0  501  0.00000000000E+00  0.00000000000E+00  0.13657766812E+04  0.13657766812E+04  0.50400001928E-02 0. -1.
        1   -1    0    0  501    0  0.00000000000E+00  0.00000000000E+00 -0.15574212956E+04  0.15574212956E+04  0.50400001928E-02 0.  1.
    10030    2    1    2    0    0  0.00000000000E+00  0.00000000000E+00 -0.19164461438E+03  0.29231979768E+04  0.29169091095E+04 0.  0.
        5    1    3    3  502    0  0.35065363098E+03  0.94400053010E+03  0.96142740249E+03  0.13922857860E+04  0.46999998093E+01 0. -1.
       -5    1    3    3    0  502 -0.35065363098E+03 -0.94400053010E+03 -0.11530720169E+04  0.15309121908E+04  0.46999998093E+01 0.  1.
</event>
<event>
 5   0  0.1550278E-06  0.2836241E+04  0.7818609E-02  0.8292104E-01
        1   -1    0    0  501    0  0.00000000000E+00  0.00000000000E+00  0.13722393667E+04  0.13722393667E+04  0.50400001928E-02 0. -1.
       -1   -1    0    0    0  501  0.00000000000E+00  0.00000000000E+00 -0.14655360892E+04  0.14655360892E+04  0.50400001928E-02 0.  1.
    10030    2    1    2    0    0  0.00000000000E+00  0.00000000000E+00 -0.93296722515E+02  0.28377754559E+04  0.28362413966E+04 0.  0.
        2    1    3    3  502    0  0.11850347184E+04 -0.62234701423E+03 -0.51534940987E+03  0.14342970767E+04  0.25500000920E-02 0. -1.
       -2    1    3    3    0  502 -0.11850347184E+04  0.62234701423E+03  0.42205268735E+03  0.14034783792E+04  0.25500000920E-02 0.  1.
</event>
<event>
 5   0  0.4115143E-06  0.2892839E+04  0.7818609E-02  0.8275011E-01
        2   -1    0    0  501    0  0.00000000000E+00  0.00000000000E+00  0.12573100584E+04  0.12573100584E+04  0.25500000920E-02 0.  1.
       -2   -1    0    0    0  501  0.00000000000E+00  0.00000000000E+00 -0.16639729245E+04  0.16639729245E+04  0.25500000920E-02 0. -1.
    10030    2    1    2    0    0  0.00000000000E+00  0.00000000000E+00 -0.40666286610E+03  0.29212829829E+04  0.28928393629E+04 0.  0.
        1    1    3    3  502    0 -0.11409757264E+03 -0.76180083286E+03 -0.14396117933E+04  0.16327402979E+04  0.50400001928E-02 0. -1.
       -1    1    3    3    0  502  0.11409757264E+03  0.76180083286E+03  0.10329489272E+04  0.12885426850E+04  0.50400001928E-02 0.  1.
</event>
<event>
 5   0  0.4162450E-06  0.2897330E+04  0.7818609E-02  0.8273672E-01
        2   -1    0    0  501    0  0.00000000000E+00  0.00000000000E+00  0.10626989530E+04  0.10626989530E+04  0.25500000920E-02 0. -1.
       -2   -1    0    0    0  501  0.00000000000E+00  0.00000000000E+00 -0.19748120729E+04  0.19748120729E+04  0.25500000920E-02 0.  1.
    10030    2    1    2    0    0  0.00000000000E+00  0.00000000000E+00 -0.91211311983E+03  0.30375110259E+04  0.28973303037E+04 0.  0.
        2    1    3    3  502    0  0.89736534426E+03 -0.11304209753E+04 -0.58664052842E+03  0.15579676672E+04  0.25500000920E-02 0. -1.
       -2    1    3    3    0  502 -0.89736534426E+03  0.11304209753E+04 -0.32547259141E+03  0.14795433587E+04  0.25500000920E-02 0.  1.
</event>
<event>
 5   0  0.1550278E-06  0.2901695E+04  0.7818609E-02  0.8272373E-01
       -1   -1    0    0    0  501  0.00000000000E+00  0.00000000000E+00  0.10380610635E+04  0.10380610635E+04  0.50400001928E-02 0. -1.
        1   -1    0    0  501    0  0.00000000000E+00  0.00000000000E+00 -0.20277790264E+04  0.20277790264E+04  0.50400001928E-02 0.  1.
    10030    2    1    2    0    0  0.00000000000E+00  0.00000000000E+00 -0.98971796283E+03  0.30658400899E+04  0.29016949893E+04 0.  0.
        2    1    3    3  502    0  0.14450295108E+04  0.12746319637E+03 -0.52076753017E+03  0.15412838719E+04  0.25500000920E-02 0. -1.
       -2    1    3    3    0  502 -0.14450295108E+04 -0.12746319637E+03 -0.46895043266E+03  0.15245562180E+04  0.25500000920E-02 0.  1.
</event>
<event>
 5   0  0.4224163E-06  0.2898774E+04  0.7818609E-02  0.8273242E-01
        2   -1    0    0  501    0  0.00000000000E+00  0.00000000000E+00  0.16057338327E+04  0.16057338327E+04  0.25500000920E-02 0.  1.
       -2   -1    0    0    0  501  0.00000000000E+00  0.00000000000E+00 -0.13082636941E+04  0.13082636941E+04  0.25500000920E-02 0. -1.
    10030    2    1    2    0    0  0.00000000000E+00  0.00000000000E+00  0.29747013861E+03  0.29139975268E+04  0.28987744140E+04 0.  0.
        4    1    3    3  502    0  0.45401706024E+03 -0.55302688222E+03 -0.11183411439E+04  0.13276515923E+04  0.12699999809E+01 0. -1.
       -4    1    3    3    0  502 -0.45401706024E+03  0.55302688222E+03  0.14158112825E+04  0.15863459345E+04  0.12699999809E+01 0.  1.
</event>
<event>
 5   0  0.4148677E-06  0.2906753E+04  0.7818609E-02  0.8270871E-01
       -2   -1    0    0    0  501  0.00000000000E+00  0.00000000000E+00  0.15198705071E+04  0.15198705071E+04  0.25500000920E-02 0. -1.
        2   -1    0    0  501    0  0.00000000000E+00  0.00000000000E+00 -0.13897917536E+04  0.13897917536E+04  0.25500000920E-02 0.  1.
    10030    2    1    2    0    0  0.00000000000E+00  0.00000000000E+00  0.13007875349E+03  0.29096622608E+04  0.29067531697E+04 0.  0.
        5    1    3    3  502    0  0.13194222699E+04 -0.51026065251E+03 -0.26852128954E+03  0.14399190369E+04  0.46999998093E+01 0.  1.
       -5    1    3    3    0  502 -0.13194222699E+04  0.51026065251E+03  0.39860004303E+03  0.14697432239E+04  0.46999998093E+01 0. -1.
</event>
<event>
 5   0  0.4224163E-06  0.2917979E+04  0.7818609E-02  0.8267548E-01
       -2   -1    0    0    0  501  0.00000000000E+00  0.00000000000E+00  0.95141478999E+03  0.95141478999E+03  0.25500000920E-02 0.  1.
        2   -1    0    0  501    0  0.00000000000E+00  0.00000000000E+00 -0.22373533625E+04  0.22373533625E+04  0.25500000920E-02 0. -1.
    10030    2    1    2    0    0  0.00000000000E+00  0.00000000000E+00 -0.12859385725E+04  0.31887681525E+04  0.29179794924E+04 0.  0.
        4    1    3    3  502    0 -0.63316938332E+03  0.24251427981E+03 -0.20547268933E+04  0.21637053549E+04  0.12699999809E+01 0. -1.
       -4    1    3    3    0  502  0.63316938332E+03 -0.24251427981E+03  0.76878832080E+03  0.10250627976E+04  0.12699999809E+01 0.  1.
</event>
<event>
 5   0  0.4162450E-06  0.2897689E+04  0.7818609E-02  0.8273565E-01
        2   -1    0    0  501    0  0.00000000000E+00  0.00000000000E+00  0.10604369539E+04  0.10604369539E+04  0.25500000920E-02 0.  1.
       -2   -1    0    0    0  501  0.00000000000E+00  0.00000000000E+00 -0.19795140867E+04  0.19795140867E+04  0.25500000920E-02 0. -1.
    10030    2    1    2    0    0  0.00000000000E+00  0.00000000000E+00 -0.91907713282E+03  0.30399510407E+04  0.28976886571E+04 0.  0.
        2    1    3    3  502    0  0.12246311935E+04  0.74149611119E+02 -0.12680432861E+04  0.17644130753E+04  0.25500000920E-02 0. -1.
       -2    1    3    3    0  502 -0.12246311935E+04 -0.74149611119E+02  0.34896615331E+03  0.12755379653E+04  0.25500000920E-02 0.  1.
</event>
<event>
 5   0  0.1360125E-06  0.2898900E+04  0.7818609E-02  0.8273205E-01
        4   -1    0    0  501    0  0.00000000000E+00  0.00000000000E+00  0.10334451736E+04  0.10334459539E+04  0.12699999809E+01 0. -1.
       -4   -1    0    0    0  501  0.00000000000E+00  0.00000000000E+00 -0.20329120181E+04  0.20329124148E+04  0.12699999809E+01 0.  1.
    10030    2    1    2    0    0  0.00000000000E+00  0.00000000000E+00 -0.99946684452E+03  0.30663583687E+04  0.28988997347E+04 0.  0.
        1    1    3    3  502    0 -0.60086676595E+03  0.11404968117E+04  0.20121618771E+03  0.13047075543E+04  0.50400001928E-02 0. -1.
       -1    1    3    3    0  502  0.60086676595E+03 -0.11404968117E+04 -0.12006830322E+04  0.17616508144E+04  0.50400001928E-02 0.  1.
</event>
<event>
 5   0  0.1602873E-06  0.2869657E+04  0.7818609E-02  0.8281963E-01
        1   -1    0    0  501    0  0.00000000000E+00  0.00000000000E+00  0.14308122503E+04  0.14308122503E+04  0.50400001928E-02 0. -1.
       -1   -1    0    0    0  501  0.00000000000E+00  0.00000000000E+00 -0.14388557834E+04  0.14388557834E+04  0.50400001928E-02 0.  1.
    10030    2    1    2    0    0  0.00000000000E+00  0.00000000000E+00 -0.80435331045E+01  0.28696680338E+04  0.28696567610E+04 0.  0.
        1    1    3    3  502    0 -0.16722600142E+03  0.67170562889E+03 -0.12608399332E+04  0.14383568141E+04  0.50400001928E-02 0.  1.
       -1    1    3    3    0  502  0.16722600142E+03 -0.67170562889E+03  0.12527964001E+04  0.14313112197E+04  0.50400001928E-02 0. -1.
</event>
<event>
 5   0  0.4187518E-06  0.2899995E+04  0.7818609E-02  0.8272879E-01
       -2   -1    0    0    0  501  0.00000000000E+00  0.00000000000E+00  0.11367285602E+04  0.11367285602E+04  0.25500000920E-02 0. -1.
        2   -1    0    0  501    0  0.00000000000E+00  0.00000000000E+00 -0.18495998252E+04  0.18495998252E+04  0.25500000920E-02 0.  1.
    10030    2    1    2    0    0  0.00000000000E+00  0.00000000000E+00 -0.71287126502E+03  0.29863283855E+04  0.28999951354E+04 0.  0.
        3    1    3    3  502    0 -0.58914358287E+03  0.22373542351E+03 -0.17012007926E+04  0.18141752528E+04  0.10100000352E+00 0.  1.
       -3    1    3    3    0  502  0.58914358287E+03 -0.22373542351E+03  0.98832952762E+03  0.11721531326E+04  0.10100000352E+00 0. -1.
</event>
<event>
 5   0  0.1602873E-06  0.2888667E+04  0.7818609E-02  0.8276258E-01
        1   -1    0    0  501    0  0.00000000000E+00  0.00000000000E+00  0.18582768209E+04  0.18582768209E+04  0.50400001928E-02 0.  1.
       -1   -1    0    0    0  501  0.00000000000E+00  0.00000000000E+00 -0.11225983756E+04  0.11225983756E+04  0.50400001928E-02 0. -1.
    10030    2    1    2    0    0  0.00000000000E+00  0.00000000000E+00  0.73567844527E+03  0.29808751965E+04  0.28886665024E+04 0.  0.
        1    1    3    3  502    0  0.12054028304E+04  0.75805366855E+03  0.11834220125E+03  0.14288618634E+04  0.50400001928E-02 0.  1.
       -1    1    3    3    0  502 -0.12054028304E+04 -0.75805366855E+03  0.61733624402E+03  0.15520133331E+04  0.50400001928E-02 0. -1.
</event>
<event>
 5   0  0.4162450E-06  0.2913016E+04  0.7818609E-02  0.8269015E-01
        2   -1    0    0  501    0  0.00000000000E+00  0.00000000000E+00  0.24875880347E+04  0.24875880347E+04  0.25500000920E-02 0. -1.
       -2   -1    0    0    0  501  0.00000000000E+00  0.00000000000E+00 -0.85279997310E+03  0.85279997310E+03  0.25500000920E-02 0.  1.
    10030    2    1    2    0    0  0.00000000000E+00  0.00000000000E+00  0.16347880616E+04  0.33403880078E+04  0.29130156258E+04 0.  0.
        2    1    3    3  502    0 -0.89648125622E+03 -0.26459277548E+03 -0.46350203950E+03  0.10433226348E+04  0.25500000920E-02 0.  1.
       -2    1    3    3    0  502  0.89648125622E+03  0.26459277548E+03  0.20982901011E+04  0.22970653730E+04  0.25500000920E-02 0. -1.
</event>
<event>
 5   0  0.4148677E-06  0.2918570E+04  0.7818609E-02  0.8267374E-01
       -2   -1    0    0    0  501  0.00000000000E+00  0.00000000000E+00  0.11475598535E+04  0.11475598535E+04  0.25500000920E-02 0.  1.
        2   -1    0    0  501    0  0.00000000000E+00  0.00000000000E+00 -0.18556878122E+04  0.18556878122E+04  0.25500000920E-02 0. -1.
    10030    2    1    2    0    0  0.00000000000E+00  0.00000000000E+00 -0.70812795877E+03  0.30032476657E+04  0.29185700841E+04 0.  0.
        5    1    3    3  502    0  0.11845344597E+04 -0.23233819096E+03  0.48971935117E+03  0.13026703551E+04  0.46999998093E+01 0.  1.
       -5    1    3    3    0  502 -0.11845344597E+04  0.23233819096E+03 -0.11978473099E+04  0.17005773106E+04  0.46999998093E+01 0. -1.
</event>
<event>
 5   0  0.1543678E-06  0.2885598E+04  0.7818609E-02  0.8277175E-01
       -1   -1    0    0    0  501  0.00000000000E+00  0.00000000000E+00  0.92297044527E+03  0.92297044528E+03  0.50400001928E-02 0. -1.
        1   -1    0    0  501    0  0.00000000000E+00  0.00000000000E+00 -0.22554022451E+04  0.22554022451E+04  0.50400001928E-02 0.  1.
    10030    2    1    2    0    0  0.00000000000E+00  0.00000000000E+00 -0.13324317998E+04  0.31783726904E+04  0.28855984575E+04 0.  0.
        3    1    3    3  502    0 -0.35766742679E+02  0.90349268097E+03  0.57217612881E+03  0.10700298206E+04  0.10100000352E+00 0. -1.
       -3    1    3    3    0  502  0.35766742679E+02 -0.90349268097E+03 -0.19046079286E+04  0.21083428697E+04  0.10100000352E+00 0.  1.
</event>
<event>
 5   0  0.1602873E-06  0.2895407E+04  0.7818609E-02  0.8274245E-01
        1   -1    0    0  501    0  0.00000000000E+00  0.00000000000E+00  0.19256761938E+04  0.19256761938E+04  0.50400001928E-02 0. -1.
       -1   -1    0    0    0  501  0.00000000000E+00  0.00000000000E+00 -0.10883682163E+04  0.10883682163E+04  0.50400001928E-02 0.  1.
    10030    2    1    2    0    0  0.00000000000E+00  0.00000000000E+00  0.83730797752E+03  0.30140444101E+04  0.28954065443E+04 0.  0.
        1    1    3    3  502    0 -0.12540736338E+04  0.15131428140E+03  0.11549167034E+04  0.17115575604E+04  0.50400001928E-02 0. -1.
       -1    1    3    3    0  502  0.12540736338E+04 -0.15131428140E+03 -0.31760872583E+03  0.13024868497E+04  0.50400001928E-02 0.  1.
</event>
<event>
 5   0  0.1511126E-06  0.2908162E+04  0.7818609E-02  0.8270453E-01
       -1   -1    0    0    0  501  0.00000000000E+00  0.00000000000E+00  0.15165316694E+04  0.15165316695E+04  0.50400001928E-02 0.  1.
        1   -1    0    0  501    0  0.00000000000E+00  0.00000000000E+00 -0.13942022047E+04  0.13942022047E+04  0.50400001928E-02 0. -1.
    10030    2    1    2    0    0  0.00000000000E+00  0.00000000000E+00  0.12232946478E+03  0.29107338741E+04  0.29081621667E+04 0.  0.
        5    1    3    3  502    0  0.39147328493E+03 -0.94163163820E+03 -0.97628853653E+03  0.14117658699E+04  0.46999998093E+01 0. -1.
       -5    1    3    3    0  502 -0.39147328493E+03  0.94163163820E+03  0.10986180013E+04  0.14989680042E+04  0.46999998093E+01 0.  1.
</event>
<event>
 5   0  0.1543678E-06  0.2891284E+04  0.7818609E-02  0.8275475E-01
        1   -1    0    0  501    0  0.00000000000E+00  0.00000000000E+00  0.13818942445E+04  0.13818942446E+04  0.50400001928E-02 0.  1.
       -1   -1    0    0    0  501  0.00000000000E+00  0.00000000000E+00 -0.15123309161E+04  0.15123309162E+04  0.50400001928E-02 0. -1.
    10030    2    1    2    0    0  0.00000000000E+00  0.00000000000E+00 -0.13043667159E+03  0.28942251607E+04  0.28912844128E+04 0.  0.
        3    1    3    3  502    0 -0.80119010810E+03  0.10672190711E+04  0.49124206280E+03  0.14220340746E+04  0.10100000352E+00 0.  1.
       -3    1    3    3    0  502  0.80119010810E+03 -0.10672190711E+04 -0.62167873439E+03  0.14721910861E+04  0.10100000352E+00 0. -1.
</event>
<event>
 5   0  0.4148677E-06  0.2892631E+04  0.7818609E-02  0.8275073E-01
        2   -1    0    0  501    0  0.00000000000E+00  0.00000000000E+00  0.17954973473E+04  0.17954973473E+04  0.25500000920E-02 0.  1.
       -2   -1    0    0    0  501  0.00000000000E+00  0.00000000000E+00 -0.11650415434E+04  0.11650415434E+04  0.25500000920E-02 0. -1.
    10030    2    1    2    0    0  0.00000000000E+00  0.00000000000E+00  0.63045580390E+03  0.29605388906E+04  0.28926313284E+04 0.  0.
        5    1    3    3  502    0 -0.96658020898E+03 -0.82939497235E+02 -0.78263833320E+03  0.12464754756E+04  0.46999998093E+01 0. -1.
       -5    1    3    3    0  502  0.96658020898E+03  0.82939497235E+02  0.14130941371E+04  0.17140634151E+04  0.46999998093E+01 0.  1.
</event>
<event>
 5   0  0.4148677E-06  0.2781379E+04  0.7818609E-02  0.8309073E-01
       -2   -1    0    0    0  501  0.00000000000E+00  0.00000000000E+00  0.25350127474E+04  0.25350127474E+04  0.25500000920E-02 0. -1.
        2   -1    0    0  501    0  0.00000000000E+00  0.00000000000E+00 -0.76292223606E+03  0.76292223607E+03  0.25500000920E-02 0.  1.
    10030    2    1    2    0    0  0.00000000000E+00  0.00000000000E+00  0.17720905113E+04  0.32979349834E+04  0.27813792217E+04 0.  0.
        5    1    3    3  502    0  0.28391367768E+02  0.68157433074E+03 -0.55090067611E+03  0.87684849491E+03  0.46999998093E+01 0.  1.
       -5    1    3    3    0  502 -0.28391367768E+02 -0.68157433074E+03  0.23229911874E+04  0.24210864885E+04  0.46999998093E+01 0. -1.
</event>
<event>
 5   0  0.1602873E-06  0.2894175E+04  0.7818609E-02  0.8274613E-01
       -1   -1    0    0    0  501  0.00000000000E+00  0.00000000000E+00  0.19458429197E+04  0.19458429197E+04  0.50400001928E-02 0. -1.
        1   -1    0    0  501    0  0.00000000000E+00  0.00000000000E+00 -0.10761721996E+04  0.10761721996E+04  0.50400001928E-02 0.  1.
    10030    2    1    2    0    0  0.00000000000E+00  0.00000000000E+00  0.86967072009E+03  0.30220151193E+04  0.28941748772E+04 0.  0.
        1    1    3    3  502    0  0.52069209448E+03  0.13110500064E+04  0.97954996949E+02  0.14140606628E+04  0.50400001928E-02 0. -1.
       -1    1    3    3    0  502 -0.52069209448E+03 -0.13110500064E+04  0.77171572314E+03  0.16079544564E+04  0.50400001928E-02 0.  1.
</event>
<event>
 5   0  0.1360125E-06  0.2904201E+04  0.7818609E-02  0.8271629E-01
       -3   -1    0    0    0  501  0.00000000000E+00  0.00000000000E+00  0.93950509624E+03  0.93950510167E+03  0.10100000352E+00 0.  1.
        3   -1    0    0  501    0  0.00000000000E+00  0.00000000000E+00 -0.22443681544E+04  0.22443681567E+04  0.10100000352E+00 0. -1.
    10030    2    1    2    0    0  0.00000000000E+00  0.00000000000E+00 -0.13048630582E+04  0.31838732583E+04  0.29042006344E+04 0.  0.
        4    1    3    3  502    0  0.11429744109E+04 -0.56972188546E+03 -0.14100847830E+04  0.19024495365E+04  0.12699999809E+01 0. -1.
       -4    1    3    3    0  502 -0.11429744109E+04  0.56972188546E+03  0.10522172487E+03  0.12814237219E+04  0.12699999809E+01 0.  1.
</event>
<event>
 5   0  0.4187518E-06  0.2856656E+04  0.7818609E-02  0.8285892E-01
        2   -1    0    0  501    0  0.00000000000E+00  0.00000000000E+00  0.16692148769E+04  0.16692148769E+04  0.25500000920E-02 0.  1.
       -2   -1    0    0    0  501  0.00000000000E+00  0.00000000000E+00 -0.12222036027E+04  0.12222036027E+04  0.25500000920E-02 0. -1.
    10030    2    1    2    0    0  0.00000000000E+00  0.00000000000E+00  0.44701127420E+03  0.28914184796E+04  0.28566556924E+04 0.  0.
        3    1    3    3  502    0  0.50574586001E+03  0.36874143667E+03  0.15230184810E+04  0.16466130164E+04  0.10100000352E+00 0.  1.
       -3    1    3    3    0  502 -0.50574586001E+03 -0.36874143667E+03 -0.10760072068E+04  0.12448054632E+04  0.10100000352E+00 0. -1.
</event>
<event>
 5   0  0.4148677E-06  0.2896227E+04  0.7818609E-02  0.8274001E-01
       -2   -1    0    0    0  501  0.00000000000E+00  0.00000000000E+00  0.10024566550E+04  0.10024566550E+04  0.25500000920E-02 0. -1.
        2   -1    0    0  501    0  0.00000000000E+00  0.00000000000E+00 -0.20918939894E+04  0.20918939894E+04  0.25500000920E-02 0.  1.
    10030    2    1    2    0    0  0.00000000000E+00  0.00000000000E+00 -0.10894373344E+04  0.30943506444E+04  0.28962272364E+04 0.  0.
        5    1    3    3  502    0  0.51984732959E+03 -0.13498110463E+04 -0.47085272723E+03  0.15211691186E+04  0.46999998093E+01 0.  1.
       -5    1    3    3    0  502 -0.51984732959E+03  0.13498110463E+04 -0.61858460715E+03  0.15731815257E+04  0.46999998093E+01 0. -1.
</event>
<event>
 5   0  0.4224163E-06  0.2834952E+04  0.7818609E-02  0.8292498E-01
       -2   -1    0    0    0  501  0.00000000000E+00  0.00000000000E+00  0.80692585267E+03  0.80692585268E+03  0.25500000920E-02 0.  1.
        2   -1    0    0  501    0  0.00000000000E+00  0.00000000000E+00 -0.24899917379E+04  0.24899917379E+04  0.25500000920E-02 0. -1.
    10030    2    1    2    0    0  0.00000000000E+00  0.00000000000E+00 -0.16830658853E+04  0.32969175906E+04  0.28349523497E+04 0.  0.
        4    1    3    3  502    0  0.32696037633E+02  0.38469703015E+03  0.74459923820E+03  0.83874339002E+03  0.12699999809E+01 0.  1.
       -4    1    3    3    0  502 -0.32696037633E+02 -0.38469703015E+03 -0.24276651235E+04  0.24581742006E+04  0.12699999809E+01 0. -1.
</event>
<event>
 5   0  0.1543678E-06  0.3179447E+04  0.7818609E-02  0.8194266E-01
        1   -1    0    0  501    0  0.00000000000E+00  0.00000000000E+00  0.98035818286E+03  0.98035818287E+03  0.50400001928E-02 0. -1.
       -1   -1    0    0    0  501  0.00000000000E+00  0.00000000000E+00 -0.25778548378E+04  0.25778548378E+04  0.50400001928E-02 0.  1.
    10030    2    1    2    0    0  0.00000000000E+00  0.00000000000E+00 -0.15974966550E+04  0.35582130207E+04  0.31794471749E+04 0.  0.
        3    1    3    3  502    0 -0.13892286676E+04 -0.67801195605E+03 -0.12138300685E+04  0.19654617648E+04  0.10100000352E+00 0. -1.
       -3    1    3    3    0  502  0.13892286676E+04  0.67801195605E+03 -0.38366658644E+03  0.15927512559E+04  0.10100000352E+00 0.  1.
</event>
<event>
 5   0  0.1580212E-06  0.2914533E+04  0.7818609E-02  0.8268567E-01
        1   -1    0    0  501    0  0.00000000000E+00  0.00000000000E+00  0.11076136367E+04  0.11076136367E+04  0.50400001928E-02 0. -1.
       -1   -1    0    0    0  501  0.00000000000E+00  0.00000000000E+00 -0.19172977600E+04  0.19172977600E+04  0.50400001928E-02 0.  1.
    10030    2    1    2    0    0  0.00000000000E+00  0.00000000000E+00 -0.80968412336E+03  0.30249113967E+04  0.29145326518E+04 0.  0.
        4    1    3    3  502    0  0.11897631911E+04 -0.80354992468E+03 -0.66409114705E+03  0.15818494230E+04  0.12699999809E+01 0. -1.
       -4    1    3    3    0  502 -0.11897631911E+04  0.80354992468E+03 -0.14559297631E+03  0.14430619737E+04  0.12699999809E+01 0.  1.
</event>
<event>
 5   0  0.1580212E-06  0.2900647E+04  0.7818609E-02  0.8272685E-01
        1   -1    0    0  501    0  0.00000000000E+00  0.00000000000E+00  0.15681043394E+04  0.15681043394E+04  0.50400001928E-02 0. -1.
       -1   -1    0    0    0  501  0.00000000000E+00  0.00000000000E+00 -0.13413896395E+04  0.13413896395E+04  0.50400001928E-02 0.  1.
    10030    2    1    2    0    0  0.00000000000E+00  0.00000000000E+00  0.22671469989E+03  0.29094939789E+04  0.29006474550E+04 0.  0.
        4    1    3    3  502    0  0.12909537292E+04  0.11926593494E+03 -0.53874186105E+03  0.14039338659E+04  0.12699999809E+01 0.  1.
       -4    1    3    3    0  502 -0.12909537292E+04 -0.11926593494E+03  0.76545656094E+03  0.15055601130E+04  0.12699999809E+01 0. -1.
</event>
<event>
 5   0  0.1580212E-06  0.2897767E+04  0.7818609E-02  0.8273542E-01
        1   -1    0    0  501    0  0.00000000000E+00  0.00000000000E+00  0.12028749714E+04  0.12028749714E+04  0.50400001928E-02 0.  1.
       -1   -1    0    0    0  501  0.00000000000E+00  0.00000000000E+00 -0.17452054973E+04  0.17452054973E+04  0.50400001928E-02 0. -1.
    10030    2    1    2    0    0  0.00000000000E+00  0.00000000000E+00 -0.54233052597E+03  0.29480804687E+04  0.28977674252E+04 0.  0.
        4    1    3    3  502    0  0.67562392279E+03  0.38258137165E+03  0.97335926508E+03  0.12450968086E+04  0.12699999809E+01 0.  1.
       -4    1    3    3    0  502 -0.67562392279E+03 -0.38258137165E+03 -0.15156897910E+04  0.17029836601E+04  0.12699999809E+01 0. -1.
</event>
<event>
 5   0  0.1602873E-06  0.2891980E+04  0.7818609E-02  0.8275268E-01
        1   -1    0    0  501    0  0.00000000000E+00  0.00000000000E+00  0.17942600488E+04  0.17942600488E+04  0.50400001928E-02 0. -1.
       -1   -1    0    0    0  501  0.00000000000E+00  0.00000000000E+00 -0.11653203353E+04  0.11653203353E+04  0.50400001928E-02 0.  1.
    10030    2    1    2    0    0  0.00000000000E+00  0.00000000000E+00  0.62893971354E+03  0.29595803841E+04  0.28919804437E+04 0.  0.
        1    1    3    3  502    0  0.12937172895E+04 -0.60956170905E+03  0.53304564254E+03  0.15262396795E+04  0.50400001928E-02 0.  1.
       -1    1    3    3    0  502 -0.12937172895E+04  0.60956170905E+03  0.95894070996E+02  0.14333407045E+04  0.50400001928E-02 0. -1.
</event>
<event>
 5   0  0.1511126E-06  0.2893031E+04  0.7818609E-02  0.8274954E-01
        1   -1    0    0  501    0  0.00000000000E+00  0.00000000000E+00  0.20079371355E+04  0.20079371355E+04  0.50400001928E-02 0. -1.
       -1   -1    0    0    0  501  0.00000000000E+00  0.00000000000E+00 -0.10420677862E+04  0.10420677862E+04  0.50400001928E-02 0.  1.
    10030    2    1    2    0    0  0.00000000000E+00  0.00000000000E+00  0.96586934928E+03  0.30500049217E+04  0.28930306640E+04 0.  0.
        5    1    3    3  502    0  0.16751633107E+03  0.65081666479E+03  0.18333585093E+04  0.19526519316E+04  0.46999998093E+01 0. -1.
       -5    1    3    3    0  502 -0.16751633107E+03 -0.65081666479E+03 -0.86748915999E+03  0.10973529902E+04  0.46999998093E+01 0.  1.
</event>
<event>
 5   0  0.4224163E-06  0.2886768E+04  0.7818609E-02  0.8276825E-01
        2   -1    0    0  501    0  0.00000000000E+00  0.00000000000E+00  0.89471199224E+03  0.89471199224E+03  0.25500000920E-02 0. -1.
       -2   -1    0    0    0  501  0.00000000000E+00  0.00000000000E+00 -0.23285223890E+04  0.23285223890E+04  0.25500000920E-02 0.  1.
    10030    2    1    2    0    0  0.00000000000E+00  0.00000000000E+00 -0.14338103968E+04  0.32232343813E+04  0.28867676773E+04 0.  0.
        4    1    3    3  502    0 -0.18343656336E+03  0.49986656806E+03 -0.22148540026E+04  0.22779586090E+04  0.12699999809E+01 0.  1.
       -4    1    3    3    0  502  0.18343656336E+03 -0.49986656806E+03  0.78104360578E+03  0.94527577229E+03  0.12699999809E+01 0. -1.
</event>
<event>
 5   0  0.1360125E-06  0.2854313E+04  0.7818609E-02  0.8286602E-01
       -3   -1    0    0    0  501  0.00000000000E+00  0.00000000000E+00  0.11470561030E+04  0.11470561075E+04  0.10100000352E+00 0. -1.
        3   -1    0    0  501    0  0.00000000000E+00  0.00000000000E+00 -0.17756551791E+04  0.17756551820E+04  0.10100000352E+00 0.  1.
    10030    2    1    2    0    0  0.00000000000E+00  0.00000000000E+00 -0.62859907604E+03  0.29227112894E+04  0.28543133120E+04 0.  0.
        2    1    3    3  502    0  0.45890893414E+02 -0.93223630612E+03 -0.14198029563E+04  0.16991206370E+04  0.25500000920E-02 0.  1.
       -2    1    3    3    0  502 -0.45890893414E+02  0.93223630612E+03  0.79120388022E+03  0.12235906524E+04  0.25500000920E-02 0. -1.
</event>
<event>
 5   0  0.4224163E-06  0.2890351E+04  0.7818609E-02  0.8275754E-01
        2   -1    0    0  501    0  0.00000000000E+00  0.00000000000E+00  0.11690705839E+04  0.11690705839E+04  0.25500000920E-02 0. -1.
       -2   -1    0    0    0  501  0.00000000000E+00  0.00000000000E+00 -0.17864895343E+04  0.17864895343E+04  0.25500000920E-02 0.  1.
    10030    2    1    2    0    0  0.00000000000E+00  0.00000000000E+00 -0.61741895037E+03  0.29555601182E+04  0.28903510949E+04 0.  0.
        4    1    3    3  502    0  0.37014957093E+02 -0.12422139209E+04 -0.10629583630E+04  0.16353432749E+04  0.12699999809E+01 0.  1.
       -4    1    3    3    0  502 -0.37014957093E+02  0.12422139209E+04  0.44553941263E+03  0.13202168433E+04  0.12699999809E+01 0. -1.
</event>
<event>
 5   0  0.1602873E-06  0.2900390E+04  0.7818609E-02  0.8272762E-01
        1   -1    0    0  501    0  0.00000000000E+00  0.00000000000E+00  0.16303891052E+04  0.16303891052E+04  0.50400001928E-02 0.  1.
       -1   -1    0    0    0  501  0.00000000000E+00  0.00000000000E+00 -0.12899161583E+04  0.12899161583E+04  0.50400001928E-02 0. -1.
    10030    2    1    2    0    0  0.00000000000E+00  0.00000000000E+00  0.34047294690E+03  0.29203052634E+04  0.29003898021E+04 0.  0.
        1    1    3    3  502    0 -0.18196592512E+03  0.98713648542E+03  0.12240920258E+04  0.15830196861E+04  0.50400001928E-02 0.  1.
       -1    1    3    3    0  502  0.18196592512E+03 -0.98713648542E+03 -0.88361907893E+03  0.13372855774E+04  0.50400001928E-02 0. -1.
</event>
<event>
 5   0  0.4115143E-06  0.2885698E+04  0.7818609E-02  0.8277145E-01
       -2   -1    0    0    0  501  0.00000000000E+00  0.00000000000E+00  0.15811927557E+04  0.15811927557E+04  0.25500000920E-02 0.  1.
        2   -1    0    0  501    0  0.00000000000E+00  0.00000000000E+00 -0.13166098150E+04  0.13166098150E+04  0.25500000920E-02 0. -1.
    10030    2    1    2    0    0  0.00000000000E+00  0.00000000000E+00  0.26458294073E+03  0.28978025707E+04  0.28856984607E+04 0.  0.
        1    1    3    3  502    0 -0.12296893351E+04  0.26626431698E+03 -0.57691542692E+03  0.13841473755E+04  0.50400001928E-02 0. -1.
       -1    1    3    3    0  502  0.12296893351E+04 -0.26626431698E+03  0.84149836765E+03  0.15136551952E+04  0.50400001928E-02 0.  1.
</event>
<event>
 5   0  0.1543678E-06  0.2967773E+04  0.7818609E-02  0.8252994E-01
       -1   -1    0    0    0  501  0.00000000000E+00  0.00000000000E+00  0.12943171115E+04  0.12943171115E+04  0.50400001928E-02 0. -1.
        1   -1    0    0  501    0  0.00000000000E+00  0.00000000000E+00 -0.17012204237E+04  0.17012204237E+04  0.50400001928E-02 0.  1.
    10030    2    1    2    0    0  0.00000000000E+00  0.00000000000E+00 -0.40690331219E+03  0.29955375352E+04  0.29677727034E+04 0.  0.
        3    1    3    3  502    0 -0.13655470064E+04 -0.45296408574E+03 -0.57020148791E+03  0.15475867784E+04  0.10100000352E+00 0.  1.
       -3    1    3    3    0  502  0.13655470064E+04  0.45296408574E+03  0.16329817573E+03  0.14479507568E+04  0.10100000352E+00 0. -1.
</event>
<event>
 5   0  0.4162450E-06  0.2895809E+04  0.7818609E-02  0.8274125E-01
        2   -1    0    0  501    0  0.00000000000E+00  0.00000000000E+00  0.16443178104E+04  0.16443178104E+04  0.25500000920E-02 0. -1.
       -2   -1    0    0    0  501  0.00000000000E+00  0.00000000000E+00 -0.12749529342E+04  0.12749529342E+04  0.25500000920E-02 0.  1.
    10030    2    1    2    0    0  0.00000000000E+00  0.00000000000E+00  0.36936487618E+03  0.29192707446E+04  0.28958092597E+04 0.  0.
        2    1    3    3  502    0  0.94637813614E+03 -0.65259091342E+03  0.10721106539E+04  0.15719184874E+04  0.25500000920E-02 0. -1.
       -2    1    3    3    0  502 -0.94637813614E+03  0.65259091342E+03 -0.70274577772E+03  0.13473522572E+04  0.25500000920E-02 0.  1.
</event>
<event>
 5   0  0.1602873E-06  0.2919128E+04  0.7818609E-02  0.8267209E-01
       -1   -1    0    0    0  501  0.00000000000E+00  0.00000000000E+00  0.10668548188E+04  0.10668548188E+04  0.50400001928E-02 0. -1.
        1   -1    0    0  501    0  0.00000000000E+00  0.00000000000E+00 -0.19968298661E+04  0.19968298661E+04  0.50400001928E-02 0.  1.
    10030    2    1    2    0    0  0.00000000000E+00  0.00000000000E+00 -0.92997504732E+03  0.30636846850E+04  0.29191283391E+04 0.  0.
        1    1    3    3  502    0 -0.71557022665E+03 -0.10185464573E+04  0.33488880984E+03  0.12890415625E+04  0.50400001928E-02 0. -1.
       -1    1    3    3    0  502  0.71557022665E+03  0.10185464573E+04 -0.12648638572E+04  0.17746431225E+04  0.50400001928E-02 0.  1.
</event>
<event>
 5   0  0.1511126E-06  0.2897119E+04  0.7818609E-02  0.8273735E-01
        1   -1    0    0  501    0  0.00000000000E+00  0.00000000000E+00  0.21682941050E+04  0.21682941050E+04  0.50400001928E-02 0. -1.
       -1   -1    0    0    0  501  0.00000000000E+00  0.00000000000E+00 -0.96773063129E+03  0.96773063130E+03  0.50400001928E-02 0.  1.
    10030    2    1    2    0    0  0.00000000000E+00  0.00000000000E+00  0.12005634737E+04  0.31360247363E+04  0.28971189986E+04 0.  0.
        5    1    3    3  502    0 -0.86310071116E+03 -0.47949966189E+03  0.17476109256E+04  0.20072440809E+04  0.46999998093E+01 0. -1.
       -5    1    3    3    0  502  0.86310071116E+03  0.47949966189E+03 -0.54704745185E+03  0.11287806554E+04  0.46999998093E+01 0.  1.
</event>
<event>
 5   0  0.1602873E-06  0.2908135E+04  0.7818609E-02  0.8270461E-01
       -1   -1    0    0    0  501  0.00000000000E+00  0.00000000000E+00  0.14118868263E+04  0.14118868264E+04  0.50400001928E-02 0.  1.
        1   -1    0    0  501    0  0.00000000000E+00  0.00000000000E+00 -0.14975083828E+04  0.14975083828E+04  0.50400001928E-02 0. -1.
    10030    2    1    2    0    0  0.00000000000E+00  0.00000000000E+00 -0.85621556434E+02  0.29093952091E+04  0.29081350436E+04 0.  0.
        1    1    3    3  502    0  0.45196953517E+03  0.12695906472E+04 -0.58910186841E+03  0.14707745862E+04  0.50400001928E-02 0. -1.
       -1    1    3    3    0  502 -0.45196953517E+03 -0.12695906472E+04  0.50348031197E+03  0.14386206229E+04  0.50400001928E-02 0.  1.
</event>
<event>
 5   0  0.4148677E-06  0.2815356E+04  0.7818609E-02  0.8298517E-01
        2   -1    0    0  501    0  0.00000000000E+00  0.00000000000E+00  0.14656289606E+04  0.14656289606E+04  0.25500000920E-02 0.  1.
       -2   -1    0    0    0  501  0.00000000000E+00  0.00000000000E+00 -0.13520185342E+04  0.13520185342E+04  0.25500000920E-02 0. -1.
    10030    2    1    2    0    0  0.00000000000E+00  0.00000000000E+00  0.11361042640E+03  0.28176474948E+04  0.28153561188E+04 0.  0.
        5    1    3    3  502    0 -0.72818815137E+03  0.67145229040E+03 -0.94422345680E+03  0.13684612484E+04  0.46999998093E+01 0. -1.
       -5    1    3    3    0  502  0.72818815137E+03 -0.67145229040E+03  0.10578338832E+04  0.14491862463E+04  0.46999998093E+01 0.  1.
</event>
<event>
 5   0  0.4187518E-06  0.2922479E+04  0.7818609E-02  0.8266220E-01
        2   -1    0    0  501    0  0.00000000000E+00  0.00000000000E+00  0.16832553925E+04  0.16832553925E+04  0.25500000920E-02 0.  1.
       -2   -1    0    0    0  501  0.00000000000E+00  0.00000000000E+00 -0.12685071933E+04  0.12685071933E+04  0.25500000920E-02 0. -1.
    10030    2    1    2    0    0  0.00000000000E+00  0.00000000000E+00  0.41474819924E+03  0.29517625858E+04  0.29224794771E+04 0.  0.
        3    1    3    3  502    0  0.28556617301E+03 -0.93207044238E+03 -0.89207250243E+03  0.13213995265E+04  0.10100000352E+00 0. -1.
       -3    1    3    3    0  502 -0.28556617301E+03  0.93207044238E+03  0.13068207017E+04  0.16303630593E+04  0.10100000352E+00 0.  1.
</event>
<event>
 5   0  0.4115143E-06  0.2894293E+04  0.7818609E-02  0.8274578E-01
       -2   -1    0    0    0  501  0.00000000000E+00  0.00000000000E+00  0.10986008334E+04  0.10986008334E+04  0.25500000920E-02 0. -1.
        2   -1    0    0  501    0  0.00000000000E+00  0.00000000000E+00 -0.19062722541E+04  0.19062722541E+04  0.25500000920E-02 0.  1.
    10030    2    1    2    0    0  0.00000000000E+00  0.00000000000E+00 -0.80767142066E+03  0.30048730875E+04  0.28942925125E+04 0.  0.
        1    1    3    3  502    0  0.76479295070E+03  0.30312473016E+03  0.83221408611E+03  0.11702021811E+04  0.50400001928E-02 0. -1.
       -1    1    3    3    0  502 -0.76479295070E+03 -0.30312473016E+03 -0.16398855068E+04  0.18346709064E+04  0.50400001928E-02 0.  1.
</event>
<event>
 5   0  0.1550278E-06  0.2896366E+04  0.7818609E-02  0.8273959E-01
        1   -1    0    0  501    0  0.00000000000E+00  0.00000000000E+00  0.11600637067E+04  0.11600637067E+04  0.50400001928E-02 0. -1.
       -1   -1    0    0    0  501  0.00000000000E+00  0.00000000000E+00 -0.18078616730E+04  0.18078616730E+04  0.50400001928E-02 0.  1.
    10030    2    1    2    0    0  0.00000000000E+00  0.00000000000E+00 -0.64779796627E+03  0.29679253797E+04  0.28963664917E+04 0.  0.
        2    1    3    3  502    0 -0.88545397862E+03 -0.30242105557E+03 -0.14565345298E+04  0.17311788122E+04  0.25500000920E-02 0.  1.
       -2    1    3    3    0  502  0.88545397862E+03  0.30242105557E+03  0.80873656354E+03  0.12367465675E+04  0.25500000920E-02 0. -1.
</event>
<event>
 5   0  0.1602873E-06  0.2848568E+04  0.7818609E-02  0.8288347E-01
        1   -1    0    0  501    0  0.00000000000E+00  0.00000000000E+00  0.17394617155E+04  0.17394617155E+04  0.50400001928E-02 0.  1.
       -1   -1    0    0    0  501  0.00000000000E+00  0.00000000000E+00 -0.11662143099E+04  0.11662143099E+04  0.50400001928E-02 0. -1.
    10030    2    1    2    0    0  0.00000000000E+00  0.00000000000E+00  0.57324740557E+03  0.29056760254E+04  0.28485681625E+04 0.  0.
        1    1    3    3  502    0  0.72847001872E+03 -0.22979287790E+03 -0.93960449588E+03  0.12109211137E+04  0.50400001928E-02 0. -1.
       -1    1    3    3    0  502 -0.72847001872E+03  0.22979287790E+03  0.15128519015E+04  0.16947549117E+04  0.50400001928E-02 0.  1.
</event>
<event>
 5   0  0.4148677E-06  0.2892244E+04  0.7818609E-02  0.8275189E-01
        2   -1    0    0  501    0  0.00000000000E+00  0.00000000000E+00  0.15707209337E+04  0.15707209337E+04  0.25500000920E-02 0.  1.
       -2   -1    0    0    0  501  0.00000000000E+00  0.00000000000E+00 -0.13314071600E+04  0.13314071600E+04  0.25500000920E-02 0. -1.
    10030    2    1    2    0    0  0.00000000000E+00  0.00000000000E+00  0.23931377375E+03  0.29021280937E+04  0.28922441789E+04 0.  0.
        5    1    3    3  502    0 -0.58991447859E+03 -0.12819874750E+04  0.43657801936E+03  0.14771978321E+04  0.46999998093E+01 0.  1.
       -5    1    3    3    0  502  0.58991447859E+03  0.12819874750E+04 -0.19726424561E+03  0.14249302617E+04  0.46999998093E+01 0. -1.
</event>
<event>
 5   0  0.1511126E-06  0.2896910E+04  0.7818609E-02  0.8273797E-01
       -1   -1    0    0    0  501  0.00000000000E+00  0.00000000000E+00  0.16008173491E+04  0.16008173491E+04  0.50400001928E-02 0. -1.
        1   -1    0    0  501    0  0.00000000000E+00  0.00000000000E+00 -0.13105943635E+04  0.13105943635E+04  0.50400001928E-02 0.  1.
    10030    2    1    2    0    0  0.00000000000E+00  0.00000000000E+00  0.29022298559E+03  0.29114117127E+04  0.28969102125E+04 0.  0.
        5    1    3    3  502    0  0.24351837502E+03 -0.76650703792E+03 -0.10655622330E+04  0.13350202997E+04  0.46999998093E+01 0.  1.
       -5    1    3    3    0  502 -0.24351837502E+03  0.76650703792E+03  0.13557852186E+04  0.15763914130E+04  0.46999998093E+01 0. -1.
</event>
<event>
 5   0  0.1580212E-06  0.2899850E+04  0.7818609E-02  0.8272922E-01
       -1   -1    0    0    0  501  0.00000000000E+00  0.00000000000E+00  0.73994074385E+03  0.73994074386E+03  0.50400001928E-02 0.  1.
        1   -1    0    0  501    0  0.00000000000E+00  0.00000000000E+00 -0.28411506687E+04  0.28411506687E+04  0.50400001928E-02 0. -1.
    10030    2    1    2    0    0  0.00000000000E+00  0.00000000000E+00 -0.21012099248E+04  0.35810914125E+04  0.28998504370E+04 0.  0.
        4    1    3    3  502    0  0.38530456546E+03  0.80515653840E+02 -0.27739038402E+04  0.28016935069E+04  0.12699999809E+01 0. -1.
       -4    1    3    3    0  502 -0.38530456546E+03 -0.80515653840E+02  0.67269391539E+03  0.77939790568E+03  0.12699999809E+01 0.  1.
</event>
<event>
 5   0  0.4148677E-06  0.2888135E+04  0.7818609E-02  0.8276416E-01
       -2   -1    0    0    0  501  0.00000000000E+00  0.00000000000E+00  0.11218979873E+04  0.11218979873E+04  0.25500000920E-02 0.  1.
        2   -1    0    0  501    0  0.00000000000E+00  0.00000000000E+00 -0.18587530562E+04  0.18587530562E+04  0.25500000920E-02 0. -1.
    10030    2    1    2    0    0  0.00000000000E+00  0.00000000000E+00 -0.73685506886E+03  0.29806510435E+04  0.28881352549E+04 0.  0.
        5    1    3    3  502    0 -0.55833453208E+03  0.10392147196E+03  0.10017968461E+04  0.11515885259E+04  0.46999998093E+01 0.  1.
       -5    1    3    3    0  502  0.55833453208E+03 -0.10392147196E+03 -0.17386519150E+04  0.18290625176E+04  0.46999998093E+01 0. -1.
</event>
<event>
 5   0  0.1360125E-06  0.2895626E+04  0.7818609E-02  0.8274180E-01
        3   -1    0    0  501    0  0.00000000000E+00  0.00000000000E+00  0.12694143714E+04  0.12694143754E+04  0.10100000352E+00 0.  1.
       -3   -1    0    0    0  501  0.00000000000E+00  0.00000000000E+00 -0.16512827599E+04  0.16512827630E+04  0.10100000352E+00 0. -1.
    10030    2    1    2    0    0  0.00000000000E+00  0.00000000000E+00 -0.38186838852E+03  0.29206971383E+04  0.28956257196E+04 0.  0.
        5    1    3    3  502    0  0.64569237544E+03 -0.51876722204E+03  0.10068245510E+04  0.13037468470E+04  0.46999998093E+01 0.  1.
       -5    1    3    3    0  502 -0.64569237544E+03  0.51876722204E+03 -0.13886929396E+04  0.16169502914E+04  0.46999998093E+01 0. -1.
</event>
<event>
 5   0  0.4148677E-06  0.2874687E+04  0.7818609E-02  0.8280449E-01
        2   -1    0    0  501    0  0.00000000000E+00  0.00000000000E+00  0.18698639910E+04  0.18698639910E+04  0.25500000920E-02 0. -1.
       -2   -1    0    0    0  501  0.00000000000E+00  0.00000000000E+00 -0.11048701318E+04  0.11048701318E+04  0.25500000920E-02 0.  1.
    10030    2    1    2    0    0  0.00000000000E+00  0.00000000000E+00  0.76499385920E+03  0.29747341228E+04  0.28746873737E+04 0.  0.
        5    1    3    3  502    0 -0.92284553380E+03  0.10667347947E+04  0.66846176012E+03  0.15609068570E+04  0.46999998093E+01 0. -1.
       -5    1    3    3    0  502  0.92284553380E+03 -0.10667347947E+04  0.96532099079E+02  0.14138272658E+04  0.46999998093E+01 0.  1.
</event>
<event>
 5   0  0.4224163E-06  0.2893518E+04  0.7818609E-02  0.8274809E-01
        2   -1    0    0  501    0  0.00000000000E+00  0.00000000000E+00  0.18419088871E+04  0.18419088871E+04  0.25500000920E-02 0.  1.
       -2   -1    0    0    0  501  0.00000000000E+00  0.00000000000E+00 -0.11363816074E+04  0.11363816074E+04  0.25500000920E-02 0. -1.
    10030    2    1    2    0    0  0.00000000000E+00  0.00000000000E+00  0.70552727965E+03  0.29782904945E+04  0.28935178464E+04 0.  0.
        4    1    3    3  502    0 -0.96021382615E+03  0.10817224400E+04  0.38491563256E+03  0.14967617333E+04  0.12699999809E+01 0.  1.
       -4    1    3    3    0  502  0.96021382615E+03 -0.10817224400E+04  0.32061164709E+03  0.14815287612E+04  0.12699999809E+01 0. -1.
</event>
<event>
 5   0  0.4115143E-06  0.2844651E+04  0.7818609E-02  0.8289539E-01
       -2   -1    0    0    0  501  0.00000000000E+00  0.00000000000E+00  0.13431654715E+04  0.13431654716E+04  0.25500000920E-02 0. -1.
        2   -1    0    0  501    0  0.00000000000E+00  0.00000000000E+00 -0.15061503553E+04  0.15061503553E+04  0.25500000920E-02 0.  1.
    10030    2    1    2    0    0  0.00000000000E+00  0.00000000000E+00 -0.16298488376E+03  0.28493158269E+04  0.28446505249E+04 0.  0.
        1    1    3    3  502    0  0.58612723290E+03  0.37651664043E+02 -0.13790112145E+04  0.14988778171E+04  0.50400001928E-02 0.  1.
       -1    1    3    3    0  502 -0.58612723290E+03 -0.37651664043E+02  0.12160263308E+04  0.13504380097E+04  0.50400001928E-02 0. -1.
</event>
<event>
 5   0  0.4115143E-06  0.2905702E+04  0.7818609E-02  0.8271183E-01
       -2   -1    0    0    0  501  0.00000000000E+00  0.00000000000E+00  0.89214942415E+03  0.89214942415E+03  0.25500000920E-02 0.  1.
        2   -1    0    0  501    0  0.00000000000E+00  0.00000000000E+00 -0.23659447759E+04  0.23659447759E+04  0.25500000920E-02 0. -1.
    10030    2    1    2    0    0  0.00000000000E+00  0.00000000000E+00 -0.14737953517E+04  0.32580942000E+04  0.29057021660E+04 0.  0.
        1    1    3    3  502    0 -0.75927861646E+03 -0.70287815822E+03 -0.18805082861E+04  0.21463581101E+04  0.50400001928E-02 0. -1.
       -1    1    3    3    0  502  0.75927861646E+03  0.70287815822E+03  0.40671293434E+03  0.11117360899E+04  0.50400001928E-02 0.  1.
</event>
<event>
 5   0  0.1550278E-06  0.2656167E+04  0.7818609E-02  0.8349369E-01
       -1   -1    0    0    0  501  0.00000000000E+00  0.00000000000E+00  0.59122156873E+03  0.59122156875E+03  0.50400001928E-02 0. -1.
        1   -1    0    0  501    0  0.00000000000E+00  0.00000000000E+00 -0.29833236070E+04  0.29833236070E+04  0.50400001928E-02 0.  1.
    10030    2    1    2    0    0  0.00000000000E+00  0.00000000000E+00 -0.23921020382E+04  0.35745451757E+04  0.26561666085E+04 0.  0.
        2    1    3    3  502    0  0.35349491803E+03 -0.16966500687E+03  0.51155061003E+03  0.64453773998E+03  0.25500000920E-02 0. -1.
       -2    1    3    3    0  502 -0.35349491803E+03  0.16966500687E+03 -0.29036526483E+04  0.29300074357E+04  0.25500000920E-02 0.  1.
</event>
<event>
 5   0  0.4115143E-06  0.2910220E+04  0.7818609E-02  0.8269843E-01
       -2   -1    0    0    0  501  0.00000000000E+00  0.00000000000E+00  0.19938019203E+04  0.19938019203E+04  0.25500000920E-02 0. -1.
        2   -1    0    0  501    0  0.00000000000E+00  0.00000000000E+00 -0.10619633305E+04  0.10619633305E+04  0.25500000920E-02 0.  1.
    10030    2    1    2    0    0  0.00000000000E+00  0.00000000000E+00  0.93183858985E+03  0.30557652509E+04  0.29102195984E+04 0.  0.
        1    1    3    3  502    0 -0.34108905228E+03 -0.10755165975E+04 -0.49887358875E+03  0.12336744103E+04  0.50400001928E-02 0.  1.
       -1    1    3    3    0  502  0.34108905228E+03  0.10755165975E+04  0.14307121786E+04  0.18220908405E+04  0.50400001928E-02 0. -1.
</event>
<event>
 5   0  0.1511126E-06  0.2913376E+04  0.7818609E-02  0.8268909E-01
       -1   -1    0    0    0  501  0.00000000000E+00  0.00000000000E+00  0.95119841440E+03  0.95119841442E+03  0.50400001928E-02 0. -1.
        1   -1    0    0  501    0  0.00000000000E+00  0.00000000000E+00 -0.22308069586E+04  0.22308069586E+04  0.50400001928E-02 0.  1.
    10030    2    1    2    0    0  0.00000000000E+00  0.00000000000E+00 -0.12796085442E+04  0.31820053730E+04  0.29133760772E+04 0.  0.
        5    1    3    3  502    0 -0.76806570567E+03  0.12301605525E+04 -0.78915329535E+03  0.16510617574E+04  0.46999998093E+01 0. -1.
       -5    1    3    3    0  502  0.76806570567E+03 -0.12301605525E+04 -0.49045524883E+03  0.15309436156E+04  0.46999998093E+01 0.  1.
</event>
<event>
 5   0  0.1543678E-06  0.2613683E+04  0.7818609E-02  0.8363568E-01
       -1   -1    0    0    0  501  0.00000000000E+00  0.00000000000E+00  0.79038139881E+03  0.79038139883E+03  0.50400001928E-02 0.  1.
        1   -1    0    0  501    0  0.00000000000E+00  0.00000000000E+00 -0.21607727099E+04  0.21607727099E+04  0.50400001928E-02 0. -1.
    10030    2    1    2    0    0  0.00000000000E+00  0.00000000000E+00 -0.13703913111E+04  0.29511541087E+04  0.26136828859E+04 0.  0.
        3    1    3    3  502    0  0.10181626360E+04  0.75863918933E+03 -0.10343941329E+04  0.16377300771E+04  0.10100000352E+00 0. -1.
       -3    1    3    3    0  502 -0.10181626360E+04 -0.75863918933E+03 -0.33599717813E+03  0.13134240316E+04  0.10100000352E+00 0.  1.
</event>
<event>
 5   0  0.4224163E-06  0.2872320E+04  0.7818609E-02  0.8281161E-01
       -2   -1    0    0    0  501  0.00000000000E+00  0.00000000000E+00  0.11588101039E+04  0.11588101039E+04  0.25500000920E-02 0. -1.
        2   -1    0    0  501    0  0.00000000000E+00  0.00000000000E+00 -0.17798909539E+04  0.17798909539E+04  0.25500000920E-02 0.  1.
    10030    2    1    2    0    0  0.00000000000E+00  0.00000000000E+00 -0.62108084994E+03  0.29387010578E+04  0.28723200527E+04 0.  0.
        4    1    3    3  502    0 -0.16946075120E+03 -0.13826428728E+04 -0.66809634937E+03  0.15449183165E+04  0.12699999809E+01 0.  1.
       -4    1    3    3    0  502  0.16946075120E+03  0.13826428728E+04  0.47015499428E+02  0.13937827413E+04  0.12699999809E+01 0. -1.
</event>
<event>
 5   0  0.1602873E-06  0.2901801E+04  0.7818609E-02  0.8272342E-01
       -1   -1    0    0    0  501  0.00000000000E+00  0.00000000000E+00  0.86259903286E+03  0.86259903288E+03  0.50400001928E-02 0.  1.
        1   -1    0    0  501    0  0.00000000000E+00  0.00000000000E+00 -0.24404297214E+04  0.24404297214E+04  0.50400001928E-02 0. -1.
    10030    2    1    2    0    0  0.00000000000E+00  0.00000000000E+00 -0.15778306886E+04  0.33030287543E+04  0.29018010390E+04 0.  0.
        1    1    3    3  502    0  0.27331643766E+03  0.25917420298E+02  0.83276327874E+03  0.87685133644E+03  0.50400001928E-02 0.  1.
       -1    1    3    3    0  502 -0.27331643766E+03 -0.25917420298E+02 -0.24105939673E+04  0.24261774179E+04  0.50400001928E-02 0. -1.
</event>
<event>
 5   0  0.4187518E-06  0.2935077E+04  0.7818609E-02  0.8262517E-01
       -2   -1    0    0    0  501  0.00000000000E+00  0.00000000000E+00  0.11105060859E+04  0.11105060860E+04  0.25500000920E-02 0.  1.
        2   -1    0    0  501    0  0.00000000000E+00  0.00000000000E+00 -0.19393583667E+04  0.19393583668E+04  0.25500000920E-02 0. -1.
    10030    2    1    2    0    0  0.00000000000E+00  0.00000000000E+00 -0.82885228080E+03  0.30498644527E+04  0.29350770137E+04 0.  0.
        3    1    3    3  502    0 -0.34701249125E+02  0.13574487270E+04  0.16393667980E+03  0.13677523418E+04  0.10100000352E+00 0. -1.
       -3    1    3    3    0  502  0.34701249125E+02 -0.13574487270E+04 -0.99278896060E+03  0.16821121109E+04  0.10100000352E+00 0.  1.
</event>
<event>
 5   0  0.4187518E-06  0.2915614E+04  0.7818609E-02  0.8268247E-01
       -2   -1    0    0    0  501  0.00000000000E+00  0.00000000000E+00  0.97350600308E+03  0.97350600308E+03  0.25500000920E-02 0. -1.
        2   -1    0    0  501    0  0.00000000000E+00  0.00000000000E+00 -0.21830390645E+04  0.21830390645E+04  0.25500000920E-02 0.  1.
    10030    2    1    2    0    0  0.00000000000E+00  0.00000000000E+00 -0.12095330614E+04  0.31565450676E+04  0.29156142641E+04 0.  0.
        3    1    3    3  502    0 -0.14805744889E+03  0.60459973405E+03  0.82239884000E+03  0.10314076347E+04  0.10100000352E+00 0. -1.
       -3    1    3    3    0  502  0.14805744889E+03 -0.60459973405E+03 -0.20319319014E+04  0.21251374329E+04  0.10100000352E+00 0.  1.
</event>
<event>
 5   0  0.4187518E-06  0.2961469E+04  0.7818609E-02  0.8254820E-01
       -2   -1    0    0    0  501  0.00000000000E+00  0.00000000000E+00  0.13739964112E+04  0.13739964112E+04  0.25500000920E-02 0. -1.
        2   -1    0    0  501    0  0.00000000000E+00  0.00000000000E+00 -0.15957646783E+04  0.15957646783E+04  0.25500000920E-02 0.  1.
    10030    2    1    2    0    0  0.00000000000E+00  0.00000000000E+00 -0.22176826709E+03  0.29697610896E+04  0.29614691902E+04 0.  0.
        3    1    3    3  502    0  0.28243578865E+03  0.13472510807E+03  0.13404601683E+04  0.13765007455E+04  0.10100000352E+00 0. -1.
       -3    1    3    3    0  502 -0.28243578865E+03 -0.13472510807E+03 -0.15622284354E+04  0.15932603440E+04  0.10100000352E+00 0.  1.
</event>
<event>
 5   0  0.1550278E-06  0.2901855E+04  0.7818609E-02  0.8272326E-01
        1   -1    0    0  501    0  0.00000000000E+00  0.00000000000E+00  0.14367641806E+04  0.14367641806E+04  0.50400001928E-02 0. -1.
       -1   -1    0    0    0  501  0.00000000000E+00  0.00000000000E+00 -0.14652305216E+04  0.14652305216E+04  0.50400001928E-02 0.  1.
    10030    2    1    2    0    0  0.00000000000E+00  0.00000000000E+00 -0.28466341016E+02  0.29019947021E+04  0.29018550823E+04 0.  0.
        2    1    3    3  502    0  0.29026951301E+03  0.13940212613E+04 -0.29288444659E+03  0.14537307063E+04  0.25500000920E-02 0.  1.
       -2    1    3    3    0  502 -0.29026951301E+03 -0.13940212613E+04  0.26441810558E+03  0.14482639959E+04  0.25500000920E-02 0. -1.
</event>
<event>
 5   0  0.4148677E-06  0.2814045E+04  0.7818609E-02  0.8298921E-01
        2   -1    0    0  501    0  0.00000000000E+00  0.00000000000E+00  0.14680716148E+04  0.14680716148E+04  0.25500000920E-02 0.  1.
       -2   -1    0    0    0  501  0.00000000000E+00  0.00000000000E+00 -0.13485124653E+04  0.13485124653E+04  0.25500000920E-02 0. -1.
    10030    2    1    2    0    0  0.00000000000E+00  0.00000000000E+00  0.11955914945E+03  0.28165840801E+04  0.28140453959E+04 0.  0.
        5    1    3    3  502    0  0.91768956071E+02 -0.13741436054E+04  0.34813424246E+03  0.14205321997E+04  0.46999998093E+01 0. -1.
       -5    1    3    3    0  502 -0.91768956071E+02  0.13741436054E+04 -0.22857509301E+03  0.13960518804E+04  0.46999998093E+01 0.  1.
</event>
<event>
 5   0  0.4148677E-06  0.2890892E+04  0.7818609E-02  0.8275593E-01
        2   -1    0    0  501    0  0.00000000000E+00  0.00000000000E+00  0.12645101742E+04  0.12645101742E+04  0.25500000920E-02 0. -1.
       -2   -1    0    0    0  501  0.00000000000E+00  0.00000000000E+00 -0.16522715298E+04  0.16522715298E+04  0.25500000920E-02 0.  1.
    10030    2    1    2    0    0  0.00000000000E+00  0.00000000000E+00 -0.38776135560E+03  0.29167817041E+04  0.28908920146E+04 0.  0.
        5    1    3    3  502    0  0.13030686147E+04 -0.62543465150E+03 -0.18212505900E+03  0.14568280424E+04  0.46999998093E+01 0. -1.
       -5    1    3    3    0  502 -0.13030686147E+04  0.62543465150E+03 -0.20563629660E+03  0.14599536617E+04  0.46999998093E+01 0.  1.
</event>
<event>
 5   0  0.4224163E-06  0.2968100E+04  0.7818609E-02  0.8252899E-01
        2   -1    0    0  501    0  0.00000000000E+00  0.00000000000E+00  0.13302806329E+04  0.13302806329E+04  0.25500000920E-02 0. -1.
       -2   -1    0    0    0  501  0.00000000000E+00  0.00000000000E+00 -0.16555939931E+04  0.16555939931E+04  0.25500000920E-02 0.  1.
    10030    2    1    2    0    0  0.00000000000E+00  0.00000000000E+00 -0.32531336017E+03  0.29858746260E+04  0.29681001499E+04 0.  0.
        4    1    3    3  502    0 -0.45772379858E+03  0.14116535615E+04 -0.17395597764E+03  0.14941683803E+04  0.12699999809E+01 0. -1.
       -4    1    3    3    0  502  0.45772379858E+03 -0.14116535615E+04 -0.15135738253E+03  0.14917062458E+04  0.12699999809E+01 0.  1.
</event>
<event>
 5   0  0.4224163E-06  0.2883249E+04  0.7818609E-02  0.8277879E-01
       -2   -1    0    0    0  501  0.00000000000E+00  0.00000000000E+00  0.16997852610E+04  0.16997852610E+04  0.25500000920E-02 0.  1.
        2   -1    0    0  501    0  0.00000000000E+00  0.00000000000E+00 -0.12226726895E+04  0.12226726895E+04  0.25500000920E-02 0. -1.
    10030    2    1    2    0    0  0.00000000000E+00  0.00000000000E+00  0.47711257152E+03  0.29224579506E+04  0.28832488736E+04 0.  0.
        4    1    3    3  502    0 -0.56678844632E+03  0.51394161568E+03 -0.99989995679E+03  0.12590419626E+04  0.12699999809E+01 0. -1.
       -4    1    3    3    0  502  0.56678844632E+03 -0.51394161568E+03  0.14770125283E+04  0.16634159879E+04  0.12699999809E+01 0.  1.
</event>
<event>
 5   0  0.1580212E-06  0.2910965E+04  0.7818609E-02  0.8269623E-01
       -1   -1    0    0    0  501  0.00000000000E+00  0.00000000000E+00  0.11256064194E+04  0.11256064194E+04  0.50400001928E-02 0. -1.
        1   -1    0    0  501    0  0.00000000000E+00  0.00000000000E+00 -0.18820337206E+04  0.18820337206E+04  0.50400001928E-02 0.  1.
    10030    2    1    2    0    0  0.00000000000E+00  0.00000000000E+00 -0.75642730126E+03  0.30076401400E+04  0.29109649517E+04 0.  0.
        4    1    3    3  502    0 -0.65404233674E+03  0.12956939778E+04 -0.26581969069E+03  0.14755527721E+04  0.12699999809E+01 0.  1.
       -4    1    3    3    0  502  0.65404233674E+03 -0.12956939778E+04 -0.49060761057E+03  0.15320873679E+04  0.12699999809E+01 0. -1.
</event>
<event>
 5   0  0.4187518E-06  0.2883569E+04  0.7818609E-02  0.8277783E-01
       -2   -1    0    0    0  501  0.00000000000E+00  0.00000000000E+00  0.10510598982E+04  0.10510598982E+04  0.25500000920E-02 0.  1.
        2   -1    0    0  501    0  0.00000000000E+00  0.00000000000E+00 -0.19777580932E+04  0.19777580932E+04  0.25500000920E-02 0. -1.
    10030    2    1    2    0    0  0.00000000000E+00  0.00000000000E+00 -0.92669819501E+03  0.30288179914E+04  0.28835687751E+04 0.  0.
        3    1    3    3  502    0  0.33668942776E+03  0.30295778070E+03  0.97439365760E+03  0.10745167276E+04  0.10100000352E+00 0.  1.
       -3    1    3    3    0  502 -0.33668942776E+03 -0.30295778070E+03 -0.19010918526E+04  0.19543012639E+04  0.10100000352E+00 0. -1.
</event>
<event>
 5   0  0.1580212E-06  0.2889521E+04  0.7818609E-02  0.8276002E-01
       -1   -1    0    0    0  501  0.00000000000E+00  0.00000000000E+00  0.22711162484E+04  0.22711162484E+04  0.50400001928E-02 0. -1.
        1   -1    0    0  501    0  0.00000000000E+00  0.00000000000E+00 -0.91907811790E+03  0.91907811792E+03  0.50400001928E-02 0.  1.
    10030    2    1    2    0    0  0.00000000000E+00  0.00000000000E+00  0.13520381305E+04  0.31901943663E+04  0.28895212386E+04 0.  0.
        4    1    3    3  502    0  0.18857125225E+03  0.13945255252E+04  0.10372852709E+04  0.17482056240E+04  0.12699999809E+01 0. -1.
       -4    1    3    3    0  502 -0.18857125225E+03 -0.13945255252E+04  0.31475285952E+03  0.14419887423E+04  0.12699999809E+01 0.  1.
</event>
<event>
 5   0  0.4115143E-06  0.2891375E+04  0.7818609E-02  0.8275448E-01
        2   -1    0    0  501    0  0.00000000000E+00  0.00000000000E+00  0.23158108603E+04  0.23158108603E+04  0.25500000920E-02 0.  1.
       -2   -1    0    0    0  501  0.00000000000E+00  0.00000000000E+00 -0.90249718476E+03  0.90249718477E+03  0.25500000920E-02 0. -1.
    10030    2    1    2    0    0  0.00000000000E+00  0.00000000000E+00  0.14133136755E+04  0.32183080451E+04  0.28913753003E+04 0.  0.
        1    1    3    3  502    0  0.55142573934E+03 -0.67232822211E+03 -0.57888903983E+03  0.10446090679E+04  0.50400001928E-02 0. -1.
       -1    1    3    3    0  502 -0.55142573934E+03  0.67232822211E+03  0.19922027154E+04  0.21736989772E+04  0.50400001928E-02 0.  1.
</event>
<event>
 5   0  0.4162450E-06  0.2890519E+04  0.7818609E-02  0.8275704E-01
        2   -1    0    0  501    0  0.00000000000E+00  0.00000000000E+00  0.19552386713E+04  0.19552386713E+04  0.25500000920E-02 0.  1.
       -2   -1    0    0    0  501  0.00000000000E+00  0.00000000000E+00 -0.10682966198E+04  0.10682966198E+04  0.25500000920E-02 0. -1.
    10030    2    1    2    0    0  0.00000000000E+00  0.00000000000E+00  0.88694205145E+03  0.30235352911E+04  0.28905188900E+04 0.  0.
        2    1    3    3  502    0 -0.54256389553E+02 -0.13212280991E+04 -0.16662522149E+03  0.13327983381E+04  0.25500000920E-02 0.  1.
       -2    1    3    3    0  502  0.54256389553E+02  0.13212280991E+04  0.10535672729E+04  0.16907369530E+04  0.25500000920E-02 0. -1.
</event>
<event>
 5   0  0.1602873E-06  0.2903310E+04  0.7818609E-02  0.8271893E-01
       -1   -1    0    0    0  501  0.00000000000E+00  0.00000000000E+00  0.14355300964E+04  0.14355300964E+04  0.50400001928E-02 0.  1.
        1   -1    0    0  501    0  0.00000000000E+00  0.00000000000E+00 -0.14679608349E+04  0.14679608349E+04  0.50400001928E-02 0. -1.
    10030    2    1    2    0    0  0.00000000000E+00  0.00000000000E+00 -0.32430738525E+02  0.29034909313E+04  0.29033098070E+04 0.  0.
        1    1    3    3  502    0 -0.46476625289E+03  0.51307119028E+02 -0.13905870533E+04  0.14670966032E+04  0.50400001928E-02 0. -1.
       -1    1    3    3    0  502  0.46476625289E+03 -0.51307119028E+02  0.13581563148E+04  0.14363943281E+04  0.50400001928E-02 0.  1.
</event>
<event>
 5   0  0.1550278E-06  0.2891626E+04  0.7818609E-02  0.8275373E-01
       -1   -1    0    0    0  501  0.00000000000E+00  0.00000000000E+00  0.24544141100E+04  0.24544141100E+04  0.50400001928E-02 0.  1.
        1   -1    0    0  501    0  0.00000000000E+00  0.00000000000E+00 -0.85168016567E+03  0.85168016568E+03  0.50400001928E-02 0. -1.
    10030    2    1    2    0    0  0.00000000000E+00  0.00000000000E+00  0.16027339443E+04  0.33060942757E+04  0.28916264045E+04 0.  0.
        2    1    3    3  502    0 -0.18433029615E+03  0.25424149032E+03 -0.81221670521E+03  0.87081132842E+03  0.25500000920E-02 0. -1.
       -2    1    3    3    0  502  0.18433029615E+03 -0.25424149032E+03  0.24149506496E+04  0.24352829473E+04  0.25500000920E-02 0.  1.
</event>
<event>
 5   0  0.4224163E-06  0.2684529E+04  0.7818609E-02  0.8340042E-01
       -2   -1    0    0    0  501  0.00000000000E+00  0.00000000000E+00  0.18154832207E+04  0.18154832207E+04  0.25500000920E-02 0. -1.
        2   -1    0    0  501    0  0.00000000000E+00  0.00000000000E+00 -0.99239384430E+03  0.99239384430E+03  0.25500000920E-02 0.  1.
    10030    2    1    2    0    0  0.00000000000E+00  0.00000000000E+00  0.82308937639E+03  0.28078770650E+04  0.26845292866E+04 0.  0.
        4    1    3    3  502    0 -0.54912977065E+03  0.96971985364E+03  0.11941013357E+04  0.16333339255E+04  0.12699999809E+01 0. -1.
       -4    1    3    3    0  502  0.54912977065E+03 -0.96971985364E+03 -0.37101195930E+03  0.11745431394E+04  0.12699999809E+01 0.  1.
</event>
<event>
 5   0  0.4224163E-06  0.2919053E+04  0.7818609E-02  0.8267231E-01
       -2   -1    0    0    0  501  0.00000000000E+00  0.00000000000E+00  0.73597727313E+03  0.73597727314E+03  0.25500000920E-02 0. -1.
        2   -1    0    0  501    0  0.00000000000E+00  0.00000000000E+00 -0.28944070222E+04  0.28944070222E+04  0.25500000920E-02 0.  1.
    10030    2    1    2    0    0  0.00000000000E+00  0.00000000000E+00 -0.21584297491E+04  0.36303842954E+04  0.29190531256E+04 0.  0.
        4    1    3    3  502    0  0.94109391924E+03 -0.10230384776E+04 -0.16325510999E+04  0.21441758786E+04  0.12699999809E+01 0. -1.
       -4    1    3    3    0  502 -0.94109391924E+03  0.10230384776E+04 -0.52587864918E+03  0.14862084168E+04  0.12699999809E+01 0.  1.
</event>
<event>
 5   0  0.1580212E-06  0.2913490E+04  0.7818609E-02  0.8268875E-01
       -1   -1    0    0    0  501  0.00000000000E+00  0.00000000000E+00  0.13229833562E+04  0.13229833562E+04  0.50400001928E-02 0.  1.
        1   -1    0    0  501    0  0.00000000000E+00  0.00000000000E+00 -0.16040304953E+04  0.16040304953E+04  0.50400001928E-02 0. -1.
    10030    2    1    2    0    0  0.00000000000E+00  0.00000000000E+00 -0.28104713911E+03  0.29270138516E+04  0.29134897619E+04 0.  0.
        4    1    3    3  502    0  0.53448078133E+03  0.13177017328E+04 -0.45837243760E+03  0.14940262604E+04  0.12699999809E+01 0.  1.
       -4    1    3    3    0  502 -0.53448078133E+03 -0.13177017328E+04  0.17732529849E+03  0.14329875912E+04  0.12699999809E+01 0. -1.
</event>
<event>
 5   0  0.1550278E-06  0.2905306E+04  0.7818609E-02  0.8271301E-01
       -1   -1    0    0    0  501  0.00000000000E+00  0.00000000000E+00  0.12149211283E+04  0.12149211283E+04  0.50400001928E-02 0.  1.
        1   -1    0    0  501    0  0.00000000000E+00  0.00000000000E+00 -0.17369035962E+04  0.17369035962E+04  0.50400001928E-02 0. -1.
    10030    2    1    2    0    0  0.00000000000E+00  0.00000000000E+00 -0.52198246784E+03  0.29518247245E+04  0.29053060953E+04 0.  0.
        2    1    3    3  502    0  0.36063382247E+03  0.13764590158E+04  0.36102619363E+02  0.14233761187E+04  0.25500000920E-02 0. -1.
       -2    1    3    3    0  502 -0.36063382247E+03 -0.13764590158E+04 -0.55808508720E+03  0.15284486058E+04  0.25500000920E-02 0.  1.
</event>
<event>
 5   0  0.4148677E-06  0.2897005E+04  0.7818609E-02  0.8273769E-01
        2   -1    0    0  501    0  0.00000000000E+00  0.00000000000E+00  0.24686191618E+04  0.24686191618E+04  0.25500000920E-02 0. -1.
       -2   -1    0    0    0  501  0.00000000000E+00  0.00000000000E+00 -0.84993232455E+03  0.84993232456E+03  0.25500000920E-02 0.  1.
    10030    2    1    2    0    0  0.00000000000E+00  0.00000000000E+00  0.16186868373E+04  0.33185514864E+04  0.28970048137E+04 0.  0.
        5    1    3    3  502    0 -0.85201322471E+02  0.11072105597E+04 -0.25602058510E+03  0.11396241130E+04  0.46999998093E+01 0.  1.
       -5    1    3    3    0  502  0.85201322471E+02 -0.11072105597E+04  0.18747074224E+04  0.21789273734E+04  0.46999998093E+01 0. -1.
</event>
<event>
 5   0  0.1360125E-06  0.2907607E+04  0.7818609E-02  0.8270618E-01
       -4   -1    0    0    0  501  0.00000000000E+00  0.00000000000E+00  0.15267101857E+04  0.15267107139E+04  0.12699999809E+01 0. -1.
        4   -1    0    0  501    0  0.00000000000E+00  0.00000000000E+00 -0.13843774841E+04  0.13843780666E+04  0.12699999809E+01 0.  1.
    10030    2    1    2    0    0  0.00000000000E+00  0.00000000000E+00  0.14233270163E+03  0.29110887805E+04  0.29076071416E+04 0.  0.
        3    1    3    3  502    0  0.25187745509E+03  0.11165997753E+04 -0.82618110315E+03  0.14116701229E+04  0.10100000352E+00 0.  1.
       -3    1    3    3    0  502 -0.25187745509E+03 -0.11165997753E+04  0.96851380477E+03  0.14994186576E+04  0.10100000352E+00 0. -1.
</event>
<event>
 5   0  0.1511126E-06  0.2928934E+04  0.7818609E-02  0.8264320E-01
        1   -1    0    0  501    0  0.00000000000E+00  0.00000000000E+00  0.17732059911E+04  0.17732059911E+04  0.50400001928E-02 0.  1.
       -1   -1    0    0    0  501  0.00000000000E+00  0.00000000000E+00 -0.12094839748E+04  0.12094839748E+04  0.50400001928E-02 0. -1.
    10030    2    1    2    0    0  0.00000000000E+00  0.00000000000E+00  0.56372201635E+03  0.29826899659E+04  0.29289344344E+04 0.  0.
        5    1    3    3  502    0 -0.12661552752E+04  0.16622393958E+03 -0.44813746515E+03  0.13533768347E+04  0.46999998093E+01 0. -1.
       -5    1    3    3    0  502  0.12661552752E+04 -0.16622393958E+03  0.10118594815E+04  0.16293131312E+04  0.46999998093E+01 0.  1.
</event>
<event>
 5   0  0.4162450E-06  0.2930733E+04  0.7818609E-02  0.8263792E-01
        2   -1    0    0  501    0  0.00000000000E+00  0.00000000000E+00  0.21838199977E+04  0.21838199977E+04  0.25500000920E-02 0. -1.
       -2   -1    0    0    0  501  0.00000000000E+00  0.00000000000E+00 -0.98327683373E+03  0.98327683373E+03  0.25500000920E-02 0.  1.
    10030    2    1    2    0    0  0.00000000000E+00  0.00000000000E+00  0.12005431639E+04  0.31670968314E+04  0.29307334323E+04 0.  0.
        2    1    3    3  502    0 -0.59483970707E+03  0.13375467274E+04  0.52831224467E+03  0.15562709767E+04  0.25500000920E-02 0.  1.
       -2    1    3    3    0  502  0.59483970707E+03 -0.13375467274E+04  0.67223091927E+03  0.16108258547E+04  0.25500000920E-02 0. -1.
</event>
<event>
 5   0  0.1580212E-06  0.2858706E+04  0.7818609E-02  0.8285271E-01
        1   -1    0    0  501    0  0.00000000000E+00  0.00000000000E+00  0.11607967926E+04  0.11607967927E+04  0.50400001928E-02 0. -1.
       -1   -1    0    0    0  501  0.00000000000E+00  0.00000000000E+00 -0.17600406056E+04  0.17600406056E+04  0.50400001928E-02 0.  1.
    10030    2    1    2    0    0  0.00000000000E+00  0.00000000000E+00 -0.59924381294E+03  0.29208373982E+04  0.28587056441E+04 0.  0.
        4    1    3    3  502    0 -0.95475533579E+03 -0.10471556411E+04 -0.10859534016E+03  0.14212273740E+04  0.12699999809E+01 0. -1.
       -4    1    3    3    0  502  0.95475533579E+03  0.10471556411E+04 -0.49064847277E+03  0.14996100242E+04  0.12699999809E+01 0.  1.
</event>
<event>
 5   0  0.4187518E-06  0.2891677E+04  0.7818609E-02  0.8275358E-01
        2   -1    0    0  501    0  0.00000000000E+00  0.00000000000E+00  0.15045061574E+04  0.15045061574E+04  0.25500000920E-02 0. -1.
       -2   -1    0    0    0  501  0.00000000000E+00  0.00000000000E+00 -0.13894589825E+04  0.13894589825E+04  0.25500000920E-02 0.  1.
    10030    2    1    2    0    0  0.00000000000E+00  0.00000000000E+00  0.11504717488E+03  0.28939651399E+04  0.28916774334E+04 0.  0.
        3    1    3    3  502    0  0.41112042442E+03  0.12692866105E+04 -0.49999979227E+03  0.14248186921E+04  0.10100000352E+00 0.  1.
       -3    1    3    3    0  502 -0.41112042442E+03 -0.12692866105E+04  0.61504696715E+03  0.14691464478E+04  0.10100000352E+00 0. -1.
</event>
<event>
 5   0  0.1550278E-06  0.2884281E+04  0.7818609E-02  0.8277570E-01
        1   -1    0    0  501    0  0.00000000000E+00  0.00000000000E+00  0.13562365830E+04  0.13562365831E+04  0.50400001928E-02 0.  1.
       -1   -1    0    0    0  501  0.00000000000E+00  0.00000000000E+00 -0.15334859753E+04  0.15334859753E+04  0.50400001928E-02 0. -1.
    10030    2    1    2    0    0  0.00000000000E+00  0.00000000000E+00 -0.17724939222E+03  0.28897225583E+04  0.28842813866E+04 0.  0.
        2    1    3    3  502    0  0.17417888713E+03  0.49933207468E+03 -0.14328334307E+04  0.15273121638E+04  0.25500000920E-02 0. -1.
       -2    1    3    3    0  502 -0.17417888713E+03 -0.49933207468E+03  0.12555840385E+04  0.13624103946E+04  0.25500000920E-02 0.  1.
</event>
<event>
 5   0  0.4162450E-06  0.2820110E+04  0.7818609E-02  0.8297052E-01
       -2   -1    0    0    0  501  0.00000000000E+00  0.00000000000E+00  0.70342785795E+03  0.70342785795E+03  0.25500000920E-02 0.  1.
        2   -1    0    0  501    0  0.00000000000E+00  0.00000000000E+00 -0.28265223933E+04  0.28265223933E+04  0.25500000920E-02 0. -1.
    10030    2    1    2    0    0  0.00000000000E+00  0.00000000000E+00 -0.21230945354E+04  0.35299502513E+04  0.28201096380E+04 0.  0.
        2    1    3    3  502    0 -0.57304047955E+03  0.42569214960E+03 -0.25836275033E+04  0.26804328518E+04  0.25500000920E-02 0. -1.
       -2    1    3    3    0  502  0.57304047955E+03 -0.42569214960E+03  0.46053296790E+03  0.84951739945E+03  0.25500000920E-02 0.  1.
</event>
<event>
 5   0  0.1543678E-06  0.2906616E+04  0.7818609E-02  0.8270912E-01
        1   -1    0    0  501    0  0.00000000000E+00  0.00000000000E+00  0.15041112841E+04  0.15041112841E+04  0.50400001928E-02 0.  1.
       -1   -1    0    0    0  501  0.00000000000E+00  0.00000000000E+00 -0.14042209047E+04  0.14042209048E+04  0.50400001928E-02 0. -1.
    10030    2    1    2    0    0  0.00000000000E+00  0.00000000000E+00  0.99890379337E+02  0.29083321889E+04  0.29066162514E+04 0.  0.
        3    1    3    3  502    0  0.10527248083E+04  0.31988999581E+03 -0.90011278001E+03  0.14215351414E+04  0.10100000352E+00 0. -1.
       -3    1    3    3    0  502 -0.10527248083E+04 -0.31988999581E+03  0.10000031594E+04  0.14867970474E+04  0.10100000352E+00 0.  1.
</event>
<event>
 5   0  0.4162450E-06  0.2907887E+04  0.7818609E-02  0.8270535E-01
        2   -1    0    0  501    0  0.00000000000E+00  0.00000000000E+00  0.12842573663E+04  0.12842573663E+04  0.25500000920E-02 0. -1.
       -2   -1    0    0    0  501  0.00000000000E+00  0.00000000000E+00 -0.16460496582E+04  0.16460496582E+04  0.25500000920E-02 0.  1.
    10030    2    1    2    0    0  0.00000000000E+00  0.00000000000E+00 -0.36179229196E+03  0.29303070245E+04  0.29078867921E+04 0.  0.
        2    1    3    3  502    0  0.60330187934E+03 -0.12781294055E+04 -0.52464713169E+03  0.15075949547E+04  0.25500000920E-02 0.  1.
       -2    1    3    3    0  502 -0.60330187934E+03  0.12781294055E+04  0.16285483973E+03  0.14227120698E+04  0.25500000920E-02 0. -1.
</event>
<event>
 5   0  0.1511126E-06  0.2902731E+04  0.7818609E-02  0.8272065E-01
       -1   -1    0    0    0  501  0.00000000000E+00  0.00000000000E+00  0.11693794342E+04  0.11693794342E+04  0.50400001928E-02 0. -1.
        1   -1    0    0  501    0  0.00000000000E+00  0.00000000000E+00 -0.18013507166E+04  0.18013507167E+04  0.50400001928E-02 0.  1.
    10030    2    1    2    0    0  0.00000000000E+00  0.00000000000E+00 -0.63197128249E+03  0.29707301508E+04  0.29027314597E+04 0.  0.
        5    1    3    3  502    0 -0.58559713913E+03 -0.31646149596E+03 -0.16359146726E+04  0.17661570694E+04  0.46999998093E+01 0.  1.
       -5    1    3    3    0  502  0.58559713913E+03  0.31646149596E+03  0.10039433901E+04  0.12045730814E+04  0.46999998093E+01 0. -1.
</event>
<event>
 5   0  0.1580212E-06  0.2890115E+04  0.7818609E-02  0.8275825E-01
        1   -1    0    0  501    0  0.00000000000E+00  0.00000000000E+00  0.11364386774E+04  0.11364386774E+04  0.50400001928E-02 0. -1.
       -1   -1    0    0    0  501  0.00000000000E+00  0.00000000000E+00 -0.18374862626E+04  0.18374862626E+04  0.50400001928E-02 0.  1.
    10030    2    1    2    0    0  0.00000000000E+00  0.00000000000E+00 -0.70104758517E+03  0.29739249401E+04  0.28901145016E+04 0.  0.
        4    1    3    3  502    0  0.11501605382E+02 -0.61250464888E+03 -0.16972529896E+04  0.18044288723E+04  0.12699999809E+01 0.  1.
       -4    1    3    3    0  502 -0.11501605382E+02  0.61250464888E+03  0.99620540439E+03  0.11694960677E+04  0.12699999809E+01 0. -1.
</event>
<event>
 5   0  0.4187518E-06  0.2885931E+04  0.7818609E-02  0.8277076E-01
        2   -1    0    0  501    0  0.00000000000E+00  0.00000000000E+00  0.20645093623E+04  0.20645093623E+04  0.25500000920E-02 0. -1.
       -2   -1    0    0    0  501  0.00000000000E+00  0.00000000000E+00 -0.10085443950E+04  0.10085443950E+04  0.25500000920E-02 0.  1.
    10030    2    1    2    0    0  0.00000000000E+00  0.00000000000E+00  0.10559649674E+04  0.30730537573E+04  0.28859309387E+04 0.  0.
        3    1    3    3  502    0 -0.57306081074E+02 -0.11567738266E+04  0.14444498880E+04  0.18514440748E+04  0.10100000352E+00 0. -1.
       -3    1    3    3    0  502  0.57306081074E+02  0.11567738266E+04 -0.38848492063E+03  0.12216096826E+04  0.10100000352E+00 0.  1.
</event>
<event>
 5   0  0.1543678E-06  0.2908592E+04  0.7818609E-02  0.8270326E-01
       -1   -1    0    0    0  501  0.00000000000E+00  0.00000000000E+00  0.12585137171E+04  0.12585137171E+04  0.50400001928E-02 0. -1.
        1   -1    0    0  501    0  0.00000000000E+00  0.00000000000E+00 -0.16805356987E+04  0.16805356987E+04  0.50400001928E-02 0.  1.
    10030    2    1    2    0    0  0.00000000000E+00  0.00000000000E+00 -0.42202198167E+03  0.29390494158E+04  0.29085922567E+04 0.  0.
        3    1    3    3  502    0  0.10193801460E+04  0.24832914468E+03  0.80659645239E+03  0.13234051131E+04  0.10100000352E+00 0. -1.
       -3    1    3    3    0  502 -0.10193801460E+04 -0.24832914468E+03 -0.12286184341E+04  0.16156443027E+04  0.10100000352E+00 0.  1.
</event>
<event>
 5   0  0.1550278E-06  0.2863569E+04  0.7818609E-02  0.8283800E-01
       -1   -1    0    0    0  501  0.00000000000E+00  0.00000000000E+00  0.12613923229E+04  0.12613923230E+04  0.50400001928E-02 0.  1.
        1   -1    0    0  501    0  0.00000000000E+00  0.00000000000E+00 -0.16251932018E+04  0.16251932018E+04  0.50400001928E-02 0. -1.
    10030    2    1    2    0    0  0.00000000000E+00  0.00000000000E+00 -0.36380087889E+03  0.28865855248E+04  0.28635685626E+04 0.  0.
        2    1    3    3  502    0 -0.43373866316E+03 -0.99372400013E+03 -0.11245045693E+04  0.15620906320E+04  0.25500000920E-02 0. -1.
       -2    1    3    3    0  502  0.43373866316E+03  0.99372400013E+03  0.76070369040E+03  0.13244948928E+04  0.25500000920E-02 0.  1.
</event>
<event>
 5   0  0.1550278E-06  0.2728353E+04  0.7818609E-02  0.8325864E-01
        1   -1    0    0  501    0  0.00000000000E+00  0.00000000000E+00  0.11849421505E+04  0.11849421506E+04  0.50400001928E-02 0. -1.
       -1   -1    0    0    0  501  0.00000000000E+00  0.00000000000E+00 -0.15705215204E+04  0.15705215205E+04  0.50400001928E-02 0.  1.
    10030    2    1    2    0    0  0.00000000000E+00  0.00000000000E+00 -0.38557936990E+03  0.27554636710E+04  0.27283527249E+04 0.  0.
        2    1    3    3  502    0  0.68546564487E+03  0.70404121336E+03 -0.11484694954E+04  0.15114626566E+04  0.25500000920E-02 0.  1.
       -2    1    3    3    0  502 -0.68546564487E+03 -0.70404121336E+03  0.76289012545E+03  0.12440010144E+04  0.25500000920E-02 0. -1.
</event>
<event>
 5   0  0.4224163E-06  0.2908471E+04  0.7818609E-02  0.8270362E-01
       -2   -1    0    0    0  501  0.00000000000E+00  0.00000000000E+00  0.79016595901E+03  0.79016595901E+03  0.25500000920E-02 0. -1.
        2   -1    0    0  501    0  0.00000000000E+00  0.00000000000E+00 -0.26764004027E+04  0.26764004027E+04  0.25500000920E-02 0.  1.
    10030    2    1    2    0    0  0.00000000000E+00  0.00000000000E+00 -0.18862344437E+04  0.34665663617E+04  0.29084707259E+04 0.  0.
        4    1    3    3  502    0  0.30453207712E+03  0.26693892655E+02 -0.26376704219E+04  0.26553265746E+04  0.12699999809E+01 0.  1.
       -4    1    3    3    0  502 -0.30453207712E+03 -0.26693892655E+02  0.75143597827E+03  0.81123978714E+03  0.12699999809E+01 0. -1.
</event>
<event>
 5   0  0.1602873E-06  0.2919558E+04  0.7818609E-02  0.8267082E-01
        1   -1    0    0  501    0  0.00000000000E+00  0.00000000000E+00  0.71317345774E+03  0.71317345776E+03  0.50400001928E-02 0.  1.
       -1   -1    0    0    0  501  0.00000000000E+00  0.00000000000E+00 -0.29879894399E+04  0.29879894399E+04  0.50400001928E-02 0. -1.
    10030    2    1    2    0    0  0.00000000000E+00  0.00000000000E+00 -0.22748159821E+04  0.37011628976E+04  0.29195580217E+04 0.  0.
        1    1    3    3  502    0  0.12412438265E+04  0.71280576224E+03 -0.15008162788E+04  0.20739401617E+04  0.50400001928E-02 0. -1.
       -1    1    3    3    0  502 -0.12412438265E+04 -0.71280576224E+03 -0.77399970337E+03  0.16272227360E+04  0.50400001928E-02 0.  1.
</event>
<event>
 5   0  0.1602873E-06  0.2910413E+04  0.7818609E-02  0.8269786E-01
       -1   -1    0    0    0  501  0.00000000000E+00  0.00000000000E+00  0.12025735769E+04  0.12025735769E+04  0.50400001928E-02 0. -1.
        1   -1    0    0  501    0  0.00000000000E+00  0.00000000000E+00 -0.17609116003E+04  0.17609116003E+04  0.50400001928E-02 0.  1.
    10030    2    1    2    0    0  0.00000000000E+00  0.00000000000E+00 -0.55833802341E+03  0.29634851772E+04  0.29104128654E+04 0.  0.
        1    1    3    3  502    0 -0.11972326547E+04  0.34727505672E+03  0.48529435071E+03  0.13377131985E+04  0.50400001928E-02 0. -1.
       -1    1    3    3    0  502  0.11972326547E+04 -0.34727505672E+03 -0.10436323741E+04  0.16257719787E+04  0.50400001928E-02 0.  1.
</event>
<event>
 5   0  0.4148677E-06  0.2877176E+04  0.7818609E-02  0.8279701E-01
       -2   -1    0    0    0  501  0.00000000000E+00  0.00000000000E+00  0.13569781482E+04  0.13569781482E+04  0.25500000920E-02 0.  1.
        2   -1    0    0  501    0  0.00000000000E+00  0.00000000000E+00 -0.15251063281E+04  0.15251063281E+04  0.25500000920E-02 0. -1.
    10030    2    1    2    0    0  0.00000000000E+00  0.00000000000E+00 -0.16812817991E+03  0.28820844763E+04  0.28771763665E+04 0.  0.
        5    1    3    3  502    0  0.10556894854E+04  0.96633404584E+03 -0.23002502196E+03  0.14495569594E+04  0.46999998093E+01 0. -1.
       -5    1    3    3    0  502 -0.10556894854E+04 -0.96633404584E+03  0.61896842055E+02  0.14325275170E+04  0.46999998093E+01 0.  1.
</event>
<event>
 5   0  0.4115143E-06  0.2879907E+04  0.7818609E-02  0.8278881E-01
        2   -1    0    0  501    0  0.00000000000E+00  0.00000000000E+00  0.21436989710E+04  0.21436989710E+04  0.25500000920E-02 0.  1.
       -2   -1    0    0    0  501  0.00000000000E+00  0.00000000000E+00 -0.96723760517E+03  0.96723760517E+03  0.25500000920E-02 0. -1.
    10030    2    1    2    0    0  0.00000000000E+00  0.00000000000E+00  0.11764613658E+04  0.31109365762E+04  0.28799071227E+04 0.  0.
        1    1    3    3  502    0 -0.62635162000E+03  0.10047888585E+04 -0.29699012026E+03  0.12207047692E+04  0.50400001928E-02 0. -1.
       -1    1    3    3    0  502  0.62635162000E+03 -0.10047888585E+04  0.14734514861E+04  0.18902318069E+04  0.50400001928E-02 0.  1.
</event>
<event>
 5   0  0.4115143E-06  0.2888883E+04  0.7818609E-02  0.8276193E-01
        2   -1    0    0  501    0  0.00000000000E+00  0.00000000000E+00  0.23169419849E+04  0.23169419849E+04  0.25500000920E-02 0. -1.
       -2   -1    0    0    0  501  0.00000000000E+00  0.00000000000E+00 -0.90050211158E+03  0.90050211158E+03  0.25500000920E-02 0.  1.
    10030    2    1    2    0    0  0.00000000000E+00  0.00000000000E+00  0.14164398734E+04  0.32174440965E+04  0.28888829328E+04 0.  0.
        1    1    3    3  502    0 -0.39992628734E+03  0.92016306358E+03 -0.44908206779E+03  0.10992341891E+04  0.50400001928E-02 0.  1.
       -1    1    3    3    0  502  0.39992628734E+03 -0.92016306358E+03  0.18655219411E+04  0.21182099074E+04  0.50400001928E-02 0. -1.
</event>
<event>
 5   0  0.1543678E-06  0.2900374E+04  0.7818609E-02  0.8272766E-01
       -1   -1    0    0    0  501  0.00000000000E+00  0.00000000000E+00  0.21319729528E+04  0.21319729528E+04  0.50400001928E-02 0. -1.
        1   -1    0    0  501    0  0.00000000000E+00  0.00000000000E+00 -0.98643026110E+03  0.98643026112E+03  0.50400001928E-02 0.  1.
    10030    2    1    2    0    0  0.00000000000E+00  0.00000000000E+00  0.11455426917E+04  0.31184032140E+04  0.29003742080E+04 0.  0.
        3    1    3    3  502    0 -0.15352839254E+03  0.14032113004E+04  0.93012632103E+03  0.16904756444E+04  0.10100000352E+00 0.  1.
       -3    1    3    3    0  502  0.15352839254E+03 -0.14032113004E+04  0.21541637070E+03  0.14279275696E+04  0.10100000352E+00 0. -1.
</event>
<event>
 5   0  0.4148677E-06  0.2882073E+04  0.7818609E-02  0.8278231E-01
       -2   -1    0    0    0  501  0.00000000000E+00  0.00000000000E+00  0.94522997135E+03  0.94522997135E+03  0.25500000920E-02 0. -1.
        2   -1    0    0  501    0  0.00000000000E+00  0.00000000000E+00 -0.21969109899E+04  0.21969109899E+04  0.25500000920E-02 0.  1.
    10030    2    1    2    0    0  0.00000000000E+00  0.00000000000E+00 -0.12516810186E+04  0.31421409613E+04  0.28820729429E+04 0.  0.
        5    1    3    3  502    0 -0.65402999106E+03 -0.19198508068E+03 -0.20100331935E+04  0.21224676746E+04  0.46999998093E+01 0.  1.
       -5    1    3    3    0  502  0.65402999106E+03  0.19198508068E+03  0.75835217495E+03  0.10196732867E+04  0.46999998093E+01 0. -1.
</event>
<event>
 5   0  0.4162450E-06  0.2859788E+04  0.7818609E-02  0.8284943E-01
        2   -1    0    0  501    0  0.00000000000E+00  0.00000000000E+00  0.18313826318E+04  0.18313826318E+04  0.25500000920E-02 0. -1.
       -2   -1    0    0    0  501  0.00000000000E+00  0.00000000000E+00 -0.11164228293E+04  0.11164228293E+04  0.25500000920E-02 0.  1.
    10030    2    1    2    0    0  0.00000000000E+00  0.00000000000E+00  0.71495980249E+03  0.29478054611E+04  0.28597883694E+04 0.  0.
        2    1    3    3  502    0  0.83513949745E+02  0.22479693989E+03 -0.10955468095E+04  0.11214860926E+04  0.25500000920E-02 0.  1.
       -2    1    3    3    0  502 -0.83513949745E+02 -0.22479693989E+03  0.18105066120E+04  0.18263193686E+04  0.25500000920E-02 0. -1.
</event>
<event>
 5   0  0.1511126E-06  0.2909335E+04  0.7818609E-02  0.8270106E-01
        1   -1    0    0  501    0  0.00000000000E+00  0.00000000000E+00  0.17286783529E+04  0.17286783529E+04  0.50400001928E-02 0. -1.
       -1   -1    0    0    0  501  0.00000000000E+00  0.00000000000E+00 -0.12240894569E+04  0.12240894569E+04  0.50400001928E-02 0.  1.
    10030    2    1    2    0    0  0.00000000000E+00  0.00000000000E+00  0.50458889600E+03  0.29527678098E+04  0.29093345948E+04 0.  0.
        5    1    3    3  502    0 -0.99619391526E+02  0.12602099696E+04  0.98274836179E+03  0.16012088006E+04  0.46999998093E+01 0. -1.
       -5    1    3    3    0  502  0.99619391526E+02 -0.12602099696E+04 -0.47815946579E+03  0.13515590092E+04  0.46999998093E+01 0.  1.
</event>
<event>
 5   0  0.4115143E-06  0.2939925E+04  0.7818609E-02  0.8261097E-01
        2   -1    0    0  501    0  0.00000000000E+00  0.00000000000E+00  0.22966698914E+04  0.22966698914E+04  0.25500000920E-02 0.  1.
       -2   -1    0    0    0  501  0.00000000000E+00  0.00000000000E+00 -0.94083594214E+03  0.94083594214E+03  0.25500000920E-02 0. -1.
    10030    2    1    2    0    0  0.00000000000E+00  0.00000000000E+00  0.13558339492E+04  0.32375058335E+04  0.29399248841E+04 0.  0.
        1    1    3    3  502    0 -0.37875466961E+03  0.19389687950E+03 -0.87153542110E+03  0.96985828340E+03  0.50400001928E-02 0. -1.
       -1    1    3    3    0  502  0.37875466961E+03 -0.19389687950E+03  0.22273693703E+04  0.22676475501E+04  0.50400001928E-02 0.  1.
</event>
<event>
 5   0  0.4224163E-06  0.2886420E+04  0.7818609E-02  0.8276929E-01
       -2   -1    0    0    0  501  0.00000000000E+00  0.00000000000E+00  0.16622157441E+04  0.16622157441E+04  0.25500000920E-02 0. -1.
        2   -1    0    0  501    0  0.00000000000E+00  0.00000000000E+00 -0.12530594400E+04  0.12530594400E+04  0.25500000920E-02 0.  1.
    10030    2    1    2    0    0  0.00000000000E+00  0.00000000000E+00  0.40915630402E+03  0.29152751841E+04  0.28864200176E+04 0.  0.
        4    1    3    3  502    0 -0.17083336776E+03  0.47183615190E+03  0.15712648218E+04  0.16494508622E+04  0.12699999809E+01 0. -1.
       -4    1    3    3    0  502  0.17083336776E+03 -0.47183615190E+03 -0.11621085178E+04  0.12658243219E+04  0.12699999809E+01 0.  1.
</event>
<event>
 5   0  0.4115143E-06  0.2881544E+04  0.7818609E-02  0.8278390E-01
        2   -1    0    0  501    0  0.00000000000E+00  0.00000000000E+00  0.23054802138E+04  0.23054802138E+04  0.25500000920E-02 0. -1.
       -2   -1    0    0    0  501  0.00000000000E+00  0.00000000000E+00 -0.90038652003E+03  0.90038652004E+03  0.25500000920E-02 0.  1.
    10030    2    1    2    0    0  0.00000000000E+00  0.00000000000E+00  0.14050936938E+04  0.32058667338E+04  0.28815435494E+04 0.  0.
        1    1    3    3  502    0 -0.55025912761E+03  0.12612518015E+03  0.21773100845E+04  0.22493047532E+04  0.50400001928E-02 0. -1.
       -1    1    3    3    0  502  0.55025912761E+03 -0.12612518015E+03 -0.77221639077E+03  0.95656198063E+03  0.50400001928E-02 0.  1.
</event>
<event>
 5   0  0.4162450E-06  0.2919744E+04  0.7818609E-02  0.8267027E-01
       -2   -1    0    0    0  501  0.00000000000E+00  0.00000000000E+00  0.82805860863E+03  0.82805860863E+03  0.25500000920E-02 0.  1.
        2   -1    0    0  501    0  0.00000000000E+00  0.00000000000E+00 -0.25737622392E+04  0.25737622392E+04  0.25500000920E-02 0. -1.
    10030    2    1    2    0    0  0.00000000000E+00  0.00000000000E+00 -0.17457036305E+04  0.34018208478E+04  0.29197438098E+04 0.  0.
        2    1    3    3  502    0  0.99402093446E+03 -0.10690256696E+04 -0.85160722428E+03  0.16900083919E+04  0.25500000920E-02 0.  1.
       -2    1    3    3    0  502 -0.99402093446E+03  0.10690256696E+04 -0.89409640624E+03  0.17118124559E+04  0.25500000920E-02 0. -1.
</event>
<event>
 5   0  0.1550278E-06  0.2894591E+04  0.7818609E-02  0.8274489E-01
        1   -1    0    0  501    0  0.00000000000E+00  0.00000000000E+00  0.23160003805E+04  0.23160003805E+04  0.50400001928E-02 0.  1.
       -1   -1    0    0    0  501  0.00000000000E+00  0.00000000000E+00 -0.90443145093E+03  0.90443145095E+03  0.50400001928E-02 0. -1.
    10030    2    1    2    0    0  0.00000000000E+00  0.00000000000E+00  0.14115689295E+04  0.32204318314E+04  0.28945905303E+04 0.  0.
        2    1    3    3  502    0 -0.21916858194E+03 -0.12220295693E+04  0.15333387576E+04  0.19729467507E+04  0.25500000920E-02 0.  1.
       -2    1    3    3    0  502  0.21916858194E+03  0.12220295693E+04 -0.12176982804E+03  0.12474850807E+04  0.25500000920E-02 0. -1.
</event>
<event>
 5   0  0.1550278E-06  0.2880255E+04  0.7818609E-02  0.8278776E-01
        1   -1    0    0  501    0  0.00000000000E+00  0.00000000000E+00  0.14780734569E+04  0.14780734569E+04  0.50400001928E-02 0.  1.
       -1   -1    0    0    0  501  0.00000000000E+00  0.00000000000E+00 -0.14031559823E+04  0.14031559823E+04  0.50400001928E-02 0. -1.
    10030    2    1    2    0    0  0.00000000000E+00  0.00000000000E+00  0.74917474680E+02  0.28812294392E+04  0.28802552757E+04 0.  0.
        2    1    3    3  502    0  0.10392518248E+04  0.16899514571E+03 -0.94540291229E+03  0.14150584374E+04  0.25500000920E-02 0. -1.
       -2    1    3    3    0  502 -0.10392518248E+04 -0.16899514571E+03  0.10203203870E+04  0.14661710019E+04  0.25500000920E-02 0.  1.
</event>
<event>
 5   0  0.4115143E-06  0.2909667E+04  0.7818609E-02  0.8270007E-01
        2   -1    0    0  501    0  0.00000000000E+00  0.00000000000E+00  0.18795357660E+04  0.18795357660E+04  0.25500000920E-02 0.  1.
       -2   -1    0    0    0  501  0.00000000000E+00  0.00000000000E+00 -0.11260975778E+04  0.11260975778E+04  0.25500000920E-02 0. -1.
    10030    2    1    2    0    0  0.00000000000E+00  0.00000000000E+00  0.75343818813E+03  0.30056333438E+04  0.29096671105E+04 0.  0.
        1    1    3    3  502    0 -0.87692872681E+03 -0.28366205978E+03  0.15394880563E+04  0.17942941876E+04  0.50400001928E-02 0.  1.
       -1    1    3    3    0  502  0.87692872681E+03  0.28366205978E+03 -0.78604986818E+03  0.12113391562E+04  0.50400001928E-02 0. -1.
</event>
<event>
 5   0  0.1543678E-06  0.2734170E+04  0.7818609E-02  0.8324002E-01
       -1   -1    0    0    0  501  0.00000000000E+00  0.00000000000E+00  0.11572667614E+04  0.11572667614E+04  0.50400001928E-02 0.  1.
        1   -1    0    0  501    0  0.00000000000E+00  0.00000000000E+00 -0.16149440173E+04  0.16149440173E+04  0.50400001928E-02 0. -1.
    10030    2    1    2    0    0  0.00000000000E+00  0.00000000000E+00 -0.45767725589E+03  0.27722107787E+04  0.27341697334E+04 0.  0.
        3    1    3    3  502    0 -0.10841953065E+04  0.54281794009E+03 -0.86912320211E+03  0.14918129673E+04  0.10100000352E+00 0. -1.
       -3    1    3    3    0  502  0.10841953065E+04 -0.54281794009E+03  0.41144594622E+03  0.12803978114E+04  0.10100000352E+00 0.  1.
</event>
<event>
 5   0  0.1511126E-06  0.2912246E+04  0.7818609E-02  0.8269243E-01
        1   -1    0    0  501    0  0.00000000000E+00  0.00000000000E+00  0.17419884331E+04  0.17419884332E+04  0.50400001928E-02 0.  1.
       -1   -1    0    0    0  501  0.00000000000E+00  0.00000000000E+00 -0.12171686864E+04  0.12171686864E+04  0.50400001928E-02 0. -1.
    10030    2    1    2    0    0  0.00000000000E+00  0.00000000000E+00  0.52481974671E+03  0.29591571196E+04  0.29122457128E+04 0.  0.
        5    1    3    3  502    0 -0.13732721768E+04  0.41155348355E+03  0.52150542584E+03  0.15255303146E+04  0.46999998093E+01 0.  1.
       -5    1    3    3    0  502  0.13732721768E+04 -0.41155348355E+03  0.33143208685E+01  0.14336268050E+04  0.46999998093E+01 0. -1.
</event>
<event>
 5   0  0.4187518E-06  0.2898910E+04  0.7818609E-02  0.8273202E-01
        2   -1    0    0  501    0  0.00000000000E+00  0.00000000000E+00  0.19378454972E+04  0.19378454972E+04  0.25500000920E-02 0. -1.
       -2   -1    0    0    0  501  0.00000000000E+00  0.00000000000E+00 -0.10841527040E+04  0.10841527040E+04  0.25500000920E-02 0.  1.
    10030    2    1    2    0    0  0.00000000000E+00  0.00000000000E+00  0.85369279325E+03  0.30219982012E+04  0.28989104406E+04 0.  0.
        3    1    3    3  502    0  0.32107873848E+02 -0.11967377188E+04  0.12786761477E+04  0.17516348890E+04  0.10100000352E+00 0. -1.
       -3    1    3    3    0  502 -0.32107873848E+02  0.11967377188E+04 -0.42498335446E+03  0.12703633122E+04  0.10100000352E+00 0.  1.
</event>
<event>
 5   0  0.1580212E-06  0.2922726E+04  0.7818609E-02  0.8266148E-01
        1   -1    0    0  501    0  0.00000000000E+00  0.00000000000E+00  0.12185893857E+04  0.12185893858E+04  0.50400001928E-02 0.  1.
       -1   -1    0    0    0  501  0.00000000000E+00  0.00000000000E+00 -0.17525034492E+04  0.17525034492E+04  0.50400001928E-02 0. -1.
    10030    2    1    2    0    0  0.00000000000E+00  0.00000000000E+00 -0.53391406348E+03  0.29710928350E+04  0.29227261943E+04 0.  0.
        4    1    3    3  502    0  0.40876158655E+02 -0.68115362076E+03  0.10466892546E+04  0.12494803416E+04  0.12699999809E+01 0.  1.
       -4    1    3    3    0  502 -0.40876158655E+02  0.68115362076E+03 -0.15806033181E+04  0.17216124934E+04  0.12699999809E+01 0. -1.
</event>
<event>
 5   0  0.4162450E-06  0.2903913E+04  0.7818609E-02  0.8271714E-01
        2   -1    0    0  501    0  0.00000000000E+00  0.00000000000E+00  0.15645434021E+04  0.15645434021E+04  0.25500000920E-02 0. -1.
       -2   -1    0    0    0  501  0.00000000000E+00  0.00000000000E+00 -0.13474711510E+04  0.13474711510E+04  0.25500000920E-02 0.  1.
    10030    2    1    2    0    0  0.00000000000E+00  0.00000000000E+00  0.21707225113E+03  0.29120145531E+04  0.29039126012E+04 0.  0.
        2    1    3    3  502    0 -0.13702006000E+04  0.45172963482E+03  0.27229437984E+03  0.14682144178E+04  0.25500000920E-02 0. -1.
       -2    1    3    3    0  502  0.13702006000E+04 -0.45172963482E+03 -0.55222128706E+02  0.14438001353E+04  0.25500000920E-02 0.  1.
</event>
<event>
 5   0  0.1602873E-06  0.2904363E+04  0.7818609E-02  0.8271581E-01
        1   -1    0    0  501    0  0.00000000000E+00  0.00000000000E+00  0.16279697307E+04  0.16279697307E+04  0.50400001928E-02 0.  1.
       -1   -1    0    0    0  501  0.00000000000E+00  0.00000000000E+00 -0.12953747724E+04  0.12953747724E+04  0.50400001928E-02 0. -1.
    10030    2    1    2    0    0  0.00000000000E+00  0.00000000000E+00  0.33259495835E+03  0.29233445031E+04  0.29043628695E+04 0.  0.
        1    1    3    3  502    0  0.50285047406E+03 -0.87720761102E+03  0.12154528683E+04  0.15810368330E+04  0.50400001928E-02 0.  1.
       -1    1    3    3    0  502 -0.50285047406E+03  0.87720761102E+03 -0.88285790997E+03  0.13423076701E+04  0.50400001928E-02 0. -1.
</event>
<event>
 5   0  0.1602873E-06  0.2890882E+04  0.7818609E-02  0.8275595E-01
        1   -1    0    0  501    0  0.00000000000E+00  0.00000000000E+00  0.12814463500E+04  0.12814463500E+04  0.50400001928E-02 0.  1.
       -1   -1    0    0    0  501  0.00000000000E+00  0.00000000000E+00 -0.16304231708E+04  0.16304231708E+04  0.50400001928E-02 0. -1.
    10030    2    1    2    0    0  0.00000000000E+00  0.00000000000E+00 -0.34897682078E+03  0.29118695208E+04  0.28908820946E+04 0.  0.
        1    1    3    3  502    0  0.41531644120E+03 -0.56498959159E+03  0.10986493498E+04  0.13033538962E+04  0.50400001928E-02 0.  1.
       -1    1    3    3    0  502 -0.41531644120E+03  0.56498959159E+03 -0.14476261705E+04  0.16085156246E+04  0.50400001928E-02 0. -1.
</event>
<event>
 5   0  0.4148677E-06  0.2819433E+04  0.7818609E-02  0.8297261E-01
        2   -1    0    0  501    0  0.00000000000E+00  0.00000000000E+00  0.11246487364E+04  0.11246487364E+04  0.25500000920E-02 0.  1.
       -2   -1    0    0    0  501  0.00000000000E+00  0.00000000000E+00 -0.17670408518E+04  0.17670408518E+04  0.25500000920E-02 0. -1.
    10030    2    1    2    0    0  0.00000000000E+00  0.00000000000E+00 -0.64239211539E+03  0.28916895882E+04  0.28194327522E+04 0.  0.
        5    1    3    3  502    0  0.72620079663E+03  0.99178288187E+02  0.91385539194E+03  0.11714767165E+04  0.46999998093E+01 0.  1.
       -5    1    3    3    0  502 -0.72620079663E+03 -0.99178288187E+02 -0.15562475073E+04  0.17202128717E+04  0.46999998093E+01 0. -1.
</event>
<event>
 5   0  0.1543678E-06  0.2839874E+04  0.7818609E-02  0.8290995E-01
       -1   -1    0    0    0  501  0.00000000000E+00  0.00000000000E+00  0.13843858020E+04  0.13843858020E+04  0.50400001928E-02 0. -1.
        1   -1    0    0  501    0  0.00000000000E+00  0.00000000000E+00 -0.14564011583E+04  0.14564011584E+04  0.50400001928E-02 0.  1.
    10030    2    1    2    0    0  0.00000000000E+00  0.00000000000E+00 -0.72015356333E+02  0.28407869604E+04  0.28398740012E+04 0.  0.
        3    1    3    3  502    0  0.12658257455E+03  0.97246372866E+03 -0.10632322589E+04  0.14464341320E+04  0.10100000352E+00 0.  1.
       -3    1    3    3    0  502 -0.12658257455E+03 -0.97246372866E+03  0.99121690258E+03  0.13943528283E+04  0.10100000352E+00 0. -1.
</event>
<event>
 5   0  0.1511126E-06  0.2921657E+04  0.7818609E-02  0.8266463E-01
        1   -1    0    0  501    0  0.00000000000E+00  0.00000000000E+00  0.11089838814E+04  0.11089838814E+04  0.50400001928E-02 0.  1.
       -1   -1    0    0    0  501  0.00000000000E+00  0.00000000000E+00 -0.19243016872E+04  0.19243016872E+04  0.50400001928E-02 0. -1.
    10030    2    1    2    0    0  0.00000000000E+00  0.00000000000E+00 -0.81531780587E+03  0.30332855686E+04  0.29216567588E+04 0.  0.
        5    1    3    3  502    0  0.36365896378E+03 -0.10594185256E+03 -0.18724241500E+04  0.19103575073E+04  0.46999998093E+01 0. -1.
       -5    1    3    3    0  502 -0.36365896378E+03  0.10594185256E+03  0.10571063442E+04  0.11229280613E+04  0.46999998093E+01 0.  1.
</event>
<event>
 5   0  0.4162450E-06  0.2906928E+04  0.7818609E-02  0.8270819E-01
       -2   -1    0    0    0  501  0.00000000000E+00  0.00000000000E+00  0.23059621737E+04  0.23059621737E+04  0.25500000920E-02 0.  1.
        2   -1    0    0  501    0  0.00000000000E+00  0.00000000000E+00 -0.91612862299E+03  0.91612862300E+03  0.25500000920E-02 0. -1.
    10030    2    1    2    0    0  0.00000000000E+00  0.00000000000E+00  0.13898335507E+04  0.32220907967E+04  0.29069282419E+04 0.  0.
        2    1    3    3  502    0  0.12806038691E+04 -0.25156261986E+03  0.14040684823E+04  0.19169346166E+04  0.25500000920E-02 0.  1.
       -2    1    3    3    0  502 -0.12806038691E+04  0.25156261986E+03 -0.14234931557E+02  0.13051561801E+04  0.25500000920E-02 0. -1.
</event>
<event>
 5   0  0.4224163E-06  0.2901909E+04  0.7818609E-02  0.8272310E-01
       -2   -1    0    0    0  501  0.00000000000E+00  0.00000000000E+00  0.21625037139E+04  0.21625037139E+04  0.25500000920E-02 0.  1.
        2   -1    0    0  501    0  0.00000000000E+00  0.00000000000E+00 -0.97353338761E+03  0.97353338761E+03  0.25500000920E-02 0. -1.
    10030    2    1    2    0    0  0.00000000000E+00  0.00000000000E+00  0.11889703263E+04  0.31360371015E+04  0.29019094171E+04 0.  0.
        4    1    3    3  502    0 -0.88535247905E+03 -0.10841699604E+04  0.10074047610E+04  0.17245693609E+04  0.12699999809E+01 0.  1.
       -4    1    3    3    0  502  0.88535247905E+03  0.10841699604E+04  0.18156556529E+03  0.14114677406E+04  0.12699999809E+01 0. -1.
</event>
<event>
 5   0  0.1543678E-06  0.2895110E+04  0.7818609E-02  0.8274334E-01
        1   -1    0    0  501    0  0.00000000000E+00  0.00000000000E+00  0.74164427919E+03  0.74164427921E+03  0.50400001928E-02 0. -1.
       -1   -1    0    0    0  501  0.00000000000E+00  0.00000000000E+00 -0.28253646632E+04  0.28253646632E+04  0.50400001928E-02 0.  1.
    10030    2    1    2    0    0  0.00000000000E+00  0.00000000000E+00 -0.20837203840E+04  0.35670089424E+04  0.28951100422E+04 0.  0.
        3    1    3    3  502    0  0.88818984855E+03 -0.59456323264E+03 -0.22446566874E+04  0.24861356156E+04  0.10100000352E+00 0.  1.
       -3    1    3    3    0  502 -0.88818984855E+03  0.59456323264E+03  0.16093630338E+03  0.10808733268E+04  0.10100000352E+00 0. -1.
</event>
<event>
 5   0  0.4162450E-06  0.2897760E+04  0.7818609E-02  0.8273544E-01
        2   -1    0    0  501    0  0.00000000000E+00  0.00000000000E+00  0.19286748668E+04  0.19286748668E+04  0.25500000920E-02 0.  1.
       -2   -1    0    0    0  501  0.00000000000E+00  0.00000000000E+00 -0.10884435505E+04  0.10884435505E+04  0.25500000920E-02 0. -1.
    10030    2    1    2    0    0  0.00000000000E+00  0.00000000000E+00  0.84023131621E+03  0.30171184173E+04  0.28977603212E+04 0.  0.
        2    1    3    3  502    0  0.10228544696E+04 -0.60253661507E+03  0.12849753438E+04  0.17494122650E+04  0.25500000920E-02 0.  1.
       -2    1    3    3    0  502 -0.10228544696E+04  0.60253661507E+03 -0.44474402763E+03  0.12677061523E+04  0.25500000920E-02 0. -1.
</event>
<event>
 5   0  0.4224163E-06  0.2880124E+04  0.7818609E-02  0.8278816E-01
        2   -1    0    0  501    0  0.00000000000E+00  0.00000000000E+00  0.25521426158E+04  0.25521426158E+04  0.25500000920E-02 0. -1.
       -2   -1    0    0    0  501  0.00000000000E+00  0.00000000000E+00 -0.81256353453E+03  0.81256353453E+03  0.25500000920E-02 0.  1.
    10030    2    1    2    0    0  0.00000000000E+00  0.00000000000E+00  0.17395790812E+04  0.33647061503E+04  0.28801236255E+04 0.  0.
        4    1    3    3  502    0  0.61772805703E+03  0.11921110065E+04  0.14780205739E+04  0.19968132196E+04  0.12699999809E+01 0. -1.
       -4    1    3    3    0  502 -0.61772805703E+03 -0.11921110065E+04  0.26155850731E+03  0.13678929307E+04  0.12699999809E+01 0.  1.
</event>
<event>
 5   0  0.4187518E-06  0.2883298E+04  0.7818609E-02  0.8277864E-01
        2   -1    0    0  501    0  0.00000000000E+00  0.00000000000E+00  0.16876250847E+04  0.16876250847E+04  0.25500000920E-02 0.  1.
       -2   -1    0    0    0  501  0.00000000000E+00  0.00000000000E+00 -0.12315247387E+04  0.12315247387E+04  0.25500000920E-02 0. -1.
    10030    2    1    2    0    0  0.00000000000E+00  0.00000000000E+00  0.45610034607E+03  0.29191498234E+04  0.28832981403E+04 0.  0.
        3    1    3    3  502    0 -0.15694046468E+03  0.21573155470E+03  0.16624167902E+04  0.16836864339E+04  0.10100000352E+00 0.  1.
       -3    1    3    3    0  502  0.15694046468E+03 -0.21573155470E+03 -0.12063164442E+04  0.12354633895E+04  0.10100000352E+00 0. -1.
</event>
<event>
 5   0  0.1511126E-06  0.2901736E+04  0.7818609E-02  0.8272361E-01
       -1   -1    0    0    0  501  0.00000000000E+00  0.00000000000E+00  0.13208861451E+04  0.13208861451E+04  0.50400001928E-02 0.  1.
        1   -1    0    0  501    0  0.00000000000E+00  0.00000000000E+00 -0.15936402518E+04  0.15936402518E+04  0.50400001928E-02 0. -1.
    10030    2    1    2    0    0  0.00000000000E+00  0.00000000000E+00 -0.27275410669E+03  0.29145263969E+04  0.29017355695E+04 0.  0.
        5    1    3    3  502    0  0.39659020333E+03 -0.13955943447E+04 -0.14167995804E+03  0.14577594674E+04  0.46999998093E+01 0.  1.
       -5    1    3    3    0  502 -0.39659020333E+03  0.13955943447E+04 -0.13107414865E+03  0.14567669295E+04  0.46999998093E+01 0. -1.
</event>
<event>
 5   0  0.4162450E-06  0.2883948E+04  0.7818609E-02  0.8277670E-01
        2   -1    0    0  501    0  0.00000000000E+00  0.00000000000E+00  0.19904963701E+04  0.19904963701E+04  0.25500000920E-02 0.  1.
       -2   -1    0    0    0  501  0.00000000000E+00  0.00000000000E+00 -0.10446082148E+04  0.10446082148E+04  0.25500000920E-02 0. -1.
    10030    2    1    2    0    0  0.00000000000E+00  0.00000000000E+00  0.94588815525E+03  0.30351045849E+04  0.28839478912E+04 0.  0.
        2    1    3    3  502    0  0.14823478899E+03 -0.13448468758E+04  0.99778302342E+03  0.16811179714E+04  0.25500000920E-02 0.  1.
       -2    1    3    3    0  502 -0.14823478899E+03  0.13448468758E+04 -0.51894868162E+02  0.13539866134E+04  0.25500000920E-02 0. -1.
</event>
<event>
 5   0  0.1580212E-06  0.2900675E+04  0.7818609E-02  0.8272677E-01
        1   -1    0    0  501    0  0.00000000000E+00  0.00000000000E+00  0.26787669908E+04  0.26787669909E+04  0.50400001928E-02 0.  1.
       -1   -1    0    0    0  501  0.00000000000E+00  0.00000000000E+00 -0.78524171095E+03  0.78524171097E+03  0.50400001928E-02 0. -1.
    10030    2    1    2    0    0  0.00000000000E+00  0.00000000000E+00  0.18935252799E+04  0.34640087018E+04  0.29006754904E+04 0.  0.
        4    1    3    3  502    0  0.89847417257E+03 -0.74018189977E+03  0.19798404799E+04  0.22967139618E+04  0.12699999809E+01 0.  1.
       -4    1    3    3    0  502 -0.89847417257E+03  0.74018189977E+03 -0.86315199976E+02  0.11672947401E+04  0.12699999809E+01 0. -1.
</event>
<event>
 5   0  0.4162450E-06  0.2898751E+04  0.7818609E-02  0.8273249E-01
        2   -1    0    0  501    0  0.00000000000E+00  0.00000000000E+00  0.14692517305E+04  0.14692517305E+04  0.25500000920E-02 0. -1.
       -2   -1    0    0    0  501  0.00000000000E+00  0.00000000000E+00 -0.14297682510E+04  0.14297682510E+04  0.25500000920E-02 0.  1.
    10030    2    1    2    0    0  0.00000000000E+00  0.00000000000E+00  0.39483479515E+02  0.28990199815E+04  0.28987510946E+04 0.  0.
        2    1    3    3  502    0  0.31596046135E+03  0.10220983983E+04  0.99767360079E+03  0.14628290271E+04  0.25500000920E-02 0. -1.
       -2    1    3    3    0  502 -0.31596046135E+03 -0.10220983983E+04 -0.95819012127E+03  0.14361909544E+04  0.25500000920E-02 0.  1.
</event>
<event>
 5   0  0.1511126E-06  0.3024277E+04  0.7818609E-02  0.8236832E-01
        1   -1    0    0  501    0  0.00000000000E+00  0.00000000000E+00  0.15495286284E+04  0.15495286284E+04  0.50400001928E-02 0. -1.
       -1   -1    0    0    0  501  0.00000000000E+00  0.00000000000E+00 -0.14756509950E+04  0.14756509950E+04  0.50400001928E-02 0.  1.
    10030    2    1    2    0    0  0.00000000000E+00  0.00000000000E+00  0.73877633363E+02  0.30251796234E+04  0.30242774094E+04 0.  0.
        5    1    3    3  502    0  0.91087299447E+03 -0.11444674578E+04 -0.34664135210E+03  0.15032224357E+04  0.46999998093E+01 0. -1.
       -5    1    3    3    0  502 -0.91087299447E+03  0.11444674578E+04  0.42051898547E+03  0.15219571877E+04  0.46999998093E+01 0.  1.
</event>
<event>
 5   0  0.1511126E-06  0.2899105E+04  0.7818609E-02  0.8273144E-01
        1   -1    0    0  501    0  0.00000000000E+00  0.00000000000E+00  0.17261198551E+04  0.17261198551E+04  0.50400001928E-02 0. -1.
       -1   -1    0    0    0  501  0.00000000000E+00  0.00000000000E+00 -0.12172983198E+04  0.12172983199E+04  0.50400001928E-02 0.  1.
    10030    2    1    2    0    0  0.00000000000E+00  0.00000000000E+00  0.50882153521E+03  0.29434181749E+04  0.28991052409E+04 0.  0.
        5    1    3    3  502    0  0.54681352405E+03 -0.10335077481E+04 -0.61544467360E+03  0.13213392947E+04  0.46999998093E+01 0.  1.
       -5    1    3    3    0  502 -0.54681352405E+03  0.10335077481E+04  0.11242662088E+04  0.16220788802E+04  0.46999998093E+01 0. -1.
</event>
<event>
 5   0  0.1543678E-06  0.2921758E+04  0.7818609E-02  0.8266433E-01
       -1   -1    0    0    0  501  0.00000000000E+00  0.00000000000E+00  0.12418988909E+04  0.12418988909E+04  0.50400001928E-02 0. -1.
        1   -1    0    0  501    0  0.00000000000E+00  0.00000000000E+00 -0.17184709815E+04  0.17184709815E+04  0.50400001928E-02 0.  1.
    10030    2    1    2    0    0  0.00000000000E+00  0.00000000000E+00 -0.47657209062E+03  0.29603698724E+04  0.29217578311E+04 0.  0.
        3    1    3    3  502    0 -0.80356887564E+03  0.78883762210E+02  0.99526841901E+03  0.12816024430E+04  0.10100000352E+00 0. -1.
       -3    1    3    3    0  502  0.80356887564E+03 -0.78883762210E+02 -0.14718405096E+04  0.16787674293E+04  0.10100000352E+00 0.  1.
</event>
<event>
 5   0  0.1550278E-06  0.2920820E+04  0.7818609E-02  0.8266710E-01
        1   -1    0    0  501    0  0.00000000000E+00  0.00000000000E+00  0.15652858489E+04  0.15652858489E+04  0.50400001928E-02 0. -1.
       -1   -1    0    0    0  501  0.00000000000E+00  0.00000000000E+00 -0.13625613677E+04  0.13625613677E+04  0.50400001928E-02 0.  1.
    10030    2    1    2    0    0  0.00000000000E+00  0.00000000000E+00  0.20272448114E+03  0.29278472166E+04  0.29208204513E+04 0.  0.
        2    1    3    3  502    0  0.97003290453E+03 -0.53579969210E+03  0.10548355422E+04  0.15299422104E+04  0.25500000920E-02 0. -1.
       -2    1    3    3    0  502 -0.97003290453E+03  0.53579969210E+03 -0.85211106111E+03  0.13979050062E+04  0.25500000920E-02 0.  1.
</event>
<event>
 5   0  0.4148677E-06  0.2580242E+04  0.7818609E-02  0.8374944E-01
       -2   -1    0    0    0  501  0.00000000000E+00  0.00000000000E+00  0.10165987059E+04  0.10165987059E+04  0.25500000920E-02 0.  1.
        2   -1    0    0  501    0  0.00000000000E+00  0.00000000000E+00 -0.16372357307E+04  0.16372357307E+04  0.25500000920E-02 0. -1.
    10030    2    1    2    0    0  0.00000000000E+00  0.00000000000E+00 -0.62063702482E+03  0.26538344366E+04  0.25802416360E+04 0.  0.
        5    1    3    3  502    0 -0.58587423154E+03  0.11466976013E+04 -0.39147161729E+03  0.13458960291E+04  0.46999998093E+01 0.  1.
       -5    1    3    3    0  502  0.58587423154E+03 -0.11466976013E+04 -0.22916540752E+03  0.13079384075E+04  0.46999998093E+01 0. -1.
</event>
<event>
 5   0  0.1580212E-06  0.2946335E+04  0.7818609E-02  0.8259223E-01
       -1   -1    0    0    0  501  0.00000000000E+00  0.00000000000E+00  0.81216790582E+03  0.81216790584E+03  0.50400001928E-02 0. -1.
        1   -1    0    0  501    0  0.00000000000E+00  0.00000000000E+00 -0.26721356315E+04  0.26721356315E+04  0.50400001928E-02 0.  1.
    10030    2    1    2    0    0  0.00000000000E+00  0.00000000000E+00 -0.18599677257E+04  0.34843035373E+04  0.29463352151E+04 0.  0.
        4    1    3    3  502    0  0.36506251607E+03  0.34078746713E+02  0.75734690877E+03  0.84143208564E+03  0.12699999809E+01 0. -1.
       -4    1    3    3    0  502 -0.36506251607E+03 -0.34078746713E+02 -0.26173146344E+04  0.26428714517E+04  0.12699999809E+01 0.  1.
</event>
<event>
 5   0  0.1511126E-06  0.2900221E+04  0.7818609E-02  0.8272812E-01
        1   -1    0    0  501    0  0.00000000000E+00  0.00000000000E+00  0.15525653709E+04  0.15525653710E+04  0.50400001928E-02 0.  1.
       -1   -1    0    0    0  501  0.00000000000E+00  0.00000000000E+00 -0.13544168250E+04  0.13544168250E+04  0.50400001928E-02 0. -1.
    10030    2    1    2    0    0  0.00000000000E+00  0.00000000000E+00  0.19814854593E+03  0.29069821960E+04  0.29002211367E+04 0.  0.
        5    1    3    3  502    0  0.17465468894E+03 -0.18139967584E+03  0.15304750154E+04  0.15510596267E+04  0.46999998093E+01 0.  1.
       -5    1    3    3    0  502 -0.17465468894E+03  0.18139967584E+03 -0.13323264695E+04  0.13559225693E+04  0.46999998093E+01 0. -1.
</event>
<event>
 5   0  0.4162450E-06  0.2902295E+04  0.7818609E-02  0.8272195E-01
       -2   -1    0    0    0  501  0.00000000000E+00  0.00000000000E+00  0.14502360552E+04  0.14502360552E+04  0.25500000920E-02 0.  1.
        2   -1    0    0  501    0  0.00000000000E+00  0.00000000000E+00 -0.14520592633E+04  0.14520592633E+04  0.25500000920E-02 0. -1.
    10030    2    1    2    0    0  0.00000000000E+00  0.00000000000E+00 -0.18232080415E+01  0.29022953185E+04  0.29022947458E+04 0.  0.
        2    1    3    3  502    0 -0.35213346474E+03  0.14797603425E+03  0.13990650342E+04  0.14502682006E+04  0.25500000920E-02 0.  1.
       -2    1    3    3    0  502  0.35213346474E+03 -0.14797603425E+03 -0.14008882423E+04  0.14520271179E+04  0.25500000920E-02 0. -1.
</event>
<event>
 5   0  0.1550278E-06  0.2908091E+04  0.7818609E-02  0.8270474E-01
        1   -1    0    0  501    0  0.00000000000E+00  0.00000000000E+00  0.18152270884E+04  0.18152270884E+04  0.50400001928E-02 0. -1.
       -1   -1    0    0    0  501  0.00000000000E+00  0.00000000000E+00 -0.11647289961E+04  0.11647289962E+04  0.50400001928E-02 0.  1.
    10030    2    1    2    0    0  0.00000000000E+00  0.00000000000E+00  0.65049809224E+03  0.29799560845E+04  0.29080905244E+04 0.  0.
        2    1    3    3  502    0  0.99470419529E+03  0.46178073666E+03 -0.65310690845E+03  0.12764115789E+04  0.25500000920E-02 0.  1.
       -2    1    3    3    0  502 -0.99470419529E+03 -0.46178073666E+03  0.13036050007E+04  0.17035445056E+04  0.25500000920E-02 0. -1.
</event>
<event>
 5   0  0.4148677E-06  0.2895352E+04  0.7818609E-02  0.8274262E-01
       -2   -1    0    0    0  501  0.00000000000E+00  0.00000000000E+00  0.16036309184E+04  0.16036309184E+04  0.25500000920E-02 0.  1.
        2   -1    0    0  501    0  0.00000000000E+00  0.00000000000E+00 -0.13068882285E+04  0.13068882285E+04  0.25500000920E-02 0. -1.
    10030    2    1    2    0    0  0.00000000000E+00  0.00000000000E+00  0.29674268983E+03  0.29105191469E+04  0.28953523932E+04 0.  0.
        5    1    3    3  502    0  0.10691032642E+01  0.22120706603E+03  0.15865335028E+04  0.16018877472E+04  0.46999998093E+01 0.  1.
       -5    1    3    3    0  502 -0.10691032642E+01 -0.22120706603E+03 -0.12897908130E+04  0.13086313997E+04  0.46999998093E+01 0. -1.
</event>
<event>
 5   0  0.1602873E-06  0.2891767E+04  0.7818609E-02  0.8275331E-01
        1   -1    0    0  501    0  0.00000000000E+00  0.00000000000E+00  0.19642157131E+04  0.19642157131E+04  0.50400001928E-02 0. -1.
       -1   -1    0    0    0  501  0.00000000000E+00  0.00000000000E+00 -0.10643330478E+04  0.10643330478E+04  0.50400001928E-02 0.  1.
    10030    2    1    2    0    0  0.00000000000E+00  0.00000000000E+00  0.89988266536E+03  0.30285487609E+04  0.28917674156E+04 0.  0.
        1    1    3    3  502    0 -0.12246375285E+04  0.26451413649E+03  0.12057953441E+04  0.17388637716E+04  0.50400001928E-02 0.  1.
       -1    1    3    3    0  502  0.12246375285E+04 -0.26451413649E+03 -0.30591267870E+03  0.12896849893E+04  0.50400001928E-02 0. -1.
</event>
<event>
 5   0  0.4187518E-06  0.2894730E+04  0.7818609E-02  0.8274447E-01
        2   -1    0    0  501    0  0.00000000000E+00  0.00000000000E+00  0.10630129836E+04  0.10630129836E+04  0.25500000920E-02 0.  1.
       -2   -1    0    0    0  501  0.00000000000E+00  0.00000000000E+00 -0.19706869218E+04  0.19706869218E+04  0.25500000920E-02 0. -1.
    10030    2    1    2    0    0  0.00000000000E+00  0.00000000000E+00 -0.90767393822E+03  0.30336999055E+04  0.28947302358E+04 0.  0.
        3    1    3    3  502    0 -0.11731356298E+04  0.75778257933E+03 -0.55615883308E+02  0.13977033949E+04  0.10100000352E+00 0.  1.
       -3    1    3    3    0  502  0.11731356298E+04 -0.75778257933E+03 -0.85205805491E+03  0.16359965106E+04  0.10100000352E+00 0. -1.
</event>
<event>
 5   0  0.4148677E-06  0.2913919E+04  0.7818609E-02  0.8268748E-01
       -2   -1    0    0    0  501  0.00000000000E+00  0.00000000000E+00  0.85134485155E+03  0.85134485156E+03  0.25500000920E-02 0.  1.
        2   -1    0    0  501    0  0.00000000000E+00  0.00000000000E+00 -0.24933859899E+04  0.24933859899E+04  0.25500000920E-02 0. -1.
    10030    2    1    2    0    0  0.00000000000E+00  0.00000000000E+00 -0.16420411383E+04  0.33447308414E+04  0.29139192339E+04 0.  0.
        5    1    3    3  502    0  0.26770965982E+03 -0.12732378701E+04 -0.68409730968E+02  0.13028833858E+04  0.46999998093E+01 0.  1.
       -5    1    3    3    0  502 -0.26770965982E+03  0.12732378701E+04 -0.15736314074E+04  0.20418474556E+04  0.46999998093E+01 0. -1.
</event>
<event>
 5   0  0.1602873E-06  0.2902723E+04  0.7818609E-02  0.8272068E-01
        1   -1    0    0  501    0  0.00000000000E+00  0.00000000000E+00  0.16266284628E+04  0.16266284628E+04  0.50400001928E-02 0. -1.
       -1   -1    0    0    0  501  0.00000000000E+00  0.00000000000E+00 -0.12949789038E+04  0.12949789038E+04  0.50400001928E-02 0.  1.
    10030    2    1    2    0    0  0.00000000000E+00  0.00000000000E+00  0.33164955901E+03  0.29216073666E+04  0.29027225452E+04 0.  0.
        1    1    3    3  502    0  0.42609181477E+03  0.94631150243E+03 -0.85536454380E+03  0.13448822242E+04  0.50400001928E-02 0.  1.
       -1    1    3    3    0  502 -0.42609181477E+03 -0.94631150243E+03  0.11870141028E+04  0.15767251424E+04  0.50400001928E-02 0. -1.
</event>
<event>
 5   0  0.4162450E-06  0.2908224E+04  0.7818609E-02  0.8270435E-01
        2   -1    0    0  501    0  0.00000000000E+00  0.00000000000E+00  0.20172163713E+04  0.20172163713E+04  0.25500000920E-02 0.  1.
       -2   -1    0    0    0  501  0.00000000000E+00  0.00000000000E+00 -0.10481980825E+04  0.10481980825E+04  0.25500000920E-02 0. -1.
    10030    2    1    2    0    0  0.00000000000E+00  0.00000000000E+00  0.96901828886E+03  0.30654144538E+04  0.29082244290E+04 0.  0.
        2    1    3    3  502    0  0.59359281876E+03  0.10867590571E+04 -0.31895414016E+03  0.12787217939E+04  0.25500000920E-02 0. -1.
       -2    1    3    3    0  502 -0.59359281876E+03 -0.10867590571E+04  0.12879724290E+04  0.17866926598E+04  0.25500000920E-02 0.  1.
</event>
<event>
 5   0  0.4148677E-06  0.2898724E+04  0.7818609E-02  0.8273257E-01
       -2   -1    0    0    0  501  0.00000000000E+00  0.00000000000E+00  0.12824557624E+04  0.12824557624E+04  0.25500000920E-02 0. -1.
        2   -1    0    0  501    0  0.00000000000E+00  0.00000000000E+00 -0.16379902701E+04  0.16379902701E+04  0.25500000920E-02 0.  1.
    10030    2    1    2    0    0  0.00000000000E+00  0.00000000000E+00 -0.35553450772E+03  0.29204460326E+04  0.28987238991E+04 0.  0.
        5    1    3    3  502    0 -0.10528789041E+04 -0.71406560330E+03 -0.87736574804E+03  0.15453919951E+04  0.46999998093E+01 0.  1.
       -5    1    3    3    0  502  0.10528789041E+04  0.71406560330E+03  0.52183124032E+03  0.13750540375E+04  0.46999998093E+01 0. -1.
</event>
<event>
 5   0  0.1580212E-06  0.2888899E+04  0.7818609E-02  0.8276188E-01
        1   -1    0    0  501    0  0.00000000000E+00  0.00000000000E+00  0.25521678398E+04  0.25521678398E+04  0.50400001928E-02 0. -1.
       -1   -1    0    0    0  501  0.00000000000E+00  0.00000000000E+00 -0.81751428549E+03  0.81751428551E+03  0.50400001928E-02 0.  1.
    10030    2    1    2    0    0  0.00000000000E+00  0.00000000000E+00  0.17346535544E+04  0.33696821254E+04  0.28888985223E+04 0.  0.
        4    1    3    3  502    0  0.11810561290E+02  0.13607732735E+04  0.14322769662E+04  0.19756675611E+04  0.12699999809E+01 0. -1.
       -4    1    3    3    0  502 -0.11810561290E+02 -0.13607732735E+04  0.30237658815E+03  0.13940145642E+04  0.12699999809E+01 0.  1.
</event>
<event>
 5   0  0.4148677E-06  0.2890306E+04  0.7818609E-02  0.8275768E-01
        2   -1    0    0  501    0  0.00000000000E+00  0.00000000000E+00  0.13100178964E+04  0.13100178964E+04  0.25500000920E-02 0.  1.
       -2   -1    0    0    0  501  0.00000000000E+00  0.00000000000E+00 -0.15942274429E+04  0.15942274429E+04  0.25500000920E-02 0. -1.
    10030    2    1    2    0    0  0.00000000000E+00  0.00000000000E+00 -0.28420954652E+03  0.29042453394E+04  0.28903055072E+04 0.  0.
        5    1    3    3  502    0  0.67560170504E+03 -0.63739249190E+03 -0.12545747371E+04  0.15609890177E+04  0.46999998093E+01 0. -1.
       -5    1    3    3    0  502 -0.67560170504E+03  0.63739249190E+03  0.97036519055E+03  0.13432563216E+04  0.46999998093E+01 0.  1.
</event>
<event>
 5   0  0.1580212E-06  0.2945728E+04  0.7818609E-02  0.8259401E-01
       -1   -1    0    0    0  501  0.00000000000E+00  0.00000000000E+00  0.12870276751E+04  0.12870276751E+04  0.50400001928E-02 0. -1.
        1   -1    0    0  501    0  0.00000000000E+00  0.00000000000E+00 -0.16855332256E+04  0.16855332257E+04  0.50400001928E-02 0.  1.
    10030    2    1    2    0    0  0.00000000000E+00  0.00000000000E+00 -0.39850555056E+03  0.29725609007E+04  0.29457276919E+04 0.  0.
        4    1    3    3  502    0  0.10718433707E+03  0.13590107836E+04 -0.76194087943E+03  0.15617151816E+04  0.12699999809E+01 0.  1.
       -4    1    3    3    0  502 -0.10718433707E+03 -0.13590107836E+04  0.36343532887E+03  0.14108457191E+04  0.12699999809E+01 0. -1.
</event>
<event>
 5   0  0.1511126E-06  0.2899236E+04  0.7818609E-02  0.8273105E-01
        1   -1    0    0  501    0  0.00000000000E+00  0.00000000000E+00  0.17314183759E+04  0.17314183759E+04  0.50400001928E-02 0. -1.
       -1   -1    0    0    0  501  0.00000000000E+00  0.00000000000E+00 -0.12136825240E+04  0.12136825240E+04  0.50400001928E-02 0.  1.
    10030    2    1    2    0    0  0.00000000000E+00  0.00000000000E+00  0.51773585192E+03  0.29451008999E+04  0.28992359162E+04 0.  0.
        5    1    3    3  502    0  0.13899848625E+04 -0.32998302557E+03  0.50856834532E+03  0.15164466911E+04  0.46999998093E+01 0. -1.
       -5    1    3    3    0  502 -0.13899848625E+04  0.32998302557E+03  0.91675065995E+01  0.14286542088E+04  0.46999998093E+01 0.  1.
</event>
<event>
 5   0  0.1511126E-06  0.2913019E+04  0.7818609E-02  0.8269014E-01
       -1   -1    0    0    0  501  0.00000000000E+00  0.00000000000E+00  0.13903877831E+04  0.13903877831E+04  0.50400001928E-02 0. -1.
        1   -1    0    0  501    0  0.00000000000E+00  0.00000000000E+00 -0.15257759660E+04  0.15257759660E+04  0.50400001928E-02 0.  1.
    10030    2    1    2    0    0  0.00000000000E+00  0.00000000000E+00 -0.13538818287E+03  0.29161637491E+04  0.29130192330E+04 0.  0.
        5    1    3    3  502    0 -0.83261841148E+03 -0.24186427457E+03 -0.12392763575E+04  0.15124747029E+04  0.46999998093E+01 0.  1.
       -5    1    3    3    0  502  0.83261841148E+03  0.24186427457E+03  0.11038881747E+04  0.14036890463E+04  0.46999998093E+01 0. -1.
</event>
<event>
 5   0  0.4187518E-06  0.2905533E+04  0.7818609E-02  0.8271233E-01
       -2   -1    0    0    0  501  0.00000000000E+00  0.00000000000E+00  0.22834243876E+04  0.22834243876E+04  0.25500000920E-02 0. -1.
        2   -1    0    0  501    0  0.00000000000E+00  0.00000000000E+00 -0.92428307449E+03  0.92428307449E+03  0.25500000920E-02 0.  1.
    10030    2    1    2    0    0  0.00000000000E+00  0.00000000000E+00  0.13591413131E+04  0.32077074621E+04  0.29055330067E+04 0.  0.
        3    1    3    3  502    0  0.10049855670E+04  0.76273231831E+03  0.14747370376E+04  0.19407745669E+04  0.10100000352E+00 0.  1.
       -3    1    3    3    0  502 -0.10049855670E+04 -0.76273231831E+03 -0.11559572448E+03  0.12669328952E+04  0.10100000352E+00 0. -1.
</event>
<event>
 5   0  0.1511126E-06  0.2903129E+04  0.7818609E-02  0.8271947E-01
       -1   -1    0    0    0  501  0.00000000000E+00  0.00000000000E+00  0.12021047134E+04  0.12021047134E+04  0.50400001928E-02 0. -1.
        1   -1    0    0  501    0  0.00000000000E+00  0.00000000000E+00 -0.17527917608E+04  0.17527917608E+04  0.50400001928E-02 0.  1.
    10030    2    1    2    0    0  0.00000000000E+00  0.00000000000E+00 -0.55068704740E+03  0.29548964743E+04  0.29031288207E+04 0.  0.
        5    1    3    3  502    0  0.11983789362E+03 -0.13170442342E+03 -0.17416253406E+04  0.17507107394E+04  0.46999998093E+01 0.  1.
       -5    1    3    3    0  502 -0.11983789362E+03  0.13170442342E+03  0.11909382932E+04  0.12041857349E+04  0.46999998093E+01 0. -1.
</event>
<event>
 5   0  0.1511126E-06  0.2961846E+04  0.7818609E-02  0.8254711E-01
       -1   -1    0    0    0  501  0.00000000000E+00  0.00000000000E+00  0.10433709070E+04  0.10433709070E+04  0.50400001928E-02 0.  1.
        1   -1    0    0  501    0  0.00000000000E+00  0.00000000000E+00 -0.21019686523E+04  0.21019686524E+04  0.50400001928E-02 0. -1.
    10030    2    1    2    0    0  0.00000000000E+00  0.00000000000E+00 -0.10585977453E+04  0.31453395594E+04  0.29618460050E+04 0.  0.
        5    1    3    3  502    0  0.13280732065E+04 -0.68364160460E+02 -0.12213291576E+04  0.18055799903E+04  0.46999998093E+01 0. -1.
       -5    1    3    3    0  502 -0.13280732065E+04  0.68364160460E+02  0.16273141223E+03  0.13397595691E+04  0.46999998093E+01 0.  1.
</event>
<event>
 5   0  0.4187518E-06  0.2898045E+04  0.7818609E-02  0.8273460E-01
        2   -1    0    0  501    0  0.00000000000E+00  0.00000000000E+00  0.24625849773E+04  0.24625849773E+04  0.25500000920E-02 0.  1.
       -2   -1    0    0    0  501  0.00000000000E+00  0.00000000000E+00 -0.85262661428E+03  0.85262661428E+03  0.25500000920E-02 0. -1.
    10030    2    1    2    0    0  0.00000000000E+00  0.00000000000E+00  0.16099583630E+04  0.33152115916E+04  0.28980445073E+04 0.  0.
        3    1    3    3  502    0  0.11698779334E+04 -0.84837608745E+03  0.68332682128E+03  0.15985280479E+04  0.10100000352E+00 0.  1.
       -3    1    3    3    0  502 -0.11698779334E+04  0.84837608745E+03  0.92663154174E+03  0.17166835437E+04  0.10100000352E+00 0. -1.
</event>
<event>
 5   0  0.4115143E-06  0.2891098E+04  0.7818609E-02  0.8275531E-01
       -2   -1    0    0    0  501  0.00000000000E+00  0.00000000000E+00  0.13363381163E+04  0.13363381163E+04  0.25500000920E-02 0. -1.
        2   -1    0    0  501    0  0.00000000000E+00  0.00000000000E+00 -0.15636845236E+04  0.15636845236E+04  0.25500000920E-02 0.  1.
    10030    2    1    2    0    0  0.00000000000E+00  0.00000000000E+00 -0.22734640725E+03  0.29000226399E+04  0.28910975292E+04 0.  0.
        1    1    3    3  502    0  0.42276476713E+03 -0.40704402891E+03  0.12114638340E+04  0.13461275983E+04  0.50400001928E-02 0. -1.
       -1    1    3    3    0  502 -0.42276476713E+03  0.40704402891E+03 -0.14388102413E+04  0.15538950416E+04  0.50400001928E-02 0.  1.
</event>
<event>
 5   0  0.4224163E-06  0.2910445E+04  0.7818609E-02  0.8269777E-01
        2   -1    0    0  501    0  0.00000000000E+00  0.00000000000E+00  0.16864507232E+04  0.16864507232E+04  0.25500000920E-02 0.  1.
       -2   -1    0    0    0  501  0.00000000000E+00  0.00000000000E+00 -0.12556975509E+04  0.12556975509E+04  0.25500000920E-02 0. -1.
    10030    2    1    2    0    0  0.00000000000E+00  0.00000000000E+00  0.43075317234E+03  0.29421482741E+04  0.29104446690E+04 0.  0.
        4    1    3    3  502    0 -0.40575785896E+03  0.90444554210E+03 -0.86159664633E+03  0.13133969593E+04  0.12699999809E+01 0. -1.
       -4    1    3    3    0  502  0.40575785896E+03 -0.90444554210E+03  0.12923498187E+04  0.16287513148E+04  0.12699999809E+01 0.  1.
</event>
<event>
 5   0  0.1550278E-06  0.2892819E+04  0.7818609E-02  0.8275017E-01
       -1   -1    0    0    0  501  0.00000000000E+00  0.00000000000E+00  0.78613687538E+03  0.78613687540E+03  0.50400001928E-02 0.  1.
        1   -1    0    0  501    0  0.00000000000E+00  0.00000000000E+00 -0.26612414872E+04  0.26612414872E+04  0.50400001928E-02 0. -1.
    10030    2    1    2    0    0  0.00000000000E+00  0.00000000000E+00 -0.18751046119E+04  0.34473783626E+04  0.28928187413E+04 0.  0.
        2    1    3    3  502    0 -0.49653129467E+03 -0.12103877862E+04 -0.16726675287E+04  0.21235344549E+04  0.25500000920E-02 0. -1.
       -2    1    3    3    0  502  0.49653129467E+03  0.12103877862E+04 -0.20243708314E+03  0.13238439078E+04  0.25500000920E-02 0.  1.
</event>
<event>
 5   0  0.4148677E-06  0.2898754E+04  0.7818609E-02  0.8273248E-01
        2   -1    0    0  501    0  0.00000000000E+00  0.00000000000E+00  0.21006966565E+04  0.21006966565E+04  0.25500000920E-02 0. -1.
       -2   -1    0    0    0  501  0.00000000000E+00  0.00000000000E+00 -0.99999891940E+03  0.99999891940E+03  0.25500000920E-02 0.  1.
    10030    2    1    2    0    0  0.00000000000E+00  0.00000000000E+00  0.11006977371E+04  0.31006955759E+04  0.28987544818E+04 0.  0.
        5    1    3    3  502    0  0.14087313411E+03  0.42403450294E+03  0.20251764288E+04  0.20738881738E+04  0.46999998093E+01 0. -1.
       -5    1    3    3    0  502 -0.14087313411E+03 -0.42403450294E+03 -0.92447869171E+03  0.10268074021E+04  0.46999998093E+01 0.  1.
</event>
<event>
 5   0  0.1580212E-06  0.2895741E+04  0.7818609E-02  0.8274146E-01
       -1   -1    0    0    0  501  0.00000000000E+00  0.00000000000E+00  0.87658933014E+03  0.87658933016E+03  0.50400001928E-02 0.  1.
        1   -1    0    0  501    0  0.00000000000E+00  0.00000000000E+00 -0.23914607071E+04  0.23914607071E+04  0.50400001928E-02 0. -1.
    10030    2    1    2    0    0  0.00000000000E+00  0.00000000000E+00 -0.15148713769E+04  0.32680500372E+04  0.28957409686E+04 0.  0.
        4    1    3    3  502    0 -0.30103970566E+02 -0.26819556205E+03  0.84795136432E+03  0.88986416812E+03  0.12699999809E+01 0.  1.
       -4    1    3    3    0  502  0.30103970566E+02  0.26819556205E+03 -0.23628227412E+04  0.23781858691E+04  0.12699999809E+01 0. -1.
</event>
<event>
 5   0  0.4115143E-06  0.2862653E+04  0.7818609E-02  0.8284077E-01
        2   -1    0    0  501    0  0.00000000000E+00  0.00000000000E+00  0.12490266665E+04  0.12490266665E+04  0.25500000920E-02 0.  1.
       -2   -1    0    0    0  501  0.00000000000E+00  0.00000000000E+00 -0.16402339633E+04  0.16402339633E+04  0.25500000920E-02 0. -1.
    10030    2    1    2    0    0  0.00000000000E+00  0.00000000000E+00 -0.39120729678E+03  0.28892606299E+04  0.28626532864E+04 0.  0.
        1    1    3    3  502    0  0.26353926968E+03 -0.71048431327E+03  0.10299539807E+04  0.12786892149E+04  0.50400001928E-02 0.  1.
       -1    1    3    3    0  502 -0.26353926968E+03  0.71048431327E+03 -0.14211612774E+04  0.16105714149E+04  0.50400001928E-02 0. -1.
</event>
<event>
 5   0  0.1360125E-06  0.2908303E+04  0.7818609E-02  0.8270411E-01
       -4   -1    0    0    0  501  0.00000000000E+00  0.00000000000E+00  0.15658242290E+04  0.15658247441E+04  0.12699999809E+01 0. -1.
        4   -1    0    0  501    0  0.00000000000E+00  0.00000000000E+00 -0.13504423845E+04  0.13504429817E+04  0.12699999809E+01 0.  1.
    10030    2    1    2    0    0  0.00000000000E+00  0.00000000000E+00  0.21538184452E+03  0.29162677258E+04  0.29083033042E+04 0.  0.
        4    1    3    3  502    0 -0.38500479935E+03  0.31313847594E+03 -0.12628993110E+04  0.13569085022E+04  0.12699999809E+01 0.  1.
       -4    1    3    3    0  502  0.38500479935E+03 -0.31313847594E+03  0.14782811555E+04  0.15593592236E+04  0.12699999809E+01 0. -1.
</event>
<event>
 5   0  0.4162450E-06  0.2917939E+04  0.7818609E-02  0.8267560E-01
       -2   -1    0    0    0  501  0.00000000000E+00  0.00000000000E+00  0.60172288212E+03  0.60172288213E+03  0.25500000920E-02 0. -1.
        2   -1    0    0  501    0  0.00000000000E+00  0.00000000000E+00 -0.35374949391E+04  0.35374949391E+04  0.25500000920E-02 0.  1.
    10030    2    1    2    0    0  0.00000000000E+00  0.00000000000E+00 -0.29357720570E+04  0.41392178212E+04  0.29179387590E+04 0.  0.
        2    1    3    3  502    0 -0.81996018003E+03  0.11950492434E+04 -0.12300347821E+04  0.19009110858E+04  0.25500000920E-02 0.  1.
       -2    1    3    3    0  502  0.81996018003E+03 -0.11950492434E+04 -0.17057372749E+04  0.22383067355E+04  0.25500000920E-02 0. -1.
</event>
<event>
 5   0  0.1602873E-06  0.3000397E+04  0.7818609E-02  0.8243618E-01
        1   -1    0    0  501    0  0.00000000000E+00  0.00000000000E+00  0.21515528302E+04  0.21515528302E+04  0.50400001928E-02 0. -1.
       -1   -1    0    0    0  501  0.00000000000E+00  0.00000000000E+00 -0.10460328075E+04  0.10460328075E+04  0.50400001928E-02 0.  1.
    10030    2    1    2    0    0  0.00000000000E+00  0.00000000000E+00  0.11055200227E+04  0.31975856378E+04  0.30003965388E+04 0.  0.
        1    1    3    3  502    0 -0.12920125215E+04 -0.65437184726E+03  0.96974979874E+03  0.17429611419E+04  0.50400001928E-02 0. -1.
       -1    1    3    3    0  502  0.12920125215E+04  0.65437184726E+03  0.13577022393E+03  0.14546244958E+04  0.50400001928E-02 0.  1.
</event>
<event>
 5   0  0.1580212E-06  0.2910607E+04  0.7818609E-02  0.8269729E-01
       -1   -1    0    0    0  501  0.00000000000E+00  0.00000000000E+00  0.83257035122E+03  0.83257035124E+03  0.50400001928E-02 0. -1.
        1   -1    0    0  501    0  0.00000000000E+00  0.00000000000E+00 -0.25438191125E+04  0.25438191125E+04  0.50400001928E-02 0.  1.
    10030    2    1    2    0    0  0.00000000000E+00  0.00000000000E+00 -0.17112487613E+04  0.33763894638E+04  0.29106070652E+04 0.  0.
        4    1    3    3  502    0  0.22625181625E+03 -0.40973050271E+03  0.74287653832E+03  0.87802968816E+03  0.12699999809E+01 0. -1.
       -4    1    3    3    0  502 -0.22625181625E+03  0.40973050271E+03 -0.24541252996E+04  0.24983597756E+04  0.12699999809E+01 0.  1.
</event>
<event>
 5   0  0.4162450E-06  0.2906379E+04  0.7818609E-02  0.8270982E-01
       -2   -1    0    0    0  501  0.00000000000E+00  0.00000000000E+00  0.10835573045E+04  0.10835573046E+04  0.25500000920E-02 0.  1.
        2   -1    0    0  501    0  0.00000000000E+00  0.00000000000E+00 -0.19489143566E+04  0.19489143566E+04  0.25500000920E-02 0. -1.
    10030    2    1    2    0    0  0.00000000000E+00  0.00000000000E+00 -0.86535705208E+03  0.30324716612E+04  0.29063794570E+04 0.  0.
        2    1    3    3  502    0  0.45303303809E+03 -0.13416700656E+04 -0.77308888024E+03  0.16133765572E+04  0.25500000920E-02 0.  1.
       -2    1    3    3    0  502 -0.45303303809E+03  0.13416700656E+04 -0.92268171840E+02  0.14190951040E+04  0.25500000920E-02 0. -1.
</event>
<event>
 5   0  0.4148677E-06  0.2905710E+04  0.7818609E-02  0.8271181E-01
       -2   -1    0    0    0  501  0.00000000000E+00  0.00000000000E+00  0.10952090880E+04  0.10952090880E+04  0.25500000920E-02 0.  1.
        2   -1    0    0  501    0  0.00000000000E+00  0.00000000000E+00 -0.19272919170E+04  0.19272919170E+04  0.25500000920E-02 0. -1.
    10030    2    1    2    0    0  0.00000000000E+00  0.00000000000E+00 -0.83208282895E+03  0.30225010050E+04  0.29057099806E+04 0.  0.
        5    1    3    3  502    0 -0.95902905413E+03  0.91294307799E+03  0.20595936070E+03  0.13400160964E+04  0.46999998093E+01 0.  1.
       -5    1    3    3    0  502  0.95902905413E+03 -0.91294307799E+03 -0.10380421897E+04  0.16824849086E+04  0.46999998093E+01 0. -1.
</event>
<event>
 5   0  0.1602873E-06  0.2905021E+04  0.7818609E-02  0.8271385E-01
       -1   -1    0    0    0  501  0.00000000000E+00  0.00000000000E+00  0.28589180548E+04  0.28589180548E+04  0.50400001928E-02 0.  1.
        1   -1    0    0  501    0  0.00000000000E+00  0.00000000000E+00 -0.73796703339E+03  0.73796703341E+03  0.50400001928E-02 0. -1.
    10030    2    1    2    0    0  0.00000000000E+00  0.00000000000E+00  0.21209510214E+04  0.35968850882E+04  0.29050213601E+04 0.  0.
        1    1    3    3  502    0  0.12729144348E+04  0.12302431440E+03  0.20772374421E+03  0.12956061493E+04  0.50400001928E-02 0. -1.
       -1    1    3    3    0  502 -0.12729144348E+04 -0.12302431440E+03  0.19132272771E+04  0.23012789388E+04  0.50400001928E-02 0.  1.
</event>
<event>
 5   0  0.1550278E-06  0.2907371E+04  0.7818609E-02  0.8270688E-01
        1   -1    0    0  501    0  0.00000000000E+00  0.00000000000E+00  0.19245988706E+04  0.19245988707E+04  0.50400001928E-02 0. -1.
       -1   -1    0    0    0  501  0.00000000000E+00  0.00000000000E+00 -0.10979961934E+04  0.10979961934E+04  0.50400001928E-02 0.  1.
    10030    2    1    2    0    0  0.00000000000E+00  0.00000000000E+00  0.82660267727E+03  0.30225950640E+04  0.29073714821E+04 0.  0.
        2    1    3    3  502    0  0.72223044866E+01 -0.56954035964E+02  0.19234198388E+04  0.19242764355E+04  0.25500000920E-02 0. -1.
       -2    1    3    3    0  502 -0.72223044866E+01  0.56954035964E+02 -0.10968171616E+04  0.10983186285E+04  0.25500000920E-02 0.  1.
</event>
<event>
 5   0  0.4224163E-06  0.2876381E+04  0.7818609E-02  0.8279940E-01
        2   -1    0    0  501    0  0.00000000000E+00  0.00000000000E+00  0.13220140394E+04  0.13220140394E+04  0.25500000920E-02 0.  1.
       -2   -1    0    0    0  501  0.00000000000E+00  0.00000000000E+00 -0.15645761487E+04  0.15645761487E+04  0.25500000920E-02 0. -1.
    10030    2    1    2    0    0  0.00000000000E+00  0.00000000000E+00 -0.24256210933E+03  0.28865901882E+04  0.28763808054E+04 0.  0.
        4    1    3    3  502    0 -0.36686501130E+03  0.80237795556E+02  0.12719411679E+04  0.13262216964E+04  0.12699999809E+01 0.  1.
       -4    1    3    3    0  502  0.36686501130E+03 -0.80237795556E+02 -0.15145032773E+04  0.15603684918E+04  0.12699999809E+01 0. -1.
</event>
<event>
 5   0  0.1360125E-06  0.2902511E+04  0.7818609E-02  0.8272131E-01
        3   -1    0    0  501    0  0.00000000000E+00  0.00000000000E+00  0.24719842008E+04  0.24719842029E+04  0.10100000352E+00 0. -1.
       -3   -1    0    0    0  501  0.00000000000E+00  0.00000000000E+00 -0.85200463279E+03  0.85200463877E+03  0.10100000352E+00 0.  1.
    10030    2    1    2    0    0  0.00000000000E+00  0.00000000000E+00  0.16199795680E+04  0.33239888417E+04  0.29025106406E+04 0.  0.
        5    1    3    3  502    0  0.45287127963E+03  0.12451651374E+04  0.14880781663E+04  0.19924676495E+04  0.46999998093E+01 0. -1.
       -5    1    3    3    0  502 -0.45287127963E+03 -0.12451651374E+04  0.13190140172E+03  0.13315211921E+04  0.46999998093E+01 0.  1.
</event>
<event>
 5   0  0.4224163E-06  0.2902164E+04  0.7818609E-02  0.8272234E-01
       -2   -1    0    0    0  501  0.00000000000E+00  0.00000000000E+00  0.10099848559E+04  0.10099848559E+04  0.25500000920E-02 0.  1.
        2   -1    0    0  501    0  0.00000000000E+00  0.00000000000E+00 -0.20848223601E+04  0.20848223601E+04  0.25500000920E-02 0. -1.
    10030    2    1    2    0    0  0.00000000000E+00  0.00000000000E+00 -0.10748375042E+04  0.30948072159E+04  0.29021640277E+04 0.  0.
        4    1    3    3  502    0  0.13221316832E+04  0.36138639485E+01 -0.11751029197E+04  0.17688735773E+04  0.12699999809E+01 0. -1.
       -4    1    3    3    0  502 -0.13221316832E+04 -0.36138639485E+01  0.10026541553E+03  0.13259336386E+04  0.12699999809E+01 0.  1.
</event>
<event>
 5   0  0.4224163E-06  0.2560447E+04  0.7818609E-02  0.8381762E-01
       -2   -1    0    0    0  501  0.00000000000E+00  0.00000000000E+00  0.66066018671E+03  0.66066018671E+03  0.25500000920E-02 0. -1.
        2   -1    0    0  501    0  0.00000000000E+00  0.00000000000E+00 -0.24808100292E+04  0.24808100292E+04  0.25500000920E-02 0.  1.
    10030    2    1    2    0    0  0.00000000000E+00  0.00000000000E+00 -0.18201498425E+04  0.31414702159E+04  0.25604471618E+04 0.  0.
        4    1    3    3  502    0  0.34539198091E+03  0.25348422786E+02 -0.24222451433E+04  0.24468778699E+04  0.12699999809E+01 0.  1.
       -4    1    3    3    0  502 -0.34539198091E+03 -0.25348422786E+02  0.60209530080E+03  0.69459234603E+03  0.12699999809E+01 0. -1.
</event>
<event>
 5   0  0.4148677E-06  0.2901088E+04  0.7818609E-02  0.8272554E-01
       -2   -1    0    0    0  501  0.00000000000E+00  0.00000000000E+00  0.10747647429E+04  0.10747647429E+04  0.25500000920E-02 0.  1.
        2   -1    0    0  501    0  0.00000000000E+00  0.00000000000E+00 -0.19577107360E+04  0.19577107360E+04  0.25500000920E-02 0. -1.
    10030    2    1    2    0    0  0.00000000000E+00  0.00000000000E+00 -0.88294599306E+03  0.30324754789E+04  0.29010883998E+04 0.  0.
        5    1    3    3  502    0 -0.45805895202E+03 -0.32077474156E+03  0.95755235124E+03  0.11088927061E+04  0.46999998093E+01 0.  1.
       -5    1    3    3    0  502  0.45805895202E+03  0.32077474156E+03 -0.18404983443E+04  0.19235827728E+04  0.46999998093E+01 0. -1.
</event>
<event>
 5   0  0.1550278E-06  0.2858768E+04  0.7818609E-02  0.8285252E-01
        1   -1    0    0  501    0  0.00000000000E+00  0.00000000000E+00  0.15055050780E+04  0.15055050780E+04  0.50400001928E-02 0. -1.
       -1   -1    0    0    0  501  0.00000000000E+00  0.00000000000E+00 -0.13571121007E+04  0.13571121008E+04  0.50400001928E-02 0.  1.
    10030    2    1    2    0    0  0.00000000000E+00  0.00000000000E+00  0.14839297721E+03  0.28626171787E+04  0.28587683775E+04 0.  0.
        2    1    3    3  502    0 -0.10329616211E+04  0.68304786677E+03 -0.64060983505E+03  0.13942543024E+04  0.25500000920E-02 0.  1.
       -2    1    3    3    0  502  0.10329616211E+04 -0.68304786677E+03  0.78900281226E+03  0.14683628764E+04  0.25500000920E-02 0. -1.
</event>
<event>
 5   0  0.1602873E-06  0.2886580E+04  0.7818609E-02  0.8276882E-01
        1   -1    0    0  501    0  0.00000000000E+00  0.00000000000E+00  0.20770091594E+04  0.20770091594E+04  0.50400001928E-02 0. -1.
       -1   -1    0    0    0  501  0.00000000000E+00  0.00000000000E+00 -0.10029257349E+04  0.10029257349E+04  0.50400001928E-02 0.  1.
    10030    2    1    2    0    0  0.00000000000E+00  0.00000000000E+00  0.10740834245E+04  0.30799348943E+04  0.28865799401E+04 0.  0.
        1    1    3    3  502    0 -0.11806469590E+04  0.82275556432E+03  0.41903511681E+03  0.14988143279E+04  0.50400001928E-02 0.  1.
       -1    1    3    3    0  502  0.11806469590E+04 -0.82275556432E+03  0.65504830765E+03  0.15811205665E+04  0.50400001928E-02 0. -1.
</event>
<event>
 5   0  0.1360125E-06  0.2873876E+04  0.7818609E-02  0.8280693E-01
        3   -1    0    0  501    0  0.00000000000E+00  0.00000000000E+00  0.13526065838E+04  0.13526065876E+04  0.10100000352E+00 0. -1.
       -3   -1    0    0    0  501  0.00000000000E+00  0.00000000000E+00 -0.15265268968E+04  0.15265269001E+04  0.10100000352E+00 0.  1.
    10030    2    1    2    0    0  0.00000000000E+00  0.00000000000E+00 -0.17392031295E+03  0.28791334877E+04  0.28738756697E+04 0.  0.
        4    1    3    3  502    0  0.65954590060E+03 -0.11299470502E+04  0.50827126818E+03  0.14036104966E+04  0.12699999809E+01 0.  1.
       -4    1    3    3    0  502 -0.65954590060E+03  0.11299470502E+04 -0.68219158113E+03  0.14755229912E+04  0.12699999809E+01 0. -1.
</event>
<event>
 5   0  0.4115143E-06  0.2910860E+04  0.7818609E-02  0.8269654E-01
       -2   -1    0    0    0  501  0.00000000000E+00  0.00000000000E+00  0.15424454432E+04  0.15424454432E+04  0.25500000920E-02 0. -1.
        2   -1    0    0  501    0  0.00000000000E+00  0.00000000000E+00 -0.13733231968E+04  0.13733231968E+04  0.25500000920E-02 0.  1.
    10030    2    1    2    0    0  0.00000000000E+00  0.00000000000E+00  0.16912224643E+03  0.29157686399E+04  0.29108597402E+04 0.  0.
        1    1    3    3  502    0 -0.12368961224E+04 -0.51756233704E+03  0.65163712647E+03  0.14907762190E+04  0.50400001928E-02 0. -1.
       -1    1    3    3    0  502  0.12368961224E+04  0.51756233704E+03 -0.48251488004E+03  0.14249924210E+04  0.50400001928E-02 0.  1.
</event>
<event>
 5   0  0.4148677E-06  0.2898997E+04  0.7818609E-02  0.8273176E-01
        2   -1    0    0  501    0  0.00000000000E+00  0.00000000000E+00  0.14988590797E+04  0.14988590797E+04  0.25500000920E-02 0.  1.
       -2   -1    0    0    0  501  0.00000000000E+00  0.00000000000E+00 -0.14017634712E+04  0.14017634712E+04  0.25500000920E-02 0. -1.
    10030    2    1    2    0    0  0.00000000000E+00  0.00000000000E+00  0.97095608466E+02  0.29006225510E+04  0.28989970034E+04 0.  0.
        5    1    3    3  502    0 -0.53310169679E+03  0.49076990103E+03  0.13046286847E+04  0.14923574001E+04  0.46999998093E+01 0.  1.
       -5    1    3    3    0  502  0.53310169679E+03 -0.49076990103E+03 -0.12075330762E+04  0.14082651508E+04  0.46999998093E+01 0. -1.
</event>
<event>
 5   0  0.4224163E-06  0.2877189E+04  0.7818609E-02  0.8279697E-01
        2   -1    0    0  501    0  0.00000000000E+00  0.00000000000E+00  0.14136034773E+04  0.14136034773E+04  0.25500000920E-02 0. -1.
       -2   -1    0    0    0  501  0.00000000000E+00  0.00000000000E+00 -0.14640271504E+04  0.14640271504E+04  0.25500000920E-02 0.  1.
    10030    2    1    2    0    0  0.00000000000E+00  0.00000000000E+00 -0.50423673168E+02  0.28776306277E+04  0.28771888160E+04 0.  0.
        4    1    3    3  502    0  0.78737512542E+03  0.86049093888E+03  0.81702673970E+03  0.14240570741E+04  0.12699999809E+01 0.  1.
       -4    1    3    3    0  502 -0.78737512542E+03 -0.86049093888E+03 -0.86745041287E+03  0.14535735536E+04  0.12699999809E+01 0. -1.
</event>
<event>
 5   0  0.1360125E-06  0.2838692E+04  0.7818609E-02  0.8291356E-01
       -3   -1    0    0    0  501  0.00000000000E+00  0.00000000000E+00  0.20439285175E+04  0.20439285199E+04  0.10100000352E+00 0. -1.
        3   -1    0    0  501    0  0.00000000000E+00  0.00000000000E+00 -0.98562318302E+03  0.98562318819E+03  0.10100000352E+00 0.  1.
    10030    2    1    2    0    0  0.00000000000E+00  0.00000000000E+00  0.10583053344E+04  0.30295517081E+04  0.28386921938E+04 0.  0.
        2    1    3    3  502    0  0.10153211252E+04  0.87310260330E+03  0.10312730750E+04  0.16901802562E+04  0.25500000920E-02 0. -1.
       -2    1    3    3    0  502 -0.10153211252E+04 -0.87310260330E+03  0.27032259482E+02  0.13393714520E+04  0.25500000920E-02 0.  1.
</event>
<event>
 5   0  0.1543678E-06  0.2901235E+04  0.7818609E-02  0.8272510E-01
        1   -1    0    0  501    0  0.00000000000E+00  0.00000000000E+00  0.10734490091E+04  0.10734490091E+04  0.50400001928E-02 0.  1.
       -1   -1    0    0    0  501  0.00000000000E+00  0.00000000000E+00 -0.19603085118E+04  0.19603085118E+04  0.50400001928E-02 0. -1.
    10030    2    1    2    0    0  0.00000000000E+00  0.00000000000E+00 -0.88685950265E+03  0.30337575209E+04  0.29012350677E+04 0.  0.
        3    1    3    3  502    0  0.29476911558E+02 -0.13339711125E+04 -0.10385880822E+04  0.16908616242E+04  0.10100000352E+00 0. -1.
       -3    1    3    3    0  502 -0.29476911558E+02  0.13339711125E+04  0.15172857956E+03  0.13428958967E+04  0.10100000352E+00 0.  1.
</event>
<event>
 5   0  0.1550278E-06  0.2895812E+04  0.7818609E-02  0.8274125E-01
       -1   -1    0    0    0  501  0.00000000000E+00  0.00000000000E+00  0.10879849717E+04  0.10879849717E+04  0.50400001928E-02 0. -1.
        1   -1    0    0  501    0  0.00000000000E+00  0.00000000000E+00 -0.19268942909E+04  0.19268942909E+04  0.50400001928E-02 0.  1.
    10030    2    1    2    0    0  0.00000000000E+00  0.00000000000E+00 -0.83890931927E+03  0.30148792626E+04  0.28958121697E+04 0.  0.
        2    1    3    3  502    0  0.11147960754E+04 -0.32099718190E+03 -0.13214625556E+04  0.17584290621E+04  0.25500000920E-02 0.  1.
       -2    1    3    3    0  502 -0.11147960754E+04  0.32099718190E+03  0.48255323631E+03  0.12564502005E+04  0.25500000920E-02 0. -1.
</event>
<event>
 5   0  0.1550278E-06  0.2805543E+04  0.7818609E-02  0.8301549E-01
       -1   -1    0    0    0  501  0.00000000000E+00  0.00000000000E+00  0.14752331661E+04  0.14752331661E+04  0.50400001928E-02 0. -1.
        1   -1    0    0  501    0  0.00000000000E+00  0.00000000000E+00 -0.13338694332E+04  0.13338694332E+04  0.50400001928E-02 0.  1.
    10030    2    1    2    0    0  0.00000000000E+00  0.00000000000E+00  0.14136373297E+03  0.28091025993E+04  0.28055433892E+04 0.  0.
        2    1    3    3  502    0 -0.16442980488E+03  0.13327048051E+04 -0.33557807785E+03  0.13841068978E+04  0.25500000920E-02 0. -1.
       -2    1    3    3    0  502  0.16442980488E+03 -0.13327048051E+04  0.47694181082E+03  0.14249957015E+04  0.25500000920E-02 0.  1.
</event>
<event>
 5   0  0.1511126E-06  0.2863577E+04  0.7818609E-02  0.8283798E-01
       -1   -1    0    0    0  501  0.00000000000E+00  0.00000000000E+00  0.21295714244E+04  0.21295714244E+04  0.50400001928E-02 0.  1.
        1   -1    0    0  501    0  0.00000000000E+00  0.00000000000E+00 -0.96264368755E+03  0.96264368756E+03  0.50400001928E-02 0. -1.
    10030    2    1    2    0    0  0.00000000000E+00  0.00000000000E+00  0.11669277369E+04  0.30922151120E+04  0.28635771258E+04 0.  0.
        5    1    3    3  502    0  0.92195044744E+03  0.54301426013E+03  0.16108140946E+04  0.19338048639E+04  0.46999998093E+01 0.  1.
       -5    1    3    3    0  502 -0.92195044744E+03 -0.54301426013E+03 -0.44388635776E+03  0.11584102481E+04  0.46999998093E+01 0. -1.
</event>
<event>
 5   0  0.4115143E-06  0.2899708E+04  0.7818609E-02  0.8272964E-01
        2   -1    0    0  501    0  0.00000000000E+00  0.00000000000E+00  0.18396050590E+04  0.18396050590E+04  0.25500000920E-02 0. -1.
       -2   -1    0    0    0  501  0.00000000000E+00  0.00000000000E+00 -0.11426782116E+04  0.11426782116E+04  0.25500000920E-02 0.  1.
    10030    2    1    2    0    0  0.00000000000E+00  0.00000000000E+00  0.69692684738E+03  0.29822832707E+04  0.28997079984E+04 0.  0.
        1    1    3    3  502    0  0.13049172530E+04  0.92691452774E+02  0.99130346944E+03  0.16413662940E+04  0.50400001928E-02 0. -1.
       -1    1    3    3    0  502 -0.13049172530E+04 -0.92691452774E+02 -0.29437662206E+03  0.13409169766E+04  0.50400001928E-02 0.  1.
</event>
<event>
 5   0  0.1580212E-06  0.2789950E+04  0.7818609E-02  0.8306395E-01
        1   -1    0    0  501    0  0.00000000000E+00  0.00000000000E+00  0.16305061055E+04  0.16305061055E+04  0.50400001928E-02 0.  1.
       -1   -1    0    0    0  501  0.00000000000E+00  0.00000000000E+00 -0.11934667212E+04  0.11934667212E+04  0.50400001928E-02 0. -1.
    10030    2    1    2    0    0  0.00000000000E+00  0.00000000000E+00  0.43703938422E+03  0.28239728267E+04  0.27899496595E+04 0.  0.
        4    1    3    3  502    0 -0.99238221219E+03 -0.48860433628E+03  0.10788237393E+04  0.15451274788E+04  0.12699999809E+01 0.  1.
       -4    1    3    3    0  502  0.99238221219E+03  0.48860433628E+03 -0.64178435506E+03  0.12788453479E+04  0.12699999809E+01 0. -1.
</event>
<event>
 5   0  0.1602873E-06  0.2905055E+04  0.7818609E-02  0.8271375E-01
        1   -1    0    0  501    0  0.00000000000E+00  0.00000000000E+00  0.21061840933E+04  0.21061840933E+04  0.50400001928E-02 0.  1.
       -1   -1    0    0    0  501  0.00000000000E+00  0.00000000000E+00 -0.10017342947E+04  0.10017342947E+04  0.50400001928E-02 0. -1.
    10030    2    1    2    0    0  0.00000000000E+00  0.00000000000E+00  0.11044497986E+04  0.31079183880E+04  0.29050554812E+04 0.  0.
        1    1    3    3  502    0 -0.10464525186E+04 -0.81961600515E+02  0.16263566650E+04  0.19356695429E+04  0.50400001928E-02 0.  1.
       -1    1    3    3    0  502  0.10464525186E+04  0.81961600515E+02 -0.52190686634E+03  0.11722488451E+04  0.50400001928E-02 0. -1.
</event>
<event>
 5   0  0.4224163E-06  0.2903557E+04  0.7818609E-02  0.8271820E-01
       -2   -1    0    0    0  501  0.00000000000E+00  0.00000000000E+00  0.15207882485E+04  0.15207882485E+04  0.25500000920E-02 0.  1.
        2   -1    0    0  501    0  0.00000000000E+00  0.00000000000E+00 -0.13859002840E+04  0.13859002840E+04  0.25500000920E-02 0. -1.
    10030    2    1    2    0    0  0.00000000000E+00  0.00000000000E+00  0.13488796452E+03  0.29066885325E+04  0.29035570361E+04 0.  0.
        4    1    3    3  502    0  0.54480967723E+03 -0.79791760738E+03 -0.10173155380E+04  0.14030048501E+04  0.12699999809E+01 0. -1.
       -4    1    3    3    0  502 -0.54480967723E+03  0.79791760738E+03  0.11522035025E+04  0.15036836824E+04  0.12699999809E+01 0.  1.
</event>
<event>
 5   0  0.1511126E-06  0.2898821E+04  0.7818609E-02  0.8273228E-01
        1   -1    0    0  501    0  0.00000000000E+00  0.00000000000E+00  0.19063328273E+04  0.19063328273E+04  0.50400001928E-02 0. -1.
       -1   -1    0    0    0  501  0.00000000000E+00  0.00000000000E+00 -0.11020059533E+04  0.11020059533E+04  0.50400001928E-02 0.  1.
    10030    2    1    2    0    0  0.00000000000E+00  0.00000000000E+00  0.80432687404E+03  0.30083387807E+04  0.28988205358E+04 0.  0.
        5    1    3    3  502    0  0.13331599299E+04 -0.49862272512E+03  0.11828165541E+03  0.14282691136E+04  0.46999998093E+01 0.  1.
       -5    1    3    3    0  502 -0.13331599299E+04  0.49862272512E+03  0.68604521863E+03  0.15800696671E+04  0.46999998093E+01 0. -1.
</event>
<event>
 5   0  0.1360125E-06  0.2889788E+04  0.7818609E-02  0.8275922E-01
        3   -1    0    0  501    0  0.00000000000E+00  0.00000000000E+00  0.19364612495E+04  0.19364612522E+04  0.10100000352E+00 0.  1.
       -3   -1    0    0    0  501  0.00000000000E+00  0.00000000000E+00 -0.10781100621E+04  0.10781100669E+04  0.10100000352E+00 0. -1.
    10030    2    1    2    0    0  0.00000000000E+00  0.00000000000E+00  0.85835118740E+03  0.30145713190E+04  0.28897877909E+04 0.  0.
        4    1    3    3  502    0 -0.25764272664E+03 -0.25630177699E+03  0.18880058945E+04  0.19226643613E+04  0.12699999809E+01 0.  1.
       -4    1    3    3    0  502  0.25764272664E+03  0.25630177699E+03 -0.10296547071E+04  0.10919069577E+04  0.12699999809E+01 0. -1.
</event>
<event>
 5   0  0.1580212E-06  0.2908428E+04  0.7818609E-02  0.8270374E-01
        1   -1    0    0  501    0  0.00000000000E+00  0.00000000000E+00  0.13040876391E+04  0.13040876391E+04  0.50400001928E-02 0. -1.
       -1   -1    0    0    0  501  0.00000000000E+00  0.00000000000E+00 -0.16216228763E+04  0.16216228763E+04  0.50400001928E-02 0.  1.
    10030    2    1    2    0    0  0.00000000000E+00  0.00000000000E+00 -0.31753523721E+03  0.29257105154E+04  0.29084279935E+04 0.  0.
        4    1    3    3  502    0 -0.13494136150E+04  0.29422774753E+03 -0.61671961200E+03  0.15125580202E+04  0.12699999809E+01 0.  1.
       -4    1    3    3    0  502  0.13494136150E+04 -0.29422774753E+03  0.29918437480E+03  0.14131524952E+04  0.12699999809E+01 0. -1.
</event>
<event>
 5   0  0.4115143E-06  0.2901757E+04  0.7818609E-02  0.8272355E-01
       -2   -1    0    0    0  501  0.00000000000E+00  0.00000000000E+00  0.75577767562E+03  0.75577767563E+03  0.25500000920E-02 0. -1.
        2   -1    0    0  501    0  0.00000000000E+00  0.00000000000E+00 -0.27852741434E+04  0.27852741434E+04  0.25500000920E-02 0.  1.
    10030    2    1    2    0    0  0.00000000000E+00  0.00000000000E+00 -0.20294964678E+04  0.35410518190E+04  0.29017567218E+04 0.  0.
        1    1    3    3  502    0 -0.93729366338E+03  0.23225223416E+03  0.30668101183E+03  0.10131701509E+04  0.50400001928E-02 0. -1.
       -1    1    3    3    0  502  0.93729366338E+03 -0.23225223416E+03 -0.23361774796E+04  0.25278816681E+04  0.50400001928E-02 0.  1.
</event>
<event>
 5   0  0.1580212E-06  0.2911660E+04  0.7818609E-02  0.8269417E-01
       -1   -1    0    0    0  501  0.00000000000E+00  0.00000000000E+00  0.15154959056E+04  0.15154959056E+04  0.50400001928E-02 0. -1.
        1   -1    0    0  501    0  0.00000000000E+00  0.00000000000E+00 -0.13985134996E+04  0.13985134996E+04  0.50400001928E-02 0.  1.
    10030    2    1    2    0    0  0.00000000000E+00  0.00000000000E+00  0.11698240600E+03  0.29140094052E+04  0.29116603391E+04 0.  0.
        4    1    3    3  502    0  0.12395440281E+04  0.36679623347E+02  0.82174996741E+03  0.14876455943E+04  0.12699999809E+01 0. -1.
       -4    1    3    3    0  502 -0.12395440281E+04 -0.36679623347E+02 -0.70476756141E+03  0.14263638109E+04  0.12699999809E+01 0.  1.
</event>
<event>
 5   0  0.4115143E-06  0.2812621E+04  0.7818609E-02  0.8299361E-01
       -2   -1    0    0    0  501  0.00000000000E+00  0.00000000000E+00  0.87898232790E+03  0.87898232790E+03  0.25500000920E-02 0.  1.
        2   -1    0    0  501    0  0.00000000000E+00  0.00000000000E+00 -0.22499986276E+04  0.22499986276E+04  0.25500000920E-02 0. -1.
    10030    2    1    2    0    0  0.00000000000E+00  0.00000000000E+00 -0.13710162997E+04  0.31289809555E+04  0.28126208642E+04 0.  0.
        1    1    3    3  502    0  0.36844557828E+03 -0.69915531643E+03 -0.19795934031E+04  0.21315159728E+04  0.50400001928E-02 0. -1.
       -1    1    3    3    0  502 -0.36844557828E+03  0.69915531643E+03  0.60857710349E+03  0.99746498262E+03  0.50400001928E-02 0.  1.
</event>
<event>
 5   0  0.4187518E-06  0.2911740E+04  0.7818609E-02  0.8269393E-01
       -2   -1    0    0    0  501  0.00000000000E+00  0.00000000000E+00  0.12088068322E+04  0.12088068322E+04  0.25500000920E-02 0.  1.
        2   -1    0    0  501    0  0.00000000000E+00  0.00000000000E+00 -0.17534289425E+04  0.17534289425E+04  0.25500000920E-02 0. -1.
    10030    2    1    2    0    0  0.00000000000E+00  0.00000000000E+00 -0.54462211036E+03  0.29622357747E+04  0.29117396075E+04 0.  0.
        3    1    3    3  502    0  0.99474790793E+03 -0.30679167775E+03  0.76313765639E+03  0.12907453764E+04  0.10100000352E+00 0.  1.
       -3    1    3    3    0  502 -0.99474790793E+03  0.30679167775E+03 -0.13077597667E+04  0.16714903983E+04  0.10100000352E+00 0. -1.
</event>
<event>
 5   0  0.4187518E-06  0.2893126E+04  0.7818609E-02  0.8274926E-01
        2   -1    0    0  501    0  0.00000000000E+00  0.00000000000E+00  0.20007653951E+04  0.20007653951E+04  0.25500000920E-02 0. -1.
       -2   -1    0    0    0  501  0.00000000000E+00  0.00000000000E+00 -0.10458717130E+04  0.10458717130E+04  0.25500000920E-02 0.  1.
    10030    2    1    2    0    0  0.00000000000E+00  0.00000000000E+00  0.95489368203E+03  0.30466371081E+04  0.28931255977E+04 0.  0.
        3    1    3    3  502    0 -0.92527463930E+03  0.43139745827E+03  0.15566707765E+04  0.18615748284E+04  0.10100000352E+00 0. -1.
       -3    1    3    3    0  502  0.92527463930E+03 -0.43139745827E+03 -0.60177709446E+03  0.11850622797E+04  0.10100000352E+00 0.  1.
</event>
<event>
 5   0  0.1602873E-06  0.2887410E+04  0.7818609E-02  0.8276633E-01
        1   -1    0    0  501    0  0.00000000000E+00  0.00000000000E+00  0.18022392048E+04  0.18022392048E+04  0.50400001928E-02 0.  1.
       -1   -1    0    0    0  501  0.00000000000E+00  0.00000000000E+00 -0.11564968302E+04  0.11564968302E+04  0.50400001928E-02 0. -1.
    10030    2    1    2    0    0  0.00000000000E+00  0.00000000000E+00  0.64574237458E+03  0.29587360350E+04  0.28874098619E+04 0.  0.
        1    1    3    3  502    0  0.33548022790E+03 -0.84438852992E+03 -0.82678149539E+03  0.12284570053E+04  0.50400001928E-02 0. -1.
       -1    1    3    3    0  502 -0.33548022790E+03  0.84438852992E+03  0.14725238700E+04  0.17302790297E+04  0.50400001928E-02 0.  1.
</event>
<event>
 5   0  0.1511126E-06  0.2891064E+04  0.7818609E-02  0.8275541E-01
        1   -1    0    0  501    0  0.00000000000E+00  0.00000000000E+00  0.13417043483E+04  0.13417043483E+04  0.50400001928E-02 0.  1.
       -1   -1    0    0    0  501  0.00000000000E+00  0.00000000000E+00 -0.15573941183E+04  0.15573941183E+04  0.50400001928E-02 0. -1.
    10030    2    1    2    0    0  0.00000000000E+00  0.00000000000E+00 -0.21568977000E+03  0.28990984666E+04  0.28910637907E+04 0.  0.
        5    1    3    3  502    0  0.22548679410E+03  0.90726920107E+03 -0.12134327291E+04  0.15318037654E+04  0.46999998093E+01 0. -1.
       -5    1    3    3    0  502 -0.22548679410E+03 -0.90726920107E+03  0.99774295909E+03  0.13672947012E+04  0.46999998093E+01 0.  1.
</event>
<event>
 5   0  0.4187518E-06  0.2890446E+04  0.7818609E-02  0.8275726E-01
       -2   -1    0    0    0  501  0.00000000000E+00  0.00000000000E+00  0.10620552568E+04  0.10620552568E+04  0.25500000920E-02 0.  1.
        2   -1    0    0  501    0  0.00000000000E+00  0.00000000000E+00 -0.19666298878E+04  0.19666298878E+04  0.25500000920E-02 0. -1.
    10030    2    1    2    0    0  0.00000000000E+00  0.00000000000E+00 -0.90457463099E+03  0.30286851446E+04  0.28904460628E+04 0.  0.
        3    1    3    3  502    0 -0.45040478723E+03  0.13235355562E+04 -0.68635855015E+02  0.13997577403E+04  0.10100000352E+00 0.  1.
       -3    1    3    3    0  502  0.45040478723E+03 -0.13235355562E+04 -0.83593877597E+03  0.16289274042E+04  0.10100000352E+00 0. -1.
</event>
<event>
 5   0  0.1511126E-06  0.2898192E+04  0.7818609E-02  0.8273416E-01
        1   -1    0    0  501    0  0.00000000000E+00  0.00000000000E+00  0.16069162931E+04  0.16069162931E+04  0.50400001928E-02 0.  1.
       -1   -1    0    0    0  501  0.00000000000E+00  0.00000000000E+00 -0.13067752899E+04  0.13067752899E+04  0.50400001928E-02 0. -1.
    10030    2    1    2    0    0  0.00000000000E+00  0.00000000000E+00  0.30014100322E+03  0.29136915830E+04  0.28981915084E+04 0.  0.
        5    1    3    3  502    0  0.93950758520E+03  0.10231463754E+04  0.56501681578E+03  0.14995896439E+04  0.46999998093E+01 0.  1.
       -5    1    3    3    0  502 -0.93950758520E+03 -0.10231463754E+04 -0.26487581256E+03  0.14141019391E+04  0.46999998093E+01 0. -1.
</event>
<event>
 5   0  0.4162450E-06  0.2915906E+04  0.7818609E-02  0.8268161E-01
        2   -1    0    0  501    0  0.00000000000E+00  0.00000000000E+00  0.12532866753E+04  0.12532866753E+04  0.25500000920E-02 0. -1.
       -2   -1    0    0    0  501  0.00000000000E+00  0.00000000000E+00 -0.16960425439E+04  0.16960425439E+04  0.25500000920E-02 0.  1.
    10030    2    1    2    0    0  0.00000000000E+00  0.00000000000E+00 -0.44275586862E+03  0.29493292192E+04  0.29159063915E+04 0.  0.
        2    1    3    3  502    0  0.16925996205E+03 -0.44074892097E+03  0.11738237767E+04  0.12652157148E+04  0.25500000920E-02 0. -1.
       -2    1    3    3    0  502 -0.16925996205E+03  0.44074892097E+03 -0.16165796454E+04  0.16841135044E+04  0.25500000920E-02 0.  1.
</event>
<event>
 5   0  0.1543678E-06  0.2935309E+04  0.7818609E-02  0.8262449E-01
        1   -1    0    0  501    0  0.00000000000E+00  0.00000000000E+00  0.17460865273E+04  0.17460865273E+04  0.50400001928E-02 0.  1.
       -1   -1    0    0    0  501  0.00000000000E+00  0.00000000000E+00 -0.12336213189E+04  0.12336213189E+04  0.50400001928E-02 0. -1.
    10030    2    1    2    0    0  0.00000000000E+00  0.00000000000E+00  0.51246520842E+03  0.29797078463E+04  0.29353088865E+04 0.  0.
        3    1    3    3  502    0  0.11253329971E+04 -0.48296340340E+03  0.10774069982E+04  0.16310836439E+04  0.10100000352E+00 0.  1.
       -3    1    3    3    0  502 -0.11253329971E+04  0.48296340340E+03 -0.56494178979E+03  0.13486242024E+04  0.10100000352E+00 0. -1.
</event>
<event>
 5   0  0.1543678E-06  0.2905596E+04  0.7818609E-02  0.8271214E-01
        1   -1    0    0  501    0  0.00000000000E+00  0.00000000000E+00  0.20000674903E+04  0.20000674903E+04  0.50400001928E-02 0.  1.
       -1   -1    0    0    0  501  0.00000000000E+00  0.00000000000E+00 -0.10552753305E+04  0.10552753306E+04  0.50400001928E-02 0. -1.
    10030    2    1    2    0    0  0.00000000000E+00  0.00000000000E+00  0.94479215974E+03  0.30553428208E+04  0.29055958989E+04 0.  0.
        3    1    3    3  502    0 -0.12347928182E+03  0.12699159522E+04  0.12029597637E+04  0.17535808684E+04  0.10100000352E+00 0.  1.
       -3    1    3    3    0  502  0.12347928182E+03 -0.12699159522E+04 -0.25816760400E+03  0.13017619524E+04  0.10100000352E+00 0. -1.
</event>
<event>
 5   0  0.1580212E-06  0.2913508E+04  0.7818609E-02  0.8268870E-01
       -1   -1    0    0    0  501  0.00000000000E+00  0.00000000000E+00  0.19678633447E+04  0.19678633447E+04  0.50400001928E-02 0. -1.
        1   -1    0    0  501    0  0.00000000000E+00  0.00000000000E+00 -0.10783940695E+04  0.10783940695E+04  0.50400001928E-02 0.  1.
    10030    2    1    2    0    0  0.00000000000E+00  0.00000000000E+00  0.88946927520E+03  0.30462574142E+04  0.29135079615E+04 0.  0.
        4    1    3    3  502    0 -0.13800364626E+04  0.60671294822E+01 -0.42988039620E+02  0.13807197517E+04  0.12699999809E+01 0.  1.
       -4    1    3    3    0  502  0.13800364626E+04 -0.60671294822E+01  0.93245731482E+03  0.16655376625E+04  0.12699999809E+01 0. -1.
</event>
<event>
 5   0  0.4224163E-06  0.2895519E+04  0.7818609E-02  0.8274212E-01
       -2   -1    0    0    0  501  0.00000000000E+00  0.00000000000E+00  0.10052395150E+04  0.10052395150E+04  0.25500000920E-02 0. -1.
        2   -1    0    0  501    0  0.00000000000E+00  0.00000000000E+00 -0.20850827205E+04  0.20850827205E+04  0.25500000920E-02 0.  1.
    10030    2    1    2    0    0  0.00000000000E+00  0.00000000000E+00 -0.10798432054E+04  0.30903222355E+04  0.28955189813E+04 0.  0.
        4    1    3    3  502    0  0.12897029890E+04  0.36517198822E+02  0.16102756568E+03  0.13002302856E+04  0.12699999809E+01 0. -1.
       -4    1    3    3    0  502 -0.12897029890E+04 -0.36517198822E+02 -0.12408707711E+04  0.17900919499E+04  0.12699999809E+01 0.  1.
</event>
<event>
 5   0  0.1511126E-06  0.2902268E+04  0.7818609E-02  0.8272203E-01
       -1   -1    0    0    0  501  0.00000000000E+00  0.00000000000E+00  0.11477401870E+04  0.11477401871E+04  0.50400001928E-02 0.  1.
        1   -1    0    0  501    0  0.00000000000E+00  0.00000000000E+00 -0.18347274988E+04  0.18347274988E+04  0.50400001928E-02 0. -1.
    10030    2    1    2    0    0  0.00000000000E+00  0.00000000000E+00 -0.68698731180E+03  0.29824676859E+04  0.29022684112E+04 0.  0.
        5    1    3    3  502    0  0.13070579626E+04 -0.52963720893E+03  0.77890812261E+01  0.14103187053E+04  0.46999998093E+01 0.  1.
       -5    1    3    3    0  502 -0.13070579626E+04  0.52963720893E+03 -0.69477639303E+03  0.15721489806E+04  0.46999998093E+01 0. -1.
</event>
<event>
 5   0  0.1511126E-06  0.2834181E+04  0.7818609E-02  0.8292734E-01
        1   -1    0    0  501    0  0.00000000000E+00  0.00000000000E+00  0.16980146238E+04  0.16980146239E+04  0.50400001928E-02 0. -1.
       -1   -1    0    0    0  501  0.00000000000E+00  0.00000000000E+00 -0.11826434151E+04  0.11826434151E+04  0.50400001928E-02 0.  1.
    10030    2    1    2    0    0  0.00000000000E+00  0.00000000000E+00  0.51537120875E+03  0.28806580390E+04  0.28341812318E+04 0.  0.
        5    1    3    3  502    0 -0.13837261762E+03  0.13905606806E+04  0.49673975418E+03  0.14830975899E+04  0.46999998093E+01 0. -1.
       -5    1    3    3    0  502  0.13837261762E+03 -0.13905606806E+04  0.18631454572E+02  0.13975604491E+04  0.46999998093E+01 0.  1.
</event>
<event>
 5   0  0.1580212E-06  0.2894482E+04  0.7818609E-02  0.8274521E-01
       -1   -1    0    0    0  501  0.00000000000E+00  0.00000000000E+00  0.77632031461E+03  0.77632031463E+03  0.50400001928E-02 0.  1.
        1   -1    0    0  501    0  0.00000000000E+00  0.00000000000E+00 -0.26979927880E+04  0.26979927880E+04  0.50400001928E-02 0. -1.
    10030    2    1    2    0    0  0.00000000000E+00  0.00000000000E+00 -0.19216724734E+04  0.34743131027E+04  0.28944820677E+04 0.  0.
        4    1    3    3  502    0  0.20311032748E+03 -0.86946851109E+03  0.40630767417E+03  0.98097749000E+03  0.12699999809E+01 0.  1.
       -4    1    3    3    0  502 -0.20311032748E+03  0.86946851109E+03 -0.23279801476E+04  0.24933356127E+04  0.12699999809E+01 0. -1.
</event>
<event>
 5   0  0.4162450E-06  0.2892861E+04  0.7818609E-02  0.8275005E-01
        2   -1    0    0  501    0  0.00000000000E+00  0.00000000000E+00  0.18994343586E+04  0.18994343586E+04  0.25500000920E-02 0.  1.
       -2   -1    0    0    0  501  0.00000000000E+00  0.00000000000E+00 -0.11014650268E+04  0.11014650268E+04  0.25500000920E-02 0. -1.
    10030    2    1    2    0    0  0.00000000000E+00  0.00000000000E+00  0.79796933182E+03  0.30008993854E+04  0.28928605336E+04 0.  0.
        2    1    3    3  502    0 -0.10924430571E+04  0.47402589875E+03  0.12506381927E+04  0.17269129320E+04  0.25500000920E-02 0.  1.
       -2    1    3    3    0  502  0.10924430571E+04 -0.47402589875E+03 -0.45266886083E+03  0.12739864534E+04  0.25500000920E-02 0. -1.
</event>
<event>
 5   0  0.4224163E-06  0.2911843E+04  0.7818609E-02  0.8269363E-01
       -2   -1    0    0    0  501  0.00000000000E+00  0.00000000000E+00  0.92103636182E+03  0.92103636183E+03  0.25500000920E-02 0. -1.
        2   -1    0    0  501    0  0.00000000000E+00  0.00000000000E+00 -0.23014364859E+04  0.23014364859E+04  0.25500000920E-02 0.  1.
    10030    2    1    2    0    0  0.00000000000E+00  0.00000000000E+00 -0.13804001241E+04  0.32224728477E+04  0.29118425012E+04 0.  0.
        4    1    3    3  502    0  0.81964687795E+03 -0.10577271619E+04 -0.55331882953E+02  0.13392800244E+04  0.12699999809E+01 0.  1.
       -4    1    3    3    0  502 -0.81964687795E+03  0.10577271619E+04 -0.13250682411E+04  0.18831928234E+04  0.12699999809E+01 0. -1.
</event>
<event>
 5   0  0.4224163E-06  0.2899812E+04  0.7818609E-02  0.8272933E-01
       -2   -1    0    0    0  501  0.00000000000E+00  0.00000000000E+00  0.11919527362E+04  0.11919527362E+04  0.25500000920E-02 0.  1.
        2   -1    0    0  501    0  0.00000000000E+00  0.00000000000E+00 -0.17636833013E+04  0.17636833013E+04  0.25500000920E-02 0. -1.
    10030    2    1    2    0    0  0.00000000000E+00  0.00000000000E+00 -0.57173056505E+03  0.29556360375E+04  0.28998118124E+04 0.  0.
        4    1    3    3  502    0 -0.34105737205E+03  0.74661923862E+03 -0.15040578811E+04  0.17134620337E+04  0.12699999809E+01 0. -1.
       -4    1    3    3    0  502  0.34105737205E+03 -0.74661923862E+03  0.93232731604E+03  0.12421740038E+04  0.12699999809E+01 0.  1.
</event>
<event>
 5   0  0.1580212E-06  0.2898254E+04  0.7818609E-02  0.8273397E-01
        1   -1    0    0  501    0  0.00000000000E+00  0.00000000000E+00  0.17389533525E+04  0.17389533525E+04  0.50400001928E-02 0. -1.
       -1   -1    0    0    0  501  0.00000000000E+00  0.00000000000E+00 -0.12076052026E+04  0.12076052026E+04  0.50400001928E-02 0.  1.
    10030    2    1    2    0    0  0.00000000000E+00  0.00000000000E+00  0.53134814988E+03  0.29465585551E+04  0.28982540368E+04 0.  0.
        4    1    3    3  502    0 -0.14064326920E+04  0.31200618328E+03  0.42502415165E+03  0.15020146197E+04  0.12699999809E+01 0. -1.
       -4    1    3    3    0  502  0.14064326920E+04 -0.31200618328E+03  0.10632399823E+03  0.14445439353E+04  0.12699999809E+01 0.  1.
</event>
<event>
 5   0  0.4162450E-06  0.2904956E+04  0.7818609E-02  0.8271405E-01
        2   -1    0    0  501    0  0.00000000000E+00  0.00000000000E+00  0.21583391398E+04  0.21583391398E+04  0.25500000920E-02 0.  1.
       -2   -1    0    0    0  501  0.00000000000E+00  0.00000000000E+00 -0.97746073892E+03  0.97746073893E+03  0.25500000920E-02 0. -1.
    10030    2    1    2    0    0  0.00000000000E+00  0.00000000000E+00  0.11808784009E+04  0.31357998788E+04  0.29049556076E+04 0.  0.
        2    1    3    3  502    0 -0.25485663552E+02  0.14241080559E+04  0.89758180049E+03  0.16835635903E+04  0.25500000920E-02 0.  1.
       -2    1    3    3    0  502  0.25485663552E+02 -0.14241080559E+04  0.28329660041E+03  0.14522362885E+04  0.25500000920E-02 0. -1.
</event>
<event>
 5   0  0.4224163E-06  0.2885025E+04  0.7818609E-02  0.8277347E-01
       -2   -1    0    0    0  501  0.00000000000E+00  0.00000000000E+00  0.94883587992E+03  0.94883587992E+03  0.25500000920E-02 0.  1.
        2   -1    0    0  501    0  0.00000000000E+00  0.00000000000E+00 -0.21930478607E+04  0.21930478607E+04  0.25500000920E-02 0. -1.
    10030    2    1    2    0    0  0.00000000000E+00  0.00000000000E+00 -0.12442119808E+04  0.31418837407E+04  0.28850251276E+04 0.  0.
        4    1    3    3  502    0 -0.73394565604E+03 -0.12286543785E+04 -0.81865456410E+03  0.16487767332E+04  0.12699999809E+01 0.  1.
       -4    1    3    3    0  502  0.73394565604E+03  0.12286543785E+04 -0.42555741673E+03  0.14931070074E+04  0.12699999809E+01 0. -1.
</event>
<event>
 5   0  0.4148677E-06  0.2895791E+04  0.7818609E-02  0.8274131E-01
        2   -1    0    0  501    0  0.00000000000E+00  0.00000000000E+00  0.16242880272E+04  0.16242880272E+04  0.25500000920E-02 0. -1.
       -2   -1    0    0    0  501  0.00000000000E+00  0.00000000000E+00 -0.12906586021E+04  0.12906586021E+04  0.25500000920E-02 0.  1.
    10030    2    1    2    0    0  0.00000000000E+00  0.00000000000E+00  0.33362942508E+03  0.29149466292E+04  0.28957909555E+04 0.  0.
        5    1    3    3  502    0 -0.29126830315E+03  0.14071289116E+04 -0.11927423730E+02  0.14370154319E+04  0.46999998093E+01 0.  1.
       -5    1    3    3    0  502  0.29126830315E+03 -0.14071289116E+04  0.34555684881E+03  0.14779311973E+04  0.46999998093E+01 0. -1.
</event>
<event>
 5   0  0.1550278E-06  0.2871054E+04  0.7818609E-02  0.8281542E-01
        1   -1    0    0  501    0  0.00000000000E+00  0.00000000000E+00  0.11413522788E+04  0.11413522788E+04  0.50400001928E-02 0.  1.
       -1   -1    0    0    0  501  0.00000000000E+00  0.00000000000E+00 -0.18055226659E+04  0.18055226659E+04  0.50400001928E-02 0. -1.
    10030    2    1    2    0    0  0.00000000000E+00  0.00000000000E+00 -0.66417038708E+03  0.29468749447E+04  0.28710537503E+04 0.  0.
        2    1    3    3  502    0 -0.85912622848E+03 -0.31791432508E+03  0.80234967036E+03  0.12177571138E+04  0.25500000920E-02 0.  1.
       -2    1    3    3    0  502  0.85912622848E+03  0.31791432508E+03 -0.14665200574E+04  0.17291178310E+04  0.25500000920E-02 0. -1.
</event>
<event>
 5   0  0.4148677E-06  0.2922900E+04  0.7818609E-02  0.8266096E-01
        2   -1    0    0  501    0  0.00000000000E+00  0.00000000000E+00  0.92744263291E+03  0.92744263292E+03  0.25500000920E-02 0. -1.
       -2   -1    0    0    0  501  0.00000000000E+00  0.00000000000E+00 -0.23029308671E+04  0.23029308671E+04  0.25500000920E-02 0.  1.
    10030    2    1    2    0    0  0.00000000000E+00  0.00000000000E+00 -0.13754882342E+04  0.32303735001E+04  0.29229001125E+04 0.  0.
        5    1    3    3  502    0  0.21501790556E+03  0.12630118817E+04  0.89344046102E+02  0.12843037653E+04  0.46999998093E+01 0. -1.
       -5    1    3    3    0  502 -0.21501790556E+03 -0.12630118817E+04 -0.14648322803E+04  0.19460697348E+04  0.46999998093E+01 0.  1.
</event>
<event>
 5   0  0.1360125E-06  0.2849310E+04  0.7818609E-02  0.8288121E-01
       -3   -1    0    0    0  501  0.00000000000E+00  0.00000000000E+00  0.14514363681E+04  0.14514363716E+04  0.10100000352E+00 0.  1.
        3   -1    0    0  501    0  0.00000000000E+00  0.00000000000E+00 -0.13983678127E+04  0.13983678163E+04  0.10100000352E+00 0. -1.
    10030    2    1    2    0    0  0.00000000000E+00  0.00000000000E+00  0.53068555387E+02  0.28498041879E+04  0.28493100284E+04 0.  0.
        1    1    3    3  502    0  0.19038421848E+03  0.12092359022E+04  0.75545714170E+03  0.14384759681E+04  0.50400001928E-02 0.  1.
       -1    1    3    3    0  502 -0.19038421848E+03 -0.12092359022E+04 -0.70238858632E+03  0.14113282198E+04  0.50400001928E-02 0. -1.
</event>
<event>
 5   0  0.1550278E-06  0.2907303E+04  0.7818609E-02  0.8270708E-01
       -1   -1    0    0    0  501  0.00000000000E+00  0.00000000000E+00  0.12703210524E+04  0.12703210525E+04  0.50400001928E-02 0.  1.
        1   -1    0    0  501    0  0.00000000000E+00  0.00000000000E+00 -0.16634396979E+04  0.16634396979E+04  0.50400001928E-02 0. -1.
    10030    2    1    2    0    0  0.00000000000E+00  0.00000000000E+00 -0.39311864550E+03  0.29337607504E+04  0.29073028516E+04 0.  0.
        2    1    3    3  502    0 -0.14214181808E+04  0.15193322137E+03  0.69638862061E+02  0.14312102989E+04  0.25500000920E-02 0. -1.
       -2    1    3    3    0  502  0.14214181808E+04 -0.15193322137E+03 -0.46275750756E+03  0.15025504515E+04  0.25500000920E-02 0.  1.
</event>
<event>
 5   0  0.4115143E-06  0.2923645E+04  0.7818609E-02  0.8265877E-01
       -2   -1    0    0    0  501  0.00000000000E+00  0.00000000000E+00  0.15903698311E+04  0.15903698311E+04  0.25500000920E-02 0. -1.
        2   -1    0    0  501    0  0.00000000000E+00  0.00000000000E+00 -0.13436656608E+04  0.13436656608E+04  0.25500000920E-02 0.  1.
    10030    2    1    2    0    0  0.00000000000E+00  0.00000000000E+00  0.24670417034E+03  0.29340354919E+04  0.29236452110E+04 0.  0.
        1    1    3    3  502    0 -0.16973795240E+03  0.12220864323E+04  0.91011471518E+03  0.15331715544E+04  0.50400001928E-02 0. -1.
       -1    1    3    3    0  502  0.16973795240E+03 -0.12220864323E+04 -0.66341054483E+03  0.14008639375E+04  0.50400001928E-02 0.  1.
</event>
<event>
 5   0  0.1580212E-06  0.2883062E+04  0.7818609E-02  0.8277935E-01
       -1   -1    0    0    0  501  0.00000000000E+00  0.00000000000E+00  0.93546351296E+03  0.93546351297E+03  0.50400001928E-02 0. -1.
        1   -1    0    0  501    0  0.00000000000E+00  0.00000000000E+00 -0.22213710343E+04  0.22213710343E+04  0.50400001928E-02 0.  1.
    10030    2    1    2    0    0  0.00000000000E+00  0.00000000000E+00 -0.12859075213E+04  0.31568345473E+04  0.28830619496E+04 0.  0.
        4    1    3    3  502    0  0.66508561240E+03 -0.18142444276E+03 -0.20291719216E+04  0.21430804933E+04  0.12699999809E+01 0.  1.
       -4    1    3    3    0  502 -0.66508561240E+03  0.18142444276E+03  0.74326440032E+03  0.10137540540E+04  0.12699999809E+01 0. -1.
</event>
<event>
 5   0  0.4187518E-06  0.2901998E+04  0.7818609E-02  0.8272283E-01
        2   -1    0    0  501    0  0.00000000000E+00  0.00000000000E+00  0.27524400914E+04  0.27524400914E+04  0.25500000920E-02 0. -1.
       -2   -1    0    0    0  501  0.00000000000E+00  0.00000000000E+00 -0.76492032984E+03  0.76492032984E+03  0.25500000920E-02 0.  1.
    10030    2    1    2    0    0  0.00000000000E+00  0.00000000000E+00  0.19875197616E+04  0.35173604212E+04  0.29019975069E+04 0.  0.
        3    1    3    3  502    0 -0.27803634495E+03  0.50071978427E+03  0.26096398958E+04  0.26717494095E+04  0.10100000352E+00 0. -1.
       -3    1    3    3    0  502  0.27803634495E+03 -0.50071978427E+03 -0.62212013424E+03  0.84561101170E+03  0.10100000352E+00 0.  1.
</event>
<event>
 5   0  0.1511126E-06  0.2889303E+04  0.7818609E-02  0.8276067E-01
        1   -1    0    0  501    0  0.00000000000E+00  0.00000000000E+00  0.18727187360E+04  0.18727187360E+04  0.50400001928E-02 0.  1.
       -1   -1    0    0    0  501  0.00000000000E+00  0.00000000000E+00 -0.11144319299E+04  0.11144319299E+04  0.50400001928E-02 0. -1.
    10030    2    1    2    0    0  0.00000000000E+00  0.00000000000E+00  0.75828680605E+03  0.29871506659E+04  0.28893027222E+04 0.  0.
        5    1    3    3  502    0 -0.13223629094E+04 -0.58123365766E+03  0.35558496481E+03  0.14875950344E+04  0.46999998093E+01 0. -1.
       -5    1    3    3    0  502  0.13223629094E+04  0.58123365766E+03  0.40270184124E+03  0.14995556315E+04  0.46999998093E+01 0.  1.
</event>
<event>
 5   0  0.1543678E-06  0.2892875E+04  0.7818609E-02  0.8275000E-01
       -1   -1    0    0    0  501  0.00000000000E+00  0.00000000000E+00  0.11947253744E+04  0.11947253744E+04  0.50400001928E-02 0.  1.
        1   -1    0    0  501    0  0.00000000000E+00  0.00000000000E+00 -0.17511822558E+04  0.17511822558E+04  0.50400001928E-02 0. -1.
    10030    2    1    2    0    0  0.00000000000E+00  0.00000000000E+00 -0.55645688137E+03  0.29459076302E+04  0.28928753006E+04 0.  0.
        3    1    3    3  502    0 -0.39014309278E+03  0.28048273242E+03  0.11110764418E+04  0.12105259459E+04  0.10100000352E+00 0.  1.
       -3    1    3    3    0  502  0.39014309278E+03 -0.28048273242E+03 -0.16675333232E+04  0.17353816843E+04  0.10100000352E+00 0. -1.
</event>
<event>
 5   0  0.4162450E-06  0.2900163E+04  0.7818609E-02  0.8272829E-01
        2   -1    0    0  501    0  0.00000000000E+00  0.00000000000E+00  0.20598578705E+04  0.20598578705E+04  0.25500000920E-02 0. -1.
       -2   -1    0    0    0  501  0.00000000000E+00  0.00000000000E+00 -0.10208161770E+04  0.10208161770E+04  0.25500000920E-02 0.  1.
    10030    2    1    2    0    0  0.00000000000E+00  0.00000000000E+00  0.10390416935E+04  0.30806740475E+04  0.29001629172E+04 0.  0.
        2    1    3    3  502    0  0.13015081064E+03  0.14098798035E+04  0.85211607916E+03  0.16525138747E+04  0.25500000920E-02 0. -1.
       -2    1    3    3    0  502 -0.13015081064E+03 -0.14098798035E+04  0.18692561432E+03  0.14281601728E+04  0.25500000920E-02 0.  1.
</event>
<event>
 5   0  0.4148677E-06  0.2868944E+04  0.7818609E-02  0.8282178E-01
       -2   -1    0    0    0  501  0.00000000000E+00  0.00000000000E+00  0.11462348857E+04  0.11462348857E+04  0.25500000920E-02 0.  1.
        2   -1    0    0  501    0  0.00000000000E+00  0.00000000000E+00 -0.17951910048E+04  0.17951910048E+04  0.25500000920E-02 0. -1.
    10030    2    1    2    0    0  0.00000000000E+00  0.00000000000E+00 -0.64895611911E+03  0.29414258906E+04  0.28689444444E+04 0.  0.
        5    1    3    3  502    0 -0.11286215491E+04 -0.42125756926E+03 -0.11228974900E+04  0.16468653266E+04  0.46999998093E+01 0. -1.
       -5    1    3    3    0  502  0.11286215491E+04  0.42125756926E+03  0.47394137087E+03  0.12945605640E+04  0.46999998093E+01 0.  1.
</event>
<event>
 5   0  0.1580212E-06  0.2915367E+04  0.7818609E-02  0.8268320E-01
       -1   -1    0    0    0  501  0.00000000000E+00  0.00000000000E+00  0.10600698048E+04  0.10600698048E+04  0.50400001928E-02 0. -1.
        1   -1    0    0  501    0  0.00000000000E+00  0.00000000000E+00 -0.20044358233E+04  0.20044358233E+04  0.50400001928E-02 0.  1.
    10030    2    1    2    0    0  0.00000000000E+00  0.00000000000E+00 -0.94436601846E+03  0.30645056281E+04  0.29153674842E+04 0.  0.
        4    1    3    3  502    0  0.99748295577E+03 -0.27675009918E+03 -0.15509769623E+04  0.18646967622E+04  0.12699999809E+01 0.  1.
       -4    1    3    3    0  502 -0.99748295577E+03  0.27675009918E+03  0.60661094389E+03  0.11998088659E+04  0.12699999809E+01 0. -1.
</event>
<event>
 5   0  0.4224163E-06  0.2874995E+04  0.7818609E-02  0.8280356E-01
       -2   -1    0    0    0  501  0.00000000000E+00  0.00000000000E+00  0.13147785200E+04  0.13147785200E+04  0.25500000920E-02 0. -1.
        2   -1    0    0  501    0  0.00000000000E+00  0.00000000000E+00 -0.15716710663E+04  0.15716710663E+04  0.25500000920E-02 0.  1.
    10030    2    1    2    0    0  0.00000000000E+00  0.00000000000E+00 -0.25689254634E+03  0.28864495863E+04  0.28749952059E+04 0.  0.
        4    1    3    3  502    0 -0.66571363613E+03  0.11398319009E+04  0.44303710678E+03  0.13923630628E+04  0.12699999809E+01 0.  1.
       -4    1    3    3    0  502  0.66571363613E+03 -0.11398319009E+04 -0.69992965311E+03  0.14940865236E+04  0.12699999809E+01 0. -1.
</event>
<event>
 5   0  0.1511126E-06  0.2893754E+04  0.7818609E-02  0.8274738E-01
       -1   -1    0    0    0  501  0.00000000000E+00  0.00000000000E+00  0.13692546606E+04  0.13692546606E+04  0.50400001928E-02 0. -1.
        1   -1    0    0  501    0  0.00000000000E+00  0.00000000000E+00 -0.15289002349E+04  0.15289002349E+04  0.50400001928E-02 0.  1.
    10030    2    1    2    0    0  0.00000000000E+00  0.00000000000E+00 -0.15964557429E+03  0.28981548956E+04  0.28937544971E+04 0.  0.
        5    1    3    3  502    0 -0.58220208691E+03 -0.54812314511E+03  0.11278439529E+04  0.13825528288E+04  0.46999998093E+01 0. -1.
       -5    1    3    3    0  502  0.58220208691E+03  0.54812314511E+03 -0.12874895272E+04  0.15156020668E+04  0.46999998093E+01 0.  1.
</event>
<event>
 5   0  0.4162450E-06  0.2900934E+04  0.7818609E-02  0.8272600E-01
       -2   -1    0    0    0  501  0.00000000000E+00  0.00000000000E+00  0.13206493610E+04  0.13206493610E+04  0.25500000920E-02 0. -1.
        2   -1    0    0  501    0  0.00000000000E+00  0.00000000000E+00 -0.15930455124E+04  0.15930455125E+04  0.25500000920E-02 0.  1.
    10030    2    1    2    0    0  0.00000000000E+00  0.00000000000E+00 -0.27239615144E+03  0.29136948735E+04  0.29009340138E+04 0.  0.
        2    1    3    3  502    0 -0.14211190392E+04 -0.48656668455E+02  0.15125615130E+03  0.14299738523E+04  0.25500000920E-02 0. -1.
       -2    1    3    3    0  502  0.14211190392E+04  0.48656668455E+02 -0.42365230274E+03  0.14837210212E+04  0.25500000920E-02 0.  1.
</event>
<event>
 5   0  0.4187518E-06  0.2915588E+04  0.7818609E-02  0.8268255E-01
       -2   -1    0    0    0  501  0.00000000000E+00  0.00000000000E+00  0.10008947457E+04  0.10008947457E+04  0.25500000920E-02 0. -1.
        2   -1    0    0  501    0  0.00000000000E+00  0.00000000000E+00 -0.21232636128E+04  0.21232636128E+04  0.25500000920E-02 0.  1.
    10030    2    1    2    0    0  0.00000000000E+00  0.00000000000E+00 -0.11223688671E+04  0.31241583585E+04  0.29155880325E+04 0.  0.
        3    1    3    3  502    0  0.78450224011E+03 -0.70650936930E+03  0.51599690250E+03  0.11750966204E+04  0.10100000352E+00 0. -1.
       -3    1    3    3    0  502 -0.78450224011E+03  0.70650936930E+03 -0.16383657696E+04  0.19490617381E+04  0.10100000352E+00 0.  1.
</event>
<event>
 5   0  0.1580212E-06  0.2877892E+04  0.7818609E-02  0.8279486E-01
        1   -1    0    0  501    0  0.00000000000E+00  0.00000000000E+00  0.20325957042E+04  0.20325957042E+04  0.50400001928E-02 0. -1.
       -1   -1    0    0    0  501  0.00000000000E+00  0.00000000000E+00 -0.10186806100E+04  0.10186806101E+04  0.50400001928E-02 0.  1.
    10030    2    1    2    0    0  0.00000000000E+00  0.00000000000E+00  0.10139150942E+04  0.30512763143E+04  0.28778921675E+04 0.  0.
        4    1    3    3  502    0  0.11059477339E+04  0.31343970523E+03  0.14246680990E+04  0.18305861477E+04  0.12699999809E+01 0. -1.
       -4    1    3    3    0  502 -0.11059477339E+04 -0.31343970523E+03 -0.41075300479E+03  0.12206901666E+04  0.12699999809E+01 0.  1.
</event>
<event>
 5   0  0.1511126E-06  0.2896568E+04  0.7818609E-02  0.8273899E-01
       -1   -1    0    0    0  501  0.00000000000E+00  0.00000000000E+00  0.27117114915E+04  0.27117114916E+04  0.50400001928E-02 0.  1.
        1   -1    0    0  501    0  0.00000000000E+00  0.00000000000E+00 -0.77350669128E+03  0.77350669130E+03  0.50400001928E-02 0. -1.
    10030    2    1    2    0    0  0.00000000000E+00  0.00000000000E+00  0.19382048003E+04  0.34852181828E+04  0.28965683031E+04 0.  0.
        5    1    3    3  502    0  0.12162733819E+04  0.28013189331E+03  0.18530498768E+04  0.22341912973E+04  0.46999998093E+01 0.  1.
       -5    1    3    3    0  502 -0.12162733819E+04 -0.28013189331E+03  0.85154923480E+02  0.12510268855E+04  0.46999998093E+01 0. -1.
</event>
<event>
 5   0  0.4187518E-06  0.2868273E+04  0.7818609E-02  0.8282380E-01
       -2   -1    0    0    0  501  0.00000000000E+00  0.00000000000E+00  0.13264707512E+04  0.13264707512E+04  0.25500000920E-02 0.  1.
        2   -1    0    0  501    0  0.00000000000E+00  0.00000000000E+00 -0.15505412086E+04  0.15505412086E+04  0.25500000920E-02 0. -1.
    10030    2    1    2    0    0  0.00000000000E+00  0.00000000000E+00 -0.22407045745E+03  0.28770119599E+04  0.28682730427E+04 0.  0.
        3    1    3    3  502    0 -0.11048101267E+04 -0.30791056627E+03  0.75159514217E+03  0.13712438152E+04  0.10100000352E+00 0.  1.
       -3    1    3    3    0  502  0.11048101267E+04  0.30791056627E+03 -0.97566559961E+03  0.15057681446E+04  0.10100000352E+00 0. -1.
</event>
<event>
 5   0  0.4187518E-06  0.2860748E+04  0.7818609E-02  0.8284653E-01
       -2   -1    0    0    0  501  0.00000000000E+00  0.00000000000E+00  0.15870579508E+04  0.15870579508E+04  0.25500000920E-02 0.  1.
        2   -1    0    0  501    0  0.00000000000E+00  0.00000000000E+00 -0.12891586568E+04  0.12891586568E+04  0.25500000920E-02 0. -1.
    10030    2    1    2    0    0  0.00000000000E+00  0.00000000000E+00  0.29789929399E+03  0.28762166077E+04  0.28607478017E+04 0.  0.
        3    1    3    3  502    0 -0.89557174656E+03  0.89594357437E+03 -0.51887531027E+03  0.13689394579E+04  0.10100000352E+00 0. -1.
       -3    1    3    3    0  502  0.89557174656E+03 -0.89594357437E+03  0.81677460426E+03  0.15072771497E+04  0.10100000352E+00 0.  1.
</event>
<event>
 5   0  0.4162450E-06  0.2917203E+04  0.7818609E-02  0.8267777E-01
       -2   -1    0    0    0  501  0.00000000000E+00  0.00000000000E+00  0.80827727207E+03  0.80827727207E+03  0.25500000920E-02 0. -1.
        2   -1    0    0  501    0  0.00000000000E+00  0.00000000000E+00 -0.26321639791E+04  0.26321639791E+04  0.25500000920E-02 0.  1.
    10030    2    1    2    0    0  0.00000000000E+00  0.00000000000E+00 -0.18238867070E+04  0.34404412512E+04  0.29172029896E+04 0.  0.
        2    1    3    3  502    0  0.87672229635E+03 -0.69464947739E+03  0.19209313521E+03  0.11349359691E+04  0.25500000920E-02 0. -1.
       -2    1    3    3    0  502 -0.87672229635E+03  0.69464947739E+03 -0.20159798423E+04  0.23055052821E+04  0.25500000920E-02 0.  1.
</event>
<event>
 5   0  0.1602873E-06  0.2854051E+04  0.7818609E-02  0.8286681E-01
       -1   -1    0    0    0  501  0.00000000000E+00  0.00000000000E+00  0.13371247533E+04  0.13371247533E+04  0.50400001928E-02 0. -1.
        1   -1    0    0  501    0  0.00000000000E+00  0.00000000000E+00 -0.15229710093E+04  0.15229710093E+04  0.50400001928E-02 0.  1.
    10030    2    1    2    0    0  0.00000000000E+00  0.00000000000E+00 -0.18584625596E+03  0.28600957627E+04  0.28540513206E+04 0.  0.
        1    1    3    3  502    0 -0.10886512707E+04  0.15411607719E+03  0.81866755906E+03  0.13708136003E+04  0.50400001928E-02 0. -1.
       -1    1    3    3    0  502  0.10886512707E+04 -0.15411607719E+03 -0.10045138150E+04  0.14892821624E+04  0.50400001928E-02 0.  1.
</event>
<event>
 5   0  0.4224163E-06  0.2878188E+04  0.7818609E-02  0.8279397E-01
        2   -1    0    0  501    0  0.00000000000E+00  0.00000000000E+00  0.15205422800E+04  0.15205422800E+04  0.25500000920E-02 0.  1.
       -2   -1    0    0    0  501  0.00000000000E+00  0.00000000000E+00 -0.13620085717E+04  0.13620085717E+04  0.25500000920E-02 0. -1.
    10030    2    1    2    0    0  0.00000000000E+00  0.00000000000E+00  0.15853370824E+03  0.28825508517E+04  0.28781880543E+04 0.  0.
        4    1    3    3  502    0  0.12687901247E+04  0.61153288163E+03  0.37499254756E+03  0.14575396631E+04  0.12699999809E+01 0. -1.
       -4    1    3    3    0  502 -0.12687901247E+04 -0.61153288163E+03 -0.21645883932E+03  0.14250111886E+04  0.12699999809E+01 0.  1.
</event>
<event>
 5   0  0.4187518E-06  0.2914713E+04  0.7818609E-02  0.8268513E-01
        2   -1    0    0  501    0  0.00000000000E+00  0.00000000000E+00  0.26703794897E+04  0.26703794897E+04  0.25500000920E-02 0. -1.
       -2   -1    0    0    0  501  0.00000000000E+00  0.00000000000E+00 -0.79535067681E+03  0.79535067681E+03  0.25500000920E-02 0.  1.
    10030    2    1    2    0    0  0.00000000000E+00  0.00000000000E+00  0.18750288129E+04  0.34657301666E+04  0.29147131142E+04 0.  0.
        3    1    3    3  502    0  0.83617153306E+03 -0.32968555652E+03 -0.42653146664E+03  0.99488919037E+03  0.10100000352E+00 0.  1.
       -3    1    3    3    0  502 -0.83617153306E+03  0.32968555652E+03  0.23015602796E+04  0.24708409762E+04  0.10100000352E+00 0. -1.
</event>
<event>
 5   0  0.1550278E-06  0.3114128E+04  0.7818609E-02  0.8211871E-01
        1   -1    0    0  501    0  0.00000000000E+00  0.00000000000E+00  0.11257394848E+04  0.11257394848E+04  0.50400001928E-02 0. -1.
       -1   -1    0    0    0  501  0.00000000000E+00  0.00000000000E+00 -0.21536497704E+04  0.21536497704E+04  0.50400001928E-02 0.  1.
    10030    2    1    2    0    0  0.00000000000E+00  0.00000000000E+00 -0.10279102855E+04  0.32793892552E+04  0.31141281817E+04 0.  0.
        2    1    3    3  502    0  0.13136966152E+04  0.79231381813E+01  0.36621521345E+03  0.13638090612E+04  0.25500000920E-02 0. -1.
       -2    1    3    3    0  502 -0.13136966152E+04 -0.79231381813E+01 -0.13941254990E+04  0.19155801940E+04  0.25500000920E-02 0.  1.
</event>
<event>
 5   0  0.1602873E-06  0.2887915E+04  0.7818609E-02  0.8276482E-01
        1   -1    0    0  501    0  0.00000000000E+00  0.00000000000E+00  0.11854194349E+04  0.11854194349E+04  0.50400001928E-02 0. -1.
       -1   -1    0    0    0  501  0.00000000000E+00  0.00000000000E+00 -0.17588828260E+04  0.17588828260E+04  0.50400001928E-02 0.  1.
    10030    2    1    2    0    0  0.00000000000E+00  0.00000000000E+00 -0.57346339115E+03  0.29443022609E+04  0.28879154321E+04 0.  0.
        1    1    3    3  502    0  0.35160936093E+03  0.12287080705E+04  0.39844774471E+03  0.13386983493E+04  0.50400001928E-02 0. -1.
       -1    1    3    3    0  502 -0.35160936093E+03 -0.12287080705E+04 -0.97191113585E+03  0.16056039117E+04  0.50400001928E-02 0.  1.
</event>
<event>
 5   0  0.4115143E-06  0.2896150E+04  0.7818609E-02  0.8274024E-01
        2   -1    0    0  501    0  0.00000000000E+00  0.00000000000E+00  0.18868071382E+04  0.18868071382E+04  0.25500000920E-02 0. -1.
       -2   -1    0    0    0  501  0.00000000000E+00  0.00000000000E+00 -0.11113596820E+04  0.11113596820E+04  0.25500000920E-02 0.  1.
    10030    2    1    2    0    0  0.00000000000E+00  0.00000000000E+00  0.77544745623E+03  0.29981668202E+04  0.28961501212E+04 0.  0.
        1    1    3    3  502    0 -0.79052221056E+03  0.25303295690E+03 -0.84065270807E+03  0.11813754773E+04  0.50400001928E-02 0.  1.
       -1    1    3    3    0  502  0.79052221056E+03 -0.25303295690E+03  0.16161001643E+04  0.18167913429E+04  0.50400001928E-02 0. -1.
</event>
<event>
 5   0  0.1511126E-06  0.2783256E+04  0.7818609E-02  0.8308486E-01
       -1   -1    0    0    0  501  0.00000000000E+00  0.00000000000E+00  0.69165451434E+03  0.69165451436E+03  0.50400001928E-02 0. -1.
        1   -1    0    0  501    0  0.00000000000E+00  0.00000000000E+00 -0.27999942687E+04  0.27999942687E+04  0.50400001928E-02 0.  1.
    10030    2    1    2    0    0  0.00000000000E+00  0.00000000000E+00 -0.21083397544E+04  0.34916487831E+04  0.27832561335E+04 0.  0.
        5    1    3    3  502    0 -0.45724155992E+03  0.12404288994E+04 -0.15993778371E+04  0.20750337960E+04  0.46999998093E+01 0.  1.
       -5    1    3    3    0  502  0.45724155992E+03 -0.12404288994E+04 -0.50896191731E+03  0.14166149872E+04  0.46999998093E+01 0. -1.
</event>
<event>
 5   0  0.1602873E-06  0.2896212E+04  0.7818609E-02  0.8274006E-01
       -1   -1    0    0    0  501  0.00000000000E+00  0.00000000000E+00  0.83446194971E+03  0.83446194973E+03  0.50400001928E-02 0. -1.
        1   -1    0    0  501    0  0.00000000000E+00  0.00000000000E+00 -0.25130090968E+04  0.25130090968E+04  0.50400001928E-02 0.  1.
    10030    2    1    2    0    0  0.00000000000E+00  0.00000000000E+00 -0.16785471471E+04  0.33474710466E+04  0.28962116432E+04 0.  0.
        1    1    3    3  502    0  0.11717959707E+04  0.50545918868E+03 -0.48226647130E+02  0.12770750165E+04  0.50400001928E-02 0. -1.
       -1    1    3    3    0  502 -0.11717959707E+04 -0.50545918868E+03 -0.16303205000E+04  0.20703960300E+04  0.50400001928E-02 0.  1.
</event>
<event>
 5   0  0.4187518E-06  0.2900081E+04  0.7818609E-02  0.8272853E-01
       -2   -1    0    0    0  501  0.00000000000E+00  0.00000000000E+00  0.93599159584E+03  0.93599159584E+03  0.25500000920E-02 0. -1.
        2   -1    0    0  501    0  0.00000000000E+00  0.00000000000E+00 -0.22464058437E+04  0.22464058437E+04  0.25500000920E-02 0.  1.
    10030    2    1    2    0    0  0.00000000000E+00  0.00000000000E+00 -0.13104142479E+04  0.31823974396E+04  0.29000806820E+04 0.  0.
        3    1    3    3  502    0  0.65064384131E+03 -0.18235972009E+03 -0.20630768950E+04  0.21709165716E+04  0.10100000352E+00 0.  1.
       -3    1    3    3    0  502 -0.65064384131E+03  0.18235972009E+03  0.75266264713E+03  0.10114808680E+04  0.10100000352E+00 0. -1.
</event>
<event>
 5   0  0.1602873E-06  0.2846828E+04  0.7818609E-02  0.8288876E-01
       -1   -1    0    0    0  501  0.00000000000E+00  0.00000000000E+00  0.25144891539E+04  0.25144891539E+04  0.50400001928E-02 0. -1.
        1   -1    0    0  501    0  0.00000000000E+00  0.00000000000E+00 -0.80577305200E+03  0.80577305201E+03  0.50400001928E-02 0.  1.
    10030    2    1    2    0    0  0.00000000000E+00  0.00000000000E+00  0.17087161019E+04  0.33202622059E+04  0.28468281295E+04 0.  0.
        1    1    3    3  502    0  0.13677902540E+04 -0.24951365850E+03  0.49868297164E+03  0.14770890125E+04  0.50400001928E-02 0.  1.
       -1    1    3    3    0  502 -0.13677902540E+04  0.24951365850E+03  0.12100331302E+04  0.18431731934E+04  0.50400001928E-02 0. -1.
</event>
<event>
 5   0  0.1602873E-06  0.2909786E+04  0.7818609E-02  0.8269972E-01
       -1   -1    0    0    0  501  0.00000000000E+00  0.00000000000E+00  0.17097169310E+04  0.17097169310E+04  0.50400001928E-02 0. -1.
        1   -1    0    0  501    0  0.00000000000E+00  0.00000000000E+00 -0.12380494089E+04  0.12380494089E+04  0.50400001928E-02 0.  1.
    10030    2    1    2    0    0  0.00000000000E+00  0.00000000000E+00  0.47166752210E+03  0.29477663399E+04  0.29097862710E+04 0.  0.
        1    1    3    3  502    0  0.41569487806E+03  0.87821211414E+03 -0.86119281283E+03  0.12983496486E+04  0.50400001928E-02 0.  1.
       -1    1    3    3    0  502 -0.41569487806E+03 -0.87821211414E+03  0.13328603349E+04  0.16494166913E+04  0.50400001928E-02 0. -1.
</event>
<event>
 5   0  0.1550278E-06  0.2900304E+04  0.7818609E-02  0.8272787E-01
       -1   -1    0    0    0  501  0.00000000000E+00  0.00000000000E+00  0.11881804319E+04  0.11881804319E+04  0.50400001928E-02 0. -1.
        1   -1    0    0  501    0  0.00000000000E+00  0.00000000000E+00 -0.17698838767E+04  0.17698838767E+04  0.50400001928E-02 0.  1.
    10030    2    1    2    0    0  0.00000000000E+00  0.00000000000E+00 -0.58170344482E+03  0.29580643086E+04  0.29003043902E+04 0.  0.
        2    1    3    3  502    0 -0.41507061467E+03 -0.10772103217E+04  0.60428037268E+03  0.13030043980E+04  0.25500000920E-02 0.  1.
       -2    1    3    3    0  502  0.41507061467E+03  0.10772103217E+04 -0.11859838175E+04  0.16550599106E+04  0.25500000920E-02 0. -1.
</event>
<event>
 5   0  0.4115143E-06  0.2901164E+04  0.7818609E-02  0.8272531E-01
       -2   -1    0    0    0  501  0.00000000000E+00  0.00000000000E+00  0.16060855190E+04  0.16060855190E+04  0.25500000920E-02 0.  1.
        2   -1    0    0  501    0  0.00000000000E+00  0.00000000000E+00 -0.13101347879E+04  0.13101347879E+04  0.25500000920E-02 0. -1.
    10030    2    1    2    0    0  0.00000000000E+00  0.00000000000E+00  0.29595073114E+03  0.29162203069E+04  0.29011642565E+04 0.  0.
        1    1    3    3  502    0  0.12513013733E+04 -0.44842030267E+03 -0.43585953524E+03  0.13988600463E+04  0.50400001928E-02 0. -1.
       -1    1    3    3    0  502 -0.12513013733E+04  0.44842030267E+03  0.73181026639E+03  0.15173602606E+04  0.50400001928E-02 0.  1.
</event>
<event>
 5   0  0.4187518E-06  0.2895284E+04  0.7818609E-02  0.8274282E-01
        2   -1    0    0  501    0  0.00000000000E+00  0.00000000000E+00  0.11465572873E+04  0.11465572873E+04  0.25500000920E-02 0. -1.
       -2   -1    0    0    0  501  0.00000000000E+00  0.00000000000E+00 -0.18277915067E+04  0.18277915067E+04  0.25500000920E-02 0.  1.
    10030    2    1    2    0    0  0.00000000000E+00  0.00000000000E+00 -0.68123421949E+03  0.29743487940E+04  0.28952842152E+04 0.  0.
        3    1    3    3  502    0  0.25928342771E+03  0.33386034540E+03 -0.17629758580E+04  0.18129463622E+04  0.10100000352E+00 0.  1.
       -3    1    3    3    0  502 -0.25928342771E+03 -0.33386034540E+03  0.10817416385E+04  0.11614024318E+04  0.10100000352E+00 0. -1.
</event>
<event>
 5   0  0.4162450E-06  0.2902797E+04  0.7818609E-02  0.8272046E-01
       -2   -1    0    0    0  501  0.00000000000E+00  0.00000000000E+00  0.14036452748E+04  0.14036452748E+04  0.25500000920E-02 0.  1.
        2   -1    0    0  501    0  0.00000000000E+00  0.00000000000E+00 -0.15007767933E+04  0.15007767933E+04  0.25500000920E-02 0. -1.
    10030    2    1    2    0    0  0.00000000000E+00  0.00000000000E+00 -0.97131518537E+02  0.29044220681E+04  0.29027974470E+04 0.  0.
        2    1    3    3  502    0  0.25905815732E+03  0.84692966295E+03  0.11019287608E+04  0.14137354692E+04  0.25500000920E-02 0.  1.
       -2    1    3    3    0  502 -0.25905815732E+03 -0.84692966295E+03 -0.11990602793E+04  0.14906865990E+04  0.25500000920E-02 0. -1.
</event>
<event>
 5   0  0.4115143E-06  0.2908774E+04  0.7818609E-02  0.8270272E-01
       -2   -1    0    0    0  501  0.00000000000E+00  0.00000000000E+00  0.15786846038E+04  0.15786846038E+04  0.25500000920E-02 0.  1.
        2   -1    0    0  501    0  0.00000000000E+00  0.00000000000E+00 -0.13398760751E+04  0.13398760751E+04  0.25500000920E-02 0. -1.
    10030    2    1    2    0    0  0.00000000000E+00  0.00000000000E+00  0.23880852869E+03  0.29185606789E+04  0.29087741272E+04 0.  0.
        1    1    3    3  502    0  0.35809900108E+03 -0.37212335057E+03  0.14835855993E+04  0.15709032157E+04  0.50400001928E-02 0.  1.
       -1    1    3    3    0  502 -0.35809900108E+03  0.37212335057E+03 -0.12447770706E+04  0.13476574632E+04  0.50400001928E-02 0. -1.
</event>
<event>
 5   0  0.4187518E-06  0.2900651E+04  0.7818609E-02  0.8272684E-01
        2   -1    0    0  501    0  0.00000000000E+00  0.00000000000E+00  0.23108500452E+04  0.23108500452E+04  0.25500000920E-02 0.  1.
       -2   -1    0    0    0  501  0.00000000000E+00  0.00000000000E+00 -0.91024676403E+03  0.91024676403E+03  0.25500000920E-02 0. -1.
    10030    2    1    2    0    0  0.00000000000E+00  0.00000000000E+00  0.14006032812E+04  0.32210968093E+04  0.29006508069E+04 0.  0.
        3    1    3    3  502    0  0.51990649637E+03  0.10979682874E+04  0.15800370911E+04  0.19930766028E+04  0.10100000352E+00 0.  1.
       -3    1    3    3    0  502 -0.51990649637E+03 -0.10979682874E+04 -0.17943380990E+03  0.12280202065E+04  0.10100000352E+00 0. -1.
</event>
<event>
 5   0  0.1543678E-06  0.2910587E+04  0.7818609E-02  0.8269735E-01
       -1   -1    0    0    0  501  0.00000000000E+00  0.00000000000E+00  0.14484116519E+04  0.14484116519E+04  0.50400001928E-02 0.  1.
        1   -1    0    0  501    0  0.00000000000E+00  0.00000000000E+00 -0.14622080211E+04  0.14622080211E+04  0.50400001928E-02 0. -1.
    10030    2    1    2    0    0  0.00000000000E+00  0.00000000000E+00 -0.13796369211E+02  0.29106196730E+04  0.29105869753E+04 0.  0.
        3    1    3    3  502    0  0.73003849223E+03 -0.11610147002E+04  0.47990066006E+03  0.14530024046E+04  0.10100000352E+00 0.  1.
       -3    1    3    3    0  502 -0.73003849223E+03  0.11610147002E+04 -0.49369702927E+03  0.14576172684E+04  0.10100000352E+00 0. -1.
</event>
<event>
 5   0  0.4224163E-06  0.2782360E+04  0.7818609E-02  0.8308766E-01
        2   -1    0    0  501    0  0.00000000000E+00  0.00000000000E+00  0.20867245599E+04  0.20867245599E+04  0.25500000920E-02 0. -1.
       -2   -1    0    0    0  501  0.00000000000E+00  0.00000000000E+00 -0.92747382660E+03  0.92747382661E+03  0.25500000920E-02 0.  1.
    10030    2    1    2    0    0  0.00000000000E+00  0.00000000000E+00  0.11592507333E+04  0.30141983865E+04  0.27823604458E+04 0.  0.
        4    1    3    3  502    0 -0.10437407342E+04  0.78181413889E+03  0.11045098927E+04  0.17089680465E+04  0.12699999809E+01 0. -1.
       -4    1    3    3    0  502  0.10437407342E+04 -0.78181413889E+03  0.54740840631E+02  0.13052303400E+04  0.12699999809E+01 0.  1.
</event>
<event>
 5   0  0.4162450E-06  0.2894267E+04  0.7818609E-02  0.8274585E-01
       -2   -1    0    0    0  501  0.00000000000E+00  0.00000000000E+00  0.14612407280E+04  0.14612407280E+04  0.25500000920E-02 0. -1.
        2   -1    0    0  501    0  0.00000000000E+00  0.00000000000E+00 -0.14331621966E+04  0.14331621966E+04  0.25500000920E-02 0.  1.
    10030    2    1    2    0    0  0.00000000000E+00  0.00000000000E+00  0.28078531408E+02  0.28944029246E+04  0.28942667269E+04 0.  0.
        2    1    3    3  502    0  0.10283742892E+04 -0.56688095426E+03 -0.83174711259E+03  0.14389965095E+04  0.25500000920E-02 0.  1.
       -2    1    3    3    0  502 -0.10283742892E+04  0.56688095426E+03  0.85982564400E+03  0.14554064151E+04  0.25500000920E-02 0. -1.
</event>
<event>
 5   0  0.1550278E-06  0.2861598E+04  0.7818609E-02  0.8284396E-01
       -1   -1    0    0    0  501  0.00000000000E+00  0.00000000000E+00  0.13392061995E+04  0.13392061995E+04  0.50400001928E-02 0. -1.
        1   -1    0    0  501    0  0.00000000000E+00  0.00000000000E+00 -0.15286559154E+04  0.15286559154E+04  0.50400001928E-02 0.  1.
    10030    2    1    2    0    0  0.00000000000E+00  0.00000000000E+00 -0.18944971591E+03  0.28678621150E+04  0.28615977907E+04 0.  0.
        2    1    3    3  502    0  0.82914690937E+03  0.61295854413E+03 -0.10888553794E+04  0.14996028845E+04  0.25500000920E-02 0.  1.
       -2    1    3    3    0  502 -0.82914690937E+03 -0.61295854413E+03  0.89940566347E+03  0.13682592304E+04  0.25500000920E-02 0. -1.
</event>
<event>
 5   0  0.1550278E-06  0.2849290E+04  0.7818609E-02  0.8288127E-01
        1   -1    0    0  501    0  0.00000000000E+00  0.00000000000E+00  0.23542965754E+04  0.23542965754E+04  0.50400001928E-02 0. -1.
       -1   -1    0    0    0  501  0.00000000000E+00  0.00000000000E+00 -0.86208907027E+03  0.86208907028E+03  0.50400001928E-02 0.  1.
    10030    2    1    2    0    0  0.00000000000E+00  0.00000000000E+00  0.14922075052E+04  0.32163856457E+04  0.28492899788E+04 0.  0.
        2    1    3    3  502    0 -0.98924243535E+03  0.40678068169E+03 -0.31616914759E+03  0.11153627431E+04  0.25500000920E-02 0.  1.
       -2    1    3    3    0  502  0.98924243535E+03 -0.40678068169E+03  0.18083766527E+04  0.21010229026E+04  0.25500000920E-02 0. -1.
</event>
<event>
 5   0  0.4115143E-06  0.3203953E+04  0.7818609E-02  0.8187774E-01
        2   -1    0    0  501    0  0.00000000000E+00  0.00000000000E+00  0.18053512084E+04  0.18053512084E+04  0.25500000920E-02 0. -1.
       -2   -1    0    0    0  501  0.00000000000E+00  0.00000000000E+00 -0.14215124512E+04  0.14215124513E+04  0.25500000920E-02 0.  1.
    10030    2    1    2    0    0  0.00000000000E+00  0.00000000000E+00  0.38383875716E+03  0.32268636597E+04  0.32039533215E+04 0.  0.
        1    1    3    3  502    0 -0.20279701639E+03 -0.28885511127E+03  0.17657079826E+04  0.18006356059E+04  0.50400001928E-02 0. -1.
       -1    1    3    3    0  502  0.20279701639E+03  0.28885511127E+03 -0.13818692255E+04  0.14262280538E+04  0.50400001928E-02 0.  1.
</event>
<event>
 5   0  0.1602873E-06  0.2540687E+04  0.7818609E-02  0.8388632E-01
        1   -1    0    0  501    0  0.00000000000E+00  0.00000000000E+00  0.12303207452E+04  0.12303207452E+04  0.50400001928E-02 0. -1.
       -1   -1    0    0    0  501  0.00000000000E+00  0.00000000000E+00 -0.13116683538E+04  0.13116683538E+04  0.50400001928E-02 0.  1.
    10030    2    1    2    0    0  0.00000000000E+00  0.00000000000E+00 -0.81347608606E+02  0.25419890990E+04  0.25406871405E+04 0.  0.
        1    1    3    3  502    0  0.94627563972E+03  0.12626977521E+02 -0.88856058751E+03  0.12981282466E+04  0.50400001928E-02 0.  1.
       -1    1    3    3    0  502 -0.94627563972E+03 -0.12626977521E+02  0.80721297891E+03  0.12438608524E+04  0.50400001928E-02 0. -1.
</event>
<event>
 5   0  0.1511126E-06  0.2898408E+04  0.7818609E-02  0.8273351E-01
       -1   -1    0    0    0  501  0.00000000000E+00  0.00000000000E+00  0.11862635063E+04  0.11862635063E+04  0.50400001928E-02 0.  1.
        1   -1    0    0  501    0  0.00000000000E+00  0.00000000000E+00 -0.17704265563E+04  0.17704265563E+04  0.50400001928E-02 0. -1.
    10030    2    1    2    0    0  0.00000000000E+00  0.00000000000E+00 -0.58416304999E+03  0.29566900626E+04  0.28984081247E+04 0.  0.
        5    1    3    3  502    0  0.11396262967E+04  0.85608899245E+03 -0.25027654900E+02  0.14255823136E+04  0.46999998093E+01 0.  1.
       -5    1    3    3    0  502 -0.11396262967E+04 -0.85608899245E+03 -0.55913539509E+03  0.15311077491E+04  0.46999998093E+01 0. -1.
</event>
<event>
 5   0  0.1602873E-06  0.2907195E+04  0.7818609E-02  0.8270740E-01
        1   -1    0    0  501    0  0.00000000000E+00  0.00000000000E+00  0.16597796753E+04  0.16597796753E+04  0.50400001928E-02 0.  1.
       -1   -1    0    0    0  501  0.00000000000E+00  0.00000000000E+00 -0.12730274473E+04  0.12730274473E+04  0.50400001928E-02 0. -1.
    10030    2    1    2    0    0  0.00000000000E+00  0.00000000000E+00  0.38675222797E+03  0.29328071226E+04  0.29071945811E+04 0.  0.
        1    1    3    3  502    0 -0.14230399252E+04 -0.96502070770E+02 -0.89432417471E+02  0.14291093155E+04  0.50400001928E-02 0. -1.
       -1    1    3    3    0  502  0.14230399252E+04  0.96502070770E+02  0.47618464544E+03  0.15036978071E+04  0.50400001928E-02 0.  1.
</event>
<event>
 5   0  0.1543678E-06  0.2897387E+04  0.7818609E-02  0.8273655E-01
        1   -1    0    0  501    0  0.00000000000E+00  0.00000000000E+00  0.16765643963E+04  0.16765643963E+04  0.50400001928E-02 0.  1.
       -1   -1    0    0    0  501  0.00000000000E+00  0.00000000000E+00 -0.12517935145E+04  0.12517935145E+04  0.50400001928E-02 0. -1.
    10030    2    1    2    0    0  0.00000000000E+00  0.00000000000E+00  0.42477088181E+03  0.29283579109E+04  0.28973867109E+04 0.  0.
        3    1    3    3  502    0  0.45602667236E+03 -0.60513090654E+03 -0.10355473320E+04  0.12831609513E+04  0.10100000352E+00 0. -1.
       -3    1    3    3    0  502 -0.45602667236E+03  0.60513090654E+03  0.14603182138E+04  0.16451969596E+04  0.10100000352E+00 0.  1.
</event>
<event>
 5   0  0.4187518E-06  0.2911505E+04  0.7818609E-02  0.8269463E-01
        2   -1    0    0  501    0  0.00000000000E+00  0.00000000000E+00  0.23214483767E+04  0.23214483767E+04  0.25500000920E-02 0. -1.
       -2   -1    0    0    0  501  0.00000000000E+00  0.00000000000E+00 -0.91288487487E+03  0.91288487487E+03  0.25500000920E-02 0.  1.
    10030    2    1    2    0    0  0.00000000000E+00  0.00000000000E+00  0.14085635018E+04  0.32343332515E+04  0.29115048417E+04 0.  0.
        3    1    3    3  502    0  0.44516909307E+03  0.79571472127E+03  0.19649608544E+04  0.21661968074E+04  0.10100000352E+00 0. -1.
       -3    1    3    3    0  502 -0.44516909307E+03 -0.79571472127E+03 -0.55639735258E+03  0.10681364441E+04  0.10100000352E+00 0.  1.
</event>
<event>
 5   0  0.4115143E-06  0.2835578E+04  0.7818609E-02  0.8292307E-01
       -2   -1    0    0    0  501  0.00000000000E+00  0.00000000000E+00  0.85611104240E+03  0.85611104240E+03  0.25500000920E-02 0.  1.
        2   -1    0    0  501    0  0.00000000000E+00  0.00000000000E+00 -0.23479724387E+04  0.23479724387E+04  0.25500000920E-02 0. -1.
    10030    2    1    2    0    0  0.00000000000E+00  0.00000000000E+00 -0.14918613963E+04  0.32040834811E+04  0.28355776357E+04 0.  0.
        1    1    3    3  502    0  0.33511736243E+03 -0.39151631854E+03  0.74652794510E+03  0.90713430490E+03  0.50400001928E-02 0.  1.
       -1    1    3    3    0  502 -0.33511736243E+03  0.39151631854E+03 -0.22383893414E+04  0.22969491762E+04  0.50400001928E-02 0. -1.
</event>
<event>
 5   0  0.4224163E-06  0.2875561E+04  0.7818609E-02  0.8280186E-01
       -2   -1    0    0    0  501  0.00000000000E+00  0.00000000000E+00  0.10992978210E+04  0.10992978210E+04  0.25500000920E-02 0.  1.
        2   -1    0    0  501    0  0.00000000000E+00  0.00000000000E+00 -0.18804845119E+04  0.18804845119E+04  0.25500000920E-02 0. -1.
    10030    2    1    2    0    0  0.00000000000E+00  0.00000000000E+00 -0.78118669091E+03  0.29797823329E+04  0.28755608332E+04 0.  0.
        4    1    3    3  502    0  0.11947457207E+04 -0.12465280085E+03  0.42814114283E+03  0.12752498222E+04  0.12699999809E+01 0.  1.
       -4    1    3    3    0  502 -0.11947457207E+04  0.12465280085E+03 -0.12093278337E+04  0.17045325108E+04  0.12699999809E+01 0. -1.
</event>
<event>
 5   0  0.1550278E-06  0.2895918E+04  0.7818609E-02  0.8274093E-01
        1   -1    0    0  501    0  0.00000000000E+00  0.00000000000E+00  0.25707385016E+04  0.25707385016E+04  0.50400001928E-02 0. -1.
       -1   -1    0    0    0  501  0.00000000000E+00  0.00000000000E+00 -0.81555745683E+03  0.81555745685E+03  0.50400001928E-02 0.  1.
    10030    2    1    2    0    0  0.00000000000E+00  0.00000000000E+00  0.17551810448E+04  0.33862959585E+04  0.28959177852E+04 0.  0.
        2    1    3    3  502    0  0.25555313764E+03 -0.12437615841E+04  0.63802181548E+02  0.12713461380E+04  0.25500000920E-02 0.  1.
       -2    1    3    3    0  502 -0.25555313764E+03  0.12437615841E+04  0.16913788633E+04  0.21149498205E+04  0.25500000920E-02 0. -1.
</event>
<event>
 5   0  0.4148677E-06  0.2891956E+04  0.7818609E-02  0.8275275E-01
        2   -1    0    0  501    0  0.00000000000E+00  0.00000000000E+00  0.17988090177E+04  0.17988090177E+04  0.25500000920E-02 0. -1.
       -2   -1    0    0    0  501  0.00000000000E+00  0.00000000000E+00 -0.11623538876E+04  0.11623538876E+04  0.25500000920E-02 0.  1.
    10030    2    1    2    0    0  0.00000000000E+00  0.00000000000E+00  0.63645513008E+03  0.29611629053E+04  0.28919561924E+04 0.  0.
        5    1    3    3  502    0 -0.10581391317E+04 -0.86636971904E+03 -0.16266645522E+03  0.13772208892E+04  0.46999998093E+01 0. -1.
       -5    1    3    3    0  502  0.10581391317E+04  0.86636971904E+03  0.79912158530E+03  0.15839420160E+04  0.46999998093E+01 0.  1.
</event>
<event>
 5   0  0.4148677E-06  0.2913149E+04  0.7818609E-02  0.8268976E-01
        2   -1    0    0  501    0  0.00000000000E+00  0.00000000000E+00  0.79055945334E+03  0.79055945334E+03  0.25500000920E-02 0. -1.
       -2   -1    0    0    0  501  0.00000000000E+00  0.00000000000E+00 -0.26836816141E+04  0.26836816141E+04  0.25500000920E-02 0.  1.
    10030    2    1    2    0    0  0.00000000000E+00  0.00000000000E+00 -0.18931221607E+04  0.34742410674E+04  0.29131494090E+04 0.  0.
        5    1    3    3  502    0  0.29122604651E+03 -0.20900418235E+03  0.73712417741E+03  0.81967646137E+03  0.46999998093E+01 0. -1.
       -5    1    3    3    0  502 -0.29122604651E+03  0.20900418235E+03 -0.26302463381E+04  0.26545646060E+04  0.46999998093E+01 0.  1.
</event>
<event>
 5   0  0.4187518E-06  0.2863874E+04  0.7818609E-02  0.8283708E-01
       -2   -1    0    0    0  501  0.00000000000E+00  0.00000000000E+00  0.19821259966E+04  0.19821259966E+04  0.25500000920E-02 0. -1.
        2   -1    0    0  501    0  0.00000000000E+00  0.00000000000E+00 -0.10344664747E+04  0.10344664747E+04  0.25500000920E-02 0.  1.
    10030    2    1    2    0    0  0.00000000000E+00  0.00000000000E+00  0.94765952188E+03  0.30165924712E+04  0.28638735252E+04 0.  0.
        3    1    3    3  502    0 -0.77185458165E+03 -0.73448311544E+03 -0.53385588052E+03  0.11917327945E+04  0.10100000352E+00 0.  1.
       -3    1    3    3    0  502  0.77185458165E+03  0.73448311544E+03  0.14815154024E+04  0.18248596768E+04  0.10100000352E+00 0. -1.
</event>
<event>
 5   0  0.4148677E-06  0.2919782E+04  0.7818609E-02  0.8267016E-01
        2   -1    0    0  501    0  0.00000000000E+00  0.00000000000E+00  0.17484569558E+04  0.17484569558E+04  0.25500000920E-02 0. -1.
       -2   -1    0    0    0  501  0.00000000000E+00  0.00000000000E+00 -0.12189504075E+04  0.12189504075E+04  0.25500000920E-02 0.  1.
    10030    2    1    2    0    0  0.00000000000E+00  0.00000000000E+00  0.52950654828E+03  0.29674073633E+04  0.29197824020E+04 0.  0.
        5    1    3    3  502    0  0.46984573497E+03 -0.19565807911E+03  0.16553637173E+04  0.17318453237E+04  0.46999998093E+01 0. -1.
       -5    1    3    3    0  502 -0.46984573497E+03  0.19565807911E+03 -0.11258571690E+04  0.12355620396E+04  0.46999998093E+01 0.  1.
</event>
<event>
 5   0  0.4162450E-06  0.2914233E+04  0.7818609E-02  0.8268655E-01
       -2   -1    0    0    0  501  0.00000000000E+00  0.00000000000E+00  0.15479596604E+04  0.15479596604E+04  0.25500000920E-02 0.  1.
        2   -1    0    0  501    0  0.00000000000E+00  0.00000000000E+00 -0.13716047554E+04  0.13716047554E+04  0.25500000920E-02 0. -1.
    10030    2    1    2    0    0  0.00000000000E+00  0.00000000000E+00  0.17635490495E+03  0.29195644158E+04  0.29142332312E+04 0.  0.
        2    1    3    3  502    0  0.15753871004E+03  0.12602113924E+04  0.80379338155E+03  0.15030086490E+04  0.25500000920E-02 0.  1.
       -2    1    3    3    0  502 -0.15753871004E+03 -0.12602113924E+04 -0.62743847660E+03  0.14165557668E+04  0.25500000920E-02 0. -1.
</event>
<event>
 5   0  0.4148677E-06  0.2880880E+04  0.7818609E-02  0.8278589E-01
       -2   -1    0    0    0  501  0.00000000000E+00  0.00000000000E+00  0.13979622994E+04  0.13979622994E+04  0.25500000920E-02 0.  1.
        2   -1    0    0  501    0  0.00000000000E+00  0.00000000000E+00 -0.14842080109E+04  0.14842080109E+04  0.25500000920E-02 0. -1.
    10030    2    1    2    0    0  0.00000000000E+00  0.00000000000E+00 -0.86245711539E+02  0.28821703103E+04  0.28808796182E+04 0.  0.
        5    1    3    3  502    0  0.18155107655E+03  0.14142941093E+03 -0.14656887682E+04  0.14836538433E+04  0.46999998093E+01 0. -1.
       -5    1    3    3    0  502 -0.18155107655E+03 -0.14142941093E+03  0.13794430567E+04  0.13985164669E+04  0.46999998093E+01 0.  1.
</event>
<event>
 5   0  0.4162450E-06  0.2908502E+04  0.7818609E-02  0.8270352E-01
        2   -1    0    0  501    0  0.00000000000E+00  0.00000000000E+00  0.14450950966E+04  0.14450950966E+04  0.25500000920E-02 0.  1.
       -2   -1    0    0    0  501  0.00000000000E+00  0.00000000000E+00 -0.14634654090E+04  0.14634654090E+04  0.25500000920E-02 0. -1.
    10030    2    1    2    0    0  0.00000000000E+00  0.00000000000E+00 -0.18370312410E+02  0.29085605055E+04  0.29085024920E+04 0.  0.
        2    1    3    3  502    0 -0.36450719906E+03  0.13975482846E+04  0.16064161162E+03  0.14532076360E+04  0.25500000920E-02 0. -1.
       -2    1    3    3    0  502  0.36450719906E+03 -0.13975482846E+04 -0.17901192403E+03  0.14553528695E+04  0.25500000920E-02 0.  1.
</event>
<event>
 5   0  0.4224163E-06  0.2887142E+04  0.7818609E-02  0.8276713E-01
        2   -1    0    0  501    0  0.00000000000E+00  0.00000000000E+00  0.16028362783E+04  0.16028362783E+04  0.25500000920E-02 0.  1.
       -2   -1    0    0    0  501  0.00000000000E+00  0.00000000000E+00 -0.13001310231E+04  0.13001310231E+04  0.25500000920E-02 0. -1.
    10030    2    1    2    0    0  0.00000000000E+00  0.00000000000E+00  0.30270525516E+03  0.29029673014E+04  0.28871419572E+04 0.  0.
        4    1    3    3  502    0  0.93604526769E+03 -0.10266354783E+03  0.12515049688E+04  0.15662014069E+04  0.12699999809E+01 0.  1.
       -4    1    3    3    0  502 -0.93604526769E+03  0.10266354783E+03 -0.94879971359E+03  0.13367658945E+04  0.12699999809E+01 0. -1.
</event>
<event>
 5   0  0.4115143E-06  0.2863033E+04  0.7818609E-02  0.8283962E-01
        2   -1    0    0  501    0  0.00000000000E+00  0.00000000000E+00  0.22162927678E+04  0.22162927678E+04  0.25500000920E-02 0.  1.
       -2   -1    0    0    0  501  0.00000000000E+00  0.00000000000E+00 -0.92462468728E+03  0.92462468728E+03  0.25500000920E-02 0. -1.
    10030    2    1    2    0    0  0.00000000000E+00  0.00000000000E+00  0.12916680805E+04  0.31409174551E+04  0.28630326630E+04 0.  0.
        1    1    3    3  502    0 -0.12781482921E+03  0.95244308064E+03 -0.51816353805E+03  0.10917774062E+04  0.50400001928E-02 0. -1.
       -1    1    3    3    0  502  0.12781482921E+03 -0.95244308064E+03  0.18098316186E+04  0.20491400489E+04  0.50400001928E-02 0.  1.
</event>
<event>
 5   0  0.1602873E-06  0.2888941E+04  0.7818609E-02  0.8276175E-01
       -1   -1    0    0    0  501  0.00000000000E+00  0.00000000000E+00  0.17616548287E+04  0.17616548287E+04  0.50400001928E-02 0.  1.
        1   -1    0    0  501    0  0.00000000000E+00  0.00000000000E+00 -0.11843949521E+04  0.11843949521E+04  0.50400001928E-02 0. -1.
    10030    2    1    2    0    0  0.00000000000E+00  0.00000000000E+00  0.57725987661E+03  0.29460497808E+04  0.28889410423E+04 0.  0.
        1    1    3    3  502    0  0.11721167097E+04  0.78062173193E+03 -0.39074737919E+02  0.14088132256E+04  0.50400001928E-02 0. -1.
       -1    1    3    3    0  502 -0.11721167097E+04 -0.78062173193E+03  0.61633461452E+03  0.15372365552E+04  0.50400001928E-02 0.  1.
</event>
<event>
 5   0  0.1511126E-06  0.2885078E+04  0.7818609E-02  0.8277331E-01
       -1   -1    0    0    0  501  0.00000000000E+00  0.00000000000E+00  0.12874563540E+04  0.12874563540E+04  0.50400001928E-02 0. -1.
        1   -1    0    0  501    0  0.00000000000E+00  0.00000000000E+00 -0.16163018415E+04  0.16163018415E+04  0.50400001928E-02 0.  1.
    10030    2    1    2    0    0  0.00000000000E+00  0.00000000000E+00 -0.32884548745E+03  0.29037581955E+04  0.28850775212E+04 0.  0.
        5    1    3    3  502    0  0.50761016038E+03 -0.72522685685E+03 -0.13107768862E+04  0.15817016799E+04  0.46999998093E+01 0.  1.
       -5    1    3    3    0  502 -0.50761016038E+03  0.72522685685E+03  0.98193139871E+03  0.13220565157E+04  0.46999998093E+01 0. -1.
</event>
<event>
 5   0  0.1550278E-06  0.2900803E+04  0.7818609E-02  0.8272639E-01
       -1   -1    0    0    0  501  0.00000000000E+00  0.00000000000E+00  0.11961408829E+04  0.11961408829E+04  0.50400001928E-02 0.  1.
        1   -1    0    0  501    0  0.00000000000E+00  0.00000000000E+00 -0.17587099015E+04  0.17587099015E+04  0.50400001928E-02 0. -1.
    10030    2    1    2    0    0  0.00000000000E+00  0.00000000000E+00 -0.56256901865E+03  0.29548507844E+04  0.29008032090E+04 0.  0.
        2    1    3    3  502    0 -0.10294776403E+04 -0.41144454274E+03  0.67131554138E+03  0.12960614876E+04  0.25500000920E-02 0.  1.
       -2    1    3    3    0  502  0.10294776403E+04  0.41144454274E+03 -0.12338845600E+04  0.16587892968E+04  0.25500000920E-02 0. -1.
</event>
<event>
 5   0  0.1360125E-06  0.2847414E+04  0.7818609E-02  0.8288697E-01
       -3   -1    0    0    0  501  0.00000000000E+00  0.00000000000E+00  0.12913785622E+04  0.12913785661E+04  0.10100000352E+00 0.  1.
        3   -1    0    0  501    0  0.00000000000E+00  0.00000000000E+00 -0.15695955333E+04  0.15695955366E+04  0.10100000352E+00 0. -1.
    10030    2    1    2    0    0  0.00000000000E+00  0.00000000000E+00 -0.27821697114E+03  0.28609741027E+04  0.28474142890E+04 0.  0.
        4    1    3    3  502    0  0.74108549178E+03  0.10048656589E+04  0.54823822081E+03  0.13636456498E+04  0.12699999809E+01 0.  1.
       -4    1    3    3    0  502 -0.74108549178E+03 -0.10048656589E+04 -0.82645519195E+03  0.14973284529E+04  0.12699999809E+01 0. -1.
</event>
<event>
 5   0  0.4115143E-06  0.2903695E+04  0.7818609E-02  0.8271779E-01
        2   -1    0    0  501    0  0.00000000000E+00  0.00000000000E+00  0.20176102075E+04  0.20176102075E+04  0.25500000920E-02 0. -1.
       -2   -1    0    0    0  501  0.00000000000E+00  0.00000000000E+00 -0.10447317815E+04  0.10447317815E+04  0.25500000920E-02 0.  1.
    10030    2    1    2    0    0  0.00000000000E+00  0.00000000000E+00  0.97287842600E+03  0.30623419889E+04  0.29036952363E+04 0.  0.
        1    1    3    3  502    0  0.44881207333E+03  0.13482552583E+04  0.80042511675E+03  0.16309214838E+04  0.50400001928E-02 0. -1.
       -1    1    3    3    0  502 -0.44881207333E+03 -0.13482552583E+04  0.17245330925E+03  0.14314205052E+04  0.50400001928E-02 0.  1.
</event>
<event>
 5   0  0.4224163E-06  0.2853545E+04  0.7818609E-02  0.8286835E-01
       -2   -1    0    0    0  501  0.00000000000E+00  0.00000000000E+00  0.12991215282E+04  0.12991215282E+04  0.25500000920E-02 0. -1.
        2   -1    0    0  501    0  0.00000000000E+00  0.00000000000E+00 -0.15669664290E+04  0.15669664290E+04  0.25500000920E-02 0.  1.
    10030    2    1    2    0    0  0.00000000000E+00  0.00000000000E+00 -0.26784490087E+03  0.28660879572E+04  0.28535450386E+04 0.  0.
        4    1    3    3  502    0 -0.64698398501E+02 -0.14017187801E+04  0.12543105157E+03  0.14088065811E+04  0.12699999809E+01 0. -1.
       -4    1    3    3    0  502  0.64698398501E+02  0.14017187801E+04 -0.39327595244E+03  0.14572813761E+04  0.12699999809E+01 0.  1.
</event>
<event>
 5   0  0.1580212E-06  0.2886230E+04  0.7818609E-02  0.8276986E-01
       -1   -1    0    0    0  501  0.00000000000E+00  0.00000000000E+00  0.16263804935E+04  0.16263804935E+04  0.50400001928E-02 0. -1.
        1   -1    0    0  501    0  0.00000000000E+00  0.00000000000E+00 -0.12805001095E+04  0.12805001095E+04  0.50400001928E-02 0.  1.
    10030    2    1    2    0    0  0.00000000000E+00  0.00000000000E+00  0.34588038395E+03  0.29068806030E+04  0.28862296513E+04 0.  0.
        4    1    3    3  502    0  0.65906148037E+03  0.81676509156E+03 -0.82465765077E+03  0.13347393392E+04  0.12699999809E+01 0.  1.
       -4    1    3    3    0  502 -0.65906148037E+03 -0.81676509156E+03  0.11705380347E+04  0.15721412638E+04  0.12699999809E+01 0. -1.
</event>
<event>
 5   0  0.1550278E-06  0.2889005E+04  0.7818609E-02  0.8276156E-01
       -1   -1    0    0    0  501  0.00000000000E+00  0.00000000000E+00  0.15820838004E+04  0.15820838004E+04  0.50400001928E-02 0. -1.
        1   -1    0    0  501    0  0.00000000000E+00  0.00000000000E+00 -0.13188854789E+04  0.13188854789E+04  0.50400001928E-02 0.  1.
    10030    2    1    2    0    0  0.00000000000E+00  0.00000000000E+00  0.26319832148E+03  0.29009692793E+04  0.28890049157E+04 0.  0.
        2    1    3    3  502    0 -0.45471324818E+03 -0.13703743627E+04  0.17533777057E+03  0.14544529439E+04  0.25500000920E-02 0.  1.
       -2    1    3    3    0  502  0.45471324818E+03  0.13703743627E+04  0.87860550908E+02  0.14465163354E+04  0.25500000920E-02 0. -1.
</event>
<event>
 5   0  0.1550278E-06  0.2903959E+04  0.7818609E-02  0.8271701E-01
       -1   -1    0    0    0  501  0.00000000000E+00  0.00000000000E+00  0.14647881462E+04  0.14647881462E+04  0.50400001928E-02 0. -1.
        1   -1    0    0  501    0  0.00000000000E+00  0.00000000000E+00 -0.14392824949E+04  0.14392824949E+04  0.50400001928E-02 0.  1.
    10030    2    1    2    0    0  0.00000000000E+00  0.00000000000E+00  0.25505651294E+02  0.29040706411E+04  0.29039586344E+04 0.  0.
        2    1    3    3  502    0 -0.11683627343E+02  0.39460350459E+03 -0.13845825374E+04  0.14397629096E+04  0.25500000920E-02 0.  1.
       -2    1    3    3    0  502  0.11683627343E+02 -0.39460350459E+03  0.14100881886E+04  0.14643077316E+04  0.25500000920E-02 0. -1.
</event>
<event>
 5   0  0.4162450E-06  0.2883207E+04  0.7818609E-02  0.8277892E-01
       -2   -1    0    0    0  501  0.00000000000E+00  0.00000000000E+00  0.10897322798E+04  0.10897322798E+04  0.25500000920E-02 0. -1.
        2   -1    0    0  501    0  0.00000000000E+00  0.00000000000E+00 -0.19070924461E+04  0.19070924461E+04  0.25500000920E-02 0.  1.
    10030    2    1    2    0    0  0.00000000000E+00  0.00000000000E+00 -0.81736016637E+03  0.29968247259E+04  0.28832066863E+04 0.  0.
        2    1    3    3  502    0  0.10489424463E+04 -0.65757984862E+03  0.35902490600E+03  0.12890269183E+04  0.25500000920E-02 0. -1.
       -2    1    3    3    0  502 -0.10489424463E+04  0.65757984862E+03 -0.11763850724E+04  0.17077978076E+04  0.25500000920E-02 0.  1.
</event>
<event>
 5   0  0.1602873E-06  0.2911095E+04  0.7818609E-02  0.8269584E-01
        1   -1    0    0  501    0  0.00000000000E+00  0.00000000000E+00  0.23595741355E+04  0.23595741355E+04  0.50400001928E-02 0.  1.
       -1   -1    0    0    0  501  0.00000000000E+00  0.00000000000E+00 -0.89788164343E+03  0.89788164345E+03  0.50400001928E-02 0. -1.
    10030    2    1    2    0    0  0.00000000000E+00  0.00000000000E+00  0.14616924920E+04  0.32574557789E+04  0.29110948474E+04 0.  0.
        1    1    3    3  502    0 -0.65403735489E+03  0.10299085678E+04  0.16191087134E+04  0.20273109149E+04  0.50400001928E-02 0.  1.
       -1    1    3    3    0  502  0.65403735489E+03 -0.10299085678E+04 -0.15741622139E+03  0.12301448640E+04  0.50400001928E-02 0. -1.
</event>
<event>
 5   0  0.1580212E-06  0.2854769E+04  0.7818609E-02  0.8286464E-01
        1   -1    0    0  501    0  0.00000000000E+00  0.00000000000E+00  0.20609881495E+04  0.20609881495E+04  0.50400001928E-02 0.  1.
       -1   -1    0    0    0  501  0.00000000000E+00  0.00000000000E+00 -0.98856793789E+03  0.98856793790E+03  0.50400001928E-02 0. -1.
    10030    2    1    2    0    0  0.00000000000E+00  0.00000000000E+00  0.10724202116E+04  0.30495560874E+04  0.28547692061E+04 0.  0.
        4    1    3    3  502    0  0.12283384733E+04 -0.90731818106E+01 -0.24039349855E+03  0.12516742286E+04  0.12699999809E+01 0. -1.
       -4    1    3    3    0  502 -0.12283384733E+04  0.90731818106E+01  0.13128137101E+04  0.17978818587E+04  0.12699999809E+01 0.  1.
</event>
<event>
 5   0  0.1543678E-06  0.2919486E+04  0.7818609E-02  0.8267103E-01
        1   -1    0    0  501    0  0.00000000000E+00  0.00000000000E+00  0.12066055966E+04  0.12066055966E+04  0.50400001928E-02 0.  1.
       -1   -1    0    0    0  501  0.00000000000E+00  0.00000000000E+00 -0.17659866007E+04  0.17659866007E+04  0.50400001928E-02 0. -1.
    10030    2    1    2    0    0  0.00000000000E+00  0.00000000000E+00 -0.55938100413E+03  0.29725921973E+04  0.29194857875E+04 0.  0.
        3    1    3    3  502    0  0.85594263645E+03 -0.11767286799E+04 -0.16129496185E+03  0.14640164815E+04  0.10100000352E+00 0.  1.
       -3    1    3    3    0  502 -0.85594263645E+03  0.11767286799E+04 -0.39808604228E+03  0.15085757158E+04  0.10100000352E+00 0. -1.
</event>
<event>
 5   0  0.1580212E-06  0.2891490E+04  0.7818609E-02  0.8275414E-01
        1   -1    0    0  501    0  0.00000000000E+00  0.00000000000E+00  0.13526454238E+04  0.13526454238E+04  0.50400001928E-02 0.  1.
       -1   -1    0    0    0  501  0.00000000000E+00  0.00000000000E+00 -0.15452526522E+04  0.15452526522E+04  0.50400001928E-02 0. -1.
    10030    2    1    2    0    0  0.00000000000E+00  0.00000000000E+00 -0.19260722847E+03  0.28978980760E+04  0.28914902238E+04 0.  0.
        4    1    3    3  502    0 -0.20321048651E+03  0.11398409856E+04 -0.96404298284E+03  0.15066228659E+04  0.12699999809E+01 0. -1.
       -4    1    3    3    0  502  0.20321048651E+03 -0.11398409856E+04  0.77143575437E+03  0.13912752101E+04  0.12699999809E+01 0.  1.
</event>
<event>
 5   0  0.4224163E-06  0.2893527E+04  0.7818609E-02  0.8274806E-01
       -2   -1    0    0    0  501  0.00000000000E+00  0.00000000000E+00  0.14922986618E+04  0.14922986618E+04  0.25500000920E-02 0. -1.
        2   -1    0    0  501    0  0.00000000000E+00  0.00000000000E+00 -0.14026180520E+04  0.14026180520E+04  0.25500000920E-02 0.  1.
    10030    2    1    2    0    0  0.00000000000E+00  0.00000000000E+00  0.89680609855E+02  0.28949167138E+04  0.28935272883E+04 0.  0.
        4    1    3    3  502    0 -0.13514800592E+04 -0.50835723120E+03  0.13542661348E+03  0.14502645984E+04  0.12699999809E+01 0.  1.
       -4    1    3    3    0  502  0.13514800592E+04  0.50835723120E+03 -0.45746003628E+02  0.14446521154E+04  0.12699999809E+01 0. -1.
</event>
<event>
 5   0  0.4162450E-06  0.2891138E+04  0.7818609E-02  0.8275519E-01
       -2   -1    0    0    0  501  0.00000000000E+00  0.00000000000E+00  0.10736063411E+04  0.10736063411E+04  0.25500000920E-02 0. -1.
        2   -1    0    0  501    0  0.00000000000E+00  0.00000000000E+00 -0.19464024913E+04  0.19464024913E+04  0.25500000920E-02 0.  1.
    10030    2    1    2    0    0  0.00000000000E+00  0.00000000000E+00 -0.87279615023E+03  0.30200088324E+04  0.28911382236E+04 0.  0.
        2    1    3    3  502    0 -0.61368778034E+02  0.11640968271E+04  0.45656485274E+03  0.12519341095E+04  0.25500000920E-02 0. -1.
       -2    1    3    3    0  502  0.61368778034E+02 -0.11640968271E+04 -0.13293610030E+04  0.17680747229E+04  0.25500000920E-02 0.  1.
</event>
<event>
 5   0  0.4148677E-06  0.2903187E+04  0.7818609E-02  0.8271930E-01
       -2   -1    0    0    0  501  0.00000000000E+00  0.00000000000E+00  0.11365278892E+04  0.11365278892E+04  0.25500000920E-02 0. -1.
        2   -1    0    0  501    0  0.00000000000E+00  0.00000000000E+00 -0.18540014030E+04  0.18540014030E+04  0.25500000920E-02 0.  1.
    10030    2    1    2    0    0  0.00000000000E+00  0.00000000000E+00 -0.71747351379E+03  0.29905292921E+04  0.29031874215E+04 0.  0.
        5    1    3    3  502    0  0.22708921243E+02 -0.11498188018E+04 -0.12711054144E+04  0.17141557796E+04  0.46999998093E+01 0.  1.
       -5    1    3    3    0  502 -0.22708921243E+02  0.11498188018E+04  0.55363190064E+03  0.12763735125E+04  0.46999998093E+01 0. -1.
</event>
<event>
 5   0  0.4187518E-06  0.2871802E+04  0.7818609E-02  0.8281317E-01
       -2   -1    0    0    0  501  0.00000000000E+00  0.00000000000E+00  0.13913911226E+04  0.13913911226E+04  0.25500000920E-02 0. -1.
        2   -1    0    0  501    0  0.00000000000E+00  0.00000000000E+00 -0.14818346405E+04  0.14818346405E+04  0.25500000920E-02 0.  1.
    10030    2    1    2    0    0  0.00000000000E+00  0.00000000000E+00 -0.90443517846E+02  0.28732257631E+04  0.28718019179E+04 0.  0.
        3    1    3    3  502    0  0.91173616514E+03 -0.63316456282E+03 -0.95652535535E+03  0.14652989333E+04  0.10100000352E+00 0.  1.
       -3    1    3    3    0  502 -0.91173616514E+03  0.63316456282E+03  0.86608183750E+03  0.14079268297E+04  0.10100000352E+00 0. -1.
</event>
<event>
 5   0  0.4115143E-06  0.2833431E+04  0.7818609E-02  0.8292964E-01
        2   -1    0    0  501    0  0.00000000000E+00  0.00000000000E+00  0.23774045051E+04  0.23774045051E+04  0.25500000920E-02 0. -1.
       -2   -1    0    0    0  501  0.00000000000E+00  0.00000000000E+00 -0.84423251965E+03  0.84423251965E+03  0.25500000920E-02 0.  1.
    10030    2    1    2    0    0  0.00000000000E+00  0.00000000000E+00  0.15331719854E+04  0.32216370247E+04  0.28334305677E+04 0.  0.
        1    1    3    3  502    0 -0.14010661056E+04  0.20998560253E+03  0.76497399654E+03  0.16100513659E+04  0.50400001928E-02 0. -1.
       -1    1    3    3    0  502  0.14010661056E+04 -0.20998560253E+03  0.76819798889E+03  0.16115856588E+04  0.50400001928E-02 0.  1.
</event>
<event>
 5   0  0.1543678E-06  0.3053409E+04  0.7818609E-02  0.8228642E-01
       -1   -1    0    0    0  501  0.00000000000E+00  0.00000000000E+00  0.87622892229E+03  0.87622892230E+03  0.50400001928E-02 0. -1.
        1   -1    0    0  501    0  0.00000000000E+00  0.00000000000E+00 -0.26600659986E+04  0.26600659986E+04  0.50400001928E-02 0.  1.
    10030    2    1    2    0    0  0.00000000000E+00  0.00000000000E+00 -0.17838370763E+04  0.35362949209E+04  0.30534090870E+04 0.  0.
        3    1    3    3  502    0  0.13086658903E+04  0.66084942608E+03 -0.39851773060E+03  0.15192579663E+04  0.10100000352E+00 0. -1.
       -3    1    3    3    0  502 -0.13086658903E+04 -0.66084942608E+03 -0.13853193457E+04  0.20170369546E+04  0.10100000352E+00 0.  1.
</event>
<event>
 5   0  0.1543678E-06  0.2911084E+04  0.7818609E-02  0.8269587E-01
       -1   -1    0    0    0  501  0.00000000000E+00  0.00000000000E+00  0.12311669478E+04  0.12311669478E+04  0.50400001928E-02 0.  1.
        1   -1    0    0  501    0  0.00000000000E+00  0.00000000000E+00 -0.17208086989E+04  0.17208086989E+04  0.50400001928E-02 0. -1.
    10030    2    1    2    0    0  0.00000000000E+00  0.00000000000E+00 -0.48964175110E+03  0.29519756468E+04  0.29110841923E+04 0.  0.
        3    1    3    3  502    0  0.12139359500E+04  0.71494055511E+03  0.12613498948E+03  0.14144576819E+04  0.10100000352E+00 0.  1.
       -3    1    3    3    0  502 -0.12139359500E+04 -0.71494055511E+03 -0.61577674058E+03  0.15375179649E+04  0.10100000352E+00 0. -1.
</event>
<event>
 5   0  0.4148677E-06  0.2913216E+04  0.7818609E-02  0.8268956E-01
        2   -1    0    0  501    0  0.00000000000E+00  0.00000000000E+00  0.23324668134E+04  0.23324668134E+04  0.25500000920E-02 0. -1.
       -2   -1    0    0    0  501  0.00000000000E+00  0.00000000000E+00 -0.90964105101E+03  0.90964105101E+03  0.25500000920E-02 0.  1.
    10030    2    1    2    0    0  0.00000000000E+00  0.00000000000E+00  0.14228257624E+04  0.32421078644E+04  0.29132164792E+04 0.  0.
        5    1    3    3  502    0  0.14491359480E+03 -0.14287639814E+04  0.98246427523E+03  0.17400070709E+04  0.46999998093E+01 0.  1.
       -5    1    3    3    0  502 -0.14491359480E+03  0.14287639814E+04  0.44036148718E+03  0.15021007936E+04  0.46999998093E+01 0. -1.
</event>
<event>
 5   0  0.1580212E-06  0.2895039E+04  0.7818609E-02  0.8274355E-01
       -1   -1    0    0    0  501  0.00000000000E+00  0.00000000000E+00  0.11254672138E+04  0.11254672138E+04  0.50400001928E-02 0.  1.
        1   -1    0    0  501    0  0.00000000000E+00  0.00000000000E+00 -0.18617275339E+04  0.18617275339E+04  0.50400001928E-02 0. -1.
    10030    2    1    2    0    0  0.00000000000E+00  0.00000000000E+00 -0.73626032012E+03  0.29871947477E+04  0.28950394128E+04 0.  0.
        4    1    3    3  502    0 -0.54394354772E+03  0.26495570611E+03 -0.17249935902E+04  0.18280264245E+04  0.12699999809E+01 0. -1.
       -4    1    3    3    0  502  0.54394354772E+03 -0.26495570611E+03  0.98873327011E+03  0.11591683233E+04  0.12699999809E+01 0.  1.
</event>
<event>
 5   0  0.4115143E-06  0.2896449E+04  0.7818609E-02  0.8273935E-01
        2   -1    0    0  501    0  0.00000000000E+00  0.00000000000E+00  0.19732876678E+04  0.19732876678E+04  0.25500000920E-02 0.  1.
       -2   -1    0    0    0  501  0.00000000000E+00  0.00000000000E+00 -0.10628732194E+04  0.10628732194E+04  0.25500000920E-02 0. -1.
    10030    2    1    2    0    0  0.00000000000E+00  0.00000000000E+00  0.91041444836E+03  0.30361608872E+04  0.28964492858E+04 0.  0.
        1    1    3    3  502    0  0.28090591249E+03 -0.14191090602E+04  0.38429845297E+03  0.14968179439E+04  0.50400001928E-02 0. -1.
       -1    1    3    3    0  502 -0.28090591249E+03  0.14191090602E+04  0.52611599539E+03  0.15393429433E+04  0.50400001928E-02 0.  1.
</event>
<event>
 5   0  0.4187518E-06  0.2903794E+04  0.7818609E-02  0.8271750E-01
       -2   -1    0    0    0  501  0.00000000000E+00  0.00000000000E+00  0.18181105691E+04  0.18181105691E+04  0.25500000920E-02 0. -1.
        2   -1    0    0  501    0  0.00000000000E+00  0.00000000000E+00 -0.11594482488E+04  0.11594482488E+04  0.25500000920E-02 0.  1.
    10030    2    1    2    0    0  0.00000000000E+00  0.00000000000E+00  0.65866232031E+03  0.29775588179E+04  0.29037941493E+04 0.  0.
        3    1    3    3  502    0  0.61695477879E+03 -0.85445276735E+03  0.13533397391E+04  0.17152991548E+04  0.10100000352E+00 0. -1.
       -3    1    3    3    0  502 -0.61695477879E+03  0.85445276735E+03 -0.69467741880E+03  0.12622596631E+04  0.10100000352E+00 0.  1.
</event>
<event>
 5   0  0.1543678E-06  0.2903024E+04  0.7818609E-02  0.8271978E-01
       -1   -1    0    0    0  501  0.00000000000E+00  0.00000000000E+00  0.14446873446E+04  0.14446873447E+04  0.50400001928E-02 0.  1.
        1   -1    0    0  501    0  0.00000000000E+00  0.00000000000E+00 -0.14583690393E+04  0.14583690393E+04  0.50400001928E-02 0. -1.
    10030    2    1    2    0    0  0.00000000000E+00  0.00000000000E+00 -0.13681694641E+02  0.29030563839E+04  0.29030241438E+04 0.  0.
        3    1    3    3  502    0 -0.23993080884E+03  0.41083341276E+03  0.13645008928E+04  0.14450652521E+04  0.10100000352E+00 0.  1.
       -3    1    3    3    0  502  0.23993080884E+03 -0.41083341276E+03 -0.13781825875E+04  0.14579911319E+04  0.10100000352E+00 0. -1.
</event>
<event>
 5   0  0.4187518E-06  0.2913418E+04  0.7818609E-02  0.8268896E-01
       -2   -1    0    0    0  501  0.00000000000E+00  0.00000000000E+00  0.19250799994E+04  0.19250799994E+04  0.25500000920E-02 0. -1.
        2   -1    0    0  501    0  0.00000000000E+00  0.00000000000E+00 -0.11022927808E+04  0.11022927808E+04  0.25500000920E-02 0.  1.
    10030    2    1    2    0    0  0.00000000000E+00  0.00000000000E+00  0.82278721860E+03  0.30273727802E+04  0.29134184635E+04 0.  0.
        3    1    3    3  502    0 -0.12792723755E+03  0.91199158944E+03  0.15842153865E+04  0.18324389317E+04  0.10100000352E+00 0. -1.
       -3    1    3    3    0  502  0.12792723755E+03 -0.91199158944E+03 -0.76142816792E+03  0.11949338485E+04  0.10100000352E+00 0.  1.
</event>
<event>
 5   0  0.4115143E-06  0.2906243E+04  0.7818609E-02  0.8271022E-01
        2   -1    0    0  501    0  0.00000000000E+00  0.00000000000E+00  0.14227363682E+04  0.14227363682E+04  0.25500000920E-02 0.  1.
       -2   -1    0    0    0  501  0.00000000000E+00  0.00000000000E+00 -0.14841554459E+04  0.14841554459E+04  0.25500000920E-02 0. -1.
    10030    2    1    2    0    0  0.00000000000E+00  0.00000000000E+00 -0.61419077774E+02  0.29068918141E+04  0.29062428866E+04 0.  0.
        1    1    3    3  502    0  0.47566410958E+03 -0.31657036873E+03 -0.13670800153E+04  0.14816817849E+04  0.50400001928E-02 0. -1.
       -1    1    3    3    0  502 -0.47566410958E+03  0.31657036873E+03  0.13056609375E+04  0.14252100292E+04  0.50400001928E-02 0.  1.
</event>
<event>
 5   0  0.1580212E-06  0.2897029E+04  0.7818609E-02  0.8273762E-01
       -1   -1    0    0    0  501  0.00000000000E+00  0.00000000000E+00  0.79803651583E+03  0.79803651584E+03  0.50400001928E-02 0.  1.
        1   -1    0    0  501    0  0.00000000000E+00  0.00000000000E+00 -0.26291964878E+04  0.26291964878E+04  0.50400001928E-02 0. -1.
    10030    2    1    2    0    0  0.00000000000E+00  0.00000000000E+00 -0.18311599719E+04  0.34272330036E+04  0.28970293782E+04 0.  0.
        4    1    3    3  502    0  0.13032091875E+04  0.18838216848E+03 -0.20149350253E+03  0.13320823068E+04  0.12699999809E+01 0.  1.
       -4    1    3    3    0  502 -0.13032091875E+04 -0.18838216848E+03 -0.16296664694E+04  0.20951506968E+04  0.12699999809E+01 0. -1.
</event>
<event>
 5   0  0.4224163E-06  0.2877656E+04  0.7818609E-02  0.8279557E-01
       -2   -1    0    0    0  501  0.00000000000E+00  0.00000000000E+00  0.13688675648E+04  0.13688675648E+04  0.25500000920E-02 0.  1.
        2   -1    0    0  501    0  0.00000000000E+00  0.00000000000E+00 -0.15123635907E+04  0.15123635907E+04  0.25500000920E-02 0. -1.
    10030    2    1    2    0    0  0.00000000000E+00  0.00000000000E+00 -0.14349602584E+03  0.28812311555E+04  0.28776556191E+04 0.  0.
        4    1    3    3  502    0  0.12619475651E+03  0.71862759271E+03 -0.13133989948E+04  0.15024544139E+04  0.12699999809E+01 0. -1.
       -4    1    3    3    0  502 -0.12619475651E+03 -0.71862759271E+03  0.11699029689E+04  0.13787767416E+04  0.12699999809E+01 0.  1.
</event>
<event>
 5   0  0.4162450E-06  0.2908852E+04  0.7818609E-02  0.8270248E-01
       -2   -1    0    0    0  501  0.00000000000E+00  0.00000000000E+00  0.14909840730E+04  0.14909840731E+04  0.25500000920E-02 0.  1.
        2   -1    0    0  501    0  0.00000000000E+00  0.00000000000E+00 -0.14187647588E+04  0.14187647588E+04  0.25500000920E-02 0. -1.
    10030    2    1    2    0    0  0.00000000000E+00  0.00000000000E+00  0.72219314257E+02  0.29097488318E+04  0.29088524602E+04 0.  0.
        2    1    3    3  502    0 -0.74383300445E+02  0.15747024954E+03 -0.14082971817E+04  0.14190245617E+04  0.25500000920E-02 0. -1.
       -2    1    3    3    0  502  0.74383300445E+02 -0.15747024954E+03  0.14805164959E+04  0.14907242701E+04  0.25500000920E-02 0.  1.
</event>
<event>
 5   0  0.1543678E-06  0.2929054E+04  0.7818609E-02  0.8264285E-01
       -1   -1    0    0    0  501  0.00000000000E+00  0.00000000000E+00  0.16182306859E+04  0.16182306859E+04  0.50400001928E-02 0.  1.
        1   -1    0    0  501    0  0.00000000000E+00  0.00000000000E+00 -0.13254228744E+04  0.13254228744E+04  0.50400001928E-02 0. -1.
    10030    2    1    2    0    0  0.00000000000E+00  0.00000000000E+00  0.29280781152E+03  0.29436535603E+04  0.29290544325E+04 0.  0.
        3    1    3    3  502    0  0.12913047589E+04  0.68143236054E+03  0.31721531734E+02  0.14604192234E+04  0.10100000352E+00 0.  1.
       -3    1    3    3    0  502 -0.12913047589E+04 -0.68143236054E+03  0.26108627979E+03  0.14832343369E+04  0.10100000352E+00 0. -1.
</event>
<event>
 5   0  0.1580212E-06  0.2908672E+04  0.7818609E-02  0.8270302E-01
       -1   -1    0    0    0  501  0.00000000000E+00  0.00000000000E+00  0.81231046930E+03  0.81231046932E+03  0.50400001928E-02 0.  1.
        1   -1    0    0  501    0  0.00000000000E+00  0.00000000000E+00 -0.26037995472E+04  0.26037995472E+04  0.50400001928E-02 0. -1.
    10030    2    1    2    0    0  0.00000000000E+00  0.00000000000E+00 -0.17914890779E+04  0.34161100165E+04  0.29086722965E+04 0.  0.
        4    1    3    3  502    0 -0.11283920163E+04  0.88258365548E+03 -0.60126353025E+03  0.15536221861E+04  0.12699999809E+01 0.  1.
       -4    1    3    3    0  502  0.11283920163E+04 -0.88258365548E+03 -0.11902255476E+04  0.18624878304E+04  0.12699999809E+01 0. -1.
</event>
<event>
 5   0  0.1511126E-06  0.2750217E+04  0.7818609E-02  0.8318893E-01
       -1   -1    0    0    0  501  0.00000000000E+00  0.00000000000E+00  0.12243993759E+04  0.12243993759E+04  0.50400001928E-02 0.  1.
        1   -1    0    0  501    0  0.00000000000E+00  0.00000000000E+00 -0.15443684655E+04  0.15443684656E+04  0.50400001928E-02 0. -1.
    10030    2    1    2    0    0  0.00000000000E+00  0.00000000000E+00 -0.31996908963E+03  0.27687678415E+04  0.27502172899E+04 0.  0.
        5    1    3    3  502    0 -0.10065044190E+04  0.65251560426E+03 -0.83688416207E+03  0.14626089532E+04  0.46999998093E+01 0.  1.
       -5    1    3    3    0  502  0.10065044190E+04 -0.65251560426E+03  0.51691507244E+03  0.13061588883E+04  0.46999998093E+01 0. -1.
</event>
<event>
 5   0  0.1580212E-06  0.2894258E+04  0.7818609E-02  0.8274588E-01
       -1   -1    0    0    0  501  0.00000000000E+00  0.00000000000E+00  0.12013157824E+04  0.12013157824E+04  0.50400001928E-02 0. -1.
        1   -1    0    0  501    0  0.00000000000E+00  0.00000000000E+00 -0.17432402883E+04  0.17432402883E+04  0.50400001928E-02 0.  1.
    10030    2    1    2    0    0  0.00000000000E+00  0.00000000000E+00 -0.54192450586E+03  0.29445560707E+04  0.28942578122E+04 0.  0.
        4    1    3    3  502    0  0.93882227354E+03  0.53980755965E+03 -0.12475402901E+04  0.16520102454E+04  0.12699999809E+01 0.  1.
       -4    1    3    3    0  502 -0.93882227354E+03 -0.53980755965E+03  0.70561578420E+03  0.12925458253E+04  0.12699999809E+01 0. -1.
</event>
<event>
 5   0  0.1602873E-06  0.2907323E+04  0.7818609E-02  0.8270702E-01
        1   -1    0    0  501    0  0.00000000000E+00  0.00000000000E+00  0.14236692968E+04  0.14236692969E+04  0.50400001928E-02 0.  1.
       -1   -1    0    0    0  501  0.00000000000E+00  0.00000000000E+00 -0.14842857866E+04  0.14842857866E+04  0.50400001928E-02 0. -1.
    10030    2    1    2    0    0  0.00000000000E+00  0.00000000000E+00 -0.60616489713E+02  0.29079550834E+04  0.29073232377E+04 0.  0.
        1    1    3    3  502    0 -0.75508690388E+03 -0.12328765623E+04  0.12135337234E+03  0.14508161466E+04  0.50400001928E-02 0.  1.
       -1    1    3    3    0  502  0.75508690388E+03  0.12328765623E+04 -0.18196986206E+03  0.14571389368E+04  0.50400001928E-02 0. -1.
</event>
<event>
 5   0  0.4148677E-06  0.2911105E+04  0.7818609E-02  0.8269581E-01
        2   -1    0    0  501    0  0.00000000000E+00  0.00000000000E+00  0.20380671753E+04  0.20380671753E+04  0.25500000920E-02 0. -1.
       -2   -1    0    0    0  501  0.00000000000E+00  0.00000000000E+00 -0.10395305962E+04  0.10395305962E+04  0.25500000920E-02 0.  1.
    10030    2    1    2    0    0  0.00000000000E+00  0.00000000000E+00  0.99853657909E+03  0.30775977716E+04  0.29111050726E+04 0.  0.
        5    1    3    3  502    0  0.44173850773E+03  0.12539967208E+04  0.11255781222E+04  0.17420071424E+04  0.46999998093E+01 0. -1.
       -5    1    3    3    0  502 -0.44173850773E+03 -0.12539967208E+04 -0.12704154315E+03  0.13355906292E+04  0.46999998093E+01 0.  1.
</event>
<event>
 5   0  0.1580212E-06  0.2891027E+04  0.7818609E-02  0.8275552E-01
       -1   -1    0    0    0  501  0.00000000000E+00  0.00000000000E+00  0.24434374468E+04  0.24434374468E+04  0.50400001928E-02 0. -1.
        1   -1    0    0  501    0  0.00000000000E+00  0.00000000000E+00 -0.85515168730E+03  0.85515168731E+03  0.50400001928E-02 0.  1.
    10030    2    1    2    0    0  0.00000000000E+00  0.00000000000E+00  0.15882857595E+04  0.32985891341E+04  0.28910272607E+04 0.  0.
        4    1    3    3  502    0 -0.22369281915E+03 -0.13754990478E+04  0.35598489932E+03  0.14383194949E+04  0.12699999809E+01 0.  1.
       -4    1    3    3    0  502  0.22369281915E+03  0.13754990478E+04  0.12323008602E+04  0.18602696393E+04  0.12699999809E+01 0. -1.
</event>
<event>
 5   0  0.1550278E-06  0.2935714E+04  0.7818609E-02  0.8262330E-01
        1   -1    0    0  501    0  0.00000000000E+00  0.00000000000E+00  0.14476987257E+04  0.14476987257E+04  0.50400001928E-02 0. -1.
       -1   -1    0    0    0  501  0.00000000000E+00  0.00000000000E+00 -0.14882961222E+04  0.14882961222E+04  0.50400001928E-02 0.  1.
    10030    2    1    2    0    0  0.00000000000E+00  0.00000000000E+00 -0.40597396530E+02  0.29359948479E+04  0.29357141548E+04 0.  0.
        2    1    3    3  502    0  0.14578904672E+03  0.82759449182E+03 -0.12239241813E+04  0.14846405257E+04  0.25500000920E-02 0.  1.
       -2    1    3    3    0  502 -0.14578904672E+03 -0.82759449182E+03  0.11833267848E+04  0.14513543222E+04  0.25500000920E-02 0. -1.
</event>
<event>
 5   0  0.4187518E-06  0.2892241E+04  0.7818609E-02  0.8275190E-01
       -2   -1    0    0    0  501  0.00000000000E+00  0.00000000000E+00  0.86627869082E+03  0.86627869082E+03  0.25500000920E-02 0.  1.
        2   -1    0    0  501    0  0.00000000000E+00  0.00000000000E+00 -0.24140781734E+04  0.24140781734E+04  0.25500000920E-02 0. -1.
    10030    2    1    2    0    0  0.00000000000E+00  0.00000000000E+00 -0.15477994826E+04  0.32803568642E+04  0.28922409855E+04 0.  0.
        3    1    3    3  502    0  0.67300229029E+03  0.12719007702E+04 -0.61110932163E+03  0.15633676040E+04  0.10100000352E+00 0.  1.
       -3    1    3    3    0  502 -0.67300229029E+03 -0.12719007702E+04 -0.93669016095E+03  0.17169892603E+04  0.10100000352E+00 0. -1.
</event>
<event>
 5   0  0.4187518E-06  0.2918586E+04  0.7818609E-02  0.8267369E-01
       -2   -1    0    0    0  501  0.00000000000E+00  0.00000000000E+00  0.17129362559E+04  0.17129362559E+04  0.25500000920E-02 0. -1.
        2   -1    0    0  501    0  0.00000000000E+00  0.00000000000E+00 -0.12432076089E+04  0.12432076089E+04  0.25500000920E-02 0.  1.
    10030    2    1    2    0    0  0.00000000000E+00  0.00000000000E+00  0.46972864703E+03  0.29561438648E+04  0.29185855388E+04 0.  0.
        3    1    3    3  502    0  0.55256810495E+03  0.55214882403E+03  0.14833397202E+04  0.16764535693E+04  0.10100000352E+00 0. -1.
       -3    1    3    3    0  502 -0.55256810495E+03 -0.55214882403E+03 -0.10136110731E+04  0.12796902954E+04  0.10100000352E+00 0.  1.
</event>
<event>
 5   0  0.1511126E-06  0.2885661E+04  0.7818609E-02  0.8277156E-01
       -1   -1    0    0    0  501  0.00000000000E+00  0.00000000000E+00  0.15710495293E+04  0.15710495294E+04  0.50400001928E-02 0. -1.
        1   -1    0    0  501    0  0.00000000000E+00  0.00000000000E+00 -0.13250763399E+04  0.13250763399E+04  0.50400001928E-02 0.  1.
    10030    2    1    2    0    0  0.00000000000E+00  0.00000000000E+00  0.24597318941E+03  0.28961258693E+04  0.28856614910E+04 0.  0.
        5    1    3    3  502    0  0.87658173046E+03 -0.25744838742E+03 -0.99778287673E+03  0.13528739636E+04  0.46999998093E+01 0.  1.
       -5    1    3    3    0  502 -0.87658173046E+03  0.25744838742E+03  0.12437560661E+04  0.15432519057E+04  0.46999998093E+01 0. -1.
</event>
<event>
 5   0  0.4148677E-06  0.2900870E+04  0.7818609E-02  0.8272619E-01
        2   -1    0    0  501    0  0.00000000000E+00  0.00000000000E+00  0.16099596947E+04  0.16099596947E+04  0.25500000920E-02 0. -1.
       -2   -1    0    0    0  501  0.00000000000E+00  0.00000000000E+00 -0.13067168277E+04  0.13067168277E+04  0.25500000920E-02 0.  1.
    10030    2    1    2    0    0  0.00000000000E+00  0.00000000000E+00  0.30324286707E+03  0.29166765224E+04  0.29008698178E+04 0.  0.
        5    1    3    3  502    0  0.94570923943E+03 -0.10076393417E+04 -0.29127435274E+03  0.14122909923E+04  0.46999998093E+01 0.  1.
       -5    1    3    3    0  502 -0.94570923943E+03  0.10076393417E+04  0.59451721981E+03  0.15043855301E+04  0.46999998093E+01 0. -1.
</event>
<event>
 5   0  0.4187518E-06  0.2929974E+04  0.7818609E-02  0.8264015E-01
       -2   -1    0    0    0  501  0.00000000000E+00  0.00000000000E+00  0.11124660816E+04  0.11124660816E+04  0.25500000920E-02 0.  1.
        2   -1    0    0  501    0  0.00000000000E+00  0.00000000000E+00 -0.19292151177E+04  0.19292151177E+04  0.25500000920E-02 0. -1.
    10030    2    1    2    0    0  0.00000000000E+00  0.00000000000E+00 -0.81674903610E+03  0.30416811993E+04  0.29299736399E+04 0.  0.
        3    1    3    3  502    0  0.14368092196E+04 -0.20380503273E+03 -0.61659353665E+03  0.15767513515E+04  0.10100000352E+00 0. -1.
       -3    1    3    3    0  502 -0.14368092196E+04  0.20380503273E+03 -0.20015549945E+03  0.14649298478E+04  0.10100000352E+00 0.  1.
</event>
<event>
 5   0  0.1543678E-06  0.2899395E+04  0.7818609E-02  0.8273058E-01
       -1   -1    0    0    0  501  0.00000000000E+00  0.00000000000E+00  0.13881796738E+04  0.13881796738E+04  0.50400001928E-02 0.  1.
        1   -1    0    0  501    0  0.00000000000E+00  0.00000000000E+00 -0.15139415064E+04  0.15139415064E+04  0.50400001928E-02 0. -1.
    10030    2    1    2    0    0  0.00000000000E+00  0.00000000000E+00 -0.12576183258E+03  0.29021211802E+04  0.28993949897E+04 0.  0.
        3    1    3    3  502    0  0.64514731467E+03  0.11617218980E+04  0.51715510500E+03  0.14259250467E+04  0.10100000352E+00 0. -1.
       -3    1    3    3    0  502 -0.64514731467E+03 -0.11617218980E+04 -0.64291693758E+03  0.14761961336E+04  0.10100000352E+00 0.  1.
</event>
<event>
 5   0  0.1543678E-06  0.2902747E+04  0.7818609E-02  0.8272061E-01
       -1   -1    0    0    0  501  0.00000000000E+00  0.00000000000E+00  0.14731676833E+04  0.14731676833E+04  0.50400001928E-02 0. -1.
        1   -1    0    0  501    0  0.00000000000E+00  0.00000000000E+00 -0.14299018639E+04  0.14299018639E+04  0.50400001928E-02 0.  1.
    10030    2    1    2    0    0  0.00000000000E+00  0.00000000000E+00  0.43265819368E+02  0.29030695472E+04  0.29027471238E+04 0.  0.
        3    1    3    3  502    0 -0.11402160428E+03 -0.13721478370E+04  0.48069870200E+03  0.14583764484E+04  0.10100000352E+00 0. -1.
       -3    1    3    3    0  502  0.11402160428E+03  0.13721478370E+04 -0.43743288263E+03  0.14446930988E+04  0.10100000352E+00 0.  1.
</event>
<event>
 5   0  0.1580212E-06  0.2904756E+04  0.7818609E-02  0.8271464E-01
       -1   -1    0    0    0  501  0.00000000000E+00  0.00000000000E+00  0.13607210073E+04  0.13607210073E+04  0.50400001928E-02 0.  1.
        1   -1    0    0  501    0  0.00000000000E+00  0.00000000000E+00 -0.15502086641E+04  0.15502086642E+04  0.50400001928E-02 0. -1.
    10030    2    1    2    0    0  0.00000000000E+00  0.00000000000E+00 -0.18948765686E+03  0.29109296714E+04  0.29047557522E+04 0.  0.
        4    1    3    3  502    0 -0.85697046873E+03  0.11412510728E+04  0.17517506077E+03  0.14378944017E+04  0.12699999809E+01 0. -1.
       -4    1    3    3    0  502  0.85697046873E+03 -0.11412510728E+04 -0.36466271763E+03  0.14730352698E+04  0.12699999809E+01 0.  1.
</event>
<event>
 5   0  0.4115143E-06  0.2900045E+04  0.7818609E-02  0.8272864E-01
       -2   -1    0    0    0  501  0.00000000000E+00  0.00000000000E+00  0.28117574911E+04  0.28117574911E+04  0.25500000920E-02 0.  1.
        2   -1    0    0  501    0  0.00000000000E+00  0.00000000000E+00 -0.74777608828E+03  0.74777608828E+03  0.25500000920E-02 0. -1.
    10030    2    1    2    0    0  0.00000000000E+00  0.00000000000E+00  0.20639814028E+04  0.35595335794E+04  0.29000448396E+04 0.  0.
        1    1    3    3  502    0 -0.14575237716E+03  0.21251952724E+03 -0.71944412678E+03  0.76420426359E+03  0.50400001928E-02 0. -1.
       -1    1    3    3    0  502  0.14575237716E+03 -0.21251952724E+03  0.27834255296E+04  0.27953293158E+04  0.50400001928E-02 0.  1.
</event>
<event>
 5   0  0.1550278E-06  0.2899082E+04  0.7818609E-02  0.8273151E-01
       -1   -1    0    0    0  501  0.00000000000E+00  0.00000000000E+00  0.13043065383E+04  0.13043065384E+04  0.50400001928E-02 0. -1.
        1   -1    0    0  501    0  0.00000000000E+00  0.00000000000E+00 -0.16109471265E+04  0.16109471265E+04  0.50400001928E-02 0.  1.
    10030    2    1    2    0    0  0.00000000000E+00  0.00000000000E+00 -0.30664058813E+03  0.29152536648E+04  0.28990818340E+04 0.  0.
        2    1    3    3  502    0 -0.99317332817E+03  0.25854463536E+03  0.87607474397E+03  0.13493500455E+04  0.25500000920E-02 0. -1.
       -2    1    3    3    0  502  0.99317332817E+03 -0.25854463536E+03 -0.11827153321E+04  0.15659036193E+04  0.25500000920E-02 0.  1.
</event>
<event>
 5   0  0.4162450E-06  0.2904072E+04  0.7818609E-02  0.8271667E-01
       -2   -1    0    0    0  501  0.00000000000E+00  0.00000000000E+00  0.14246980133E+04  0.14246980133E+04  0.25500000920E-02 0.  1.
        2   -1    0    0  501    0  0.00000000000E+00  0.00000000000E+00 -0.14798983481E+04  0.14798983481E+04  0.25500000920E-02 0. -1.
    10030    2    1    2    0    0  0.00000000000E+00  0.00000000000E+00 -0.55200334869E+02  0.29045963614E+04  0.29040717873E+04 0.  0.
        2    1    3    3  502    0  0.75918574329E+03 -0.18087635797E+02 -0.12654497107E+04  0.14758228639E+04  0.25500000920E-02 0. -1.
       -2    1    3    3    0  502 -0.75918574329E+03  0.18087635797E+02  0.12102493758E+04  0.14287734975E+04  0.25500000920E-02 0.  1.
</event>
<event>
 5   0  0.4187518E-06  0.2886106E+04  0.7818609E-02  0.8277023E-01
        2   -1    0    0  501    0  0.00000000000E+00  0.00000000000E+00  0.24288660652E+04  0.24288660652E+04  0.25500000920E-02 0.  1.
       -2   -1    0    0    0  501  0.00000000000E+00  0.00000000000E+00 -0.85735569709E+03  0.85735569710E+03  0.25500000920E-02 0. -1.
    10030    2    1    2    0    0  0.00000000000E+00  0.00000000000E+00  0.15715103681E+04  0.32862217623E+04  0.28861061370E+04 0.  0.
        3    1    3    3  502    0  0.63809762911E+03 -0.31212877600E+03  0.22160047013E+04  0.23270732269E+04  0.10100000352E+00 0.  1.
       -3    1    3    3    0  502 -0.63809762911E+03  0.31212877600E+03 -0.64449433323E+03  0.95914853534E+03  0.10100000352E+00 0. -1.
</event>
<event>
 5   0  0.1580212E-06  0.2884945E+04  0.7818609E-02  0.8277371E-01
       -1   -1    0    0    0  501  0.00000000000E+00  0.00000000000E+00  0.14309371033E+04  0.14309371033E+04  0.50400001928E-02 0.  1.
        1   -1    0    0  501    0  0.00000000000E+00  0.00000000000E+00 -0.14541009419E+04  0.14541009419E+04  0.50400001928E-02 0. -1.
    10030    2    1    2    0    0  0.00000000000E+00  0.00000000000E+00 -0.23163838630E+02  0.28850380452E+04  0.28849450530E+04 0.  0.
        4    1    3    3  502    0 -0.37422599907E+03 -0.49359915013E+02 -0.14038350689E+04  0.14536973595E+04  0.12699999809E+01 0. -1.
       -4    1    3    3    0  502  0.37422599907E+03  0.49359915013E+02  0.13806712302E+04  0.14313406857E+04  0.12699999809E+01 0.  1.
</event>
<event>
 5   0  0.1602873E-06  0.2901942E+04  0.7818609E-02  0.8272300E-01
       -1   -1    0    0    0  501  0.00000000000E+00  0.00000000000E+00  0.81563263952E+03  0.81563263953E+03  0.50400001928E-02 0. -1.
        1   -1    0    0  501    0  0.00000000000E+00  0.00000000000E+00 -0.25812067981E+04  0.25812067982E+04  0.50400001928E-02 0.  1.
    10030    2    1    2    0    0  0.00000000000E+00  0.00000000000E+00 -0.17655741586E+04  0.33968394377E+04  0.29019417733E+04 0.  0.
        1    1    3    3  502    0 -0.80480139025E+03  0.57913919847E+03 -0.21227914142E+04  0.23429363792E+04  0.50400001928E-02 0.  1.
       -1    1    3    3    0  502  0.80480139025E+03 -0.57913919847E+03  0.35721725555E+03  0.10539030585E+04  0.50400001928E-02 0. -1.
</event>
<event>
 5   0  0.4187518E-06  0.2912477E+04  0.7818609E-02  0.8269175E-01
       -2   -1    0    0    0  501  0.00000000000E+00  0.00000000000E+00  0.13115796273E+04  0.13115796273E+04  0.25500000920E-02 0. -1.
        2   -1    0    0  501    0  0.00000000000E+00  0.00000000000E+00 -0.16168521552E+04  0.16168521552E+04  0.25500000920E-02 0.  1.
    10030    2    1    2    0    0  0.00000000000E+00  0.00000000000E+00 -0.30527252788E+03  0.29284317825E+04  0.29124768477E+04 0.  0.
        3    1    3    3  502    0 -0.11934193189E+04  0.38686509741E+03 -0.89608931283E+03  0.15417166864E+04  0.10100000352E+00 0.  1.
       -3    1    3    3    0  502  0.11934193189E+04 -0.38686509741E+03  0.59081678494E+03  0.13867150961E+04  0.10100000352E+00 0. -1.
</event>
<event>
 5   0  0.4148677E-06  0.2901565E+04  0.7818609E-02  0.8272412E-01
       -2   -1    0    0    0  501  0.00000000000E+00  0.00000000000E+00  0.12260676157E+04  0.12260676157E+04  0.25500000920E-02 0.  1.
        2   -1    0    0  501    0  0.00000000000E+00  0.00000000000E+00 -0.17166837637E+04  0.17166837637E+04  0.25500000920E-02 0. -1.
    10030    2    1    2    0    0  0.00000000000E+00  0.00000000000E+00 -0.49061614797E+03  0.29427513794E+04  0.29015653493E+04 0.  0.
        5    1    3    3  502    0 -0.83736179234E+03 -0.38769804349E+01  0.95622705159E+03  0.12710554931E+04  0.46999998093E+01 0.  1.
       -5    1    3    3    0  502  0.83736179234E+03  0.38769804349E+01 -0.14468431996E+04  0.16716958863E+04  0.46999998093E+01 0. -1.
</event>
<event>
 5   0  0.1543678E-06  0.2897294E+04  0.7818609E-02  0.8273683E-01
       -1   -1    0    0    0  501  0.00000000000E+00  0.00000000000E+00  0.14684776756E+04  0.14684776756E+04  0.50400001928E-02 0.  1.
        1   -1    0    0  501    0  0.00000000000E+00  0.00000000000E+00 -0.14290840821E+04  0.14290840821E+04  0.50400001928E-02 0. -1.
    10030    2    1    2    0    0  0.00000000000E+00  0.00000000000E+00  0.39393593462E+02  0.28975617577E+04  0.28972939589E+04 0.  0.
        3    1    3    3  502    0  0.55719490948E+03  0.11719827997E+03 -0.13124835535E+04  0.14306693163E+04  0.10100000352E+00 0. -1.
       -3    1    3    3    0  502 -0.55719490948E+03 -0.11719827997E+03  0.13518771470E+04  0.14668924414E+04  0.10100000352E+00 0.  1.
</event>
<event>
 5   0  0.1580212E-06  0.3132810E+04  0.7818609E-02  0.8206791E-01
        1   -1    0    0  501    0  0.00000000000E+00  0.00000000000E+00  0.21747817765E+04  0.21747817765E+04  0.50400001928E-02 0. -1.
       -1   -1    0    0    0  501  0.00000000000E+00  0.00000000000E+00 -0.11282164130E+04  0.11282164130E+04  0.50400001928E-02 0.  1.
    10030    2    1    2    0    0  0.00000000000E+00  0.00000000000E+00  0.10465653635E+04  0.33029981896E+04  0.31328099176E+04 0.  0.
        4    1    3    3  502    0  0.65209758888E+03  0.82370988505E+03  0.17482487718E+04  0.20396334526E+04  0.12699999809E+01 0. -1.
       -4    1    3    3    0  502 -0.65209758888E+03 -0.82370988505E+03 -0.70168340827E+03  0.12633647369E+04  0.12699999809E+01 0.  1.
</event>
<event>
 5   0  0.1550278E-06  0.2906158E+04  0.7818609E-02  0.8271048E-01
       -1   -1    0    0    0  501  0.00000000000E+00  0.00000000000E+00  0.12320246385E+04  0.12320246385E+04  0.50400001928E-02 0. -1.
        1   -1    0    0  501    0  0.00000000000E+00  0.00000000000E+00 -0.17137962967E+04  0.17137962967E+04  0.50400001928E-02 0.  1.
    10030    2    1    2    0    0  0.00000000000E+00  0.00000000000E+00 -0.48177165816E+03  0.29458209352E+04  0.29061584698E+04 0.  0.
        2    1    3    3  502    0 -0.11018316690E+04 -0.35252054352E+03 -0.11321672638E+04  0.16186742951E+04  0.25500000920E-02 0.  1.
       -2    1    3    3    0  502  0.11018316690E+04  0.35252054352E+03  0.65039560565E+03  0.13271466401E+04  0.25500000920E-02 0. -1.
</event>
<event>
 5   0  0.4224163E-06  0.2868418E+04  0.7818609E-02  0.8282337E-01
       -2   -1    0    0    0  501  0.00000000000E+00  0.00000000000E+00  0.11701203959E+04  0.11701203959E+04  0.25500000920E-02 0. -1.
        2   -1    0    0  501    0  0.00000000000E+00  0.00000000000E+00 -0.17579001731E+04  0.17579001731E+04  0.25500000920E-02 0.  1.
    10030    2    1    2    0    0  0.00000000000E+00  0.00000000000E+00 -0.58777977722E+03  0.29280205689E+04  0.28684175752E+04 0.  0.
        4    1    3    3  502    0 -0.71078473583E+03 -0.81791203600E+03  0.66518523671E+03  0.12714826194E+04  0.12699999809E+01 0. -1.
       -4    1    3    3    0  502  0.71078473583E+03  0.81791203600E+03 -0.12529650139E+04  0.16565379496E+04  0.12699999809E+01 0.  1.
</event>
<event>
 5   0  0.1511126E-06  0.2896451E+04  0.7818609E-02  0.8273934E-01
       -1   -1    0    0    0  501  0.00000000000E+00  0.00000000000E+00  0.12805773412E+04  0.12805773412E+04  0.50400001928E-02 0. -1.
        1   -1    0    0  501    0  0.00000000000E+00  0.00000000000E+00 -0.16378215631E+04  0.16378215631E+04  0.50400001928E-02 0.  1.
    10030    2    1    2    0    0  0.00000000000E+00  0.00000000000E+00 -0.35724422188E+03  0.29183989043E+04  0.28964510579E+04 0.  0.
        5    1    3    3  502    0  0.10825794700E+04  0.49572521977E+03 -0.10092555118E+04  0.15608781440E+04  0.46999998093E+01 0.  1.
       -5    1    3    3    0  502 -0.10825794700E+04 -0.49572521977E+03  0.65201128995E+03  0.13575207603E+04  0.46999998093E+01 0. -1.
</event>
<event>
 5   0  0.4148677E-06  0.2805983E+04  0.7818609E-02  0.8301413E-01
        2   -1    0    0  501    0  0.00000000000E+00  0.00000000000E+00  0.18411654151E+04  0.18411654151E+04  0.25500000920E-02 0.  1.
       -2   -1    0    0    0  501  0.00000000000E+00  0.00000000000E+00 -0.10690974999E+04  0.10690974999E+04  0.25500000920E-02 0. -1.
    10030    2    1    2    0    0  0.00000000000E+00  0.00000000000E+00  0.77206791519E+03  0.29102629150E+04  0.28059831376E+04 0.  0.
        5    1    3    3  502    0  0.10785415437E+04  0.67339875372E+01 -0.54456577431E+03  0.12082512903E+04  0.46999998093E+01 0. -1.
       -5    1    3    3    0  502 -0.10785415437E+04 -0.67339875372E+01  0.13166336895E+04  0.17020116246E+04  0.46999998093E+01 0.  1.
</event>
<event>
 5   0  0.1550278E-06  0.2909113E+04  0.7818609E-02  0.8270171E-01
       -1   -1    0    0    0  501  0.00000000000E+00  0.00000000000E+00  0.16594072143E+04  0.16594072144E+04  0.50400001928E-02 0. -1.
        1   -1    0    0  501    0  0.00000000000E+00  0.00000000000E+00 -0.12749938440E+04  0.12749938440E+04  0.50400001928E-02 0.  1.
    10030    2    1    2    0    0  0.00000000000E+00  0.00000000000E+00  0.38441337036E+03  0.29344010583E+04  0.29091125678E+04 0.  0.
        2    1    3    3  502    0  0.10497512083E+04 -0.84466927455E+03  0.74495766855E+03  0.15396121949E+04  0.25500000920E-02 0. -1.
       -2    1    3    3    0  502 -0.10497512083E+04  0.84466927455E+03 -0.36054429819E+03  0.13947888635E+04  0.25500000920E-02 0.  1.
</event>
<event>
 5   0  0.4115143E-06  0.2910448E+04  0.7818609E-02  0.8269776E-01
       -2   -1    0    0    0  501  0.00000000000E+00  0.00000000000E+00  0.94254493896E+03  0.94254493897E+03  0.25500000920E-02 0. -1.
        2   -1    0    0  501    0  0.00000000000E+00  0.00000000000E+00 -0.22467654663E+04  0.22467654663E+04  0.25500000920E-02 0.  1.
    10030    2    1    2    0    0  0.00000000000E+00  0.00000000000E+00 -0.13042205274E+04  0.31893104053E+04  0.29104483636E+04 0.  0.
        1    1    3    3  502    0  0.12360462096E+03 -0.14460416866E+04 -0.53530060332E+03  0.15468876487E+04  0.50400001928E-02 0. -1.
       -1    1    3    3    0  502 -0.12360462096E+03  0.14460416866E+04 -0.76891992404E+03  0.16424227566E+04  0.50400001928E-02 0.  1.
</event>
<event>
 5   0  0.1511126E-06  0.3147894E+04  0.7818609E-02  0.8202715E-01
        1   -1    0    0  501    0  0.00000000000E+00  0.00000000000E+00  0.11369929522E+04  0.11369929522E+04  0.50400001928E-02 0.  1.
       -1   -1    0    0    0  501  0.00000000000E+00  0.00000000000E+00 -0.21788251138E+04  0.21788251138E+04  0.50400001928E-02 0. -1.
    10030    2    1    2    0    0  0.00000000000E+00  0.00000000000E+00 -0.10418321615E+04  0.33158180660E+04  0.31478937711E+04 0.  0.
        5    1    3    3  502    0 -0.15617696269E+04 -0.15697292317E+03 -0.39842948585E+03  0.16194236664E+04  0.46999998093E+01 0. -1.
       -5    1    3    3    0  502  0.15617696269E+04  0.15697292317E+03 -0.64340267567E+03  0.16963943996E+04  0.46999998093E+01 0.  1.
</event>
<event>
 5   0  0.1550278E-06  0.2911805E+04  0.7818609E-02  0.8269374E-01
       -1   -1    0    0    0  501  0.00000000000E+00  0.00000000000E+00  0.14912405311E+04  0.14912405311E+04  0.50400001928E-02 0. -1.
        1   -1    0    0  501    0  0.00000000000E+00  0.00000000000E+00 -0.14214017648E+04  0.14214017648E+04  0.50400001928E-02 0.  1.
    10030    2    1    2    0    0  0.00000000000E+00  0.00000000000E+00  0.69838766304E+02  0.29126422959E+04  0.29118048854E+04 0.  0.
        2    1    3    3  502    0  0.10287161087E+04  0.94249498260E+03 -0.38125110560E+03  0.14463422935E+04  0.25500000920E-02 0.  1.
       -2    1    3    3    0  502 -0.10287161087E+04 -0.94249498260E+03  0.45108987190E+03  0.14663000024E+04  0.25500000920E-02 0. -1.
</event>
<event>
 5   0  0.4162450E-06  0.2914526E+04  0.7818609E-02  0.8268569E-01
        2   -1    0    0  501    0  0.00000000000E+00  0.00000000000E+00  0.19404865532E+04  0.19404865532E+04  0.25500000920E-02 0. -1.
       -2   -1    0    0    0  501  0.00000000000E+00  0.00000000000E+00 -0.10943730302E+04  0.10943730302E+04  0.25500000920E-02 0.  1.
    10030    2    1    2    0    0  0.00000000000E+00  0.00000000000E+00  0.84611352298E+03  0.30348595834E+04  0.29145264791E+04 0.  0.
        2    1    3    3  502    0 -0.44599030528E+03  0.13836674617E+04  0.31803038700E+03  0.14881486229E+04  0.25500000920E-02 0.  1.
       -2    1    3    3    0  502  0.44599030528E+03 -0.13836674617E+04  0.52808313598E+03  0.15467109605E+04  0.25500000920E-02 0. -1.
</event>
<event>
 5   0  0.4162450E-06  0.2750785E+04  0.7818609E-02  0.8318713E-01
        2   -1    0    0  501    0  0.00000000000E+00  0.00000000000E+00  0.19871019904E+04  0.19871019904E+04  0.25500000920E-02 0.  1.
       -2   -1    0    0    0  501  0.00000000000E+00  0.00000000000E+00 -0.95199138703E+03  0.95199138704E+03  0.25500000920E-02 0. -1.
    10030    2    1    2    0    0  0.00000000000E+00  0.00000000000E+00  0.10351106033E+04  0.29390933774E+04  0.27507846008E+04 0.  0.
        2    1    3    3  502    0 -0.41205075020E+03 -0.12717342442E+04  0.17197915590E+03  0.13478392481E+04  0.25500000920E-02 0.  1.
       -2    1    3    3    0  502  0.41205075020E+03  0.12717342442E+04  0.86313144745E+03  0.15912541293E+04  0.25500000920E-02 0. -1.
</event>
<event>
 5   0  0.4224163E-06  0.2852423E+04  0.7818609E-02  0.8287176E-01
       -2   -1    0    0    0  501  0.00000000000E+00  0.00000000000E+00  0.13094864307E+04  0.13094864307E+04  0.25500000920E-02 0.  1.
        2   -1    0    0  501    0  0.00000000000E+00  0.00000000000E+00 -0.15533407523E+04  0.15533407523E+04  0.25500000920E-02 0. -1.
    10030    2    1    2    0    0  0.00000000000E+00  0.00000000000E+00 -0.24385432163E+03  0.28628271830E+04  0.28524225756E+04 0.  0.
        4    1    3    3  502    0 -0.11858413591E+04  0.58559259901E+03 -0.65767066371E+03  0.14770479802E+04  0.12699999809E+01 0. -1.
       -4    1    3    3    0  502  0.11858413591E+04 -0.58559259901E+03  0.41381634208E+03  0.13857792028E+04  0.12699999809E+01 0.  1.
</event>
<event>
 5   0  0.4162450E-06  0.2824700E+04  0.7818609E-02  0.8295641E-01
        2   -1    0    0  501    0  0.00000000000E+00  0.00000000000E+00  0.21656359030E+04  0.21656359030E+04  0.25500000920E-02 0. -1.
       -2   -1    0    0    0  501  0.00000000000E+00  0.00000000000E+00 -0.92108404709E+03  0.92108404709E+03  0.25500000920E-02 0.  1.
    10030    2    1    2    0    0  0.00000000000E+00  0.00000000000E+00  0.12445518559E+04  0.30867199501E+04  0.28247001130E+04 0.  0.
        2    1    3    3  502    0 -0.14518258958E+03  0.63968265542E+03  0.19890830218E+04  0.20944505608E+04  0.25500000920E-02 0. -1.
       -2    1    3    3    0  502  0.14518258958E+03 -0.63968265542E+03 -0.74453116589E+03  0.99226938930E+03  0.25500000920E-02 0.  1.
</event>
<event>
 5   0  0.4162450E-06  0.2872414E+04  0.7818609E-02  0.8281133E-01
       -2   -1    0    0    0  501  0.00000000000E+00  0.00000000000E+00  0.19532837090E+04  0.19532837090E+04  0.25500000920E-02 0.  1.
        2   -1    0    0  501    0  0.00000000000E+00  0.00000000000E+00 -0.10560120455E+04  0.10560120455E+04  0.25500000920E-02 0. -1.
    10030    2    1    2    0    0  0.00000000000E+00  0.00000000000E+00  0.89727166352E+03  0.30092957545E+04  0.28724144026E+04 0.  0.
        2    1    3    3  502    0  0.12794290678E+03  0.46325670824E+03 -0.96926782635E+03  0.10818762796E+04  0.25500000920E-02 0. -1.
       -2    1    3    3    0  502 -0.12794290678E+03 -0.46325670824E+03  0.18665394899E+04  0.19274194749E+04  0.25500000920E-02 0.  1.
</event>
<event>
 5   0  0.4187518E-06  0.2833276E+04  0.7818609E-02  0.8293011E-01
        2   -1    0    0  501    0  0.00000000000E+00  0.00000000000E+00  0.15894654976E+04  0.15894654976E+04  0.25500000920E-02 0. -1.
       -2   -1    0    0    0  501  0.00000000000E+00  0.00000000000E+00 -0.12626021725E+04  0.12626021725E+04  0.25500000920E-02 0.  1.
    10030    2    1    2    0    0  0.00000000000E+00  0.00000000000E+00  0.32686332510E+03  0.28520676701E+04  0.28332755534E+04 0.  0.
        3    1    3    3  502    0 -0.43777070889E+03 -0.32864804694E+03  0.14787003013E+04  0.15767711703E+04  0.10100000352E+00 0. -1.
       -3    1    3    3    0  502  0.43777070889E+03  0.32864804694E+03 -0.11518369762E+04  0.12752964997E+04  0.10100000352E+00 0.  1.
</event>
<event>
 5   0  0.1580212E-06  0.2928090E+04  0.7818609E-02  0.8264569E-01
        1   -1    0    0  501    0  0.00000000000E+00  0.00000000000E+00  0.23246873884E+04  0.23246873884E+04  0.50400001928E-02 0. -1.
       -1   -1    0    0    0  501  0.00000000000E+00  0.00000000000E+00 -0.92202837163E+03  0.92202837165E+03  0.50400001928E-02 0.  1.
    10030    2    1    2    0    0  0.00000000000E+00  0.00000000000E+00  0.14026590168E+04  0.32467157601E+04  0.29280899763E+04 0.  0.
        4    1    3    3  502    0  0.67706382437E+03  0.12795479266E+04  0.45898819790E+03  0.15186606261E+04  0.12699999809E+01 0.  1.
       -4    1    3    3    0  502 -0.67706382437E+03 -0.12795479266E+04  0.94367081891E+03  0.17280551340E+04  0.12699999809E+01 0. -1.
</event>
<event>
 5   0  0.1602873E-06  0.2884464E+04  0.7818609E-02  0.8277515E-01
        1   -1    0    0  501    0  0.00000000000E+00  0.00000000000E+00  0.10481839914E+04  0.10481839914E+04  0.50400001928E-02 0.  1.
       -1   -1    0    0    0  501  0.00000000000E+00  0.00000000000E+00 -0.19844163204E+04  0.19844163204E+04  0.50400001928E-02 0. -1.
    10030    2    1    2    0    0  0.00000000000E+00  0.00000000000E+00 -0.93623232902E+03  0.30326003118E+04  0.28844641923E+04 0.  0.
        1    1    3    3  502    0  0.33913494709E+03  0.26943871969E+03 -0.19144189097E+04  0.19628065360E+04  0.50400001928E-02 0. -1.
       -1    1    3    3    0  502 -0.33913494709E+03 -0.26943871969E+03  0.97818658067E+03  0.10697937757E+04  0.50400001928E-02 0.  1.
</event>
<event>
 5   0  0.1543678E-06  0.2884783E+04  0.7818609E-02  0.8277420E-01
       -1   -1    0    0    0  501  0.00000000000E+00  0.00000000000E+00  0.69544180901E+03  0.69544180903E+03  0.50400001928E-02 0. -1.
        1   -1    0    0  501    0  0.00000000000E+00  0.00000000000E+00 -0.29916127765E+04  0.29916127765E+04  0.50400001928E-02 0.  1.
    10030    2    1    2    0    0  0.00000000000E+00  0.00000000000E+00 -0.22961709675E+04  0.36870545855E+04  0.28847825576E+04 0.  0.
        3    1    3    3  502    0 -0.22552507381E+03 -0.36828471736E+03  0.61087536461E+03  0.74810688625E+03  0.10100000352E+00 0. -1.
       -3    1    3    3    0  502  0.22552507381E+03  0.36828471736E+03 -0.29070463321E+04  0.29389476993E+04  0.10100000352E+00 0.  1.
</event>
<event>
 5   0  0.1550278E-06  0.2888424E+04  0.7818609E-02  0.8276330E-01
        1   -1    0    0  501    0  0.00000000000E+00  0.00000000000E+00  0.14863731595E+04  0.14863731595E+04  0.50400001928E-02 0.  1.
       -1   -1    0    0    0  501  0.00000000000E+00  0.00000000000E+00 -0.14032465650E+04  0.14032465650E+04  0.50400001928E-02 0. -1.
    10030    2    1    2    0    0  0.00000000000E+00  0.00000000000E+00  0.83126594527E+02  0.28896197245E+04  0.28884238127E+04 0.  0.
        2    1    3    3  502    0 -0.79072851313E+03 -0.74872604103E+03 -0.90746310158E+03  0.14175089230E+04  0.25500000920E-02 0. -1.
       -2    1    3    3    0  502  0.79072851313E+03  0.74872604103E+03  0.99058969611E+03  0.14721108015E+04  0.25500000920E-02 0.  1.
</event>
<event>
 5   0  0.1543678E-06  0.2934921E+04  0.7818609E-02  0.8262563E-01
       -1   -1    0    0    0  501  0.00000000000E+00  0.00000000000E+00  0.80563550092E+03  0.80563550094E+03  0.50400001928E-02 0.  1.
        1   -1    0    0  501    0  0.00000000000E+00  0.00000000000E+00 -0.26729711067E+04  0.26729711067E+04  0.50400001928E-02 0. -1.
    10030    2    1    2    0    0  0.00000000000E+00  0.00000000000E+00 -0.18673356058E+04  0.34786066076E+04  0.29349210664E+04 0.  0.
        3    1    3    3  502    0 -0.43016501613E+03  0.77037940328E+03  0.45611414242E+03  0.99326053341E+03  0.10100000352E+00 0.  1.
       -3    1    3    3    0  502  0.43016501613E+03 -0.77037940328E+03 -0.23234497482E+04  0.24853460742E+04  0.10100000352E+00 0. -1.
</event>
<event>
 5   0  0.4224163E-06  0.2875740E+04  0.7818609E-02  0.8280132E-01
       -2   -1    0    0    0  501  0.00000000000E+00  0.00000000000E+00  0.21083276239E+04  0.21083276239E+04  0.25500000920E-02 0. -1.
        2   -1    0    0  501    0  0.00000000000E+00  0.00000000000E+00 -0.98062089588E+03  0.98062089589E+03  0.25500000920E-02 0.  1.
    10030    2    1    2    0    0  0.00000000000E+00  0.00000000000E+00  0.11277067280E+04  0.30889485197E+04  0.28757399906E+04 0.  0.
        4    1    3    3  502    0  0.12165682152E+04  0.51599947966E+03 -0.44886582504E+02  0.13222367804E+04  0.12699999809E+01 0. -1.
       -4    1    3    3    0  502 -0.12165682152E+04 -0.51599947966E+03  0.11725933105E+04  0.17667117393E+04  0.12699999809E+01 0.  1.
</event>
<event>
 5   0  0.4224163E-06  0.2906152E+04  0.7818609E-02  0.8271049E-01
       -2   -1    0    0    0  501  0.00000000000E+00  0.00000000000E+00  0.10247724705E+04  0.10247724705E+04  0.25500000920E-02 0.  1.
        2   -1    0    0  501    0  0.00000000000E+00  0.00000000000E+00 -0.20603888745E+04  0.20603888745E+04  0.25500000920E-02 0. -1.
    10030    2    1    2    0    0  0.00000000000E+00  0.00000000000E+00 -0.10356164041E+04  0.30851613450E+04  0.29061519555E+04 0.  0.
        4    1    3    3  502    0  0.10123611000E+04  0.68676905858E+03  0.31464977682E+03  0.12631440265E+04  0.12699999809E+01 0.  1.
       -4    1    3    3    0  502 -0.10123611000E+04 -0.68676905858E+03 -0.13502661809E+04  0.18220173185E+04  0.12699999809E+01 0. -1.
</event>
<event>
 5   0  0.4162450E-06  0.2894818E+04  0.7818609E-02  0.8274421E-01
        2   -1    0    0  501    0  0.00000000000E+00  0.00000000000E+00  0.22374138950E+04  0.22374138950E+04  0.25500000920E-02 0.  1.
       -2   -1    0    0    0  501  0.00000000000E+00  0.00000000000E+00 -0.93634595823E+03  0.93634595824E+03  0.25500000920E-02 0. -1.
    10030    2    1    2    0    0  0.00000000000E+00  0.00000000000E+00  0.13010679368E+04  0.31737598533E+04  0.28948184451E+04 0.  0.
        2    1    3    3  502    0  0.42498552387E+03 -0.43629157922E+03  0.20900787956E+04  0.21770145634E+04  0.25500000920E-02 0.  1.
       -2    1    3    3    0  502 -0.42498552387E+03  0.43629157922E+03 -0.78901085877E+03  0.99674528986E+03  0.25500000920E-02 0. -1.
</event>
<event>
 5   0  0.1602873E-06  0.2931984E+04  0.7818609E-02  0.8263424E-01
        1   -1    0    0  501    0  0.00000000000E+00  0.00000000000E+00  0.10969414848E+04  0.10969414848E+04  0.50400001928E-02 0.  1.
       -1   -1    0    0    0  501  0.00000000000E+00  0.00000000000E+00 -0.19592046589E+04  0.19592046589E+04  0.50400001928E-02 0. -1.
    10030    2    1    2    0    0  0.00000000000E+00  0.00000000000E+00 -0.86226317411E+03  0.30561461437E+04  0.29319842207E+04 0.  0.
        1    1    3    3  502    0  0.28393409239E+03 -0.65160402712E+03 -0.17675845754E+04  0.19051408368E+04  0.50400001928E-02 0. -1.
       -1    1    3    3    0  502 -0.28393409239E+03  0.65160402712E+03  0.90532140124E+03  0.11510053069E+04  0.50400001928E-02 0.  1.
</event>
<event>
 5   0  0.1543678E-06  0.2897003E+04  0.7818609E-02  0.8273770E-01
       -1   -1    0    0    0  501  0.00000000000E+00  0.00000000000E+00  0.86027882746E+03  0.86027882747E+03  0.50400001928E-02 0.  1.
        1   -1    0    0  501    0  0.00000000000E+00  0.00000000000E+00 -0.24389258271E+04  0.24389258271E+04  0.50400001928E-02 0. -1.
    10030    2    1    2    0    0  0.00000000000E+00  0.00000000000E+00 -0.15786469997E+04  0.32992046546E+04  0.28970027621E+04 0.  0.
        3    1    3    3  502    0 -0.47035971553E+02 -0.78949645320E+03 -0.21713250388E+04  0.23108806690E+04  0.10100000352E+00 0. -1.
       -3    1    3    3    0  502  0.47035971553E+02  0.78949645320E+03  0.59267803911E+03  0.98832398558E+03  0.10100000352E+00 0.  1.
</event>
<event>
 5   0  0.1580212E-06  0.2877737E+04  0.7818609E-02  0.8279532E-01
       -1   -1    0    0    0  501  0.00000000000E+00  0.00000000000E+00  0.91502308129E+03  0.91502308131E+03  0.50400001928E-02 0.  1.
        1   -1    0    0  501    0  0.00000000000E+00  0.00000000000E+00 -0.22626129958E+04  0.22626129958E+04  0.50400001928E-02 0. -1.
    10030    2    1    2    0    0  0.00000000000E+00  0.00000000000E+00 -0.13475899145E+04  0.31776360772E+04  0.28777373857E+04 0.  0.
        4    1    3    3  502    0  0.43175392352E+03 -0.11132315698E+03 -0.21844045262E+04  0.22294459048E+04  0.12699999809E+01 0. -1.
       -4    1    3    3    0  502 -0.43175392352E+03  0.11132315698E+03  0.83681461162E+03  0.94819017232E+03  0.12699999809E+01 0.  1.
</event>
<event>
 5   0  0.1580212E-06  0.2901203E+04  0.7818609E-02  0.8272520E-01
        1   -1    0    0  501    0  0.00000000000E+00  0.00000000000E+00  0.22776681641E+04  0.22776681641E+04  0.50400001928E-02 0.  1.
       -1   -1    0    0    0  501  0.00000000000E+00  0.00000000000E+00 -0.92385914801E+03  0.92385914803E+03  0.50400001928E-02 0. -1.
    10030    2    1    2    0    0  0.00000000000E+00  0.00000000000E+00  0.13538090160E+04  0.32015273121E+04  0.29012029019E+04 0.  0.
        4    1    3    3  502    0  0.13650808217E+04 -0.47845836226E+03  0.79715701354E+03  0.16516140503E+04  0.12699999809E+01 0.  1.
       -4    1    3    3    0  502 -0.13650808217E+04  0.47845836226E+03  0.55665200251E+03  0.15499132617E+04  0.12699999809E+01 0. -1.
</event>
<event>
 5   0  0.4115143E-06  0.2929778E+04  0.7818609E-02  0.8264072E-01
        2   -1    0    0  501    0  0.00000000000E+00  0.00000000000E+00  0.19690259179E+04  0.19690259179E+04  0.25500000920E-02 0.  1.
       -2   -1    0    0    0  501  0.00000000000E+00  0.00000000000E+00 -0.10898280401E+04  0.10898280401E+04  0.25500000920E-02 0. -1.
    10030    2    1    2    0    0  0.00000000000E+00  0.00000000000E+00  0.87919787778E+03  0.30588539581E+04  0.29297779145E+04 0.  0.
        1    1    3    3  502    0  0.10794917488E+04 -0.21791473674E+02  0.14732267562E+04  0.18265197451E+04  0.50400001928E-02 0.  1.
       -1    1    3    3    0  502 -0.10794917488E+04  0.21791473674E+02 -0.59402887841E+03  0.12323342130E+04  0.50400001928E-02 0. -1.
</event>
<event>
 5   0  0.4162450E-06  0.2901474E+04  0.7818609E-02  0.8272439E-01
       -2   -1    0    0    0  501  0.00000000000E+00  0.00000000000E+00  0.15599244470E+04  0.15599244470E+04  0.25500000920E-02 0. -1.
        2   -1    0    0  501    0  0.00000000000E+00  0.00000000000E+00 -0.13491925539E+04  0.13491925539E+04  0.25500000920E-02 0.  1.
    10030    2    1    2    0    0  0.00000000000E+00  0.00000000000E+00  0.21073189312E+03  0.29091170009E+04  0.29014744173E+04 0.  0.
        2    1    3    3  502    0  0.66641379530E+03 -0.70495308051E+03  0.11868973183E+04  0.15329029443E+04  0.25500000920E-02 0. -1.
       -2    1    3    3    0  502 -0.66641379530E+03  0.70495308051E+03 -0.97616542521E+03  0.13762140566E+04  0.25500000920E-02 0.  1.
</event>
<event>
 5   0  0.4187518E-06  0.2537357E+04  0.7818609E-02  0.8389796E-01
        2   -1    0    0  501    0  0.00000000000E+00  0.00000000000E+00  0.13006862151E+04  0.13006862151E+04  0.25500000920E-02 0.  1.
       -2   -1    0    0    0  501  0.00000000000E+00  0.00000000000E+00 -0.12374584999E+04  0.12374584999E+04  0.25500000920E-02 0. -1.
    10030    2    1    2    0    0  0.00000000000E+00  0.00000000000E+00  0.63227715199E+02  0.25381447150E+04  0.25373570601E+04 0.  0.
        3    1    3    3  502    0 -0.11993087030E+04  0.37239155852E+03 -0.14879834448E+03  0.12645781097E+04  0.10100000352E+00 0. -1.
       -3    1    3    3    0  502  0.11993087030E+04 -0.37239155852E+03  0.21202605968E+03  0.12735666053E+04  0.10100000352E+00 0.  1.
</event>
<event>
 5   0  0.4148677E-06  0.2883393E+04  0.7818609E-02  0.8277836E-01
       -2   -1    0    0    0  501  0.00000000000E+00  0.00000000000E+00  0.10506756316E+04  0.10506756316E+04  0.25500000920E-02 0.  1.
        2   -1    0    0  501    0  0.00000000000E+00  0.00000000000E+00 -0.19782400297E+04  0.19782400297E+04  0.25500000920E-02 0. -1.
    10030    2    1    2    0    0  0.00000000000E+00  0.00000000000E+00 -0.92756439804E+03  0.30289156613E+04  0.28833928575E+04 0.  0.
        5    1    3    3  502    0  0.84868528848E+03 -0.51300667417E+03  0.63546449641E+03  0.11778284182E+04  0.46999998093E+01 0.  1.
       -5    1    3    3    0  502 -0.84868528848E+03  0.51300667417E+03 -0.15630288945E+04  0.18510872431E+04  0.46999998093E+01 0. -1.
</event>
<event>
 5   0  0.1511126E-06  0.2940066E+04  0.7818609E-02  0.8261055E-01
        1   -1    0    0  501    0  0.00000000000E+00  0.00000000000E+00  0.80895178573E+03  0.80895178575E+03  0.50400001928E-02 0. -1.
       -1   -1    0    0    0  501  0.00000000000E+00  0.00000000000E+00 -0.26713551188E+04  0.26713551188E+04  0.50400001928E-02 0.  1.
    10030    2    1    2    0    0  0.00000000000E+00  0.00000000000E+00 -0.18624033331E+04  0.34803069046E+04  0.29400663215E+04 0.  0.
        5    1    3    3  502    0 -0.40440034815E+03 -0.72466482171E+03 -0.23675443915E+04  0.25087780454E+04  0.46999998093E+01 0.  1.
       -5    1    3    3    0  502  0.40440034815E+03  0.72466482171E+03  0.50514105837E+03  0.97152885920E+03  0.46999998093E+01 0. -1.
</event>
<event>
 5   0  0.1550278E-06  0.2908233E+04  0.7818609E-02  0.8270432E-01
        1   -1    0    0  501    0  0.00000000000E+00  0.00000000000E+00  0.22817129189E+04  0.22817129189E+04  0.50400001928E-02 0.  1.
       -1   -1    0    0    0  501  0.00000000000E+00  0.00000000000E+00 -0.92669639856E+03  0.92669639858E+03  0.50400001928E-02 0. -1.
    10030    2    1    2    0    0  0.00000000000E+00  0.00000000000E+00  0.13550165203E+04  0.32084093175E+04  0.29082332400E+04 0.  0.
        2    1    3    3  502    0  0.16915666246E+03  0.38112833830E+03 -0.85932437502E+03  0.95514981455E+03  0.25500000920E-02 0. -1.
       -2    1    3    3    0  502 -0.16915666246E+03 -0.38112833830E+03  0.22143408953E+04  0.22532595029E+04  0.25500000920E-02 0.  1.
</event>
<event>
 5   0  0.1511126E-06  0.2809141E+04  0.7818609E-02  0.8300436E-01
       -1   -1    0    0    0  501  0.00000000000E+00  0.00000000000E+00  0.20476202875E+04  0.20476202875E+04  0.50400001928E-02 0. -1.
        1   -1    0    0  501    0  0.00000000000E+00  0.00000000000E+00 -0.96346869145E+03  0.96346869146E+03  0.50400001928E-02 0.  1.
    10030    2    1    2    0    0  0.00000000000E+00  0.00000000000E+00  0.10841515961E+04  0.30110889790E+04  0.28091408217E+04 0.  0.
        5    1    3    3  502    0  0.59382330550E+03  0.19477484783E+02  0.19062803573E+04  0.19967304227E+04  0.46999998093E+01 0. -1.
       -5    1    3    3    0  502 -0.59382330550E+03 -0.19477484783E+02 -0.82212876122E+03  0.10143585562E+04  0.46999998093E+01 0.  1.
</event>
<event>
 5   0  0.4162450E-06  0.2859614E+04  0.7818609E-02  0.8284996E-01
        2   -1    0    0  501    0  0.00000000000E+00  0.00000000000E+00  0.17276226491E+04  0.17276226491E+04  0.25500000920E-02 0.  1.
       -2   -1    0    0    0  501  0.00000000000E+00  0.00000000000E+00 -0.11833304118E+04  0.11833304118E+04  0.25500000920E-02 0. -1.
    10030    2    1    2    0    0  0.00000000000E+00  0.00000000000E+00  0.54429223730E+03  0.29109530609E+04  0.28596142542E+04 0.  0.
        2    1    3    3  502    0  0.10053529025E+04  0.69518710346E+03  0.10273059675E+04  0.15966768985E+04  0.25500000920E-02 0.  1.
       -2    1    3    3    0  502 -0.10053529025E+04 -0.69518710346E+03 -0.48301373021E+03  0.13142761624E+04  0.25500000920E-02 0. -1.
</event>
<event>
 5   0  0.4115143E-06  0.2827439E+04  0.7818609E-02  0.8294800E-01
        2   -1    0    0  501    0  0.00000000000E+00  0.00000000000E+00  0.10814142364E+04  0.10814142364E+04  0.25500000920E-02 0.  1.
       -2   -1    0    0    0  501  0.00000000000E+00  0.00000000000E+00 -0.18481375472E+04  0.18481375472E+04  0.25500000920E-02 0. -1.
    10030    2    1    2    0    0  0.00000000000E+00  0.00000000000E+00 -0.76672331076E+03  0.29295517837E+04  0.28274385967E+04 0.  0.
        1    1    3    3  502    0 -0.26290598879E+03 -0.14924710335E+03  0.10475309081E+04  0.10902821929E+04  0.50400001928E-02 0.  1.
       -1    1    3    3    0  502  0.26290598879E+03  0.14924710335E+03 -0.18142542188E+04  0.18392695907E+04  0.50400001928E-02 0. -1.
</event>
<event>
 5   0  0.4115143E-06  0.2897970E+04  0.7818609E-02  0.8273482E-01
       -2   -1    0    0    0  501  0.00000000000E+00  0.00000000000E+00  0.10128818295E+04  0.10128818295E+04  0.25500000920E-02 0. -1.
        2   -1    0    0  501    0  0.00000000000E+00  0.00000000000E+00 -0.20728546554E+04  0.20728546554E+04  0.25500000920E-02 0.  1.
    10030    2    1    2    0    0  0.00000000000E+00  0.00000000000E+00 -0.10599728259E+04  0.30857364850E+04  0.28979695069E+04 0.  0.
        1    1    3    3  502    0  0.39952639478E+03  0.13917527316E+04 -0.47205729527E+03  0.15229691711E+04  0.50400001928E-02 0.  1.
       -1    1    3    3    0  502 -0.39952639478E+03 -0.13917527316E+04 -0.58791553063E+03  0.15627673139E+04  0.50400001928E-02 0. -1.
</event>
<event>
 5   0  0.4187518E-06  0.2914337E+04  0.7818609E-02  0.8268625E-01
        2   -1    0    0  501    0  0.00000000000E+00  0.00000000000E+00  0.13007228609E+04  0.13007228609E+04  0.25500000920E-02 0.  1.
       -2   -1    0    0    0  501  0.00000000000E+00  0.00000000000E+00 -0.16324306216E+04  0.16324306216E+04  0.25500000920E-02 0. -1.
    10030    2    1    2    0    0  0.00000000000E+00  0.00000000000E+00 -0.33170776074E+03  0.29331534825E+04  0.29143368565E+04 0.  0.
        3    1    3    3  502    0  0.10366998040E+04 -0.91262844152E+03 -0.63329056481E+03  0.15194387469E+04  0.10100000352E+00 0. -1.
       -3    1    3    3    0  502 -0.10366998040E+04  0.91262844152E+03  0.30158280407E+03  0.14137147356E+04  0.10100000352E+00 0.  1.
</event>
<event>
 5   0  0.1580212E-06  0.2903133E+04  0.7818609E-02  0.8271946E-01
        1   -1    0    0  501    0  0.00000000000E+00  0.00000000000E+00  0.11316619547E+04  0.11316619547E+04  0.50400001928E-02 0. -1.
       -1   -1    0    0    0  501  0.00000000000E+00  0.00000000000E+00 -0.18619034267E+04  0.18619034267E+04  0.50400001928E-02 0.  1.
    10030    2    1    2    0    0  0.00000000000E+00  0.00000000000E+00 -0.73024147201E+03  0.29935653814E+04  0.29031329775E+04 0.  0.
        4    1    3    3  502    0 -0.31763265557E+03 -0.10238607751E+04 -0.13743116962E+04  0.17429617442E+04  0.12699999809E+01 0.  1.
       -4    1    3    3    0  502  0.31763265557E+03  0.10238607751E+04  0.64407022422E+03  0.12506036371E+04  0.12699999809E+01 0. -1.
</event>
<event>
 5   0  0.4187518E-06  0.2929139E+04  0.7818609E-02  0.8264260E-01
        2   -1    0    0  501    0  0.00000000000E+00  0.00000000000E+00  0.17466491422E+04  0.17466491422E+04  0.25500000920E-02 0.  1.
       -2   -1    0    0    0  501  0.00000000000E+00  0.00000000000E+00 -0.12280448804E+04  0.12280448804E+04  0.25500000920E-02 0. -1.
    10030    2    1    2    0    0  0.00000000000E+00  0.00000000000E+00  0.51860426180E+03  0.29746940226E+04  0.29291388065E+04 0.  0.
        3    1    3    3  502    0 -0.42130101062E+03  0.57343400146E+03 -0.10407011440E+04  0.12607061421E+04  0.10100000352E+00 0. -1.
       -3    1    3    3    0  502  0.42130101062E+03 -0.57343400146E+03  0.15593054058E+04  0.17139878804E+04  0.10100000352E+00 0.  1.
</event>
<event>
 5   0  0.1550278E-06  0.2911199E+04  0.7818609E-02  0.8269553E-01
        1   -1    0    0  501    0  0.00000000000E+00  0.00000000000E+00  0.12033033979E+04  0.12033033979E+04  0.50400001928E-02 0. -1.
       -1   -1    0    0    0  501  0.00000000000E+00  0.00000000000E+00 -0.17607942225E+04  0.17607942225E+04  0.50400001928E-02 0.  1.
    10030    2    1    2    0    0  0.00000000000E+00  0.00000000000E+00 -0.55749082457E+03  0.29640976204E+04  0.29111988396E+04 0.  0.
        2    1    3    3  502    0 -0.12910915186E+04  0.66655812981E+03 -0.19026044694E+03  0.14654064581E+04  0.25500000920E-02 0. -1.
       -2    1    3    3    0  502  0.12910915186E+04 -0.66655812981E+03 -0.36723037763E+03  0.14986911623E+04  0.25500000920E-02 0.  1.
</event>
<event>
 5   0  0.1360125E-06  0.2887702E+04  0.7818609E-02  0.8276546E-01
       -4   -1    0    0    0  501  0.00000000000E+00  0.00000000000E+00  0.14254601120E+04  0.14254606777E+04  0.12699999809E+01 0.  1.
        4   -1    0    0  501    0  0.00000000000E+00  0.00000000000E+00 -0.14624782177E+04  0.14624787691E+04  0.12699999809E+01 0. -1.
    10030    2    1    2    0    0  0.00000000000E+00  0.00000000000E+00 -0.37018105729E+02  0.28879394468E+04  0.28877021849E+04 0.  0.
        3    1    3    3  502    0 -0.72506775298E+03 -0.17899590235E+03  0.12172879021E+04  0.14281290650E+04  0.10100000352E+00 0.  1.
       -3    1    3    3    0  502  0.72506775298E+03  0.17899590235E+03 -0.12543060078E+04  0.14598103819E+04  0.10100000352E+00 0. -1.
</event>
<event>
 5   0  0.4187518E-06  0.2851792E+04  0.7818609E-02  0.8287367E-01
        2   -1    0    0  501    0  0.00000000000E+00  0.00000000000E+00  0.19520135662E+04  0.19520135662E+04  0.25500000920E-02 0. -1.
       -2   -1    0    0    0  501  0.00000000000E+00  0.00000000000E+00 -0.10415802631E+04  0.10415802631E+04  0.25500000920E-02 0.  1.
    10030    2    1    2    0    0  0.00000000000E+00  0.00000000000E+00  0.91043330315E+03  0.29935938293E+04  0.28517915799E+04 0.  0.
        3    1    3    3  502    0 -0.85178446313E+03  0.49351431011E+02 -0.74404707922E+03  0.11320681966E+04  0.10100000352E+00 0.  1.
       -3    1    3    3    0  502  0.85178446313E+03 -0.49351431011E+02  0.16544803824E+04  0.18615256327E+04  0.10100000352E+00 0. -1.
</event>
<event>
 5   0  0.1550278E-06  0.2896940E+04  0.7818609E-02  0.8273788E-01
       -1   -1    0    0    0  501  0.00000000000E+00  0.00000000000E+00  0.16812753582E+04  0.16812753582E+04  0.50400001928E-02 0.  1.
        1   -1    0    0  501    0  0.00000000000E+00  0.00000000000E+00 -0.12479014869E+04  0.12479014869E+04  0.50400001928E-02 0. -1.
    10030    2    1    2    0    0  0.00000000000E+00  0.00000000000E+00  0.43337387133E+03  0.29291768451E+04  0.28969404684E+04 0.  0.
        2    1    3    3  502    0  0.10588885672E+03  0.14400875889E+04  0.10139484766E+03  0.14475308732E+04  0.25500000920E-02 0.  1.
       -2    1    3    3    0  502 -0.10588885672E+03 -0.14400875889E+04  0.33197902366E+03  0.14816459719E+04  0.25500000920E-02 0. -1.
</event>
<event>
 5   0  0.1550278E-06  0.2839467E+04  0.7818609E-02  0.8291119E-01
        1   -1    0    0  501    0  0.00000000000E+00  0.00000000000E+00  0.11612245879E+04  0.11612245879E+04  0.50400001928E-02 0.  1.
       -1   -1    0    0    0  501  0.00000000000E+00  0.00000000000E+00 -0.17357909421E+04  0.17357909421E+04  0.50400001928E-02 0. -1.
    10030    2    1    2    0    0  0.00000000000E+00  0.00000000000E+00 -0.57456635419E+03  0.28970155300E+04  0.28394669369E+04 0.  0.
        2    1    3    3  502    0 -0.11927104604E+03 -0.95925410961E+03  0.77362277304E+03  0.12380978250E+04  0.25500000920E-02 0.  1.
       -2    1    3    3    0  502  0.11927104604E+03  0.95925410961E+03 -0.13481891272E+04  0.16589177050E+04  0.25500000920E-02 0. -1.
</event>
<event>
 5   0  0.1360125E-06  0.2921792E+04  0.7818609E-02  0.8266423E-01
       -3   -1    0    0    0  501  0.00000000000E+00  0.00000000000E+00  0.94777158384E+03  0.94777158922E+03  0.10100000352E+00 0.  1.
        3   -1    0    0  501    0  0.00000000000E+00  0.00000000000E+00 -0.22518260560E+04  0.22518260582E+04  0.10100000352E+00 0. -1.
    10030    2    1    2    0    0  0.00000000000E+00  0.00000000000E+00 -0.13040544721E+04  0.31995976475E+04  0.29217917515E+04 0.  0.
        1    1    3    3  502    0  0.57419470824E+03  0.23814078138E+03 -0.20997744690E+04  0.21898546563E+04  0.50400001928E-02 0. -1.
       -1    1    3    3    0  502 -0.57419470824E+03 -0.23814078138E+03  0.79571999691E+03  0.10097429912E+04  0.50400001928E-02 0.  1.
</event>
<event>
 5   0  0.4162450E-06  0.2873484E+04  0.7818609E-02  0.8280811E-01
       -2   -1    0    0    0  501  0.00000000000E+00  0.00000000000E+00  0.10759974229E+04  0.10759974229E+04  0.25500000920E-02 0. -1.
        2   -1    0    0  501    0  0.00000000000E+00  0.00000000000E+00 -0.19184322604E+04  0.19184322604E+04  0.25500000920E-02 0.  1.
    10030    2    1    2    0    0  0.00000000000E+00  0.00000000000E+00 -0.84243483755E+03  0.29944296833E+04  0.28734844132E+04 0.  0.
        2    1    3    3  502    0 -0.30910442925E+03 -0.20860263784E+03  0.10246868535E+04  0.10904328299E+04  0.25500000920E-02 0. -1.
       -2    1    3    3    0  502  0.30910442925E+03  0.20860263784E+03 -0.18671216911E+04  0.19039968534E+04  0.25500000920E-02 0.  1.
</event>
<event>
 5   0  0.4162450E-06  0.2900669E+04  0.7818609E-02  0.8272678E-01
        2   -1    0    0  501    0  0.00000000000E+00  0.00000000000E+00  0.18334750452E+04  0.18334750452E+04  0.25500000920E-02 0. -1.
       -2   -1    0    0    0  501  0.00000000000E+00  0.00000000000E+00 -0.11472587295E+04  0.11472587295E+04  0.25500000920E-02 0.  1.
    10030    2    1    2    0    0  0.00000000000E+00  0.00000000000E+00  0.68621631568E+03  0.29807337747E+04  0.29006690614E+04 0.  0.
        2    1    3    3  502    0  0.12818909473E+04  0.59752286423E+00  0.10402326509E+04  0.16508569671E+04  0.25500000920E-02 0. -1.
       -2    1    3    3    0  502 -0.12818909473E+04 -0.59752286423E+00 -0.35401633518E+03  0.13298768076E+04  0.25500000920E-02 0.  1.
</event>
<event>
 5   0  0.1543678E-06  0.2903841E+04  0.7818609E-02  0.8271736E-01
       -1   -1    0    0    0  501  0.00000000000E+00  0.00000000000E+00  0.14383085515E+04  0.14383085516E+04  0.50400001928E-02 0.  1.
        1   -1    0    0  501    0  0.00000000000E+00  0.00000000000E+00 -0.14656614430E+04  0.14656614430E+04  0.50400001928E-02 0. -1.
    10030    2    1    2    0    0  0.00000000000E+00  0.00000000000E+00 -0.27352891440E+02  0.29039699946E+04  0.29038411714E+04 0.  0.
        3    1    3    3  502    0 -0.11027000937E+04 -0.54442450410E+01 -0.95822681204E+03  0.14608818467E+04  0.10100000352E+00 0. -1.
       -3    1    3    3    0  502  0.11027000937E+04  0.54442450410E+01  0.93087392060E+03  0.14430881479E+04  0.10100000352E+00 0.  1.
</event>
<event>
 5   0  0.4224163E-06  0.2900061E+04  0.7818609E-02  0.8272859E-01
        2   -1    0    0  501    0  0.00000000000E+00  0.00000000000E+00  0.18900099461E+04  0.18900099461E+04  0.25500000920E-02 0. -1.
       -2   -1    0    0    0  501  0.00000000000E+00  0.00000000000E+00 -0.11124747757E+04  0.11124747757E+04  0.25500000920E-02 0.  1.
    10030    2    1    2    0    0  0.00000000000E+00  0.00000000000E+00  0.77753517035E+03  0.30024847218E+04  0.29000609585E+04 0.  0.
        4    1    3    3  502    0  0.61706129411E+03 -0.64567221338E+03  0.15714474663E+04  0.18075137621E+04  0.12699999809E+01 0. -1.
       -4    1    3    3    0  502 -0.61706129411E+03  0.64567221338E+03 -0.79391229599E+03  0.11949709597E+04  0.12699999809E+01 0.  1.
</event>
<event>
 5   0  0.1602873E-06  0.2880831E+04  0.7818609E-02  0.8278604E-01
        1   -1    0    0  501    0  0.00000000000E+00  0.00000000000E+00  0.15819278852E+04  0.15819278852E+04  0.50400001928E-02 0.  1.
       -1   -1    0    0    0  501  0.00000000000E+00  0.00000000000E+00 -0.13115624039E+04  0.13115624039E+04  0.50400001928E-02 0. -1.
    10030    2    1    2    0    0  0.00000000000E+00  0.00000000000E+00  0.27036548133E+03  0.28934902891E+04  0.28808312272E+04 0.  0.
        1    1    3    3  502    0  0.47284607651E+03  0.17286928517E+03 -0.12203141520E+04  0.13200885696E+04  0.50400001928E-02 0. -1.
       -1    1    3    3    0  502 -0.47284607651E+03 -0.17286928517E+03  0.14906796334E+04  0.15734017196E+04  0.50400001928E-02 0.  1.
</event>
<event>
 5   0  0.4162450E-06  0.2914776E+04  0.7818609E-02  0.8268495E-01
        2   -1    0    0  501    0  0.00000000000E+00  0.00000000000E+00  0.13341709335E+04  0.13341709335E+04  0.25500000920E-02 0. -1.
       -2   -1    0    0    0  501  0.00000000000E+00  0.00000000000E+00 -0.15919847560E+04  0.15919847560E+04  0.25500000920E-02 0.  1.
    10030    2    1    2    0    0  0.00000000000E+00  0.00000000000E+00 -0.25781382250E+03  0.29261556896E+04  0.29147760038E+04 0.  0.
        2    1    3    3  502    0  0.21640154789E+03 -0.14389272387E+04 -0.47111455017E+02  0.14558711198E+04  0.25500000920E-02 0.  1.
       -2    1    3    3    0  502 -0.21640154789E+03  0.14389272387E+04 -0.21070236749E+03  0.14702845697E+04  0.25500000920E-02 0. -1.
</event>
<event>
 5   0  0.1511126E-06  0.2900818E+04  0.7818609E-02  0.8272634E-01
       -1   -1    0    0    0  501  0.00000000000E+00  0.00000000000E+00  0.14644945446E+04  0.14644945446E+04  0.50400001928E-02 0. -1.
        1   -1    0    0  501    0  0.00000000000E+00  0.00000000000E+00 -0.14364585780E+04  0.14364585780E+04  0.50400001928E-02 0.  1.
    10030    2    1    2    0    0  0.00000000000E+00  0.00000000000E+00  0.28035966634E+02  0.29009531226E+04  0.29008176440E+04 0.  0.
        5    1    3    3  502    0  0.85215284871E+03  0.98150803913E+03 -0.62955006839E+03  0.14442568632E+04  0.46999998093E+01 0.  1.
       -5    1    3    3    0  502 -0.85215284871E+03 -0.98150803913E+03  0.65758603502E+03  0.14566962593E+04  0.46999998093E+01 0. -1.
</event>
<event>
 5   0  0.4115143E-06  0.2967111E+04  0.7818609E-02  0.8253185E-01
       -2   -1    0    0    0  501  0.00000000000E+00  0.00000000000E+00  0.11709714559E+04  0.11709714559E+04  0.25500000920E-02 0.  1.
        2   -1    0    0  501    0  0.00000000000E+00  0.00000000000E+00 -0.18795822838E+04  0.18795822838E+04  0.25500000920E-02 0. -1.
    10030    2    1    2    0    0  0.00000000000E+00  0.00000000000E+00 -0.70861082788E+03  0.30505537397E+04  0.29671111899E+04 0.  0.
        1    1    3    3  502    0 -0.37847113593E+03 -0.11639352701E+04 -0.12163059511E+04  0.17255103246E+04  0.50400001928E-02 0. -1.
       -1    1    3    3    0  502  0.37847113593E+03  0.11639352701E+04  0.50769512318E+03  0.13250434151E+04  0.50400001928E-02 0.  1.
</event>
<event>
 5   0  0.1360125E-06  0.2872684E+04  0.7818609E-02  0.8281052E-01
       -4   -1    0    0    0  501  0.00000000000E+00  0.00000000000E+00  0.13219657381E+04  0.13219663481E+04  0.12699999809E+01 0.  1.
        4   -1    0    0  501    0  0.00000000000E+00  0.00000000000E+00 -0.15606126361E+04  0.15606131528E+04  0.12699999809E+01 0. -1.
    10030    2    1    2    0    0  0.00000000000E+00  0.00000000000E+00 -0.23864689798E+03  0.28825795009E+04  0.28726838039E+04 0.  0.
        5    1    3    3  502    0 -0.34456766794E+03  0.15395687607E+03 -0.15099640726E+04  0.15564199909E+04  0.46999998093E+01 0. -1.
       -5    1    3    3    0  502  0.34456766794E+03 -0.15395687607E+03  0.12713171746E+04  0.13261595100E+04  0.46999998093E+01 0.  1.
</event>
<event>
 5   0  0.1543678E-06  0.2900944E+04  0.7818609E-02  0.8272597E-01
       -1   -1    0    0    0  501  0.00000000000E+00  0.00000000000E+00  0.11004436104E+04  0.11004436104E+04  0.50400001928E-02 0.  1.
        1   -1    0    0  501    0  0.00000000000E+00  0.00000000000E+00 -0.19118378305E+04  0.19118378306E+04  0.50400001928E-02 0. -1.
    10030    2    1    2    0    0  0.00000000000E+00  0.00000000000E+00 -0.81139422016E+03  0.30122814410E+04  0.29009444840E+04 0.  0.
        3    1    3    3  502    0 -0.11424122502E+03 -0.14166497030E+04 -0.70650883150E+03  0.15871679740E+04  0.10100000352E+00 0. -1.
       -3    1    3    3    0  502  0.11424122502E+03  0.14166497030E+04 -0.10488538866E+03  0.14251134669E+04  0.10100000352E+00 0.  1.
</event>
<event>
 5   0  0.1580212E-06  0.2913946E+04  0.7818609E-02  0.8268740E-01
       -1   -1    0    0    0  501  0.00000000000E+00  0.00000000000E+00  0.12761948463E+04  0.12761948463E+04  0.50400001928E-02 0. -1.
        1   -1    0    0  501    0  0.00000000000E+00  0.00000000000E+00 -0.16633595264E+04  0.16633595264E+04  0.50400001928E-02 0.  1.
    10030    2    1    2    0    0  0.00000000000E+00  0.00000000000E+00 -0.38716468015E+03  0.29395543727E+04  0.29139463654E+04 0.  0.
        4    1    3    3  502    0  0.10531186735E+04 -0.79827534854E+03 -0.81254331464E+03  0.15512996885E+04  0.12699999809E+01 0.  1.
       -4    1    3    3    0  502 -0.10531186735E+04  0.79827534854E+03  0.42537863449E+03  0.13882546842E+04  0.12699999809E+01 0. -1.
</event>
<event>
 5   0  0.1580212E-06  0.2849406E+04  0.7818609E-02  0.8288092E-01
       -1   -1    0    0    0  501  0.00000000000E+00  0.00000000000E+00  0.17544981990E+04  0.17544981990E+04  0.50400001928E-02 0. -1.
        1   -1    0    0  501    0  0.00000000000E+00  0.00000000000E+00 -0.11568996649E+04  0.11568996649E+04  0.50400001928E-02 0.  1.
    10030    2    1    2    0    0  0.00000000000E+00  0.00000000000E+00  0.59759853406E+03  0.29113978639E+04  0.28494058178E+04 0.  0.
        4    1    3    3  502    0 -0.97891811065E+02  0.52340418033E+03  0.16490035148E+04  0.17328441786E+04  0.12699999809E+01 0. -1.
       -4    1    3    3    0  502  0.97891811065E+02 -0.52340418033E+03 -0.10514049808E+04  0.11785536853E+04  0.12699999809E+01 0.  1.
</event>
<event>
 5   0  0.4162450E-06  0.2893718E+04  0.7818609E-02  0.8274749E-01
        2   -1    0    0  501    0  0.00000000000E+00  0.00000000000E+00  0.24536761336E+04  0.24536761336E+04  0.25500000920E-02 0. -1.
       -2   -1    0    0    0  501  0.00000000000E+00  0.00000000000E+00 -0.85316916550E+03  0.85316916550E+03  0.25500000920E-02 0.  1.
    10030    2    1    2    0    0  0.00000000000E+00  0.00000000000E+00  0.16005069681E+04  0.33068452991E+04  0.28937178987E+04 0.  0.
        2    1    3    3  502    0  0.55367847881E+03  0.65811245895E+03 -0.52935429204E+03  0.10098949614E+04  0.25500000920E-02 0.  1.
       -2    1    3    3    0  502 -0.55367847881E+03 -0.65811245895E+03  0.21298612602E+04  0.22969503377E+04  0.25500000920E-02 0. -1.
</event>
<event>
 5   0  0.4162450E-06  0.2896278E+04  0.7818609E-02  0.8273986E-01
       -2   -1    0    0    0  501  0.00000000000E+00  0.00000000000E+00  0.67243906210E+03  0.67243906211E+03  0.25500000920E-02 0.  1.
        2   -1    0    0  501    0  0.00000000000E+00  0.00000000000E+00 -0.31186575925E+04  0.31186575925E+04  0.25500000920E-02 0. -1.
    10030    2    1    2    0    0  0.00000000000E+00  0.00000000000E+00 -0.24462185304E+04  0.37910966546E+04  0.28962784304E+04 0.  0.
        2    1    3    3  502    0 -0.52156919462E+03 -0.84947183671E+03 -0.25981161832E+04  0.27827764063E+04  0.25500000920E-02 0. -1.
       -2    1    3    3    0  502  0.52156919462E+03  0.84947183671E+03  0.15189765282E+03  0.10083202483E+04  0.25500000920E-02 0.  1.
</event>
<event>
 5   0  0.4224163E-06  0.2997032E+04  0.7818609E-02  0.8244579E-01
       -2   -1    0    0    0  501  0.00000000000E+00  0.00000000000E+00  0.16790038688E+04  0.16790038688E+04  0.25500000920E-02 0. -1.
        2   -1    0    0  501    0  0.00000000000E+00  0.00000000000E+00 -0.13374296149E+04  0.13374296149E+04  0.25500000920E-02 0.  1.
    10030    2    1    2    0    0  0.00000000000E+00  0.00000000000E+00  0.34157425388E+03  0.30164334837E+04  0.29970315298E+04 0.  0.
        4    1    3    3  502    0 -0.81232463621E+03 -0.12322163066E+04 -0.90352646757E+02  0.14786458516E+04  0.12699999809E+01 0.  1.
       -4    1    3    3    0  502  0.81232463621E+03  0.12322163066E+04  0.43192690064E+03  0.15377876321E+04  0.12699999809E+01 0. -1.
</event>
<event>
 5   0  0.4148677E-06  0.2886847E+04  0.7818609E-02  0.8276802E-01
        2   -1    0    0  501    0  0.00000000000E+00  0.00000000000E+00  0.12528620956E+04  0.12528620956E+04  0.25500000920E-02 0. -1.
       -2   -1    0    0    0  501  0.00000000000E+00  0.00000000000E+00 -0.16629694124E+04  0.16629694124E+04  0.25500000920E-02 0.  1.
    10030    2    1    2    0    0  0.00000000000E+00  0.00000000000E+00 -0.41010731687E+03  0.29158315080E+04  0.28868469602E+04 0.  0.
        5    1    3    3  502    0  0.37350859730E+03  0.28877765472E+03 -0.15827677741E+04  0.16516891726E+04  0.46999998093E+01 0.  1.
       -5    1    3    3    0  502 -0.37350859730E+03 -0.28877765472E+03  0.11726604572E+04  0.12641423354E+04  0.46999998093E+01 0. -1.
</event>
<event>
 5   0  0.4162450E-06  0.2896231E+04  0.7818609E-02  0.8274000E-01
       -2   -1    0    0    0  501  0.00000000000E+00  0.00000000000E+00  0.84183904733E+03  0.84183904733E+03  0.25500000920E-02 0. -1.
        2   -1    0    0  501    0  0.00000000000E+00  0.00000000000E+00 -0.24910212513E+04  0.24910212513E+04  0.25500000920E-02 0.  1.
    10030    2    1    2    0    0  0.00000000000E+00  0.00000000000E+00 -0.16491822040E+04  0.33328602987E+04  0.28962313147E+04 0.  0.
        2    1    3    3  502    0  0.12171195907E+04 -0.14573735684E+03 -0.17118091800E+04  0.21054477301E+04  0.25500000920E-02 0.  1.
       -2    1    3    3    0  502 -0.12171195907E+04  0.14573735684E+03  0.62626976022E+02  0.12274125686E+04  0.25500000920E-02 0. -1.
</event>
<event>
 5   0  0.4115143E-06  0.2876986E+04  0.7818609E-02  0.8279758E-01
       -2   -1    0    0    0  501  0.00000000000E+00  0.00000000000E+00  0.86018774359E+03  0.86018774359E+03  0.25500000920E-02 0.  1.
        2   -1    0    0  501    0  0.00000000000E+00  0.00000000000E+00 -0.24055928190E+04  0.24055928190E+04  0.25500000920E-02 0. -1.
    10030    2    1    2    0    0  0.00000000000E+00  0.00000000000E+00 -0.15454050754E+04  0.32657805626E+04  0.28769855467E+04 0.  0.
        1    1    3    3  502    0 -0.66864978173E+03  0.12376999164E+04 -0.11137508128E+04  0.17942782635E+04  0.50400001928E-02 0. -1.
       -1    1    3    3    0  502  0.66864978173E+03 -0.12376999164E+04 -0.43165426261E+03  0.14715022991E+04  0.50400001928E-02 0.  1.
</event>
<event>
 5   0  0.4224163E-06  0.2915733E+04  0.7818609E-02  0.8268212E-01
        2   -1    0    0  501    0  0.00000000000E+00  0.00000000000E+00  0.12403662047E+04  0.12403662047E+04  0.25500000920E-02 0. -1.
       -2   -1    0    0    0  501  0.00000000000E+00  0.00000000000E+00 -0.17135053625E+04  0.17135053625E+04  0.25500000920E-02 0.  1.
    10030    2    1    2    0    0  0.00000000000E+00  0.00000000000E+00 -0.47313915781E+03  0.29538715672E+04  0.29157325962E+04 0.  0.
        4    1    3    3  502    0  0.73392603095E+03  0.76681747719E+03  0.77586025670E+03  0.13147688820E+04  0.12699999809E+01 0. -1.
       -4    1    3    3    0  502 -0.73392603095E+03 -0.76681747719E+03 -0.12489994145E+04  0.16391026852E+04  0.12699999809E+01 0.  1.
</event>
<event>
 5   0  0.4224163E-06  0.2895033E+04  0.7818609E-02  0.8274357E-01
       -2   -1    0    0    0  501  0.00000000000E+00  0.00000000000E+00  0.14675314807E+04  0.14675314807E+04  0.25500000920E-02 0.  1.
        2   -1    0    0  501    0  0.00000000000E+00  0.00000000000E+00 -0.14277745570E+04  0.14277745570E+04  0.25500000920E-02 0. -1.
    10030    2    1    2    0    0  0.00000000000E+00  0.00000000000E+00  0.39756923673E+02  0.28953060377E+04  0.28950330636E+04 0.  0.
        4    1    3    3  502    0  0.11101387770E+04 -0.78726725240E+03  0.51298140559E+03  0.14544240668E+04  0.12699999809E+01 0.  1.
       -4    1    3    3    0  502 -0.11101387770E+04  0.78726725240E+03 -0.47322448192E+03  0.14408819709E+04  0.12699999809E+01 0. -1.
</event>
<event>
 5   0  0.4148677E-06  0.2900841E+04  0.7818609E-02  0.8272627E-01
        2   -1    0    0  501    0  0.00000000000E+00  0.00000000000E+00  0.13291085397E+04  0.13291085397E+04  0.25500000920E-02 0. -1.
       -2   -1    0    0    0  501  0.00000000000E+00  0.00000000000E+00 -0.15828052820E+04  0.15828052820E+04  0.25500000920E-02 0.  1.
    10030    2    1    2    0    0  0.00000000000E+00  0.00000000000E+00 -0.25369674227E+03  0.29119138217E+04  0.29008412690E+04 0.  0.
        5    1    3    3  502    0  0.10584175308E+04 -0.41577036101E+03  0.77691327080E+03  0.13772178415E+04  0.46999998093E+01 0. -1.
       -5    1    3    3    0  502 -0.10584175308E+04  0.41577036101E+03 -0.10306100131E+04  0.15346959802E+04  0.46999998093E+01 0.  1.
</event>
<event>
 5   0  0.1580212E-06  0.2895698E+04  0.7818609E-02  0.8274159E-01
        1   -1    0    0  501    0  0.00000000000E+00  0.00000000000E+00  0.20098019757E+04  0.20098019757E+04  0.50400001928E-02 0.  1.
       -1   -1    0    0    0  501  0.00000000000E+00  0.00000000000E+00 -0.10430215490E+04  0.10430215490E+04  0.50400001928E-02 0. -1.
    10030    2    1    2    0    0  0.00000000000E+00  0.00000000000E+00  0.96678042669E+03  0.30528235246E+04  0.28956980297E+04 0.  0.
        4    1    3    3  502    0  0.85288052987E+03 -0.11614492870E+04  0.33468506900E+03  0.14793192194E+04  0.12699999809E+01 0. -1.
       -4    1    3    3    0  502 -0.85288052987E+03  0.11614492870E+04  0.63209535768E+03  0.15735043053E+04  0.12699999809E+01 0.  1.
</event>
<event>
 5   0  0.4148677E-06  0.2887719E+04  0.7818609E-02  0.8276541E-01
        2   -1    0    0  501    0  0.00000000000E+00  0.00000000000E+00  0.22322735724E+04  0.22322735724E+04  0.25500000920E-02 0.  1.
       -2   -1    0    0    0  501  0.00000000000E+00  0.00000000000E+00 -0.93390460665E+03  0.93390460666E+03  0.25500000920E-02 0. -1.
    10030    2    1    2    0    0  0.00000000000E+00  0.00000000000E+00  0.12983689657E+04  0.31661781791E+04  0.28877192194E+04 0.  0.
        5    1    3    3  502    0  0.13855583292E+04  0.88110356296E+02  0.10838644106E+04  0.17613402479E+04  0.46999998093E+01 0.  1.
       -5    1    3    3    0  502 -0.13855583292E+04 -0.88110356296E+02  0.21450455518E+03  0.14048379311E+04  0.46999998093E+01 0. -1.
</event>
<event>
 5   0  0.4187518E-06  0.2899635E+04  0.7818609E-02  0.8272986E-01
        2   -1    0    0  501    0  0.00000000000E+00  0.00000000000E+00  0.24126079152E+04  0.24126079152E+04  0.25500000920E-02 0.  1.
       -2   -1    0    0    0  501  0.00000000000E+00  0.00000000000E+00 -0.87124428383E+03  0.87124428383E+03  0.25500000920E-02 0. -1.
    10030    2    1    2    0    0  0.00000000000E+00  0.00000000000E+00  0.15413636314E+04  0.32838521990E+04  0.28996350496E+04 0.  0.
        3    1    3    3  502    0 -0.99480343729E+03 -0.59423468030E+03  0.17574716915E+04  0.21051022518E+04  0.10100000352E+00 0.  1.
       -3    1    3    3    0  502  0.99480343729E+03  0.59423468030E+03 -0.21610806013E+03  0.11787499472E+04  0.10100000352E+00 0. -1.
</event>
<event>
 5   0  0.1550278E-06  0.2895360E+04  0.7818609E-02  0.8274259E-01
       -1   -1    0    0    0  501  0.00000000000E+00  0.00000000000E+00  0.72636856592E+03  0.72636856594E+03  0.50400001928E-02 0.  1.
        1   -1    0    0  501    0  0.00000000000E+00  0.00000000000E+00 -0.28852802640E+04  0.28852802640E+04  0.50400001928E-02 0. -1.
    10030    2    1    2    0    0  0.00000000000E+00  0.00000000000E+00 -0.21589116981E+04  0.36116488300E+04  0.28953596583E+04 0.  0.
        2    1    3    3  502    0  0.20837899896E+02  0.44704596615E+02 -0.28842318845E+04  0.28846535811E+04  0.25500000920E-02 0. -1.
       -2    1    3    3    0  502 -0.20837899896E+02 -0.44704596615E+02  0.72532018644E+03  0.72699524889E+03  0.25500000920E-02 0.  1.
</event>
<event>
 5   0  0.1602873E-06  0.2701715E+04  0.7818609E-02  0.8334449E-01
       -1   -1    0    0    0  501  0.00000000000E+00  0.00000000000E+00  0.79401064193E+03  0.79401064195E+03  0.50400001928E-02 0. -1.
        1   -1    0    0  501    0  0.00000000000E+00  0.00000000000E+00 -0.22982266689E+04  0.22982266689E+04  0.50400001928E-02 0.  1.
    10030    2    1    2    0    0  0.00000000000E+00  0.00000000000E+00 -0.15042160270E+04  0.30922373108E+04  0.27017153312E+04 0.  0.
        1    1    3    3  502    0 -0.10153214805E+04 -0.51295764655E+03 -0.15859890093E+04  0.19517593073E+04  0.50400001928E-02 0.  1.
       -1    1    3    3    0  502  0.10153214805E+04  0.51295764655E+03  0.81772982379E+02  0.11404780035E+04  0.50400001928E-02 0. -1.
</event>
<event>
 5   0  0.1511126E-06  0.2901864E+04  0.7818609E-02  0.8272323E-01
        1   -1    0    0  501    0  0.00000000000E+00  0.00000000000E+00  0.18134678445E+04  0.18134678445E+04  0.50400001928E-02 0.  1.
       -1   -1    0    0    0  501  0.00000000000E+00  0.00000000000E+00 -0.11608717833E+04  0.11608717833E+04  0.50400001928E-02 0. -1.
    10030    2    1    2    0    0  0.00000000000E+00  0.00000000000E+00  0.65259606126E+03  0.29743396278E+04  0.29018639876E+04 0.  0.
        5    1    3    3  502    0  0.11735379738E+03 -0.11708225604E+04 -0.54377531758E+03  0.12962681311E+04  0.46999998093E+01 0. -1.
       -5    1    3    3    0  502 -0.11735379738E+03  0.11708225604E+04  0.11963713788E+04  0.16780714967E+04  0.46999998093E+01 0.  1.
</event>
<event>
 5   0  0.1511126E-06  0.2904660E+04  0.7818609E-02  0.8271492E-01
        1   -1    0    0  501    0  0.00000000000E+00  0.00000000000E+00  0.16948193315E+04  0.16948193315E+04  0.50400001928E-02 0.  1.
       -1   -1    0    0    0  501  0.00000000000E+00  0.00000000000E+00 -0.12445349410E+04  0.12445349410E+04  0.50400001928E-02 0. -1.
    10030    2    1    2    0    0  0.00000000000E+00  0.00000000000E+00  0.45028439053E+03  0.29393542725E+04  0.29046596198E+04 0.  0.
        5    1    3    3  502    0  0.11474167682E+04 -0.12817745448E+03 -0.66642918400E+03  0.13330958882E+04  0.46999998093E+01 0. -1.
       -5    1    3    3    0  502 -0.11474167682E+04  0.12817745448E+03  0.11167135745E+04  0.16062583844E+04  0.46999998093E+01 0.  1.
</event>
<event>
 5   0  0.4115143E-06  0.2904395E+04  0.7818609E-02  0.8271571E-01
        2   -1    0    0  501    0  0.00000000000E+00  0.00000000000E+00  0.15628541157E+04  0.15628541157E+04  0.25500000920E-02 0.  1.
       -2   -1    0    0    0  501  0.00000000000E+00  0.00000000000E+00 -0.13493756340E+04  0.13493756340E+04  0.25500000920E-02 0. -1.
    10030    2    1    2    0    0  0.00000000000E+00  0.00000000000E+00  0.21347848169E+03  0.29122297497E+04  0.29043947825E+04 0.  0.
        1    1    3    3  502    0  0.70430131166E+03  0.39093246374E+02 -0.11660583791E+04  0.13628135467E+04  0.50400001928E-02 0. -1.
       -1    1    3    3    0  502 -0.70430131166E+03 -0.39093246374E+02  0.13795368608E+04  0.15494162029E+04  0.50400001928E-02 0.  1.
</event>
<event>
 5   0  0.4115143E-06  0.2912455E+04  0.7818609E-02  0.8269181E-01
        2   -1    0    0  501    0  0.00000000000E+00  0.00000000000E+00  0.14935054150E+04  0.14935054150E+04  0.25500000920E-02 0.  1.
       -2   -1    0    0    0  501  0.00000000000E+00  0.00000000000E+00 -0.14198801690E+04  0.14198801690E+04  0.25500000920E-02 0. -1.
    10030    2    1    2    0    0  0.00000000000E+00  0.00000000000E+00  0.73625245951E+02  0.29133855840E+04  0.29124551300E+04 0.  0.
        1    1    3    3  502    0 -0.12961189927E+03 -0.12683647451E+04 -0.66701030369E+03  0.14389062222E+04  0.50400001928E-02 0.  1.
       -1    1    3    3    0  502  0.12961189927E+03  0.12683647451E+04  0.74063554964E+03  0.14744793618E+04  0.50400001928E-02 0. -1.
</event>
<event>
 5   0  0.1602873E-06  0.2901748E+04  0.7818609E-02  0.8272358E-01
        1   -1    0    0  501    0  0.00000000000E+00  0.00000000000E+00  0.12509427180E+04  0.12509427180E+04  0.50400001928E-02 0.  1.
       -1   -1    0    0    0  501  0.00000000000E+00  0.00000000000E+00 -0.16827592963E+04  0.16827592963E+04  0.50400001928E-02 0. -1.
    10030    2    1    2    0    0  0.00000000000E+00  0.00000000000E+00 -0.43181657834E+03  0.29337020143E+04  0.29017480854E+04 0.  0.
        1    1    3    3  502    0  0.12876843138E+04  0.40156004603E+03 -0.75626001466E+03  0.15463862947E+04  0.50400001928E-02 0. -1.
       -1    1    3    3    0  502 -0.12876843138E+04 -0.40156004603E+03  0.32444343632E+03  0.13873157196E+04  0.50400001928E-02 0.  1.
</event>
<event>
 5   0  0.4162450E-06  0.2917395E+04  0.7818609E-02  0.8267721E-01
       -2   -1    0    0    0  501  0.00000000000E+00  0.00000000000E+00  0.12236547327E+04  0.12236547327E+04  0.25500000920E-02 0.  1.
        2   -1    0    0  501    0  0.00000000000E+00  0.00000000000E+00 -0.17388882257E+04  0.17388882257E+04  0.25500000920E-02 0. -1.
    10030    2    1    2    0    0  0.00000000000E+00  0.00000000000E+00 -0.51523349295E+03  0.29625429584E+04  0.29173952815E+04 0.  0.
        2    1    3    3  502    0  0.52039396852E+03  0.28650156736E+03  0.10952562609E+04  0.12459852758E+04  0.25500000920E-02 0.  1.
       -2    1    3    3    0  502 -0.52039396852E+03 -0.28650156736E+03 -0.16104897538E+04  0.17165576826E+04  0.25500000920E-02 0. -1.
</event>
<event>
 5   0  0.4148677E-06  0.2891330E+04  0.7818609E-02  0.8275462E-01
        2   -1    0    0  501    0  0.00000000000E+00  0.00000000000E+00  0.13087140040E+04  0.13087140040E+04  0.25500000920E-02 0.  1.
       -2   -1    0    0    0  501  0.00000000000E+00  0.00000000000E+00 -0.15969471686E+04  0.15969471686E+04  0.25500000920E-02 0. -1.
    10030    2    1    2    0    0  0.00000000000E+00  0.00000000000E+00 -0.28823316454E+03  0.29056611726E+04  0.28913298831E+04 0.  0.
        5    1    3    3  502    0 -0.63234163253E+03  0.12081340368E+04 -0.62658081000E+03  0.15006896390E+04  0.46999998093E+01 0. -1.
       -5    1    3    3    0  502  0.63234163253E+03 -0.12081340368E+04  0.33834764547E+03  0.14049715336E+04  0.46999998093E+01 0.  1.
</event>
<event>
 5   0  0.4148677E-06  0.2882236E+04  0.7818609E-02  0.8278182E-01
        2   -1    0    0  501    0  0.00000000000E+00  0.00000000000E+00  0.22566392581E+04  0.22566392581E+04  0.25500000920E-02 0.  1.
       -2   -1    0    0    0  501  0.00000000000E+00  0.00000000000E+00 -0.92031591654E+03  0.92031591655E+03  0.25500000920E-02 0. -1.
    10030    2    1    2    0    0  0.00000000000E+00  0.00000000000E+00  0.13363233415E+04  0.31769551746E+04  0.28822359564E+04 0.  0.
        5    1    3    3  502    0  0.11020881782E+04  0.76619704508E+03  0.89985043653E+02  0.13452790277E+04  0.46999998093E+01 0. -1.
       -5    1    3    3    0  502 -0.11020881782E+04 -0.76619704508E+03  0.12463382979E+04  0.18316761469E+04  0.46999998093E+01 0.  1.
</event>
<event>
 5   0  0.1602873E-06  0.2912120E+04  0.7818609E-02  0.8269280E-01
        1   -1    0    0  501    0  0.00000000000E+00  0.00000000000E+00  0.73006760847E+03  0.73006760849E+03  0.50400001928E-02 0.  1.
       -1   -1    0    0    0  501  0.00000000000E+00  0.00000000000E+00 -0.29039928686E+04  0.29039928686E+04  0.50400001928E-02 0. -1.
    10030    2    1    2    0    0  0.00000000000E+00  0.00000000000E+00 -0.21739252602E+04  0.36340604771E+04  0.29121202782E+04 0.  0.
        1    1    3    3  502    0  0.10206260242E+04  0.40562960555E+03 -0.22799388029E+04  0.25306785263E+04  0.50400001928E-02 0. -1.
       -1    1    3    3    0  502 -0.10206260242E+04 -0.40562960555E+03  0.10601354277E+03  0.11033819509E+04  0.50400001928E-02 0.  1.
</event>
<event>
 5   0  0.1580212E-06  0.2876767E+04  0.7818609E-02  0.8279824E-01
        1   -1    0    0  501    0  0.00000000000E+00  0.00000000000E+00  0.12475007397E+04  0.12475007397E+04  0.50400001928E-02 0.  1.
       -1   -1    0    0    0  501  0.00000000000E+00  0.00000000000E+00 -0.16584734038E+04  0.16584734038E+04  0.50400001928E-02 0. -1.
    10030    2    1    2    0    0  0.00000000000E+00  0.00000000000E+00 -0.41097266406E+03  0.29059741436E+04  0.28767667949E+04 0.  0.
        4    1    3    3  502    0  0.57197482589E+03 -0.48225540218E+03  0.10354894974E+04  0.12774840847E+04  0.12699999809E+01 0.  1.
       -4    1    3    3    0  502 -0.57197482589E+03  0.48225540218E+03 -0.14464621615E+04  0.16284900589E+04  0.12699999809E+01 0. -1.
</event>
<event>
 5   0  0.4187518E-06  0.2906190E+04  0.7818609E-02  0.8271038E-01
       -2   -1    0    0    0  501  0.00000000000E+00  0.00000000000E+00  0.11401703261E+04  0.11401703261E+04  0.25500000920E-02 0. -1.
        2   -1    0    0  501    0  0.00000000000E+00  0.00000000000E+00 -0.18519028880E+04  0.18519028880E+04  0.25500000920E-02 0.  1.
    10030    2    1    2    0    0  0.00000000000E+00  0.00000000000E+00 -0.71173256181E+03  0.29920732141E+04  0.29061897528E+04 0.  0.
        3    1    3    3  502    0  0.42915454198E+03 -0.47249972441E+02  0.10726081602E+04  0.11562415216E+04  0.10100000352E+00 0. -1.
       -3    1    3    3    0  502 -0.42915454198E+03  0.47249972441E+02 -0.17843407220E+04  0.18358316925E+04  0.10100000352E+00 0.  1.
</event>
<event>
 5   0  0.4115143E-06  0.2682750E+04  0.7818609E-02  0.8340624E-01
       -2   -1    0    0    0  501  0.00000000000E+00  0.00000000000E+00  0.87166599812E+03  0.87166599812E+03  0.25500000920E-02 0. -1.
        2   -1    0    0  501    0  0.00000000000E+00  0.00000000000E+00 -0.20641936198E+04  0.20641936198E+04  0.25500000920E-02 0.  1.
    10030    2    1    2    0    0  0.00000000000E+00  0.00000000000E+00 -0.11925276216E+04  0.29358596179E+04  0.26827503737E+04 0.  0.
        1    1    3    3  502    0  0.10811946626E+04  0.93553547174E+02 -0.14590321196E+04  0.18183808431E+04  0.50400001928E-02 0.  1.
       -1    1    3    3    0  502 -0.10811946626E+04 -0.93553547174E+02  0.26650449800E+03  0.11174787747E+04  0.50400001928E-02 0. -1.
</event>
<event>
 5   0  0.4148677E-06  0.2899267E+04  0.7818609E-02  0.8273096E-01
       -2   -1    0    0    0  501  0.00000000000E+00  0.00000000000E+00  0.14191706913E+04  0.14191706913E+04  0.25500000920E-02 0.  1.
        2   -1    0    0  501    0  0.00000000000E+00  0.00000000000E+00 -0.14807499408E+04  0.14807499408E+04  0.25500000920E-02 0. -1.
    10030    2    1    2    0    0  0.00000000000E+00  0.00000000000E+00 -0.61579249501E+02  0.28999206321E+04  0.28992667467E+04 0.  0.
        5    1    3    3  502    0  0.12163282209E+04 -0.63893437954E+03  0.43161686286E+03  0.14401412044E+04  0.46999998093E+01 0.  1.
       -5    1    3    3    0  502 -0.12163282209E+04  0.63893437954E+03 -0.49319611236E+03  0.14597794277E+04  0.46999998093E+01 0. -1.
</event>
<event>
 5   0  0.1550278E-06  0.2908835E+04  0.7818609E-02  0.8270254E-01
        1   -1    0    0  501    0  0.00000000000E+00  0.00000000000E+00  0.14409140289E+04  0.14409140289E+04  0.50400001928E-02 0. -1.
       -1   -1    0    0    0  501  0.00000000000E+00  0.00000000000E+00 -0.14680476013E+04  0.14680476013E+04  0.50400001928E-02 0.  1.
    10030    2    1    2    0    0  0.00000000000E+00  0.00000000000E+00 -0.27133572410E+02  0.29089616301E+04  0.29088350821E+04 0.  0.
        2    1    3    3  502    0 -0.10251268096E+04 -0.33983155059E+03  0.96062133493E+03  0.14453939974E+04  0.25500000920E-02 0. -1.
       -2    1    3    3    0  502  0.10251268096E+04  0.33983155059E+03 -0.98775490734E+03  0.14635676327E+04  0.25500000920E-02 0.  1.
</event>
<event>
 5   0  0.4187518E-06  0.2901752E+04  0.7818609E-02  0.8272356E-01
        2   -1    0    0  501    0  0.00000000000E+00  0.00000000000E+00  0.91474883034E+03  0.91474883034E+03  0.25500000920E-02 0.  1.
       -2   -1    0    0    0  501  0.00000000000E+00  0.00000000000E+00 -0.23012236254E+04  0.23012236254E+04  0.25500000920E-02 0. -1.
    10030    2    1    2    0    0  0.00000000000E+00  0.00000000000E+00 -0.13864747951E+04  0.32159724558E+04  0.29017523118E+04 0.  0.
        3    1    3    3  502    0 -0.81374563553E+03 -0.95929323329E+03 -0.14944419189E+04  0.19534027045E+04  0.10100000352E+00 0. -1.
       -3    1    3    3    0  502  0.81374563553E+03  0.95929323329E+03  0.10796712383E+03  0.12625697513E+04  0.10100000352E+00 0.  1.
</event>
<event>
 5   0  0.4224163E-06  0.2800270E+04  0.7818609E-02  0.8303185E-01
       -2   -1    0    0    0  501  0.00000000000E+00  0.00000000000E+00  0.12708272869E+04  0.12708272869E+04  0.25500000920E-02 0.  1.
        2   -1    0    0  501    0  0.00000000000E+00  0.00000000000E+00 -0.15425995764E+04  0.15425995764E+04  0.25500000920E-02 0. -1.
    10030    2    1    2    0    0  0.00000000000E+00  0.00000000000E+00 -0.27177228948E+03  0.28134268633E+04  0.28002697259E+04 0.  0.
        4    1    3    3  502    0 -0.17409500362E+03  0.10422439122E+04 -0.10587850484E+04  0.14958639090E+04  0.12699999809E+01 0. -1.
       -4    1    3    3    0  502  0.17409500362E+03 -0.10422439122E+04  0.78701275889E+03  0.13175629542E+04  0.12699999809E+01 0.  1.
</event>
<event>
 5   0  0.4187518E-06  0.2901823E+04  0.7818609E-02  0.8272335E-01
       -2   -1    0    0    0  501  0.00000000000E+00  0.00000000000E+00  0.12775846326E+04  0.12775846326E+04  0.25500000920E-02 0.  1.
        2   -1    0    0  501    0  0.00000000000E+00  0.00000000000E+00 -0.16477527723E+04  0.16477527723E+04  0.25500000920E-02 0. -1.
    10030    2    1    2    0    0  0.00000000000E+00  0.00000000000E+00 -0.37016813965E+03  0.29253374049E+04  0.29018226136E+04 0.  0.
        3    1    3    3  502    0 -0.35965904282E+03  0.10199433069E+04  0.78996859817E+03  0.13392868896E+04  0.10100000352E+00 0.  1.
       -3    1    3    3    0  502  0.35965904282E+03 -0.10199433069E+04 -0.11601367378E+04  0.15860505153E+04  0.10100000352E+00 0. -1.
</event>
<event>
 5   0  0.4224163E-06  0.2905239E+04  0.7818609E-02  0.8271320E-01
       -2   -1    0    0    0  501  0.00000000000E+00  0.00000000000E+00  0.18052792581E+04  0.18052792581E+04  0.25500000920E-02 0. -1.
        2   -1    0    0  501    0  0.00000000000E+00  0.00000000000E+00 -0.11688514575E+04  0.11688514575E+04  0.25500000920E-02 0.  1.
    10030    2    1    2    0    0  0.00000000000E+00  0.00000000000E+00  0.63642780066E+03  0.29741307156E+04  0.29052389176E+04 0.  0.
        4    1    3    3  502    0 -0.14140089590E+04  0.32043117484E+03  0.22662616847E+03  0.14674666971E+04  0.12699999809E+01 0. -1.
       -4    1    3    3    0  502  0.14140089590E+04 -0.32043117484E+03  0.40980163218E+03  0.15066640185E+04  0.12699999809E+01 0.  1.
</event>
<event>
 5   0  0.4115143E-06  0.2891271E+04  0.7818609E-02  0.8275479E-01
       -2   -1    0    0    0  501  0.00000000000E+00  0.00000000000E+00  0.88405579194E+03  0.88405579195E+03  0.25500000920E-02 0.  1.
        2   -1    0    0  501    0  0.00000000000E+00  0.00000000000E+00 -0.23639474212E+04  0.23639474212E+04  0.25500000920E-02 0. -1.
    10030    2    1    2    0    0  0.00000000000E+00  0.00000000000E+00 -0.14798916293E+04  0.32480032132E+04  0.28912705924E+04 0.  0.
        1    1    3    3  502    0 -0.11414917319E+04  0.12268681334E+03  0.24697380172E+03  0.11743302291E+04  0.50400001928E-02 0.  1.
       -1    1    3    3    0  502  0.11414917319E+04 -0.12268681334E+03 -0.17268654310E+04  0.20736729841E+04  0.50400001928E-02 0. -1.
</event>
<event>
 5   0  0.1580212E-06  0.2903586E+04  0.7818609E-02  0.8271811E-01
        1   -1    0    0  501    0  0.00000000000E+00  0.00000000000E+00  0.17088052858E+04  0.17088052858E+04  0.50400001928E-02 0.  1.
       -1   -1    0    0    0  501  0.00000000000E+00  0.00000000000E+00 -0.12334365062E+04  0.12334365062E+04  0.50400001928E-02 0. -1.
    10030    2    1    2    0    0  0.00000000000E+00  0.00000000000E+00  0.47536877963E+03  0.29422417920E+04  0.29035859356E+04 0.  0.
        4    1    3    3  502    0 -0.10360830432E+04  0.20305600266E+03 -0.77207663903E+03  0.13079769731E+04  0.12699999809E+01 0. -1.
       -4    1    3    3    0  502  0.10360830432E+04 -0.20305600266E+03  0.12474454187E+04  0.16342648189E+04  0.12699999809E+01 0.  1.
</event>
<event>
 5   0  0.4187518E-06  0.2901882E+04  0.7818609E-02  0.8272318E-01
        2   -1    0    0  501    0  0.00000000000E+00  0.00000000000E+00  0.14728923034E+04  0.14728923034E+04  0.25500000920E-02 0. -1.
       -2   -1    0    0    0  501  0.00000000000E+00  0.00000000000E+00 -0.14293167558E+04  0.14293167558E+04  0.25500000920E-02 0.  1.
    10030    2    1    2    0    0  0.00000000000E+00  0.00000000000E+00  0.43575547608E+02  0.29022090592E+04  0.29018819058E+04 0.  0.
        3    1    3    3  502    0 -0.11159310939E+04  0.87449355351E+03 -0.28677327558E+03  0.14464716047E+04  0.10100000352E+00 0.  1.
       -3    1    3    3    0  502  0.11159310939E+04 -0.87449355351E+03  0.33034882319E+03  0.14557374545E+04  0.10100000352E+00 0. -1.
</event>
<event>
 5   0  0.4148677E-06  0.2688719E+04  0.7818609E-02  0.8338675E-01
        2   -1    0    0  501    0  0.00000000000E+00  0.00000000000E+00  0.13187881468E+04  0.13187881468E+04  0.25500000920E-02 0.  1.
       -2   -1    0    0    0  501  0.00000000000E+00  0.00000000000E+00 -0.13704263482E+04  0.13704263482E+04  0.25500000920E-02 0. -1.
    10030    2    1    2    0    0  0.00000000000E+00  0.00000000000E+00 -0.51638201365E+02  0.26892144951E+04  0.26887186719E+04 0.  0.
        5    1    3    3  502    0  0.19560571339E+00 -0.23846513370E+03  0.12974571058E+04  0.13191977447E+04  0.46999998093E+01 0.  1.
       -5    1    3    3    0  502 -0.19560571339E+00  0.23846513370E+03 -0.13490953072E+04  0.13700167503E+04  0.46999998093E+01 0. -1.
</event>
<event>
 5   0  0.1543678E-06  0.2666693E+04  0.7818609E-02  0.8345893E-01
       -1   -1    0    0    0  501  0.00000000000E+00  0.00000000000E+00  0.14135221064E+04  0.14135221064E+04  0.50400001928E-02 0.  1.
        1   -1    0    0  501    0  0.00000000000E+00  0.00000000000E+00 -0.12577187599E+04  0.12577187600E+04  0.50400001928E-02 0. -1.
    10030    2    1    2    0    0  0.00000000000E+00  0.00000000000E+00  0.15580334647E+03  0.26712408664E+04  0.26666932863E+04 0.  0.
        3    1    3    3  502    0 -0.91666508867E+02 -0.10885066564E+04  0.84377321187E+03  0.13802908147E+04  0.10100000352E+00 0.  1.
       -3    1    3    3    0  502  0.91666508867E+02  0.10885066564E+04 -0.68796986540E+03  0.12909500516E+04  0.10100000352E+00 0. -1.
</event>
<event>
 5   0  0.1580212E-06  0.2912259E+04  0.7818609E-02  0.8269239E-01
       -1   -1    0    0    0  501  0.00000000000E+00  0.00000000000E+00  0.17696662137E+04  0.17696662137E+04  0.50400001928E-02 0. -1.
        1   -1    0    0  501    0  0.00000000000E+00  0.00000000000E+00 -0.11981430638E+04  0.11981430639E+04  0.50400001928E-02 0.  1.
    10030    2    1    2    0    0  0.00000000000E+00  0.00000000000E+00  0.57152314986E+03  0.29678092776E+04  0.29122591226E+04 0.  0.
        4    1    3    3  502    0 -0.85490973460E+03  0.11704577652E+04  0.14356633194E+03  0.14565215203E+04  0.12699999809E+01 0.  1.
       -4    1    3    3    0  502  0.85490973460E+03 -0.11704577652E+04  0.42795681791E+03  0.15112877573E+04  0.12699999809E+01 0. -1.
</event>
<event>
 5   0  0.4224163E-06  0.2939392E+04  0.7818609E-02  0.8261253E-01
       -2   -1    0    0    0  501  0.00000000000E+00  0.00000000000E+00  0.12201012547E+04  0.12201012547E+04  0.25500000920E-02 0.  1.
        2   -1    0    0  501    0  0.00000000000E+00  0.00000000000E+00 -0.17703500942E+04  0.17703500942E+04  0.25500000920E-02 0. -1.
    10030    2    1    2    0    0  0.00000000000E+00  0.00000000000E+00 -0.55024883953E+03  0.29904513489E+04  0.29393920263E+04 0.  0.
        4    1    3    3  502    0  0.20481201175E+03  0.14540177808E+04 -0.33857027925E+03  0.15068998354E+04  0.12699999809E+01 0.  1.
       -4    1    3    3    0  502 -0.20481201175E+03 -0.14540177808E+04 -0.21167856028E+03  0.14835515134E+04  0.12699999809E+01 0. -1.
</event>
<event>
 5   0  0.1543678E-06  0.2890339E+04  0.7818609E-02  0.8275758E-01
       -1   -1    0    0    0  501  0.00000000000E+00  0.00000000000E+00  0.14168621300E+04  0.14168621300E+04  0.50400001928E-02 0.  1.
        1   -1    0    0  501    0  0.00000000000E+00  0.00000000000E+00 -0.14740421273E+04  0.14740421273E+04  0.50400001928E-02 0. -1.
    10030    2    1    2    0    0  0.00000000000E+00  0.00000000000E+00 -0.57179997320E+02  0.28909042573E+04  0.28903387125E+04 0.  0.
        3    1    3    3  502    0 -0.50319803186E+03  0.90515755889E+03 -0.10367534902E+04  0.14653928741E+04  0.10100000352E+00 0. -1.
       -3    1    3    3    0  502  0.50319803186E+03 -0.90515755889E+03  0.97957349288E+03  0.14255113833E+04  0.10100000352E+00 0.  1.
</event>
<event>
 5   0  0.4148677E-06  0.2889760E+04  0.7818609E-02  0.8275931E-01
        2   -1    0    0  501    0  0.00000000000E+00  0.00000000000E+00  0.13246218493E+04  0.13246218493E+04  0.25500000920E-02 0. -1.
       -2   -1    0    0    0  501  0.00000000000E+00  0.00000000000E+00 -0.15760561690E+04  0.15760561690E+04  0.25500000920E-02 0.  1.
    10030    2    1    2    0    0  0.00000000000E+00  0.00000000000E+00 -0.25143431970E+03  0.29006780184E+04  0.28897601543E+04 0.  0.
        5    1    3    3  502    0 -0.61374371498E+03  0.10184470459E+04 -0.94963534678E+03  0.15217572457E+04  0.46999998093E+01 0.  1.
       -5    1    3    3    0  502  0.61374371498E+03 -0.10184470459E+04  0.69820102708E+03  0.13789207727E+04  0.46999998093E+01 0. -1.
</event>
<event>
 5   0  0.4162450E-06  0.2900133E+04  0.7818609E-02  0.8272838E-01
       -2   -1    0    0    0  501  0.00000000000E+00  0.00000000000E+00  0.10379062252E+04  0.10379062252E+04  0.25500000920E-02 0. -1.
        2   -1    0    0  501    0  0.00000000000E+00  0.00000000000E+00 -0.20258989180E+04  0.20258989180E+04  0.25500000920E-02 0.  1.
    10030    2    1    2    0    0  0.00000000000E+00  0.00000000000E+00 -0.98799269282E+03  0.30638051433E+04  0.29001331685E+04 0.  0.
        2    1    3    3  502    0  0.10483834375E+04  0.45931027772E+03 -0.14345325815E+04  0.18351995778E+04  0.25500000920E-02 0.  1.
       -2    1    3    3    0  502 -0.10483834375E+04 -0.45931027772E+03  0.44653988864E+03  0.12286055654E+04  0.25500000920E-02 0. -1.
</event>
<event>
 5   0  0.4148677E-06  0.2911218E+04  0.7818609E-02  0.8269548E-01
        2   -1    0    0  501    0  0.00000000000E+00  0.00000000000E+00  0.22005624289E+04  0.22005624289E+04  0.25500000920E-02 0.  1.
       -2   -1    0    0    0  501  0.00000000000E+00  0.00000000000E+00 -0.96284361697E+03  0.96284361697E+03  0.25500000920E-02 0. -1.
    10030    2    1    2    0    0  0.00000000000E+00  0.00000000000E+00  0.12377188119E+04  0.31634060459E+04  0.29112179502E+04 0.  0.
        5    1    3    3  502    0 -0.98618482422E+03  0.31637747528E+03 -0.49254217615E+03  0.11468544370E+04  0.46999998093E+01 0. -1.
       -5    1    3    3    0  502  0.98618482422E+03 -0.31637747528E+03  0.17302609881E+04  0.20165516089E+04  0.46999998093E+01 0.  1.
</event>
<event>
 5   0  0.1511126E-06  0.2892240E+04  0.7818609E-02  0.8275190E-01
       -1   -1    0    0    0  501  0.00000000000E+00  0.00000000000E+00  0.13023522989E+04  0.13023522989E+04  0.50400001928E-02 0. -1.
        1   -1    0    0  501    0  0.00000000000E+00  0.00000000000E+00 -0.16057578366E+04  0.16057578366E+04  0.50400001928E-02 0.  1.
    10030    2    1    2    0    0  0.00000000000E+00  0.00000000000E+00 -0.30340553771E+03  0.29081101354E+04  0.28922395543E+04 0.  0.
        5    1    3    3  502    0 -0.24151038671E+03 -0.13632017347E+04 -0.57184017530E+03  0.14978883511E+04  0.46999998093E+01 0.  1.
       -5    1    3    3    0  502  0.24151038671E+03  0.13632017347E+04  0.26843463759E+03  0.14102217843E+04  0.46999998093E+01 0. -1.
</event>
<event>
 5   0  0.1580212E-06  0.2937859E+04  0.7818609E-02  0.8261702E-01
        1   -1    0    0  501    0  0.00000000000E+00  0.00000000000E+00  0.20179367677E+04  0.20179367677E+04  0.50400001928E-02 0.  1.
       -1   -1    0    0    0  501  0.00000000000E+00  0.00000000000E+00 -0.10692869718E+04  0.10692869719E+04  0.50400001928E-02 0. -1.
    10030    2    1    2    0    0  0.00000000000E+00  0.00000000000E+00  0.94864979583E+03  0.30872237396E+04  0.29378587411E+04 0.  0.
        4    1    3    3  502    0 -0.34138132647E+02 -0.12855838017E+04  0.12202452615E+04  0.17728201359E+04  0.12699999809E+01 0.  1.
       -4    1    3    3    0  502  0.34138132647E+02  0.12855838017E+04 -0.27159546566E+03  0.13144036036E+04  0.12699999809E+01 0. -1.
</event>
<event>
 5   0  0.4187518E-06  0.2818201E+04  0.7818609E-02  0.8297640E-01
        2   -1    0    0  501    0  0.00000000000E+00  0.00000000000E+00  0.14628192955E+04  0.14628192955E+04  0.25500000920E-02 0.  1.
       -2   -1    0    0    0  501  0.00000000000E+00  0.00000000000E+00 -0.13573547311E+04  0.13573547311E+04  0.25500000920E-02 0. -1.
    10030    2    1    2    0    0  0.00000000000E+00  0.00000000000E+00  0.10546456438E+03  0.28201740266E+04  0.28182013352E+04 0.  0.
        3    1    3    3  502    0 -0.98083344066E+03  0.55550311290E+03 -0.79340481373E+03  0.13784444695E+04  0.10100000352E+00 0.  1.
       -3    1    3    3    0  502  0.98083344066E+03 -0.55550311290E+03  0.89886937811E+03  0.14417295571E+04  0.10100000352E+00 0. -1.
</event>
<event>
 5   0  0.1550278E-06  0.2888317E+04  0.7818609E-02  0.8276362E-01
        1   -1    0    0  501    0  0.00000000000E+00  0.00000000000E+00  0.21340339783E+04  0.21340339783E+04  0.50400001928E-02 0. -1.
       -1   -1    0    0    0  501  0.00000000000E+00  0.00000000000E+00 -0.97730094323E+03  0.97730094325E+03  0.50400001928E-02 0.  1.
    10030    2    1    2    0    0  0.00000000000E+00  0.00000000000E+00  0.11567330350E+04  0.31113349215E+04  0.28883167554E+04 0.  0.
        2    1    3    3  502    0  0.90229660280E+03  0.25278069681E+03 -0.60537155568E+03  0.11155769631E+04  0.25500000920E-02 0.  1.
       -2    1    3    3    0  502 -0.90229660280E+03 -0.25278069681E+03  0.17621045907E+04  0.19957579584E+04  0.25500000920E-02 0. -1.
</event>
<event>
 5   0  0.4224163E-06  0.2901221E+04  0.7818609E-02  0.8272514E-01
        2   -1    0    0  501    0  0.00000000000E+00  0.00000000000E+00  0.18468433737E+04  0.18468433737E+04  0.25500000920E-02 0.  1.
       -2   -1    0    0    0  501  0.00000000000E+00  0.00000000000E+00 -0.11393877152E+04  0.11393877153E+04  0.25500000920E-02 0. -1.
    10030    2    1    2    0    0  0.00000000000E+00  0.00000000000E+00  0.70745565844E+03  0.29862310889E+04  0.29012208823E+04 0.  0.
        4    1    3    3  502    0 -0.18031664375E+02 -0.29010853717E+02 -0.11389731360E+04  0.11394859315E+04  0.12699999809E+01 0. -1.
       -4    1    3    3    0  502  0.18031664375E+02  0.29010853717E+02  0.18464287945E+04  0.18467451574E+04  0.12699999809E+01 0.  1.
</event>
<event>
 5   0  0.1580212E-06  0.2931933E+04  0.7818609E-02  0.8263439E-01
        1   -1    0    0  501    0  0.00000000000E+00  0.00000000000E+00  0.21210937013E+04  0.21210937013E+04  0.50400001928E-02 0.  1.
       -1   -1    0    0    0  501  0.00000000000E+00  0.00000000000E+00 -0.10131841177E+04  0.10131841177E+04  0.50400001928E-02 0. -1.
    10030    2    1    2    0    0  0.00000000000E+00  0.00000000000E+00  0.11079095836E+04  0.31342778190E+04  0.29319334579E+04 0.  0.
        4    1    3    3  502    0  0.40995086366E+03  0.10821558917E+03 -0.94620607768E+03  0.10368596234E+04  0.12699999809E+01 0. -1.
       -4    1    3    3    0  502 -0.40995086366E+03 -0.10821558917E+03  0.20541156613E+04  0.20974181956E+04  0.12699999809E+01 0.  1.
</event>
<event>
 5   0  0.1602873E-06  0.2898977E+04  0.7818609E-02  0.8273182E-01
       -1   -1    0    0    0  501  0.00000000000E+00  0.00000000000E+00  0.10633256816E+04  0.10633256816E+04  0.50400001928E-02 0.  1.
        1   -1    0    0  501    0  0.00000000000E+00  0.00000000000E+00 -0.19758922839E+04  0.19758922839E+04  0.50400001928E-02 0. -1.
    10030    2    1    2    0    0  0.00000000000E+00  0.00000000000E+00 -0.91256660227E+03  0.30392179655E+04  0.28989770676E+04 0.  0.
        1    1    3    3  502    0  0.44715577552E+03  0.16885743232E+03  0.97832870901E+03  0.10888471807E+04  0.50400001928E-02 0.  1.
       -1    1    3    3    0  502 -0.44715577552E+03 -0.16885743232E+03 -0.18908953113E+04  0.19503707848E+04  0.50400001928E-02 0. -1.
</event>
<event>
 5   0  0.1511126E-06  0.2905643E+04  0.7818609E-02  0.8271201E-01
        1   -1    0    0  501    0  0.00000000000E+00  0.00000000000E+00  0.20718452588E+04  0.20718452588E+04  0.50400001928E-02 0.  1.
       -1   -1    0    0    0  501  0.00000000000E+00  0.00000000000E+00 -0.10187488990E+04  0.10187488990E+04  0.50400001928E-02 0. -1.
    10030    2    1    2    0    0  0.00000000000E+00  0.00000000000E+00  0.10530963598E+04  0.30905941578E+04  0.29056428385E+04 0.  0.
        5    1    3    3  502    0  0.51596483812E+02 -0.43722227815E+03  0.19991758652E+04  0.20470837178E+04  0.46999998093E+01 0.  1.
       -5    1    3    3    0  502 -0.51596483812E+02  0.43722227815E+03 -0.94607950545E+03  0.10435104400E+04  0.46999998093E+01 0. -1.
</event>
<event>
 5   0  0.1543678E-06  0.2901523E+04  0.7818609E-02  0.8272424E-01
        1   -1    0    0  501    0  0.00000000000E+00  0.00000000000E+00  0.20237748211E+04  0.20237748211E+04  0.50400001928E-02 0.  1.
       -1   -1    0    0    0  501  0.00000000000E+00  0.00000000000E+00 -0.10399919478E+04  0.10399919478E+04  0.50400001928E-02 0. -1.
    10030    2    1    2    0    0  0.00000000000E+00  0.00000000000E+00  0.98378287336E+03  0.30637667689E+04  0.29015234054E+04 0.  0.
        3    1    3    3  502    0 -0.40961473330E+03  0.11556829661E+04  0.13107016055E+04  0.17948052977E+04  0.10100000352E+00 0.  1.
       -3    1    3    3    0  502  0.40961473330E+03 -0.11556829661E+04 -0.32691873215E+03  0.12689614712E+04  0.10100000352E+00 0. -1.
</event>
<event>
 5   0  0.4162450E-06  0.2864746E+04  0.7818609E-02  0.8283444E-01
       -2   -1    0    0    0  501  0.00000000000E+00  0.00000000000E+00  0.80869435880E+03  0.80869435881E+03  0.25500000920E-02 0.  1.
        2   -1    0    0  501    0  0.00000000000E+00  0.00000000000E+00 -0.25370437223E+04  0.25370437223E+04  0.25500000920E-02 0. -1.
    10030    2    1    2    0    0  0.00000000000E+00  0.00000000000E+00 -0.17283493635E+04  0.33457380811E+04  0.28647463736E+04 0.  0.
        2    1    3    3  502    0  0.89314026024E+03 -0.12249143078E+03  0.43581388876E+03  0.10013178420E+04  0.25500000920E-02 0.  1.
       -2    1    3    3    0  502 -0.89314026024E+03  0.12249143078E+03 -0.21641632523E+04  0.23444202391E+04  0.25500000920E-02 0. -1.
</event>
<event>
 5   0  0.1580212E-06  0.2899095E+04  0.7818609E-02  0.8273147E-01
        1   -1    0    0  501    0  0.00000000000E+00  0.00000000000E+00  0.13887896055E+04  0.13887896055E+04  0.50400001928E-02 0. -1.
       -1   -1    0    0    0  501  0.00000000000E+00  0.00000000000E+00 -0.15129633829E+04  0.15129633830E+04  0.50400001928E-02 0.  1.
    10030    2    1    2    0    0  0.00000000000E+00  0.00000000000E+00 -0.12417377742E+03  0.29017529885E+04  0.28990949069E+04 0.  0.
        4    1    3    3  502    0  0.21525972503E+03 -0.64934564043E+03 -0.13412256304E+04  0.15056142648E+04  0.12699999809E+01 0.  1.
       -4    1    3    3    0  502 -0.21525972503E+03  0.64934564043E+03  0.12170518530E+04  0.13961387237E+04  0.12699999809E+01 0. -1.
</event>
<event>
 5   0  0.4148677E-06  0.2864242E+04  0.7818609E-02  0.8283597E-01
       -2   -1    0    0    0  501  0.00000000000E+00  0.00000000000E+00  0.19276479013E+04  0.19276479013E+04  0.25500000920E-02 0.  1.
        2   -1    0    0  501    0  0.00000000000E+00  0.00000000000E+00 -0.10639759104E+04  0.10639759104E+04  0.25500000920E-02 0. -1.
    10030    2    1    2    0    0  0.00000000000E+00  0.00000000000E+00  0.86367199090E+03  0.29916238117E+04  0.28642422598E+04 0.  0.
        5    1    3    3  502    0  0.96884034380E+02 -0.36328126226E+03 -0.10114991633E+04  0.10791257753E+04  0.46999998093E+01 0. -1.
       -5    1    3    3    0  502 -0.96884034380E+02  0.36328126226E+03  0.18751711542E+04  0.19124980364E+04  0.46999998093E+01 0.  1.
</event>
<event>
 5   0  0.4224163E-06  0.2850870E+04  0.7818609E-02  0.8287647E-01
        2   -1    0    0  501    0  0.00000000000E+00  0.00000000000E+00  0.16678438197E+04  0.16678438197E+04  0.25500000920E-02 0. -1.
       -2   -1    0    0    0  501  0.00000000000E+00  0.00000000000E+00 -0.12182582868E+04  0.12182582868E+04  0.25500000920E-02 0.  1.
    10030    2    1    2    0    0  0.00000000000E+00  0.00000000000E+00  0.44958553289E+03  0.28861021066E+04  0.28508697301E+04 0.  0.
        4    1    3    3  502    0  0.95159515227E+03  0.72565164690E+03 -0.55921941909E+03  0.13209207463E+04  0.12699999809E+01 0.  1.
       -4    1    3    3    0  502 -0.95159515227E+03 -0.72565164690E+03  0.10088049520E+04  0.15651813603E+04  0.12699999809E+01 0. -1.
</event>
<event>
 5   0  0.1543678E-06  0.2902459E+04  0.7818609E-02  0.8272146E-01
       -1   -1    0    0    0  501  0.00000000000E+00  0.00000000000E+00  0.14777807542E+04  0.14777807542E+04  0.50400001928E-02 0. -1.
        1   -1    0    0  501    0  0.00000000000E+00  0.00000000000E+00 -0.14251551581E+04  0.14251551582E+04  0.50400001928E-02 0.  1.
    10030    2    1    2    0    0  0.00000000000E+00  0.00000000000E+00  0.52625596026E+02  0.29029359123E+04  0.29024588641E+04 0.  0.
        3    1    3    3  502    0  0.13154608749E+04 -0.61288595022E+03  0.26906817236E+02  0.14514787248E+04  0.10100000352E+00 0.  1.
       -3    1    3    3    0  502 -0.13154608749E+04  0.61288595022E+03  0.25718778790E+02  0.14514571875E+04  0.10100000352E+00 0. -1.
</event>
<event>
 5   0  0.4148677E-06  0.2880863E+04  0.7818609E-02  0.8278594E-01
        2   -1    0    0  501    0  0.00000000000E+00  0.00000000000E+00  0.18024654518E+04  0.18024654518E+04  0.25500000920E-02 0. -1.
       -2   -1    0    0    0  501  0.00000000000E+00  0.00000000000E+00 -0.11511141355E+04  0.11511141355E+04  0.25500000920E-02 0.  1.
    10030    2    1    2    0    0  0.00000000000E+00  0.00000000000E+00  0.65135131626E+03  0.29535795873E+04  0.28808633847E+04 0.  0.
        5    1    3    3  502    0  0.13915576277E+03  0.72525680340E+03  0.15936049083E+04  0.17564055486E+04  0.46999998093E+01 0. -1.
       -5    1    3    3    0  502 -0.13915576277E+03 -0.72525680340E+03 -0.94225359206E+03  0.11971740387E+04  0.46999998093E+01 0.  1.
</event>
<event>
 5   0  0.4115143E-06  0.2890670E+04  0.7818609E-02  0.8275659E-01
        2   -1    0    0  501    0  0.00000000000E+00  0.00000000000E+00  0.24473945364E+04  0.24473945364E+04  0.25500000920E-02 0. -1.
       -2   -1    0    0    0  501  0.00000000000E+00  0.00000000000E+00 -0.85355797443E+03  0.85355797443E+03  0.25500000920E-02 0.  1.
    10030    2    1    2    0    0  0.00000000000E+00  0.00000000000E+00  0.15938365619E+04  0.33009525108E+04  0.28906699038E+04 0.  0.
        1    1    3    3  502    0  0.91241097124E+03  0.56890132129E+03 -0.30600887516E+03  0.11179373531E+04  0.50400001928E-02 0.  1.
       -1    1    3    3    0  502 -0.91241097124E+03 -0.56890132129E+03  0.18998454371E+04  0.21830151577E+04  0.50400001928E-02 0. -1.
</event>
<event>
 5   0  0.4187518E-06  0.2845968E+04  0.7818609E-02  0.8289137E-01
        2   -1    0    0  501    0  0.00000000000E+00  0.00000000000E+00  0.34155675996E+04  0.34155675996E+04  0.25500000920E-02 0.  1.
       -2   -1    0    0    0  501  0.00000000000E+00  0.00000000000E+00 -0.59283960743E+03  0.59283960743E+03  0.25500000920E-02 0. -1.
    10030    2    1    2    0    0  0.00000000000E+00  0.00000000000E+00  0.28227279922E+04  0.40084072071E+04  0.28459682043E+04 0.  0.
        3    1    3    3  502    0 -0.10592919720E+04 -0.52484372879E+03  0.29581793334E+03  0.12186339407E+04  0.10100000352E+00 0.  1.
       -3    1    3    3    0  502  0.10592919720E+04  0.52484372879E+03  0.25269100589E+04  0.27897732663E+04  0.10100000352E+00 0. -1.
</event>
<event>
 5   0  0.1602873E-06  0.2886836E+04  0.7818609E-02  0.8276805E-01
       -1   -1    0    0    0  501  0.00000000000E+00  0.00000000000E+00  0.14253716622E+04  0.14253716622E+04  0.50400001928E-02 0. -1.
        1   -1    0    0  501    0  0.00000000000E+00  0.00000000000E+00 -0.14616927308E+04  0.14616927308E+04  0.50400001928E-02 0.  1.
    10030    2    1    2    0    0  0.00000000000E+00  0.00000000000E+00 -0.36321068628E+02  0.28870643930E+04  0.28868359131E+04 0.  0.
        1    1    3    3  502    0 -0.68867670523E+03 -0.64778195022E+03  0.10725945443E+04  0.14298098181E+04  0.50400001928E-02 0. -1.
       -1    1    3    3    0  502  0.68867670523E+03  0.64778195022E+03 -0.11089156130E+04  0.14572545749E+04  0.50400001928E-02 0.  1.
</event>
<event>
 5   0  0.1550278E-06  0.2889097E+04  0.7818609E-02  0.8276129E-01
       -1   -1    0    0    0  501  0.00000000000E+00  0.00000000000E+00  0.11789989453E+04  0.11789989453E+04  0.50400001928E-02 0. -1.
        1   -1    0    0  501    0  0.00000000000E+00  0.00000000000E+00 -0.17699085357E+04  0.17699085357E+04  0.50400001928E-02 0.  1.
    10030    2    1    2    0    0  0.00000000000E+00  0.00000000000E+00 -0.59090959040E+03  0.29489074810E+04  0.28890969502E+04 0.  0.
        2    1    3    3  502    0  0.10489870704E+04  0.76589391913E+03  0.34989452660E+03  0.13451370000E+04  0.25500000920E-02 0.  1.
       -2    1    3    3    0  502 -0.10489870704E+04 -0.76589391913E+03 -0.94080411701E+03  0.16037704810E+04  0.25500000920E-02 0. -1.
</event>
<event>
 5   0  0.4115143E-06  0.2935948E+04  0.7818609E-02  0.8262262E-01
        2   -1    0    0  501    0  0.00000000000E+00  0.00000000000E+00  0.17880662904E+04  0.17880662904E+04  0.25500000920E-02 0.  1.
       -2   -1    0    0    0  501  0.00000000000E+00  0.00000000000E+00 -0.12051829745E+04  0.12051829745E+04  0.25500000920E-02 0. -1.
    10030    2    1    2    0    0  0.00000000000E+00  0.00000000000E+00  0.58288331595E+03  0.29932492649E+04  0.29359475816E+04 0.  0.
        1    1    3    3  502    0  0.23749827855E+03 -0.14470832364E+04  0.22311326976E+03  0.14833188654E+04  0.50400001928E-02 0. -1.
       -1    1    3    3    0  502 -0.23749827855E+03  0.14470832364E+04  0.35977004620E+03  0.15099303995E+04  0.50400001928E-02 0.  1.
</event>
<event>
 5   0  0.4187518E-06  0.2899324E+04  0.7818609E-02  0.8273079E-01
        2   -1    0    0  501    0  0.00000000000E+00  0.00000000000E+00  0.15811505702E+04  0.15811505702E+04  0.25500000920E-02 0. -1.
       -2   -1    0    0    0  501  0.00000000000E+00  0.00000000000E+00 -0.13291080655E+04  0.13291080655E+04  0.25500000920E-02 0.  1.
    10030    2    1    2    0    0  0.00000000000E+00  0.00000000000E+00  0.25204250469E+03  0.29102586358E+04  0.28993240424E+04 0.  0.
        3    1    3    3  502    0  0.73702260965E+03  0.45336346702E+03 -0.10414556283E+04  0.13540201609E+04  0.10100000352E+00 0.  1.
       -3    1    3    3    0  502 -0.73702260965E+03 -0.45336346702E+03  0.12934981330E+04  0.15562384748E+04  0.10100000352E+00 0. -1.
</event>
<event>
 5   0  0.1511126E-06  0.2895080E+04  0.7818609E-02  0.8274343E-01
        1   -1    0    0  501    0  0.00000000000E+00  0.00000000000E+00  0.21025099087E+04  0.21025099087E+04  0.50400001928E-02 0. -1.
       -1   -1    0    0    0  501  0.00000000000E+00  0.00000000000E+00 -0.99660516070E+03  0.99660516072E+03  0.50400001928E-02 0.  1.
    10030    2    1    2    0    0  0.00000000000E+00  0.00000000000E+00  0.11059047480E+04  0.30991150694E+04  0.28950801201E+04 0.  0.
        5    1    3    3  502    0 -0.33944475876E+03  0.73322645888E+03 -0.73273678416E+03  0.10907653593E+04  0.46999998093E+01 0.  1.
       -5    1    3    3    0  502  0.33944475876E+03 -0.73322645888E+03  0.18386415321E+04  0.20083497101E+04  0.46999998093E+01 0. -1.
</event>
<event>
 5   0  0.4187518E-06  0.2645251E+04  0.7818609E-02  0.8352991E-01
        2   -1    0    0  501    0  0.00000000000E+00  0.00000000000E+00  0.17338662855E+04  0.17338662855E+04  0.25500000920E-02 0. -1.
       -2   -1    0    0    0  501  0.00000000000E+00  0.00000000000E+00 -0.10089232636E+04  0.10089232636E+04  0.25500000920E-02 0.  1.
    10030    2    1    2    0    0  0.00000000000E+00  0.00000000000E+00  0.72494302197E+03  0.27427895491E+04  0.26452508625E+04 0.  0.
        3    1    3    3  502    0 -0.60536747039E+03 -0.95603589524E+03  0.10724560423E+04  0.15590498325E+04  0.10100000352E+00 0.  1.
       -3    1    3    3    0  502  0.60536747039E+03  0.95603589524E+03 -0.34751302036E+03  0.11837397166E+04  0.10100000352E+00 0. -1.
</event>
<event>
 5   0  0.1580212E-06  0.2905620E+04  0.7818609E-02  0.8271207E-01
       -1   -1    0    0    0  501  0.00000000000E+00  0.00000000000E+00  0.16508143426E+04  0.16508143426E+04  0.50400001928E-02 0.  1.
        1   -1    0    0  501    0  0.00000000000E+00  0.00000000000E+00 -0.12785551906E+04  0.12785551906E+04  0.50400001928E-02 0. -1.
    10030    2    1    2    0    0  0.00000000000E+00  0.00000000000E+00  0.37225915205E+03  0.29293695332E+04  0.29056202412E+04 0.  0.
        4    1    3    3  502    0 -0.17418339997E+03  0.90447113809E+03 -0.94655140568E+03  0.13207456504E+04  0.12699999809E+01 0. -1.
       -4    1    3    3    0  502  0.17418339997E+03 -0.90447113809E+03  0.13188105577E+04  0.16086238829E+04  0.12699999809E+01 0.  1.
</event>
<event>
 5   0  0.1580212E-06  0.2887581E+04  0.7818609E-02  0.8276582E-01
       -1   -1    0    0    0  501  0.00000000000E+00  0.00000000000E+00  0.13548400925E+04  0.13548400925E+04  0.50400001928E-02 0.  1.
        1   -1    0    0  501    0  0.00000000000E+00  0.00000000000E+00 -0.15385805940E+04  0.15385805940E+04  0.50400001928E-02 0. -1.
    10030    2    1    2    0    0  0.00000000000E+00  0.00000000000E+00 -0.18374050149E+03  0.28934206865E+04  0.28875807689E+04 0.  0.
        4    1    3    3  502    0  0.33663854649E+02 -0.37355199738E+03  0.13051713613E+04  0.13579941992E+04  0.12699999809E+01 0.  1.
       -4    1    3    3    0  502 -0.33663854649E+02  0.37355199738E+03 -0.14889118628E+04  0.15354264873E+04  0.12699999809E+01 0. -1.
</event>
<event>
 5   0  0.4187518E-06  0.2860599E+04  0.7818609E-02  0.8284698E-01
       -2   -1    0    0    0  501  0.00000000000E+00  0.00000000000E+00  0.11801511456E+04  0.11801511456E+04  0.25500000920E-02 0.  1.
        2   -1    0    0  501    0  0.00000000000E+00  0.00000000000E+00 -0.17334700719E+04  0.17334700719E+04  0.25500000920E-02 0. -1.
    10030    2    1    2    0    0  0.00000000000E+00  0.00000000000E+00 -0.55331892630E+03  0.29136212175E+04  0.28605990220E+04 0.  0.
        3    1    3    3  502    0 -0.61221102889E+03 -0.12542306367E+04 -0.59528337950E+03  0.15173197244E+04  0.10100000352E+00 0. -1.
       -3    1    3    3    0  502  0.61221102889E+03  0.12542306367E+04  0.41964453197E+02  0.13963014931E+04  0.10100000352E+00 0.  1.
</event>
<event>
 5   0  0.1511126E-06  0.2891715E+04  0.7818609E-02  0.8275347E-01
        1   -1    0    0  501    0  0.00000000000E+00  0.00000000000E+00  0.21162128389E+04  0.21162128389E+04  0.50400001928E-02 0.  1.
       -1   -1    0    0    0  501  0.00000000000E+00  0.00000000000E+00 -0.98785171845E+03  0.98785171846E+03  0.50400001928E-02 0. -1.
    10030    2    1    2    0    0  0.00000000000E+00  0.00000000000E+00  0.11283611204E+04  0.31040645574E+04  0.28917154006E+04 0.  0.
        5    1    3    3  502    0  0.28552266709E+03  0.10136486750E+04 -0.49926422017E+03  0.11654585713E+04  0.46999998093E+01 0. -1.
       -5    1    3    3    0  502 -0.28552266709E+03 -0.10136486750E+04  0.16276253406E+04  0.19386059861E+04  0.46999998093E+01 0.  1.
</event>
<event>
 5   0  0.1602873E-06  0.2854763E+04  0.7818609E-02  0.8286465E-01
        1   -1    0    0  501    0  0.00000000000E+00  0.00000000000E+00  0.16097973696E+04  0.16097973697E+04  0.50400001928E-02 0.  1.
       -1   -1    0    0    0  501  0.00000000000E+00  0.00000000000E+00 -0.12656361931E+04  0.12656361931E+04  0.50400001928E-02 0. -1.
    10030    2    1    2    0    0  0.00000000000E+00  0.00000000000E+00  0.34416117654E+03  0.28754335628E+04  0.28547629076E+04 0.  0.
        1    1    3    3  502    0  0.94579041158E+03  0.10654381204E+04  0.26069444238E+03  0.14483229900E+04  0.50400001928E-02 0. -1.
       -1    1    3    3    0  502 -0.94579041158E+03 -0.10654381204E+04  0.83466734163E+02  0.14271105727E+04  0.50400001928E-02 0.  1.
</event>
<event>
 5   0  0.1580212E-06  0.2832961E+04  0.7818609E-02  0.8293108E-01
       -1   -1    0    0    0  501  0.00000000000E+00  0.00000000000E+00  0.10122415110E+04  0.10122415110E+04  0.50400001928E-02 0.  1.
        1   -1    0    0  501    0  0.00000000000E+00  0.00000000000E+00 -0.19821523932E+04  0.19821523932E+04  0.50400001928E-02 0. -1.
    10030    2    1    2    0    0  0.00000000000E+00  0.00000000000E+00 -0.96991088222E+03  0.29943939042E+04  0.28329609483E+04 0.  0.
        4    1    3    3  502    0 -0.10039955545E+04  0.39753061431E+03 -0.14539148652E+04  0.18110515484E+04  0.12699999809E+01 0. -1.
       -4    1    3    3    0  502  0.10039955545E+04 -0.39753061431E+03  0.48400398294E+03  0.11833423559E+04  0.12699999809E+01 0.  1.
</event>
<event>
 5   0  0.4162450E-06  0.2938601E+04  0.7818609E-02  0.8261484E-01
        2   -1    0    0  501    0  0.00000000000E+00  0.00000000000E+00  0.14711472047E+04  0.14711472047E+04  0.25500000920E-02 0.  1.
       -2   -1    0    0    0  501  0.00000000000E+00  0.00000000000E+00 -0.14674556246E+04  0.14674556246E+04  0.25500000920E-02 0. -1.
    10030    2    1    2    0    0  0.00000000000E+00  0.00000000000E+00  0.36915800328E+01  0.29386028293E+04  0.29386005106E+04 0.  0.
        2    1    3    3  502    0  0.56254835845E+03  0.74327065926E+03  0.11375981166E+04  0.14707281881E+04  0.25500000920E-02 0.  1.
       -2    1    3    3    0  502 -0.56254835845E+03 -0.74327065926E+03 -0.11339065366E+04  0.14678746412E+04  0.25500000920E-02 0. -1.
</event>
<event>
 5   0  0.4162450E-06  0.2898223E+04  0.7818609E-02  0.8273407E-01
        2   -1    0    0  501    0  0.00000000000E+00  0.00000000000E+00  0.14802578945E+04  0.14802578945E+04  0.25500000920E-02 0. -1.
       -2   -1    0    0    0  501  0.00000000000E+00  0.00000000000E+00 -0.14186199907E+04  0.14186199907E+04  0.25500000920E-02 0.  1.
    10030    2    1    2    0    0  0.00000000000E+00  0.00000000000E+00  0.61637903876E+02  0.28988778852E+04  0.28982225177E+04 0.  0.
        2    1    3    3  502    0  0.52284917661E+03 -0.81988313622E+03 -0.10438279382E+04  0.14265890730E+04  0.25500000920E-02 0.  1.
       -2    1    3    3    0  502 -0.52284917661E+03  0.81988313622E+03  0.11054658421E+04  0.14722888122E+04  0.25500000920E-02 0. -1.
</event>
<event>
 5   0  0.4162450E-06  0.2901764E+04  0.7818609E-02  0.8272353E-01
       -2   -1    0    0    0  501  0.00000000000E+00  0.00000000000E+00  0.98124307781E+03  0.98124307781E+03  0.25500000920E-02 0.  1.
        2   -1    0    0  501    0  0.00000000000E+00  0.00000000000E+00 -0.21452981146E+04  0.21452981146E+04  0.25500000920E-02 0. -1.
    10030    2    1    2    0    0  0.00000000000E+00  0.00000000000E+00 -0.11640550368E+04  0.31265411924E+04  0.29017642391E+04 0.  0.
        2    1    3    3  502    0 -0.87790933828E+03 -0.10407127181E+04 -0.11221049950E+04  0.17643489982E+04  0.25500000920E-02 0. -1.
       -2    1    3    3    0  502  0.87790933828E+03  0.10407127181E+04 -0.41950041781E+02  0.13621921942E+04  0.25500000920E-02 0.  1.
</event>
<event>
 5   0  0.1550278E-06  0.2857485E+04  0.7818609E-02  0.8285641E-01
        1   -1    0    0  501    0  0.00000000000E+00  0.00000000000E+00  0.16046809593E+04  0.16046809594E+04  0.50400001928E-02 0.  1.
       -1   -1    0    0    0  501  0.00000000000E+00  0.00000000000E+00 -0.12720938289E+04  0.12720938289E+04  0.50400001928E-02 0. -1.
    10030    2    1    2    0    0  0.00000000000E+00  0.00000000000E+00  0.33258713048E+03  0.28767747882E+04  0.28574847301E+04 0.  0.
        2    1    3    3  502    0  0.68404761711E+03  0.62571065109E+03  0.12607708702E+04  0.15649211317E+04  0.25500000920E-02 0.  1.
       -2    1    3    3    0  502 -0.68404761711E+03 -0.62571065109E+03 -0.92818373973E+03  0.13118536565E+04  0.25500000920E-02 0. -1.
</event>
<event>
 5   0  0.1580212E-06  0.2911945E+04  0.7818609E-02  0.8269332E-01
       -1   -1    0    0    0  501  0.00000000000E+00  0.00000000000E+00  0.11399304900E+04  0.11399304900E+04  0.50400001928E-02 0.  1.
        1   -1    0    0  501    0  0.00000000000E+00  0.00000000000E+00 -0.18596364859E+04  0.18596364859E+04  0.50400001928E-02 0. -1.
    10030    2    1    2    0    0  0.00000000000E+00  0.00000000000E+00 -0.71970599592E+03  0.29995669759E+04  0.29119452815E+04 0.  0.
        4    1    3    3  502    0  0.11570808374E+04  0.83302987321E+03 -0.55880512917E+02  0.14268493538E+04  0.12699999809E+01 0.  1.
       -4    1    3    3    0  502 -0.11570808374E+04 -0.83302987321E+03 -0.66382548300E+03  0.15727176220E+04  0.12699999809E+01 0. -1.
</event>
<event>
 5   0  0.1543678E-06  0.2904357E+04  0.7818609E-02  0.8271582E-01
       -1   -1    0    0    0  501  0.00000000000E+00  0.00000000000E+00  0.75425025426E+03  0.75425025428E+03  0.50400001928E-02 0. -1.
        1   -1    0    0  501    0  0.00000000000E+00  0.00000000000E+00 -0.27959184217E+04  0.27959184217E+04  0.50400001928E-02 0.  1.
    10030    2    1    2    0    0  0.00000000000E+00  0.00000000000E+00 -0.20416681674E+04  0.35501686759E+04  0.29043568517E+04 0.  0.
        3    1    3    3  502    0  0.28712426473E+03 -0.10955281802E+04 -0.21319044466E+04  0.24140503136E+04  0.10100000352E+00 0.  1.
       -3    1    3    3    0  502 -0.28712426473E+03  0.10955281802E+04  0.90236279224E+02  0.11361183623E+04  0.10100000352E+00 0. -1.
</event>
<event>
 5   0  0.4148677E-06  0.2902615E+04  0.7818609E-02  0.8272100E-01
        2   -1    0    0  501    0  0.00000000000E+00  0.00000000000E+00  0.14893580197E+04  0.14893580197E+04  0.25500000920E-02 0.  1.
       -2   -1    0    0    0  501  0.00000000000E+00  0.00000000000E+00 -0.14142293336E+04  0.14142293336E+04  0.25500000920E-02 0. -1.
    10030    2    1    2    0    0  0.00000000000E+00  0.00000000000E+00  0.75128686080E+02  0.29035873533E+04  0.29026152344E+04 0.  0.
        5    1    3    3  502    0  0.37087574143E+03 -0.45971424465E+02  0.14403925659E+04  0.14880910662E+04  0.46999998093E+01 0.  1.
       -5    1    3    3    0  502 -0.37087574143E+03  0.45971424465E+02 -0.13652638798E+04  0.14154962871E+04  0.46999998093E+01 0. -1.
</event>
<event>
 5   0  0.1580212E-06  0.2897678E+04  0.7818609E-02  0.8273569E-01
        1   -1    0    0  501    0  0.00000000000E+00  0.00000000000E+00  0.98432360317E+03  0.98432360318E+03  0.50400001928E-02 0. -1.
       -1   -1    0    0    0  501  0.00000000000E+00  0.00000000000E+00 -0.21325649529E+04  0.21325649529E+04  0.50400001928E-02 0.  1.
    10030    2    1    2    0    0  0.00000000000E+00  0.00000000000E+00 -0.11482413497E+04  0.31168885561E+04  0.28976777036E+04 0.  0.
        4    1    3    3  502    0  0.62339331500E+03 -0.39232561166E+03  0.76789887590E+03  0.10640530566E+04  0.12699999809E+01 0. -1.
       -4    1    3    3    0  502 -0.62339331500E+03  0.39232561166E+03 -0.19161402256E+04  0.20528354995E+04  0.12699999809E+01 0.  1.
</event>
<event>
 5   0  0.4148677E-06  0.2913502E+04  0.7818609E-02  0.8268872E-01
       -2   -1    0    0    0  501  0.00000000000E+00  0.00000000000E+00  0.88950104533E+03  0.88950104534E+03  0.25500000920E-02 0.  1.
        2   -1    0    0  501    0  0.00000000000E+00  0.00000000000E+00 -0.23857458559E+04  0.23857458559E+04  0.25500000920E-02 0. -1.
    10030    2    1    2    0    0  0.00000000000E+00  0.00000000000E+00 -0.14962448106E+04  0.32752469012E+04  0.29135019703E+04 0.  0.
        5    1    3    3  502    0 -0.80047626176E+03 -0.11535856011E+04 -0.31189650367E+03  0.14383405382E+04  0.46999998093E+01 0.  1.
       -5    1    3    3    0  502  0.80047626176E+03  0.11535856011E+04 -0.11843483069E+04  0.18369063631E+04  0.46999998093E+01 0. -1.
</event>
<event>
 5   0  0.1580212E-06  0.2889261E+04  0.7818609E-02  0.8276080E-01
       -1   -1    0    0    0  501  0.00000000000E+00  0.00000000000E+00  0.17638765353E+04  0.17638765353E+04  0.50400001928E-02 0.  1.
        1   -1    0    0  501    0  0.00000000000E+00  0.00000000000E+00 -0.11831654968E+04  0.11831654968E+04  0.50400001928E-02 0. -1.
    10030    2    1    2    0    0  0.00000000000E+00  0.00000000000E+00  0.58071103846E+03  0.29470420321E+04  0.28892613984E+04 0.  0.
        4    1    3    3  502    0  0.52207398595E+03 -0.13465409817E+04  0.25469374407E+03  0.14664939067E+04  0.12699999809E+01 0.  1.
       -4    1    3    3    0  502 -0.52207398595E+03  0.13465409817E+04  0.32601729439E+03  0.14805481253E+04  0.12699999809E+01 0. -1.
</event>
<event>
 5   0  0.1360125E-06  0.2915275E+04  0.7818609E-02  0.8268347E-01
       -3   -1    0    0    0  501  0.00000000000E+00  0.00000000000E+00  0.81076296008E+03  0.81076296637E+03  0.10100000352E+00 0.  1.
        3   -1    0    0  501    0  0.00000000000E+00  0.00000000000E+00 -0.26206265098E+04  0.26206265118E+04  0.10100000352E+00 0. -1.
    10030    2    1    2    0    0  0.00000000000E+00  0.00000000000E+00 -0.18098635497E+04  0.34313894782E+04  0.29152748896E+04 0.  0.
        1    1    3    3  502    0  0.14414375400E+04 -0.19269490085E+02 -0.11590014448E+04  0.18497020961E+04  0.50400001928E-02 0.  1.
       -1    1    3    3    0  502 -0.14414375400E+04  0.19269490085E+02 -0.65086210492E+03  0.15816873821E+04  0.50400001928E-02 0. -1.
</event>
<event>
 5   0  0.1543678E-06  0.2909519E+04  0.7818609E-02  0.8270051E-01
       -1   -1    0    0    0  501  0.00000000000E+00  0.00000000000E+00  0.12156986409E+04  0.12156986409E+04  0.50400001928E-02 0.  1.
        1   -1    0    0  501    0  0.00000000000E+00  0.00000000000E+00 -0.17408308849E+04  0.17408308849E+04  0.50400001928E-02 0. -1.
    10030    2    1    2    0    0  0.00000000000E+00  0.00000000000E+00 -0.52513224395E+03  0.29565295258E+04  0.29095193699E+04 0.  0.
        3    1    3    3  502    0  0.11561952262E+04  0.75487179820E+03 -0.72790284333E+03  0.15609168435E+04  0.10100000352E+00 0.  1.
       -3    1    3    3    0  502 -0.11561952262E+04 -0.75487179820E+03  0.20277059937E+03  0.13956126823E+04  0.10100000352E+00 0. -1.
</event>
<event>
 5   0  0.1543678E-06  0.2913979E+04  0.7818609E-02  0.8268730E-01
       -1   -1    0    0    0  501  0.00000000000E+00  0.00000000000E+00  0.19173341435E+04  0.19173341435E+04  0.50400001928E-02 0. -1.
        1   -1    0    0  501    0  0.00000000000E+00  0.00000000000E+00 -0.11071722077E+04  0.11071722077E+04  0.50400001928E-02 0.  1.
    10030    2    1    2    0    0  0.00000000000E+00  0.00000000000E+00  0.81016193585E+03  0.30245063512E+04  0.29139794622E+04 0.  0.
        3    1    3    3  502    0  0.29473704305E+03  0.13842993751E+04  0.76412727586E+03  0.16084294166E+04  0.10100000352E+00 0. -1.
       -3    1    3    3    0  502 -0.29473704305E+03 -0.13842993751E+04  0.46034659989E+02  0.14160769345E+04  0.10100000352E+00 0.  1.
</event>
<event>
 5   0  0.4224163E-06  0.2895310E+04  0.7818609E-02  0.8274274E-01
        2   -1    0    0  501    0  0.00000000000E+00  0.00000000000E+00  0.18882022472E+04  0.18882022472E+04  0.25500000920E-02 0. -1.
       -2   -1    0    0    0  501  0.00000000000E+00  0.00000000000E+00 -0.11098942699E+04  0.11098942699E+04  0.25500000920E-02 0.  1.
    10030    2    1    2    0    0  0.00000000000E+00  0.00000000000E+00  0.77830797734E+03  0.29980965172E+04  0.28953099003E+04 0.  0.
        4    1    3    3  502    0 -0.45730808265E+03  0.36375496637E+03 -0.98234945261E+03  0.11430049947E+04  0.12699999809E+01 0.  1.
       -4    1    3    3    0  502  0.45730808265E+03 -0.36375496637E+03  0.17606574300E+04  0.18550915224E+04  0.12699999809E+01 0. -1.
</event>
<event>
 5   0  0.4162450E-06  0.2907275E+04  0.7818609E-02  0.8270716E-01
       -2   -1    0    0    0  501  0.00000000000E+00  0.00000000000E+00  0.22367311663E+04  0.22367311663E+04  0.25500000920E-02 0. -1.
        2   -1    0    0  501    0  0.00000000000E+00  0.00000000000E+00 -0.94470992215E+03  0.94470992216E+03  0.25500000920E-02 0.  1.
    10030    2    1    2    0    0  0.00000000000E+00  0.00000000000E+00  0.12920212442E+04  0.31814410885E+04  0.29072750995E+04 0.  0.
        2    1    3    3  502    0  0.10809585547E+04 -0.32320070255E+03  0.16490350951E+04  0.19980607688E+04  0.25500000920E-02 0. -1.
       -2    1    3    3    0  502 -0.10809585547E+04  0.32320070255E+03 -0.35701385092E+03  0.11833803196E+04  0.25500000920E-02 0.  1.
</event>
<event>
 5   0  0.1543678E-06  0.3090240E+04  0.7818609E-02  0.8218422E-01
        1   -1    0    0  501    0  0.00000000000E+00  0.00000000000E+00  0.18380126548E+04  0.18380126548E+04  0.50400001928E-02 0.  1.
       -1   -1    0    0    0  501  0.00000000000E+00  0.00000000000E+00 -0.12989003217E+04  0.12989003217E+04  0.50400001928E-02 0. -1.
    10030    2    1    2    0    0  0.00000000000E+00  0.00000000000E+00  0.53911233312E+03  0.31369129765E+04  0.30902396209E+04 0.  0.
        3    1    3    3  502    0 -0.49013753718E+03 -0.19337857234E+03  0.17439970702E+04  0.18218550624E+04  0.10100000352E+00 0.  1.
       -3    1    3    3    0  502  0.49013753718E+03  0.19337857234E+03 -0.12048847370E+04  0.13150579141E+04  0.10100000352E+00 0. -1.
</event>
<event>
 5   0  0.4187518E-06  0.2895256E+04  0.7818609E-02  0.8274290E-01
       -2   -1    0    0    0  501  0.00000000000E+00  0.00000000000E+00  0.13694325808E+04  0.13694325808E+04  0.25500000920E-02 0.  1.
        2   -1    0    0  501    0  0.00000000000E+00  0.00000000000E+00 -0.15302880059E+04  0.15302880059E+04  0.25500000920E-02 0. -1.
    10030    2    1    2    0    0  0.00000000000E+00  0.00000000000E+00 -0.16085542515E+03  0.28997205867E+04  0.28952556041E+04 0.  0.
        3    1    3    3  502    0 -0.29586168700E+03 -0.13538151420E+04  0.33887849654E+03  0.14266002321E+04  0.10100000352E+00 0.  1.
       -3    1    3    3    0  502  0.29586168700E+03  0.13538151420E+04 -0.49973392169E+03  0.14731203546E+04  0.10100000352E+00 0. -1.
</event>
<event>
 5   0  0.1602873E-06  0.2853227E+04  0.7818609E-02  0.8286931E-01
        1   -1    0    0  501    0  0.00000000000E+00  0.00000000000E+00  0.13443916945E+04  0.13443916945E+04  0.50400001928E-02 0. -1.
       -1   -1    0    0    0  501  0.00000000000E+00  0.00000000000E+00 -0.15138643313E+04  0.15138643314E+04  0.50400001928E-02 0.  1.
    10030    2    1    2    0    0  0.00000000000E+00  0.00000000000E+00 -0.16947263682E+03  0.28582560259E+04  0.28532273893E+04 0.  0.
        1    1    3    3  502    0 -0.88964333527E+03 -0.47583546882E+03 -0.10951476905E+04  0.14890376494E+04  0.50400001928E-02 0.  1.
       -1    1    3    3    0  502  0.88964333527E+03  0.47583546882E+03  0.92567505368E+03  0.13692183765E+04  0.50400001928E-02 0. -1.
</event>
<event>
 5   0  0.1580212E-06  0.3012006E+04  0.7818609E-02  0.8240311E-01
       -1   -1    0    0    0  501  0.00000000000E+00  0.00000000000E+00  0.96397127892E+03  0.96397127893E+03  0.50400001928E-02 0.  1.
        1   -1    0    0  501    0  0.00000000000E+00  0.00000000000E+00 -0.23528140177E+04  0.23528140178E+04  0.50400001928E-02 0. -1.
    10030    2    1    2    0    0  0.00000000000E+00  0.00000000000E+00 -0.13888427388E+04  0.33167852967E+04  0.30120060676E+04 0.  0.
        4    1    3    3  502    0 -0.55516898324E+02  0.46231374155E+03  0.88271200463E+03  0.99799710303E+03  0.12699999809E+01 0.  1.
       -4    1    3    3    0  502  0.55516898324E+02 -0.46231374155E+03 -0.22715547435E+04  0.23187881937E+04  0.12699999809E+01 0. -1.
</event>
<event>
 5   0  0.1511126E-06  0.2904298E+04  0.7818609E-02  0.8271600E-01
        1   -1    0    0  501    0  0.00000000000E+00  0.00000000000E+00  0.18126121778E+04  0.18126121779E+04  0.50400001928E-02 0.  1.
       -1   -1    0    0    0  501  0.00000000000E+00  0.00000000000E+00 -0.11633688107E+04  0.11633688107E+04  0.50400001928E-02 0. -1.
    10030    2    1    2    0    0  0.00000000000E+00  0.00000000000E+00  0.64924336713E+03  0.29759809886E+04  0.29042978316E+04 0.  0.
        5    1    3    3  502    0  0.69490822719E+03 -0.12275207165E+04  0.67811435892E+03  0.15651088548E+04  0.46999998093E+01 0. -1.
       -5    1    3    3    0  502 -0.69490822719E+03  0.12275207165E+04 -0.28870991784E+02  0.14108721338E+04  0.46999998093E+01 0.  1.
</event>
<event>
 5   0  0.4187518E-06  0.2908172E+04  0.7818609E-02  0.8270450E-01
       -2   -1    0    0    0  501  0.00000000000E+00  0.00000000000E+00  0.11669657329E+04  0.11669657329E+04  0.25500000920E-02 0.  1.
        2   -1    0    0  501    0  0.00000000000E+00  0.00000000000E+00 -0.18118497584E+04  0.18118497584E+04  0.25500000920E-02 0. -1.
    10030    2    1    2    0    0  0.00000000000E+00  0.00000000000E+00 -0.64488402552E+03  0.29788154913E+04  0.29081723341E+04 0.  0.
        3    1    3    3  502    0  0.63391440824E+03  0.13950470442E+03  0.10103406146E+04  0.12008735184E+04  0.10100000352E+00 0.  1.
       -3    1    3    3    0  502 -0.63391440824E+03 -0.13950470442E+03 -0.16552246401E+04  0.17779419729E+04  0.10100000352E+00 0. -1.
</event>
<event>
 5   0  0.1602873E-06  0.2921131E+04  0.7818609E-02  0.8266618E-01
       -1   -1    0    0    0  501  0.00000000000E+00  0.00000000000E+00  0.15998210398E+04  0.15998210398E+04  0.50400001928E-02 0. -1.
        1   -1    0    0  501    0  0.00000000000E+00  0.00000000000E+00 -0.13334313062E+04  0.13334313062E+04  0.50400001928E-02 0.  1.
    10030    2    1    2    0    0  0.00000000000E+00  0.00000000000E+00  0.26638973363E+03  0.29332523461E+04  0.29211309172E+04 0.  0.
        1    1    3    3  502    0  0.11500733689E+03 -0.42144791483E+03 -0.12662908117E+04  0.13395288172E+04  0.50400001928E-02 0.  1.
       -1    1    3    3    0  502 -0.11500733689E+03  0.42144791483E+03  0.15326805453E+04  0.15937235288E+04  0.50400001928E-02 0. -1.
</event>
<event>
 5   0  0.4115143E-06  0.2928532E+04  0.7818609E-02  0.8264439E-01
       -2   -1    0    0    0  501  0.00000000000E+00  0.00000000000E+00  0.11740670308E+04  0.11740670308E+04  0.25500000920E-02 0. -1.
        2   -1    0    0  501    0  0.00000000000E+00  0.00000000000E+00 -0.18261941127E+04  0.18261941127E+04  0.25500000920E-02 0.  1.
    10030    2    1    2    0    0  0.00000000000E+00  0.00000000000E+00 -0.65212708181E+03  0.30002611435E+04  0.29285315771E+04 0.  0.
        1    1    3    3  502    0 -0.91650051552E+02 -0.17276981580E+03  0.11606260517E+04  0.11769885187E+04  0.50400001928E-02 0. -1.
       -1    1    3    3    0  502  0.91650051552E+02  0.17276981580E+03 -0.18127531335E+04  0.18232726248E+04  0.50400001928E-02 0.  1.
</event>
<event>
 5   0  0.1580212E-06  0.2884397E+04  0.7818609E-02  0.8277535E-01
        1   -1    0    0  501    0  0.00000000000E+00  0.00000000000E+00  0.26843010222E+04  0.26843010222E+04  0.50400001928E-02 0. -1.
       -1   -1    0    0    0  501  0.00000000000E+00  0.00000000000E+00 -0.77485223419E+03  0.77485223421E+03  0.50400001928E-02 0.  1.
    10030    2    1    2    0    0  0.00000000000E+00  0.00000000000E+00  0.19094487880E+04  0.34591532565E+04  0.28843970908E+04 0.  0.
        4    1    3    3  502    0 -0.51108851013E+03  0.60101256482E+03  0.24025629858E+04  0.25287819364E+04  0.12699999809E+01 0. -1.
       -4    1    3    3    0  502  0.51108851013E+03 -0.60101256482E+03 -0.49311419775E+03  0.93037132005E+03  0.12699999809E+01 0.  1.
</event>
<event>
 5   0  0.1511126E-06  0.2894768E+04  0.7818609E-02  0.8274436E-01
       -1   -1    0    0    0  501  0.00000000000E+00  0.00000000000E+00  0.11605724196E+04  0.11605724196E+04  0.50400001928E-02 0. -1.
        1   -1    0    0  501    0  0.00000000000E+00  0.00000000000E+00 -0.18050747460E+04  0.18050747460E+04  0.50400001928E-02 0.  1.
    10030    2    1    2    0    0  0.00000000000E+00  0.00000000000E+00 -0.64450232644E+03  0.29656471656E+04  0.28947676698E+04 0.  0.
        5    1    3    3  502    0 -0.14339121601E+04  0.14601973753E+03 -0.18683283838E+03  0.14533941124E+04  0.46999998093E+01 0. -1.
       -5    1    3    3    0  502  0.14339121601E+04 -0.14601973753E+03 -0.45766948806E+03  0.15122530532E+04  0.46999998093E+01 0.  1.
</event>
<event>
 5   0  0.1550278E-06  0.2668376E+04  0.7818609E-02  0.8345339E-01
       -1   -1    0    0    0  501  0.00000000000E+00  0.00000000000E+00  0.23453271157E+04  0.23453271157E+04  0.50400001928E-02 0. -1.
        1   -1    0    0  501    0  0.00000000000E+00  0.00000000000E+00 -0.75898050196E+03  0.75898050197E+03  0.50400001928E-02 0.  1.
    10030    2    1    2    0    0  0.00000000000E+00  0.00000000000E+00  0.15863466138E+04  0.31043076177E+04  0.26683759492E+04 0.  0.
        2    1    3    3  502    0 -0.24337203099E+03 -0.31934586646E+03 -0.68702695815E+03  0.79574981566E+03  0.25500000920E-02 0.  1.
       -2    1    3    3    0  502  0.24337203099E+03  0.31934586646E+03  0.22733735719E+04  0.23085578020E+04  0.25500000920E-02 0. -1.
</event>
<event>
 5   0  0.1580212E-06  0.2895976E+04  0.7818609E-02  0.8274076E-01
        1   -1    0    0  501    0  0.00000000000E+00  0.00000000000E+00  0.25566210707E+04  0.25566210707E+04  0.50400001928E-02 0. -1.
       -1   -1    0    0    0  501  0.00000000000E+00  0.00000000000E+00 -0.82009381288E+03  0.82009381289E+03  0.50400001928E-02 0.  1.
    10030    2    1    2    0    0  0.00000000000E+00  0.00000000000E+00  0.17365272578E+04  0.33767148836E+04  0.28959759129E+04 0.  0.
        4    1    3    3  502    0 -0.12526481548E+04  0.40136487349E+03  0.16242626287E+03  0.13253697843E+04  0.12699999809E+01 0.  1.
       -4    1    3    3    0  502  0.12526481548E+04 -0.40136487349E+03  0.15741009950E+04  0.20513450993E+04  0.12699999809E+01 0. -1.
</event>
<event>
 5   0  0.1511126E-06  0.3084693E+04  0.7818609E-02  0.8219951E-01
        1   -1    0    0  501    0  0.00000000000E+00  0.00000000000E+00  0.15031340381E+04  0.15031340381E+04  0.50400001928E-02 0.  1.
       -1   -1    0    0    0  501  0.00000000000E+00  0.00000000000E+00 -0.15825821477E+04  0.15825821477E+04  0.50400001928E-02 0. -1.
    10030    2    1    2    0    0  0.00000000000E+00  0.00000000000E+00 -0.79448109647E+02  0.30857161858E+04  0.30846932387E+04 0.  0.
        5    1    3    3  502    0 -0.12626298014E+04  0.85364141953E+03 -0.27617781234E+03  0.15489460812E+04  0.46999998093E+01 0.  1.
       -5    1    3    3    0  502  0.12626298014E+04 -0.85364141953E+03  0.19672970270E+03  0.15367701046E+04  0.46999998093E+01 0. -1.
</event>
<event>
 5   0  0.4162450E-06  0.2893801E+04  0.7818609E-02  0.8274724E-01
        2   -1    0    0  501    0  0.00000000000E+00  0.00000000000E+00  0.17039668204E+04  0.17039668204E+04  0.25500000920E-02 0. -1.
       -2   -1    0    0    0  501  0.00000000000E+00  0.00000000000E+00 -0.12286158946E+04  0.12286158946E+04  0.25500000920E-02 0.  1.
    10030    2    1    2    0    0  0.00000000000E+00  0.00000000000E+00  0.47535092579E+03  0.29325827151E+04  0.28938007668E+04 0.  0.
        2    1    3    3  502    0 -0.20854752498E+03  0.16179958725E+03 -0.12040107811E+04  0.12326042096E+04  0.25500000920E-02 0.  1.
       -2    1    3    3    0  502  0.20854752498E+03 -0.16179958725E+03  0.16793617068E+04  0.16999785055E+04  0.25500000920E-02 0. -1.
</event>
<event>
 5   0  0.1602873E-06  0.2899362E+04  0.7818609E-02  0.8273067E-01
        1   -1    0    0  501    0  0.00000000000E+00  0.00000000000E+00  0.18440223576E+04  0.18440223576E+04  0.50400001928E-02 0.  1.
       -1   -1    0    0    0  501  0.00000000000E+00  0.00000000000E+00 -0.11396688196E+04  0.11396688196E+04  0.50400001928E-02 0. -1.
    10030    2    1    2    0    0  0.00000000000E+00  0.00000000000E+00  0.70435353794E+03  0.29836911772E+04  0.28993618495E+04 0.  0.
        1    1    3    3  502    0 -0.41846312907E+03  0.12889847558E+04 -0.17755910538E+03  0.13667919838E+04  0.50400001928E-02 0. -1.
       -1    1    3    3    0  502  0.41846312907E+03 -0.12889847558E+04  0.88191264332E+03  0.16168991934E+04  0.50400001928E-02 0.  1.
</event>
<event>
 5   0  0.1602873E-06  0.2831411E+04  0.7818609E-02  0.8293582E-01
        1   -1    0    0  501    0  0.00000000000E+00  0.00000000000E+00  0.21229391804E+04  0.21229391804E+04  0.50400001928E-02 0.  1.
       -1   -1    0    0    0  501  0.00000000000E+00  0.00000000000E+00 -0.94407899031E+03  0.94407899032E+03  0.50400001928E-02 0. -1.
    10030    2    1    2    0    0  0.00000000000E+00  0.00000000000E+00  0.11788601901E+04  0.30670181707E+04  0.28314111520E+04 0.  0.
        1    1    3    3  502    0 -0.12857097006E+03 -0.11089851071E+04 -0.35355160826E+03  0.11710581548E+04  0.50400001928E-02 0. -1.
       -1    1    3    3    0  502  0.12857097006E+03  0.11089851071E+04  0.15324117984E+04  0.18959600159E+04  0.50400001928E-02 0.  1.
</event>
<event>
 5   0  0.1543678E-06  0.2894806E+04  0.7818609E-02  0.8274424E-01
       -1   -1    0    0    0  501  0.00000000000E+00  0.00000000000E+00  0.11193650733E+04  0.11193650733E+04  0.50400001928E-02 0.  1.
        1   -1    0    0  501    0  0.00000000000E+00  0.00000000000E+00 -0.18715752327E+04  0.18715752327E+04  0.50400001928E-02 0. -1.
    10030    2    1    2    0    0  0.00000000000E+00  0.00000000000E+00 -0.75221015945E+03  0.29909403060E+04  0.28948063476E+04 0.  0.
        3    1    3    3  502    0 -0.10533874646E+04  0.44350566681E+03 -0.12936584810E+04  0.17262313584E+04  0.10100000352E+00 0. -1.
       -3    1    3    3    0  502  0.10533874646E+04 -0.44350566681E+03  0.54144832154E+03  0.12647089476E+04  0.10100000352E+00 0.  1.
</event>
<event>
 5   0  0.4224163E-06  0.2926489E+04  0.7818609E-02  0.8265040E-01
       -2   -1    0    0    0  501  0.00000000000E+00  0.00000000000E+00  0.14094307510E+04  0.14094307510E+04  0.25500000920E-02 0.  1.
        2   -1    0    0  501    0  0.00000000000E+00  0.00000000000E+00 -0.15191129467E+04  0.15191129467E+04  0.25500000920E-02 0. -1.
    10030    2    1    2    0    0  0.00000000000E+00  0.00000000000E+00 -0.10968219566E+03  0.29285436977E+04  0.29264890236E+04 0.  0.
        4    1    3    3  502    0  0.88581596974E+03 -0.10711762810E+04  0.40263884932E+03  0.14471379385E+04  0.12699999809E+01 0.  1.
       -4    1    3    3    0  502 -0.88581596974E+03  0.10711762810E+04 -0.51232104498E+03  0.14814057592E+04  0.12699999809E+01 0. -1.
</event>
<event>
 5   0  0.1543678E-06  0.2646209E+04  0.7818609E-02  0.8352672E-01
       -1   -1    0    0    0  501  0.00000000000E+00  0.00000000000E+00  0.97000915085E+03  0.97000915087E+03  0.50400001928E-02 0.  1.
        1   -1    0    0  501    0  0.00000000000E+00  0.00000000000E+00 -0.18047304396E+04  0.18047304396E+04  0.50400001928E-02 0. -1.
    10030    2    1    2    0    0  0.00000000000E+00  0.00000000000E+00 -0.83472128876E+03  0.27747395905E+04  0.26462086398E+04 0.  0.
        3    1    3    3  502    0 -0.19415910695E+03 -0.77096165631E+03  0.69161261070E+03  0.10537588186E+04  0.10100000352E+00 0.  1.
       -3    1    3    3    0  502  0.19415910695E+03  0.77096165631E+03 -0.15263338995E+04  0.17209807719E+04  0.10100000352E+00 0. -1.
</event>
<event>
 5   0  0.4224163E-06  0.2978680E+04  0.7818609E-02  0.8249845E-01
       -2   -1    0    0    0  501  0.00000000000E+00  0.00000000000E+00  0.15109915627E+04  0.15109915627E+04  0.25500000920E-02 0.  1.
        2   -1    0    0  501    0  0.00000000000E+00  0.00000000000E+00 -0.14679988688E+04  0.14679988688E+04  0.25500000920E-02 0. -1.
    10030    2    1    2    0    0  0.00000000000E+00  0.00000000000E+00  0.42992693935E+02  0.29789904315E+04  0.29786801808E+04 0.  0.
        4    1    3    3  502    0 -0.50339953672E+03 -0.13911829196E+04 -0.14978527255E+03  0.14870232850E+04  0.12699999809E+01 0.  1.
       -4    1    3    3    0  502  0.50339953672E+03  0.13911829196E+04  0.19277796649E+03  0.14919671466E+04  0.12699999809E+01 0. -1.
</event>
<event>
 5   0  0.4187518E-06  0.2864631E+04  0.7818609E-02  0.8283479E-01
        2   -1    0    0  501    0  0.00000000000E+00  0.00000000000E+00  0.18553645357E+04  0.18553645357E+04  0.25500000920E-02 0. -1.
       -2   -1    0    0    0  501  0.00000000000E+00  0.00000000000E+00 -0.11057274695E+04  0.11057274695E+04  0.25500000920E-02 0.  1.
    10030    2    1    2    0    0  0.00000000000E+00  0.00000000000E+00  0.74963706612E+03  0.29610920052E+04  0.28646308894E+04 0.  0.
        3    1    3    3  502    0  0.49046765786E+03 -0.22861610073E+03 -0.99599873644E+03  0.11335066555E+04  0.10100000352E+00 0.  1.
       -3    1    3    3    0  502 -0.49046765786E+03  0.22861610073E+03  0.17456358026E+04  0.18275853497E+04  0.10100000352E+00 0. -1.
</event>
<event>
 5   0  0.4115143E-06  0.2913528E+04  0.7818609E-02  0.8268864E-01
        2   -1    0    0  501    0  0.00000000000E+00  0.00000000000E+00  0.14553728388E+04  0.14553728388E+04  0.25500000920E-02 0.  1.
       -2   -1    0    0    0  501  0.00000000000E+00  0.00000000000E+00 -0.14581563113E+04  0.14581563113E+04  0.25500000920E-02 0. -1.
    10030    2    1    2    0    0  0.00000000000E+00  0.00000000000E+00 -0.27834724869E+01  0.29135291501E+04  0.29135278204E+04 0.  0.
        1    1    3    3  502    0 -0.51614605859E+03 -0.61597501327E+03 -0.12164351374E+04  0.14579253803E+04  0.50400001928E-02 0. -1.
       -1    1    3    3    0  502  0.51614605859E+03  0.61597501327E+03  0.12136516650E+04  0.14556037698E+04  0.50400001928E-02 0.  1.
</event>
<event>
 5   0  0.4224163E-06  0.2912265E+04  0.7818609E-02  0.8269238E-01
       -2   -1    0    0    0  501  0.00000000000E+00  0.00000000000E+00  0.97598841412E+03  0.97598841413E+03  0.25500000920E-02 0.  1.
        2   -1    0    0  501    0  0.00000000000E+00  0.00000000000E+00 -0.21724862063E+04  0.21724862063E+04  0.25500000920E-02 0. -1.
    10030    2    1    2    0    0  0.00000000000E+00  0.00000000000E+00 -0.11964977922E+04  0.31484746204E+04  0.29122646632E+04 0.  0.
        4    1    3    3  502    0 -0.59377245282E+03  0.13020366175E+04 -0.30724248091E+03  0.14636477152E+04  0.12699999809E+01 0. -1.
       -4    1    3    3    0  502  0.59377245282E+03 -0.13020366175E+04 -0.88925531125E+03  0.16848269052E+04  0.12699999809E+01 0.  1.
</event>
<event>
 5   0  0.1543678E-06  0.2909187E+04  0.7818609E-02  0.8270149E-01
       -1   -1    0    0    0  501  0.00000000000E+00  0.00000000000E+00  0.15143591168E+04  0.15143591168E+04  0.50400001928E-02 0. -1.
        1   -1    0    0  501    0  0.00000000000E+00  0.00000000000E+00 -0.13971863557E+04  0.13971863557E+04  0.50400001928E-02 0.  1.
    10030    2    1    2    0    0  0.00000000000E+00  0.00000000000E+00  0.11717276112E+03  0.29115454725E+04  0.29091867562E+04 0.  0.
        3    1    3    3  502    0  0.13786454213E+04  0.45522222459E+03  0.14782938021E+03  0.14593642476E+04  0.10100000352E+00 0. -1.
       -3    1    3    3    0  502 -0.13786454213E+04 -0.45522222459E+03 -0.30656619084E+02  0.14521812249E+04  0.10100000352E+00 0.  1.
</event>
<event>
 5   0  0.4187518E-06  0.2899398E+04  0.7818609E-02  0.8273057E-01
        2   -1    0    0  501    0  0.00000000000E+00  0.00000000000E+00  0.18957203374E+04  0.18957203374E+04  0.25500000920E-02 0. -1.
       -2   -1    0    0    0  501  0.00000000000E+00  0.00000000000E+00 -0.11086164601E+04  0.11086164601E+04  0.25500000920E-02 0.  1.
    10030    2    1    2    0    0  0.00000000000E+00  0.00000000000E+00  0.78710387728E+03  0.30043367975E+04  0.28993977097E+04 0.  0.
        3    1    3    3  502    0 -0.17335071527E+03  0.99122383044E+02  0.18814012112E+04  0.18919688806E+04  0.10100000352E+00 0. -1.
       -3    1    3    3    0  502  0.17335071527E+03 -0.99122383044E+02 -0.10942973339E+04  0.11123679169E+04  0.10100000352E+00 0.  1.
</event>
<event>
 5   0  0.1543678E-06  0.2996988E+04  0.7818609E-02  0.8244592E-01
        1   -1    0    0  501    0  0.00000000000E+00  0.00000000000E+00  0.16537722609E+04  0.16537722609E+04  0.50400001928E-02 0.  1.
       -1   -1    0    0    0  501  0.00000000000E+00  0.00000000000E+00 -0.13577952433E+04  0.13577952433E+04  0.50400001928E-02 0. -1.
    10030    2    1    2    0    0  0.00000000000E+00  0.00000000000E+00  0.29597701756E+03  0.30115675042E+04  0.29969878942E+04 0.  0.
        3    1    3    3  502    0 -0.81116998381E+03 -0.86101186703E+03  0.10723253145E+04  0.15966276235E+04  0.10100000352E+00 0.  1.
       -3    1    3    3    0  502  0.81116998381E+03  0.86101186703E+03 -0.77634829692E+03  0.14149398808E+04  0.10100000352E+00 0. -1.
</event>
<event>
 5   0  0.4224163E-06  0.2935574E+04  0.7818609E-02  0.8262371E-01
        2   -1    0    0  501    0  0.00000000000E+00  0.00000000000E+00  0.16678965232E+04  0.16678965232E+04  0.25500000920E-02 0.  1.
       -2   -1    0    0    0  501  0.00000000000E+00  0.00000000000E+00 -0.12916857534E+04  0.12916857534E+04  0.25500000920E-02 0. -1.
    10030    2    1    2    0    0  0.00000000000E+00  0.00000000000E+00  0.37621076979E+03  0.29595822765E+04  0.29355736592E+04 0.  0.
        4    1    3    3  502    0 -0.60744174548E+03  0.53409786481E+03  0.14229288113E+04  0.16367571654E+04  0.12699999809E+01 0.  1.
       -4    1    3    3    0  502  0.60744174548E+03 -0.53409786481E+03 -0.10467180415E+04  0.13228251112E+04  0.12699999809E+01 0. -1.
</event>
<event>
 5   0  0.4162450E-06  0.2889324E+04  0.7818609E-02  0.8276061E-01
       -2   -1    0    0    0  501  0.00000000000E+00  0.00000000000E+00  0.93327022910E+03  0.93327022910E+03  0.25500000920E-02 0. -1.
        2   -1    0    0  501    0  0.00000000000E+00  0.00000000000E+00 -0.22362747976E+04  0.22362747976E+04  0.25500000920E-02 0.  1.
    10030    2    1    2    0    0  0.00000000000E+00  0.00000000000E+00 -0.13030045685E+04  0.31695450267E+04  0.28893242758E+04 0.  0.
        2    1    3    3  502    0 -0.48848400371E+03  0.13414327151E+02 -0.21428580122E+04  0.21978710213E+04  0.25500000920E-02 0.  1.
       -2    1    3    3    0  502  0.48848400371E+03 -0.13414327151E+02  0.83985344362E+03  0.97167400542E+03  0.25500000920E-02 0. -1.
</event>
<event>
 5   0  0.4115143E-06  0.2892866E+04  0.7818609E-02  0.8275003E-01
       -2   -1    0    0    0  501  0.00000000000E+00  0.00000000000E+00  0.11048032182E+04  0.11048032182E+04  0.25500000920E-02 0.  1.
        2   -1    0    0  501    0  0.00000000000E+00  0.00000000000E+00 -0.18937021266E+04  0.18937021266E+04  0.25500000920E-02 0. -1.
    10030    2    1    2    0    0  0.00000000000E+00  0.00000000000E+00 -0.78889890847E+03  0.29985053448E+04  0.28928658481E+04 0.  0.
        1    1    3    3  502    0 -0.14166956793E+04 -0.28568134388E+03 -0.45601304358E+03  0.15154498916E+04  0.50400001928E-02 0. -1.
       -1    1    3    3    0  502  0.14166956793E+04  0.28568134388E+03 -0.33288586490E+03  0.14830554532E+04  0.50400001928E-02 0.  1.
</event>
<event>
 5   0  0.4187518E-06  0.2906719E+04  0.7818609E-02  0.8270881E-01
       -2   -1    0    0    0  501  0.00000000000E+00  0.00000000000E+00  0.27313679880E+04  0.27313679880E+04  0.25500000920E-02 0.  1.
        2   -1    0    0  501    0  0.00000000000E+00  0.00000000000E+00 -0.77333178255E+03  0.77333178256E+03  0.25500000920E-02 0. -1.
    10030    2    1    2    0    0  0.00000000000E+00  0.00000000000E+00  0.19580362054E+04  0.35046997705E+04  0.29067188890E+04 0.  0.
        3    1    3    3  502    0 -0.14145744008E+03  0.14257532110E+04  0.68498157882E+03  0.15880749981E+04  0.10100000352E+00 0. -1.
       -3    1    3    3    0  502  0.14145744008E+03 -0.14257532110E+04  0.12730546266E+04  0.19166247725E+04  0.10100000352E+00 0.  1.
</event>
<event>
 5   0  0.4162450E-06  0.2908939E+04  0.7818609E-02  0.8270223E-01
        2   -1    0    0  501    0  0.00000000000E+00  0.00000000000E+00  0.17812714804E+04  0.17812714804E+04  0.25500000920E-02 0.  1.
       -2   -1    0    0    0  501  0.00000000000E+00  0.00000000000E+00 -0.11876244382E+04  0.11876244382E+04  0.25500000920E-02 0. -1.
    10030    2    1    2    0    0  0.00000000000E+00  0.00000000000E+00  0.59364704214E+03  0.29688959186E+04  0.29089390101E+04 0.  0.
        2    1    3    3  502    0  0.69490475302E+03 -0.22210865213E+03 -0.98738639896E+03  0.12276631338E+04  0.25500000920E-02 0. -1.
       -2    1    3    3    0  502 -0.69490475302E+03  0.22210865213E+03  0.15810334411E+04  0.17412327848E+04  0.25500000920E-02 0.  1.
</event>
<event>
 5   0  0.1580212E-06  0.2878505E+04  0.7818609E-02  0.8279302E-01
       -1   -1    0    0    0  501  0.00000000000E+00  0.00000000000E+00  0.99049465183E+03  0.99049465184E+03  0.50400001928E-02 0. -1.
        1   -1    0    0  501    0  0.00000000000E+00  0.00000000000E+00 -0.20913267223E+04  0.20913267223E+04  0.50400001928E-02 0.  1.
    10030    2    1    2    0    0  0.00000000000E+00  0.00000000000E+00 -0.11008320704E+04  0.30818213741E+04  0.28785051215E+04 0.  0.
        4    1    3    3  502    0  0.54166169500E+03  0.24528781820E+02  0.87696137406E+03  0.10310489404E+04  0.12699999809E+01 0. -1.
       -4    1    3    3    0  502 -0.54166169500E+03 -0.24528781820E+02 -0.19777934445E+04  0.20507724337E+04  0.12699999809E+01 0.  1.
</event>
<event>
 5   0  0.1550278E-06  0.2660251E+04  0.7818609E-02  0.8348019E-01
        1   -1    0    0  501    0  0.00000000000E+00  0.00000000000E+00  0.88765557345E+03  0.88765557347E+03  0.50400001928E-02 0. -1.
       -1   -1    0    0    0  501  0.00000000000E+00  0.00000000000E+00 -0.19931528890E+04  0.19931528890E+04  0.50400001928E-02 0.  1.
    10030    2    1    2    0    0  0.00000000000E+00  0.00000000000E+00 -0.11054973156E+04  0.28808084625E+04  0.26602505677E+04 0.  0.
        2    1    3    3  502    0  0.67632026807E+03 -0.10964390901E+04 -0.91132961397E+03  0.15780080635E+04  0.25500000920E-02 0.  1.
       -2    1    3    3    0  502 -0.67632026807E+03  0.10964390901E+04 -0.19416770162E+03  0.13028003990E+04  0.25500000920E-02 0. -1.
</event>
<event>
 5   0  0.1580212E-06  0.3032437E+04  0.7818609E-02  0.8234529E-01
        1   -1    0    0  501    0  0.00000000000E+00  0.00000000000E+00  0.13220326948E+04  0.13220326948E+04  0.50400001928E-02 0.  1.
       -1   -1    0    0    0  501  0.00000000000E+00  0.00000000000E+00 -0.17389271175E+04  0.17389271176E+04  0.50400001928E-02 0. -1.
    10030    2    1    2    0    0  0.00000000000E+00  0.00000000000E+00 -0.41689442278E+03  0.30609598123E+04  0.30324369759E+04 0.  0.
        4    1    3    3  502    0  0.82835983027E+03 -0.13053036497E+03 -0.14835385350E+04  0.17041438854E+04  0.12699999809E+01 0. -1.
       -4    1    3    3    0  502 -0.82835983027E+03  0.13053036497E+03  0.10666441122E+04  0.13568159269E+04  0.12699999809E+01 0.  1.
</event>
<event>
 5   0  0.1511126E-06  0.2889409E+04  0.7818609E-02  0.8276036E-01
        1   -1    0    0  501    0  0.00000000000E+00  0.00000000000E+00  0.17021208005E+04  0.17021208005E+04  0.50400001928E-02 0. -1.
       -1   -1    0    0    0  501  0.00000000000E+00  0.00000000000E+00 -0.12262179692E+04  0.12262179692E+04  0.50400001928E-02 0.  1.
    10030    2    1    2    0    0  0.00000000000E+00  0.00000000000E+00  0.47590283132E+03  0.29283387697E+04  0.28894090132E+04 0.  0.
        5    1    3    3  502    0 -0.12178320183E+04 -0.15601614775E+03  0.10095854620E+04  0.15895725080E+04  0.46999998093E+01 0. -1.
       -5    1    3    3    0  502  0.12178320183E+04  0.15601614775E+03 -0.53368263070E+03  0.13387662617E+04  0.46999998093E+01 0.  1.
</event>
<event>
 5   0  0.1511126E-06  0.2916654E+04  0.7818609E-02  0.8267940E-01
       -1   -1    0    0    0  501  0.00000000000E+00  0.00000000000E+00  0.18259797261E+04  0.18259797261E+04  0.50400001928E-02 0.  1.
        1   -1    0    0  501    0  0.00000000000E+00  0.00000000000E+00 -0.11646992890E+04  0.11646992890E+04  0.50400001928E-02 0. -1.
    10030    2    1    2    0    0  0.00000000000E+00  0.00000000000E+00  0.66128043707E+03  0.29906790151E+04  0.29166537598E+04 0.  0.
        5    1    3    3  502    0  0.17066798686E+03 -0.13923844224E+04 -0.78013681281E+02  0.14049804860E+04  0.46999998093E+01 0. -1.
       -5    1    3    3    0  502 -0.17066798686E+03  0.13923844224E+04  0.73929411836E+03  0.15856985290E+04  0.46999998093E+01 0.  1.
</event>
<event>
 5   0  0.4187518E-06  0.2884354E+04  0.7818609E-02  0.8277548E-01
        2   -1    0    0  501    0  0.00000000000E+00  0.00000000000E+00  0.12989890669E+04  0.12989890669E+04  0.25500000920E-02 0. -1.
       -2   -1    0    0    0  501  0.00000000000E+00  0.00000000000E+00 -0.16011489905E+04  0.16011489905E+04  0.25500000920E-02 0.  1.
    10030    2    1    2    0    0  0.00000000000E+00  0.00000000000E+00 -0.30215992356E+03  0.29001380574E+04  0.28843543701E+04 0.  0.
        3    1    3    3  502    0 -0.90017528457E+03  0.57775547052E+03 -0.11237193494E+04  0.15514064951E+04  0.10100000352E+00 0.  1.
       -3    1    3    3    0  502  0.90017528457E+03 -0.57775547052E+03  0.82155942583E+03  0.13487315623E+04  0.10100000352E+00 0. -1.
</event>
<event>
 5   0  0.4187518E-06  0.2817531E+04  0.7818609E-02  0.8297846E-01
       -2   -1    0    0    0  501  0.00000000000E+00  0.00000000000E+00  0.10413764891E+04  0.10413764891E+04  0.25500000920E-02 0. -1.
        2   -1    0    0  501    0  0.00000000000E+00  0.00000000000E+00 -0.19057668945E+04  0.19057668945E+04  0.25500000920E-02 0.  1.
    10030    2    1    2    0    0  0.00000000000E+00  0.00000000000E+00 -0.86439040535E+03  0.29471433836E+04  0.28175314285E+04 0.  0.
        3    1    3    3  502    0 -0.55392933944E+03  0.12593177663E+04 -0.11509633632E+03  0.13805673205E+04  0.10100000352E+00 0. -1.
       -3    1    3    3    0  502  0.55392933944E+03 -0.12593177663E+04 -0.74929406903E+03  0.15665760631E+04  0.10100000352E+00 0.  1.
</event>
<event>
 5   0  0.1360125E-06  0.2896565E+04  0.7818609E-02  0.8273900E-01
       -3   -1    0    0    0  501  0.00000000000E+00  0.00000000000E+00  0.10705836706E+04  0.10705836754E+04  0.10100000352E+00 0.  1.
        3   -1    0    0  501    0  0.00000000000E+00  0.00000000000E+00 -0.19592324470E+04  0.19592324496E+04  0.10100000352E+00 0. -1.
    10030    2    1    2    0    0  0.00000000000E+00  0.00000000000E+00 -0.88864877643E+03  0.30298161250E+04  0.28965650525E+04 0.  0.
        1    1    3    3  502    0 -0.11320729233E+04  0.45108653476E+03 -0.12629206609E+04  0.17550033508E+04  0.50400001928E-02 0. -1.
       -1    1    3    3    0  502  0.11320729233E+04 -0.45108653476E+03  0.37427188450E+03  0.12748127741E+04  0.50400001928E-02 0.  1.
</event>
<event>
 5   0  0.4115143E-06  0.2908303E+04  0.7818609E-02  0.8270411E-01
       -2   -1    0    0    0  501  0.00000000000E+00  0.00000000000E+00  0.19028002648E+04  0.19028002648E+04  0.25500000920E-02 0.  1.
        2   -1    0    0  501    0  0.00000000000E+00  0.00000000000E+00 -0.11112864968E+04  0.11112864968E+04  0.25500000920E-02 0. -1.
    10030    2    1    2    0    0  0.00000000000E+00  0.00000000000E+00  0.79151376792E+03  0.30140867616E+04  0.29083027631E+04 0.  0.
        1    1    3    3  502    0 -0.70456260609E+03  0.87928064458E+03 -0.55692501058E+03  0.12568645055E+04  0.50400001928E-02 0. -1.
       -1    1    3    3    0  502  0.70456260609E+03 -0.87928064458E+03  0.13484387785E+04  0.17572222561E+04  0.50400001928E-02 0.  1.
</event>
<event>
 5   0  0.1550278E-06  0.2790392E+04  0.7818609E-02  0.8306258E-01
       -1   -1    0    0    0  501  0.00000000000E+00  0.00000000000E+00  0.88059698448E+03  0.88059698450E+03  0.50400001928E-02 0. -1.
        1   -1    0    0  501    0  0.00000000000E+00  0.00000000000E+00 -0.22105131320E+04  0.22105131320E+04  0.50400001928E-02 0.  1.
    10030    2    1    2    0    0  0.00000000000E+00  0.00000000000E+00 -0.13299161475E+04  0.30911101165E+04  0.27903915125E+04 0.  0.
        2    1    3    3  502    0 -0.62133667331E+03 -0.79047675632E+03  0.40658097624E+03  0.10845371613E+04  0.25500000920E-02 0. -1.
       -2    1    3    3    0  502  0.62133667331E+03  0.79047675632E+03 -0.17364971237E+04  0.20065729552E+04  0.25500000920E-02 0.  1.
</event>
<event>
 5   0  0.4187518E-06  0.2910596E+04  0.7818609E-02  0.8269732E-01
        2   -1    0    0  501    0  0.00000000000E+00  0.00000000000E+00  0.16356908187E+04  0.16356908187E+04  0.25500000920E-02 0. -1.
       -2   -1    0    0    0  501  0.00000000000E+00  0.00000000000E+00 -0.12948000496E+04  0.12948000496E+04  0.25500000920E-02 0.  1.
    10030    2    1    2    0    0  0.00000000000E+00  0.00000000000E+00  0.34089076908E+03  0.29304908684E+04  0.29105961955E+04 0.  0.
        3    1    3    3  502    0 -0.14274539822E+04 -0.28330927557E+03  0.16855474436E+03  0.14650255046E+04  0.10100000352E+00 0.  1.
       -3    1    3    3    0  502  0.14274539822E+04  0.28330927557E+03  0.17233602472E+03  0.14654653638E+04  0.10100000352E+00 0. -1.
</event>
<event>
 5   0  0.4224163E-06  0.2699270E+04  0.7818609E-02  0.8335242E-01
        2   -1    0    0  501    0  0.00000000000E+00  0.00000000000E+00  0.63597849507E+03  0.63597849508E+03  0.25500000920E-02 0.  1.
       -2   -1    0    0    0  501  0.00000000000E+00  0.00000000000E+00 -0.28641140330E+04  0.28641140330E+04  0.25500000920E-02 0. -1.
    10030    2    1    2    0    0  0.00000000000E+00  0.00000000000E+00 -0.22281355380E+04  0.35000925281E+04  0.26992702217E+04 0.  0.
        4    1    3    3  502    0  0.12005340485E+04  0.50698769823E+03 -0.15691913480E+04  0.20397748962E+04  0.12699999809E+01 0.  1.
       -4    1    3    3    0  502 -0.12005340485E+04 -0.50698769823E+03 -0.65894418995E+03  0.14603176319E+04  0.12699999809E+01 0. -1.
</event>
<event>
 5   0  0.4148677E-06  0.2908417E+04  0.7818609E-02  0.8270378E-01
        2   -1    0    0  501    0  0.00000000000E+00  0.00000000000E+00  0.12279431587E+04  0.12279431587E+04  0.25500000920E-02 0. -1.
       -2   -1    0    0    0  501  0.00000000000E+00  0.00000000000E+00 -0.17221664061E+04  0.17221664061E+04  0.25500000920E-02 0.  1.
    10030    2    1    2    0    0  0.00000000000E+00  0.00000000000E+00 -0.49422324741E+03  0.29501095647E+04  0.29084170653E+04 0.  0.
        5    1    3    3  502    0  0.49050305309E+02  0.20130843799E+03  0.12128860472E+04  0.12304656326E+04  0.46999998093E+01 0. -1.
       -5    1    3    3    0  502 -0.49050305309E+02 -0.20130843799E+03 -0.17071092946E+04  0.17196439321E+04  0.46999998093E+01 0.  1.
</event>
<event>
 5   0  0.1602873E-06  0.2916062E+04  0.7818609E-02  0.8268115E-01
       -1   -1    0    0    0  501  0.00000000000E+00  0.00000000000E+00  0.12670917216E+04  0.12670917216E+04  0.50400001928E-02 0. -1.
        1   -1    0    0  501    0  0.00000000000E+00  0.00000000000E+00 -0.16777425323E+04  0.16777425323E+04  0.50400001928E-02 0.  1.
    10030    2    1    2    0    0  0.00000000000E+00  0.00000000000E+00 -0.41065081068E+03  0.29448342539E+04  0.29160615040E+04 0.  0.
        1    1    3    3  502    0  0.86248036047E+02  0.15420334296E+03  0.12562407815E+04  0.12686048619E+04  0.50400001928E-02 0. -1.
       -1    1    3    3    0  502 -0.86248036047E+02 -0.15420334296E+03 -0.16668915921E+04  0.16762293920E+04  0.50400001928E-02 0.  1.
</event>
<event>
 5   0  0.1543678E-06  0.2902836E+04  0.7818609E-02  0.8272034E-01
        1   -1    0    0  501    0  0.00000000000E+00  0.00000000000E+00  0.13660062993E+04  0.13660062993E+04  0.50400001928E-02 0. -1.
       -1   -1    0    0    0  501  0.00000000000E+00  0.00000000000E+00 -0.15421705865E+04  0.15421705865E+04  0.50400001928E-02 0.  1.
    10030    2    1    2    0    0  0.00000000000E+00  0.00000000000E+00 -0.17616428719E+03  0.29081768859E+04  0.29028363618E+04 0.  0.
        3    1    3    3  502    0 -0.72593771037E+02  0.14495055460E+04 -0.10480243444E+03  0.14551012830E+04  0.10100000352E+00 0.  1.
       -3    1    3    3    0  502  0.72593771037E+02 -0.14495055460E+04 -0.71361852754E+02  0.14530756028E+04  0.10100000352E+00 0. -1.
</event>
<event>
 5   0  0.1580212E-06  0.2690300E+04  0.7818609E-02  0.8338159E-01
       -1   -1    0    0    0  501  0.00000000000E+00  0.00000000000E+00  0.69750133185E+03  0.69750133187E+03  0.50400001928E-02 0. -1.
        1   -1    0    0  501    0  0.00000000000E+00  0.00000000000E+00 -0.25941579653E+04  0.25941579653E+04  0.50400001928E-02 0.  1.
    10030    2    1    2    0    0  0.00000000000E+00  0.00000000000E+00 -0.18966566334E+04  0.32916592971E+04  0.26903000843E+04 0.  0.
        4    1    3    3  502    0 -0.42409211855E+03  0.78829825877E+03  0.28018145315E+03  0.93796136882E+03  0.12699999809E+01 0. -1.
       -4    1    3    3    0  502  0.42409211855E+03 -0.78829825877E+03 -0.21768380866E+04  0.23536979283E+04  0.12699999809E+01 0.  1.
</event>
<event>
 5   0  0.1511126E-06  0.2946777E+04  0.7818609E-02  0.8259094E-01
       -1   -1    0    0    0  501  0.00000000000E+00  0.00000000000E+00  0.10766492275E+04  0.10766492275E+04  0.50400001928E-02 0. -1.
        1   -1    0    0  501    0  0.00000000000E+00  0.00000000000E+00 -0.20163244308E+04  0.20163244309E+04  0.50400001928E-02 0.  1.
    10030    2    1    2    0    0  0.00000000000E+00  0.00000000000E+00 -0.93967520336E+03  0.30929736583E+04  0.29467773183E+04 0.  0.
        5    1    3    3  502    0  0.12855451003E+04 -0.96499434827E+02  0.27893677825E+03  0.13190019569E+04  0.46999998093E+01 0. -1.
       -5    1    3    3    0  502 -0.12855451003E+04  0.96499434827E+02 -0.12186119816E+04  0.17739717015E+04  0.46999998093E+01 0.  1.
</event>
<event>
 5   0  0.4187518E-06  0.2947852E+04  0.7818609E-02  0.8258781E-01
       -2   -1    0    0    0  501  0.00000000000E+00  0.00000000000E+00  0.81707066923E+03  0.81707066923E+03  0.25500000920E-02 0.  1.
        2   -1    0    0  501    0  0.00000000000E+00  0.00000000000E+00 -0.26588365179E+04  0.26588365179E+04  0.25500000920E-02 0. -1.
    10030    2    1    2    0    0  0.00000000000E+00  0.00000000000E+00 -0.18417658487E+04  0.34759071871E+04  0.29478516469E+04 0.  0.
        3    1    3    3  502    0 -0.14097125991E+04  0.42542580223E+03 -0.99712272142E+03  0.17783504877E+04  0.10100000352E+00 0. -1.
       -3    1    3    3    0  502  0.14097125991E+04 -0.42542580223E+03 -0.84464312726E+03  0.16975566995E+04  0.10100000352E+00 0.  1.
</event>
<event>
 5   0  0.1550278E-06  0.2746865E+04  0.7818609E-02  0.8319957E-01
        1   -1    0    0  501    0  0.00000000000E+00  0.00000000000E+00  0.24533369074E+04  0.24533369074E+04  0.50400001928E-02 0.  1.
       -1   -1    0    0    0  501  0.00000000000E+00  0.00000000000E+00 -0.76887823711E+03  0.76887823713E+03  0.50400001928E-02 0. -1.
    10030    2    1    2    0    0  0.00000000000E+00  0.00000000000E+00  0.16844586703E+04  0.32222151446E+04  0.27468653818E+04 0.  0.
        2    1    3    3  502    0  0.67856925444E+03  0.10728429592E+04  0.14572364291E+04  0.19326112538E+04  0.25500000920E-02 0. -1.
       -2    1    3    3    0  502 -0.67856925444E+03 -0.10728429592E+04  0.22722224121E+03  0.12896038907E+04  0.25500000920E-02 0.  1.
</event>
<event>
 5   0  0.1580212E-06  0.3050418E+04  0.7818609E-02  0.8229478E-01
        1   -1    0    0  501    0  0.00000000000E+00  0.00000000000E+00  0.12194025611E+04  0.12194025612E+04  0.50400001928E-02 0. -1.
       -1   -1    0    0    0  501  0.00000000000E+00  0.00000000000E+00 -0.19077069056E+04  0.19077069056E+04  0.50400001928E-02 0.  1.
    10030    2    1    2    0    0  0.00000000000E+00  0.00000000000E+00 -0.68830434446E+03  0.31271094668E+04  0.30504181265E+04 0.  0.
        4    1    3    3  502    0 -0.11638144787E+04  0.71734349622E+03  0.34902469495E+03  0.14109803978E+04  0.12699999809E+01 0. -1.
       -4    1    3    3    0  502  0.11638144787E+04 -0.71734349622E+03 -0.10373290394E+04  0.17161290690E+04  0.12699999809E+01 0.  1.
</event>
<event>
 5   0  0.1543678E-06  0.2875812E+04  0.7818609E-02  0.8280111E-01
       -1   -1    0    0    0  501  0.00000000000E+00  0.00000000000E+00  0.84129557428E+03  0.84129557429E+03  0.50400001928E-02 0. -1.
        1   -1    0    0  501    0  0.00000000000E+00  0.00000000000E+00 -0.24576063291E+04  0.24576063291E+04  0.50400001928E-02 0.  1.
    10030    2    1    2    0    0  0.00000000000E+00  0.00000000000E+00 -0.16163107548E+04  0.32989019034E+04  0.28758117658E+04 0.  0.
        3    1    3    3  502    0  0.12879561981E+04  0.46590759432E+03 -0.30594164843E+03  0.14033892393E+04  0.10100000352E+00 0.  1.
       -3    1    3    3    0  502 -0.12879561981E+04 -0.46590759432E+03 -0.13103691064E+04  0.18955126641E+04  0.10100000352E+00 0. -1.
</event>
<event>
 5   0  0.1580212E-06  0.2878781E+04  0.7818609E-02  0.8279219E-01
       -1   -1    0    0    0  501  0.00000000000E+00  0.00000000000E+00  0.23122897703E+04  0.23122897703E+04  0.50400001928E-02 0.  1.
        1   -1    0    0  501    0  0.00000000000E+00  0.00000000000E+00 -0.89601417749E+03  0.89601417751E+03  0.50400001928E-02 0. -1.
    10030    2    1    2    0    0  0.00000000000E+00  0.00000000000E+00  0.14162755928E+04  0.32083039478E+04  0.28787805868E+04 0.  0.
        4    1    3    3  502    0  0.56834945245E+03 -0.11459188746E+04 -0.27487325227E+02  0.12794171850E+04  0.12699999809E+01 0. -1.
       -4    1    3    3    0  502 -0.56834945245E+03  0.11459188746E+04  0.14437629180E+04  0.19288867628E+04  0.12699999809E+01 0.  1.
</event>
<event>
 5   0  0.4162450E-06  0.2868582E+04  0.7818609E-02  0.8282287E-01
       -2   -1    0    0    0  501  0.00000000000E+00  0.00000000000E+00  0.16544363371E+04  0.16544363371E+04  0.25500000920E-02 0. -1.
        2   -1    0    0  501    0  0.00000000000E+00  0.00000000000E+00 -0.12434390391E+04  0.12434390391E+04  0.25500000920E-02 0.  1.
    10030    2    1    2    0    0  0.00000000000E+00  0.00000000000E+00  0.41099729801E+03  0.28978753762E+04  0.28685820394E+04 0.  0.
        2    1    3    3  502    0 -0.36506117108E+03 -0.33771093565E+03 -0.11535543950E+04  0.12561871186E+04  0.25500000920E-02 0.  1.
       -2    1    3    3    0  502  0.36506117108E+03  0.33771093565E+03  0.15645516930E+04  0.16416882575E+04  0.25500000920E-02 0. -1.
</event>
<event>
 5   0  0.4148677E-06  0.2885250E+04  0.7818609E-02  0.8277279E-01
       -2   -1    0    0    0  501  0.00000000000E+00  0.00000000000E+00  0.13657147819E+04  0.13657147819E+04  0.25500000920E-02 0.  1.
        2   -1    0    0  501    0  0.00000000000E+00  0.00000000000E+00 -0.15238668273E+04  0.15238668273E+04  0.25500000920E-02 0. -1.
    10030    2    1    2    0    0  0.00000000000E+00  0.00000000000E+00 -0.15815204542E+03  0.28895816092E+04  0.28852503889E+04 0.  0.
        5    1    3    3  502    0 -0.70503779174E+03 -0.25212506612E+03 -0.13140126513E+04  0.15123811274E+04  0.46999998093E+01 0. -1.
       -5    1    3    3    0  502  0.70503779174E+03  0.25212506612E+03  0.11558606059E+04  0.13772004818E+04  0.46999998093E+01 0.  1.
</event>
<event>
 5   0  0.4187518E-06  0.2999356E+04  0.7818609E-02  0.8243915E-01
        2   -1    0    0  501    0  0.00000000000E+00  0.00000000000E+00  0.18842307769E+04  0.18842307769E+04  0.25500000920E-02 0. -1.
       -2   -1    0    0    0  501  0.00000000000E+00  0.00000000000E+00 -0.11936085752E+04  0.11936085752E+04  0.25500000920E-02 0.  1.
    10030    2    1    2    0    0  0.00000000000E+00  0.00000000000E+00  0.69062220171E+03  0.30778393520E+04  0.29993559394E+04 0.  0.
        3    1    3    3  502    0 -0.14027814868E+04  0.17160907126E+03 -0.16960423336E+03  0.14233801949E+04  0.10100000352E+00 0.  1.
       -3    1    3    3    0  502  0.14027814868E+04 -0.17160907126E+03  0.86022643507E+03  0.16544591572E+04  0.10100000352E+00 0. -1.
</event>
<event>
 5   0  0.4148677E-06  0.2893253E+04  0.7818609E-02  0.8274888E-01
        2   -1    0    0  501    0  0.00000000000E+00  0.00000000000E+00  0.14433577013E+04  0.14433577013E+04  0.25500000920E-02 0. -1.
       -2   -1    0    0    0  501  0.00000000000E+00  0.00000000000E+00 -0.14499030235E+04  0.14499030235E+04  0.25500000920E-02 0.  1.
    10030    2    1    2    0    0  0.00000000000E+00  0.00000000000E+00 -0.65453222258E+01  0.28932607248E+04  0.28932533212E+04 0.  0.
        5    1    3    3  502    0 -0.77238406152E+03  0.59829098319E+03  0.10635840261E+04  0.14442168499E+04  0.46999998093E+01 0. -1.
       -5    1    3    3    0  502  0.77238406152E+03 -0.59829098319E+03 -0.10701293483E+04  0.14490438748E+04  0.46999998093E+01 0.  1.
</event>
<event>
 5   0  0.1580212E-06  0.2941785E+04  0.7818609E-02  0.8260553E-01
       -1   -1    0    0    0  501  0.00000000000E+00  0.00000000000E+00  0.19905215543E+04  0.19905215543E+04  0.50400001928E-02 0.  1.
        1   -1    0    0  501    0  0.00000000000E+00  0.00000000000E+00 -0.10869135003E+04  0.10869135003E+04  0.50400001928E-02 0. -1.
    10030    2    1    2    0    0  0.00000000000E+00  0.00000000000E+00  0.90360805401E+03  0.30774350547E+04  0.29417850024E+04 0.  0.
        4    1    3    3  502    0 -0.14143942915E+04 -0.39030028503E+03  0.55990137817E+03  0.15704574781E+04  0.12699999809E+01 0.  1.
       -4    1    3    3    0  502  0.14143942915E+04  0.39030028503E+03  0.34370667583E+03  0.15069775766E+04  0.12699999809E+01 0. -1.
</event>
<event>
 5   0  0.1511126E-06  0.2876849E+04  0.7818609E-02  0.8279799E-01
        1   -1    0    0  501    0  0.00000000000E+00  0.00000000000E+00  0.19070901514E+04  0.19070901514E+04  0.50400001928E-02 0.  1.
       -1   -1    0    0    0  501  0.00000000000E+00  0.00000000000E+00 -0.10849333748E+04  0.10849333749E+04  0.50400001928E-02 0. -1.
    10030    2    1    2    0    0  0.00000000000E+00  0.00000000000E+00  0.82215677654E+03  0.29920235262E+04  0.28768494949E+04 0.  0.
        5    1    3    3  502    0 -0.13511652634E+03  0.11534621369E+04  0.12937685247E+04  0.17385598818E+04  0.46999998093E+01 0.  1.
       -5    1    3    3    0  502  0.13511652634E+03 -0.11534621369E+04 -0.47161174820E+03  0.12534636445E+04  0.46999998093E+01 0. -1.
</event>
<event>
 5   0  0.1543678E-06  0.2887863E+04  0.7818609E-02  0.8276498E-01
        1   -1    0    0  501    0  0.00000000000E+00  0.00000000000E+00  0.21250048259E+04  0.21250048259E+04  0.50400001928E-02 0. -1.
       -1   -1    0    0    0  501  0.00000000000E+00  0.00000000000E+00 -0.98114489415E+03  0.98114489416E+03  0.50400001928E-02 0.  1.
    10030    2    1    2    0    0  0.00000000000E+00  0.00000000000E+00  0.11438599317E+04  0.31061497200E+04  0.28878626248E+04 0.  0.
        3    1    3    3  502    0 -0.10005428837E+04  0.10396213006E+04  0.63122514128E+03  0.15749106958E+04  0.10100000352E+00 0.  1.
       -3    1    3    3    0  502  0.10005428837E+04 -0.10396213006E+04  0.51263479043E+03  0.15312390242E+04  0.10100000352E+00 0. -1.
</event>
<event>
 5   0  0.1511126E-06  0.3105747E+04  0.7818609E-02  0.8214162E-01
        1   -1    0    0  501    0  0.00000000000E+00  0.00000000000E+00  0.13629475711E+04  0.13629475711E+04  0.50400001928E-02 0. -1.
       -1   -1    0    0    0  501  0.00000000000E+00  0.00000000000E+00 -0.17692658487E+04  0.17692658487E+04  0.50400001928E-02 0.  1.
    10030    2    1    2    0    0  0.00000000000E+00  0.00000000000E+00 -0.40631827762E+03  0.31322134198E+04  0.31057473117E+04 0.  0.
        5    1    3    3  502    0  0.11129407017E+03 -0.46511855514E+02  0.13582085321E+04  0.13635623306E+04  0.46999998093E+01 0. -1.
       -5    1    3    3    0  502 -0.11129407017E+03  0.46511855514E+02 -0.17645268097E+04  0.17686510891E+04  0.46999998093E+01 0.  1.
</event>
<event>
 5   0  0.4162450E-06  0.2868916E+04  0.7818609E-02  0.8282187E-01
        2   -1    0    0  501    0  0.00000000000E+00  0.00000000000E+00  0.11872766940E+04  0.11872766940E+04  0.25500000920E-02 0.  1.
       -2   -1    0    0    0  501  0.00000000000E+00  0.00000000000E+00 -0.17330998858E+04  0.17330998858E+04  0.25500000920E-02 0. -1.
    10030    2    1    2    0    0  0.00000000000E+00  0.00000000000E+00 -0.54582319182E+03  0.29203765799E+04  0.28689155463E+04 0.  0.
        2    1    3    3  502    0  0.59771603358E+03  0.34718066895E+03 -0.15523865848E+04  0.16993242723E+04  0.25500000920E-02 0. -1.
       -2    1    3    3    0  502 -0.59771603358E+03 -0.34718066895E+03  0.10065633930E+04  0.12210523076E+04  0.25500000920E-02 0.  1.
</event>
<event>
 5   0  0.4187518E-06  0.2886687E+04  0.7818609E-02  0.8276850E-01
        2   -1    0    0  501    0  0.00000000000E+00  0.00000000000E+00  0.10154643214E+04  0.10154643214E+04  0.25500000920E-02 0.  1.
       -2   -1    0    0    0  501  0.00000000000E+00  0.00000000000E+00 -0.20515152241E+04  0.20515152241E+04  0.25500000920E-02 0. -1.
    10030    2    1    2    0    0  0.00000000000E+00  0.00000000000E+00 -0.10360509027E+04  0.30669795455E+04  0.28866870387E+04 0.  0.
        3    1    3    3  502    0  0.96451783947E+03 -0.77145823762E+03  0.27547954424E+03  0.12654372622E+04  0.10100000352E+00 0.  1.
       -3    1    3    3    0  502 -0.96451783947E+03  0.77145823762E+03 -0.13115304469E+04  0.18015422833E+04  0.10100000352E+00 0. -1.
</event>
<event>
 5   0  0.4187518E-06  0.2902644E+04  0.7818609E-02  0.8272091E-01
       -2   -1    0    0    0  501  0.00000000000E+00  0.00000000000E+00  0.15118124705E+04  0.15118124705E+04  0.25500000920E-02 0. -1.
        2   -1    0    0  501    0  0.00000000000E+00  0.00000000000E+00 -0.13932515015E+04  0.13932515015E+04  0.25500000920E-02 0.  1.
    10030    2    1    2    0    0  0.00000000000E+00  0.00000000000E+00  0.11856096892E+03  0.29050639720E+04  0.29026436189E+04 0.  0.
        3    1    3    3  502    0  0.69522139410E+03 -0.10389742617E+04 -0.67858231149E+03  0.14224184571E+04  0.10100000352E+00 0.  1.
       -3    1    3    3    0  502 -0.69522139410E+03  0.10389742617E+04  0.79714328041E+03  0.14826455150E+04  0.10100000352E+00 0. -1.
</event>
<event>
 5   0  0.1550278E-06  0.2943159E+04  0.7818609E-02  0.8260151E-01
       -1   -1    0    0    0  501  0.00000000000E+00  0.00000000000E+00  0.10995750467E+04  0.10995750467E+04  0.50400001928E-02 0. -1.
        1   -1    0    0  501    0  0.00000000000E+00  0.00000000000E+00 -0.19694390287E+04  0.19694390287E+04  0.50400001928E-02 0.  1.
    10030    2    1    2    0    0  0.00000000000E+00  0.00000000000E+00 -0.86986398196E+03  0.30690140754E+04  0.29431588554E+04 0.  0.
        2    1    3    3  502    0  0.10378291181E+04 -0.82342140502E+03 -0.11029786574E+04  0.17238544043E+04  0.25500000920E-02 0.  1.
       -2    1    3    3    0  502 -0.10378291181E+04  0.82342140502E+03  0.23311467543E+03  0.13451596710E+04  0.25500000920E-02 0. -1.
</event>
<event>
 5   0  0.4224163E-06  0.2872774E+04  0.7818609E-02  0.8281024E-01
        2   -1    0    0  501    0  0.00000000000E+00  0.00000000000E+00  0.12586010610E+04  0.12586010610E+04  0.25500000920E-02 0. -1.
       -2   -1    0    0    0  501  0.00000000000E+00  0.00000000000E+00 -0.16392869512E+04  0.16392869512E+04  0.25500000920E-02 0.  1.
    10030    2    1    2    0    0  0.00000000000E+00  0.00000000000E+00 -0.38068589018E+03  0.28978880122E+04  0.28727744750E+04 0.  0.
        4    1    3    3  502    0  0.37854836235E+03  0.13836059015E+04 -0.11524395661E+03  0.14390785023E+04  0.12699999809E+01 0. -1.
       -4    1    3    3    0  502 -0.37854836235E+03 -0.13836059015E+04 -0.26544193357E+03  0.14588095099E+04  0.12699999809E+01 0.  1.
</event>
<event>
 5   0  0.4187518E-06  0.2884424E+04  0.7818609E-02  0.8277527E-01
        2   -1    0    0  501    0  0.00000000000E+00  0.00000000000E+00  0.26387476577E+04  0.26387476577E+04  0.25500000920E-02 0.  1.
       -2   -1    0    0    0  501  0.00000000000E+00  0.00000000000E+00 -0.78824322129E+03  0.78824322130E+03  0.25500000920E-02 0. -1.
    10030    2    1    2    0    0  0.00000000000E+00  0.00000000000E+00  0.18505044364E+04  0.34269908790E+04  0.28844236540E+04 0.  0.
        3    1    3    3  502    0 -0.12319951975E+04  0.41371668928E+03  0.16681738240E+04  0.21146577933E+04  0.10100000352E+00 0. -1.
       -3    1    3    3    0  502  0.12319951975E+04 -0.41371668928E+03  0.18233061249E+03  0.13123330858E+04  0.10100000352E+00 0.  1.
</event>
<event>
 5   0  0.4187518E-06  0.2911667E+04  0.7818609E-02  0.8269415E-01
        2   -1    0    0  501    0  0.00000000000E+00  0.00000000000E+00  0.25572246460E+04  0.25572246460E+04  0.25500000920E-02 0. -1.
       -2   -1    0    0    0  501  0.00000000000E+00  0.00000000000E+00 -0.82880942423E+03  0.82880942423E+03  0.25500000920E-02 0.  1.
    10030    2    1    2    0    0  0.00000000000E+00  0.00000000000E+00  0.17284152218E+04  0.33860340703E+04  0.29116674855E+04 0.  0.
        3    1    3    3  502    0 -0.12580155936E+04  0.71172664536E+03  0.66180011045E+03  0.15896972818E+04  0.10100000352E+00 0. -1.
       -3    1    3    3    0  502  0.12580155936E+04 -0.71172664536E+03  0.10666151114E+04  0.17963367884E+04  0.10100000352E+00 0.  1.
</event>
<event>
 5   0  0.4187518E-06  0.2882714E+04  0.7818609E-02  0.8278039E-01
        2   -1    0    0  501    0  0.00000000000E+00  0.00000000000E+00  0.19404195470E+04  0.19404195470E+04  0.25500000920E-02 0.  1.
       -2   -1    0    0    0  501  0.00000000000E+00  0.00000000000E+00 -0.10706496772E+04  0.10706496772E+04  0.25500000920E-02 0. -1.
    10030    2    1    2    0    0  0.00000000000E+00  0.00000000000E+00  0.86976986981E+03  0.30110692241E+04  0.28827136948E+04 0.  0.
        3    1    3    3  502    0  0.63547226386E+03  0.37041870181E+03  0.17296229888E+04  0.18795293843E+04  0.10100000352E+00 0.  1.
       -3    1    3    3    0  502 -0.63547226386E+03 -0.37041870181E+03 -0.85985311899E+03  0.11315398399E+04  0.10100000352E+00 0. -1.
</event>
<event>
 5   0  0.4148677E-06  0.2934237E+04  0.7818609E-02  0.8262763E-01
        2   -1    0    0  501    0  0.00000000000E+00  0.00000000000E+00  0.15068537096E+04  0.15068537096E+04  0.25500000920E-02 0.  1.
       -2   -1    0    0    0  501  0.00000000000E+00  0.00000000000E+00 -0.14284307941E+04  0.14284307941E+04  0.25500000920E-02 0. -1.
    10030    2    1    2    0    0  0.00000000000E+00  0.00000000000E+00  0.78422915443E+02  0.29352845037E+04  0.29342366919E+04 0.  0.
        5    1    3    3  502    0 -0.74970589021E+03 -0.56788629728E+03  0.11656066133E+04  0.14977365040E+04  0.46999998093E+01 0.  1.
       -5    1    3    3    0  502  0.74970589021E+03  0.56788629728E+03 -0.10871836979E+04  0.14375479997E+04  0.46999998093E+01 0. -1.
</event>
<event>
 5   0  0.1543678E-06  0.2709919E+04  0.7818609E-02  0.8331794E-01
        1   -1    0    0  501    0  0.00000000000E+00  0.00000000000E+00  0.24411310972E+04  0.24411310972E+04  0.50400001928E-02 0.  1.
       -1   -1    0    0    0  501  0.00000000000E+00  0.00000000000E+00 -0.75207559002E+03  0.75207559003E+03  0.50400001928E-02 0. -1.
    10030    2    1    2    0    0  0.00000000000E+00  0.00000000000E+00  0.16890555072E+04  0.31932066873E+04  0.27099188994E+04 0.  0.
        3    1    3    3  502    0 -0.99819496108E+03  0.63228438083E+03  0.16259178871E+04  0.20099218155E+04  0.10100000352E+00 0.  1.
       -3    1    3    3    0  502  0.99819496108E+03 -0.63228438083E+03  0.63137620139E+02  0.11832848718E+04  0.10100000352E+00 0. -1.
</event>
<event>
 5   0  0.1550278E-06  0.2892977E+04  0.7818609E-02  0.8274970E-01
        1   -1    0    0  501    0  0.00000000000E+00  0.00000000000E+00  0.19572326576E+04  0.19572326576E+04  0.50400001928E-02 0. -1.
       -1   -1    0    0    0  501  0.00000000000E+00  0.00000000000E+00 -0.10690240799E+04  0.10690240799E+04  0.50400001928E-02 0.  1.
    10030    2    1    2    0    0  0.00000000000E+00  0.00000000000E+00  0.88820857775E+03  0.30262567375E+04  0.28929769034E+04 0.  0.
        2    1    3    3  502    0 -0.10850703961E+04  0.59613513554E+03 -0.33840510070E+03  0.12834612875E+04  0.25500000920E-02 0.  1.
       -2    1    3    3    0  502  0.10850703961E+04 -0.59613513554E+03  0.12266136784E+04  0.17427954500E+04  0.25500000920E-02 0. -1.
</event>
<event>
 5   0  0.1580212E-06  0.2880430E+04  0.7818609E-02  0.8278724E-01
       -1   -1    0    0    0  501  0.00000000000E+00  0.00000000000E+00  0.11593299066E+04  0.11593299066E+04  0.50400001928E-02 0.  1.
        1   -1    0    0  501    0  0.00000000000E+00  0.00000000000E+00 -0.17891534663E+04  0.17891534664E+04  0.50400001928E-02 0. -1.
    10030    2    1    2    0    0  0.00000000000E+00  0.00000000000E+00 -0.62982355977E+03  0.29484833729E+04  0.28804299131E+04 0.  0.
        4    1    3    3  502    0  0.11298752008E+04  0.79907515787E+02  0.59560602397E+03  0.12797465878E+04  0.12699999809E+01 0.  1.
       -4    1    3    3    0  502 -0.11298752008E+04 -0.79907515787E+02 -0.12254295837E+04  0.16687367851E+04  0.12699999809E+01 0. -1.
</event>
<event>
 5   0  0.4187518E-06  0.2902908E+04  0.7818609E-02  0.8272013E-01
       -2   -1    0    0    0  501  0.00000000000E+00  0.00000000000E+00  0.13100490553E+04  0.13100490553E+04  0.25500000920E-02 0.  1.
        2   -1    0    0  501    0  0.00000000000E+00  0.00000000000E+00 -0.16081220022E+04  0.16081220022E+04  0.25500000920E-02 0. -1.
    10030    2    1    2    0    0  0.00000000000E+00  0.00000000000E+00 -0.29807294692E+03  0.29181710576E+04  0.29029079971E+04 0.  0.
        3    1    3    3  502    0  0.81621814327E+03  0.52056555834E+03 -0.12361651593E+04  0.15701289339E+04  0.10100000352E+00 0. -1.
       -3    1    3    3    0  502 -0.81621814327E+03 -0.52056555834E+03  0.93809221237E+03  0.13480421236E+04  0.10100000352E+00 0.  1.
</event>
<event>
 5   0  0.4187518E-06  0.2896480E+04  0.7818609E-02  0.8273925E-01
        2   -1    0    0  501    0  0.00000000000E+00  0.00000000000E+00  0.12008369269E+04  0.12008369269E+04  0.25500000920E-02 0.  1.
       -2   -1    0    0    0  501  0.00000000000E+00  0.00000000000E+00 -0.17466149181E+04  0.17466149181E+04  0.25500000920E-02 0. -1.
    10030    2    1    2    0    0  0.00000000000E+00  0.00000000000E+00 -0.54577799115E+03  0.29474518450E+04  0.28964804095E+04 0.  0.
        3    1    3    3  502    0 -0.23723835032E+03 -0.22817196437E+03 -0.17080464160E+04  0.17394732103E+04  0.10100000352E+00 0. -1.
       -3    1    3    3    0  502  0.23723835032E+03  0.22817196437E+03  0.11622684248E+04  0.12079786346E+04  0.10100000352E+00 0.  1.
</event>
<event>
 5   0  0.4115143E-06  0.2903903E+04  0.7818609E-02  0.8271717E-01
        2   -1    0    0  501    0  0.00000000000E+00  0.00000000000E+00  0.24738526835E+04  0.24738526835E+04  0.25500000920E-02 0.  1.
       -2   -1    0    0    0  501  0.00000000000E+00  0.00000000000E+00 -0.85217788255E+03  0.85217788256E+03  0.25500000920E-02 0. -1.
    10030    2    1    2    0    0  0.00000000000E+00  0.00000000000E+00  0.16216748010E+04  0.33260305661E+04  0.29039025752E+04 0.  0.
        1    1    3    3  502    0 -0.45855143609E+03 -0.62506208468E+03 -0.59530165195E+03  0.97742318679E+03  0.50400001928E-02 0. -1.
       -1    1    3    3    0  502  0.45855143609E+03  0.62506208468E+03  0.22169764529E+04  0.23486073793E+04  0.50400001928E-02 0.  1.
</event>
<event>
 5   0  0.1602873E-06  0.2904669E+04  0.7818609E-02  0.8271490E-01
        1   -1    0    0  501    0  0.00000000000E+00  0.00000000000E+00  0.12386461308E+04  0.12386461309E+04  0.50400001928E-02 0.  1.
       -1   -1    0    0    0  501  0.00000000000E+00  0.00000000000E+00 -0.17028881017E+04  0.17028881017E+04  0.50400001928E-02 0. -1.
    10030    2    1    2    0    0  0.00000000000E+00  0.00000000000E+00 -0.46424197087E+03  0.29415342326E+04  0.29046691780E+04 0.  0.
        1    1    3    3  502    0  0.81458616469E+03  0.36742939501E+03 -0.13915183869E+04  0.16537467766E+04  0.50400001928E-02 0. -1.
       -1    1    3    3    0  502 -0.81458616469E+03 -0.36742939501E+03  0.92727641602E+03  0.12877874560E+04  0.50400001928E-02 0.  1.
</event>
<event>
 5   0  0.4162450E-06  0.2902559E+04  0.7818609E-02  0.8272117E-01
       -2   -1    0    0    0  501  0.00000000000E+00  0.00000000000E+00  0.19616737359E+04  0.19616737359E+04  0.25500000920E-02 0. -1.
        2   -1    0    0  501    0  0.00000000000E+00  0.00000000000E+00 -0.10736809422E+04  0.10736809422E+04  0.25500000920E-02 0.  1.
    10030    2    1    2    0    0  0.00000000000E+00  0.00000000000E+00  0.88799279368E+03  0.30353546781E+04  0.29025586678E+04 0.  0.
        2    1    3    3  502    0 -0.97407551662E+03 -0.10088324771E+04  0.83478519605E+03  0.16320025743E+04  0.25500000920E-02 0. -1.
       -2    1    3    3    0  502  0.97407551662E+03  0.10088324771E+04  0.53207597628E+02  0.14033521038E+04  0.25500000920E-02 0.  1.
</event>
<event>
 5   0  0.4187518E-06  0.2856207E+04  0.7818609E-02  0.8286028E-01
       -2   -1    0    0    0  501  0.00000000000E+00  0.00000000000E+00  0.12744511369E+04  0.12744511369E+04  0.25500000920E-02 0.  1.
        2   -1    0    0  501    0  0.00000000000E+00  0.00000000000E+00 -0.16002803195E+04  0.16002803195E+04  0.25500000920E-02 0. -1.
    10030    2    1    2    0    0  0.00000000000E+00  0.00000000000E+00 -0.32582918256E+03  0.28747314564E+04  0.28562066259E+04 0.  0.
        3    1    3    3  502    0  0.96609563789E+03  0.12453696846E+03  0.88819051196E+03  0.13182308727E+04  0.10100000352E+00 0.  1.
       -3    1    3    3    0  502 -0.96609563789E+03 -0.12453696846E+03 -0.12140196945E+04  0.15565005837E+04  0.10100000352E+00 0. -1.
</event>
<event>
 5   0  0.1602873E-06  0.2934132E+04  0.7818609E-02  0.8262794E-01
        1   -1    0    0  501    0  0.00000000000E+00  0.00000000000E+00  0.23280524635E+04  0.23280524635E+04  0.50400001928E-02 0. -1.
       -1   -1    0    0    0  501  0.00000000000E+00  0.00000000000E+00 -0.92449935550E+03  0.92449935551E+03  0.50400001928E-02 0.  1.
    10030    2    1    2    0    0  0.00000000000E+00  0.00000000000E+00  0.14035531080E+04  0.32525518190E+04  0.29341322411E+04 0.  0.
        1    1    3    3  502    0  0.71849971729E+03 -0.49364735056E+02  0.21186072986E+04  0.22376719166E+04  0.50400001928E-02 0. -1.
       -1    1    3    3    0  502 -0.71849971729E+03  0.49364735056E+02 -0.71505419058E+03  0.10148799024E+04  0.50400001928E-02 0.  1.
</event>
<event>
 5   0  0.4224163E-06  0.2962138E+04  0.7818609E-02  0.8254626E-01
       -2   -1    0    0    0  501  0.00000000000E+00  0.00000000000E+00  0.14200965291E+04  0.14200965291E+04  0.25500000920E-02 0.  1.
        2   -1    0    0  501    0  0.00000000000E+00  0.00000000000E+00 -0.15446588890E+04  0.15446588890E+04  0.25500000920E-02 0. -1.
    10030    2    1    2    0    0  0.00000000000E+00  0.00000000000E+00 -0.12456235991E+03  0.29647554181E+04  0.29621375572E+04 0.  0.
        4    1    3    3  502    0 -0.92141482316E+03  0.11044748847E+04 -0.41571231233E+03  0.14972268989E+04  0.12699999809E+01 0.  1.
       -4    1    3    3    0  502  0.92141482316E+03 -0.11044748847E+04  0.29114995242E+03  0.14675285193E+04  0.12699999809E+01 0. -1.
</event>
<event>
 5   0  0.1360125E-06  0.2957080E+04  0.7818609E-02  0.8256094E-01
        3   -1    0    0  501    0  0.00000000000E+00  0.00000000000E+00  0.15071622181E+04  0.15071622215E+04  0.10100000352E+00 0. -1.
       -3   -1    0    0    0  501  0.00000000000E+00  0.00000000000E+00 -0.14504614940E+04  0.14504614975E+04  0.10100000352E+00 0.  1.
    10030    2    1    2    0    0  0.00000000000E+00  0.00000000000E+00  0.56700724091E+02  0.29576237190E+04  0.29570801631E+04 0.  0.
        5    1    3    3  502    0 -0.51175474634E+03  0.49192073342E+03 -0.12688767696E+04  0.14539426656E+04  0.46999998093E+01 0.  1.
       -5    1    3    3    0  502  0.51175474634E+03 -0.49192073342E+03  0.13255774937E+04  0.15036810534E+04  0.46999998093E+01 0. -1.
</event>
<event>
 5   0  0.4148677E-06  0.2883097E+04  0.7818609E-02  0.8277924E-01
       -2   -1    0    0    0  501  0.00000000000E+00  0.00000000000E+00  0.15917584492E+04  0.15917584493E+04  0.25500000920E-02 0. -1.
        2   -1    0    0  501    0  0.00000000000E+00  0.00000000000E+00 -0.13055137121E+04  0.13055137121E+04  0.25500000920E-02 0.  1.
    10030    2    1    2    0    0  0.00000000000E+00  0.00000000000E+00  0.28624473715E+03  0.28972721614E+04  0.28830972803E+04 0.  0.
        5    1    3    3  502    0  0.79549881115E+03  0.58489721293E+01  0.13511924916E+04  0.15679910103E+04  0.46999998093E+01 0. -1.
       -5    1    3    3    0  502 -0.79549881115E+03 -0.58489721293E+01 -0.10649477544E+04  0.13292811511E+04  0.46999998093E+01 0.  1.
</event>
<event>
 5   0  0.4224163E-06  0.2905274E+04  0.7818609E-02  0.8271310E-01
       -2   -1    0    0    0  501  0.00000000000E+00  0.00000000000E+00  0.21154535841E+04  0.21154535841E+04  0.25500000920E-02 0. -1.
        2   -1    0    0  501    0  0.00000000000E+00  0.00000000000E+00 -0.99749495837E+03  0.99749495837E+03  0.25500000920E-02 0.  1.
    10030    2    1    2    0    0  0.00000000000E+00  0.00000000000E+00  0.11179586257E+04  0.31129485425E+04  0.29052740214E+04 0.  0.
        4    1    3    3  502    0  0.56970296092E+03  0.66586698722E+03  0.18003327714E+04  0.20022836984E+04  0.12699999809E+01 0. -1.
       -4    1    3    3    0  502 -0.56970296092E+03 -0.66586698722E+03 -0.68237414562E+03  0.11106648441E+04  0.12699999809E+01 0.  1.
</event>
<event>
 5   0  0.4187518E-06  0.2885105E+04  0.7818609E-02  0.8277323E-01
       -2   -1    0    0    0  501  0.00000000000E+00  0.00000000000E+00  0.11445299389E+04  0.11445299389E+04  0.25500000920E-02 0.  1.
        2   -1    0    0  501    0  0.00000000000E+00  0.00000000000E+00 -0.18181770780E+04  0.18181770780E+04  0.25500000920E-02 0. -1.
    10030    2    1    2    0    0  0.00000000000E+00  0.00000000000E+00 -0.67364713910E+03  0.29627070170E+04  0.28851052668E+04 0.  0.
        3    1    3    3  502    0 -0.12883207371E+04  0.48409095533E+03 -0.78070429750E+03  0.15822811334E+04  0.10100000352E+00 0.  1.
       -3    1    3    3    0  502  0.12883207371E+04 -0.48409095533E+03  0.10705715841E+03  0.13804258836E+04  0.10100000352E+00 0. -1.
</event>
<event>
 5   0  0.4187518E-06  0.2924785E+04  0.7818609E-02  0.8265541E-01
       -2   -1    0    0    0  501  0.00000000000E+00  0.00000000000E+00  0.20038610873E+04  0.20038610873E+04  0.25500000920E-02 0.  1.
        2   -1    0    0  501    0  0.00000000000E+00  0.00000000000E+00 -0.10672353459E+04  0.10672353459E+04  0.25500000920E-02 0. -1.
    10030    2    1    2    0    0  0.00000000000E+00  0.00000000000E+00  0.93662574143E+03  0.30710964332E+04  0.29247846968E+04 0.  0.
        3    1    3    3  502    0  0.11977720168E+03  0.11695727548E+04 -0.44487332809E+03  0.12570438716E+04  0.10100000352E+00 0. -1.
       -3    1    3    3    0  502 -0.11977720168E+03 -0.11695727548E+04  0.13814990695E+04  0.18140525616E+04  0.10100000352E+00 0.  1.
</event>
<event>
 5   0  0.4224163E-06  0.2895087E+04  0.7818609E-02  0.8274341E-01
        2   -1    0    0  501    0  0.00000000000E+00  0.00000000000E+00  0.12800937725E+04  0.12800937725E+04  0.25500000920E-02 0.  1.
       -2   -1    0    0    0  501  0.00000000000E+00  0.00000000000E+00 -0.16368974870E+04  0.16368974870E+04  0.25500000920E-02 0. -1.
    10030    2    1    2    0    0  0.00000000000E+00  0.00000000000E+00 -0.35680371454E+03  0.29169912595E+04  0.28950870655E+04 0.  0.
        4    1    3    3  502    0  0.21577143159E+03  0.88753041497E+03  0.95308762254E+03  0.13200928669E+04  0.12699999809E+01 0.  1.
       -4    1    3    3    0  502 -0.21577143159E+03 -0.88753041497E+03 -0.13098913371E+04  0.15968983925E+04  0.12699999809E+01 0. -1.
</event>
<event>
 5   0  0.4187518E-06  0.2856357E+04  0.7818609E-02  0.8285982E-01
       -2   -1    0    0    0  501  0.00000000000E+00  0.00000000000E+00  0.99324185353E+03  0.99324185353E+03  0.25500000920E-02 0. -1.
        2   -1    0    0  501    0  0.00000000000E+00  0.00000000000E+00 -0.20535722059E+04  0.20535722059E+04  0.25500000920E-02 0.  1.
    10030    2    1    2    0    0  0.00000000000E+00  0.00000000000E+00 -0.10603303524E+04  0.30468140594E+04  0.28563570254E+04 0.  0.
        3    1    3    3  502    0 -0.98594625042E+03  0.76302342637E+03  0.21299587812E+03  0.12647774556E+04  0.10100000352E+00 0. -1.
       -3    1    3    3    0  502  0.98594625042E+03 -0.76302342637E+03 -0.12733262305E+04  0.17820366038E+04  0.10100000352E+00 0.  1.
</event>
<event>
 5   0  0.1511126E-06  0.2899945E+04  0.7818609E-02  0.8272894E-01
       -1   -1    0    0    0  501  0.00000000000E+00  0.00000000000E+00  0.15672854423E+04  0.15672854423E+04  0.50400001928E-02 0.  1.
        1   -1    0    0  501    0  0.00000000000E+00  0.00000000000E+00 -0.13414408524E+04  0.13414408524E+04  0.50400001928E-02 0. -1.
    10030    2    1    2    0    0  0.00000000000E+00  0.00000000000E+00  0.22584458992E+03  0.29087262947E+04  0.28999453234E+04 0.  0.
        5    1    3    3  502    0  0.66524328457E+03  0.10838651941E+03 -0.11747493679E+04  0.13543834142E+04  0.46999998093E+01 0. -1.
       -5    1    3    3    0  502 -0.66524328457E+03 -0.10838651941E+03  0.14005939579E+04  0.15543428805E+04  0.46999998093E+01 0.  1.
</event>
<event>
 5   0  0.4115143E-06  0.3059390E+04  0.7818609E-02  0.8226972E-01
        2   -1    0    0  501    0  0.00000000000E+00  0.00000000000E+00  0.17531009613E+04  0.17531009613E+04  0.25500000920E-02 0. -1.
       -2   -1    0    0    0  501  0.00000000000E+00  0.00000000000E+00 -0.13347590180E+04  0.13347590180E+04  0.25500000920E-02 0.  1.
    10030    2    1    2    0    0  0.00000000000E+00  0.00000000000E+00  0.41834194331E+03  0.30878599793E+04  0.30593903429E+04 0.  0.
        1    1    3    3  502    0 -0.78829395516E+03  0.12723435409E+04 -0.10952337756E+03  0.15007534162E+04  0.50400001928E-02 0.  1.
       -1    1    3    3    0  502  0.78829395516E+03 -0.12723435409E+04  0.52786532087E+03  0.15871065632E+04  0.50400001928E-02 0. -1.
</event>
<event>
 5   0  0.1543678E-06  0.2888003E+04  0.7818609E-02  0.8276456E-01
       -1   -1    0    0    0  501  0.00000000000E+00  0.00000000000E+00  0.99958127960E+03  0.99958127961E+03  0.50400001928E-02 0.  1.
        1   -1    0    0  501    0  0.00000000000E+00  0.00000000000E+00 -0.20860139597E+04  0.20860139598E+04  0.50400001928E-02 0. -1.
    10030    2    1    2    0    0  0.00000000000E+00  0.00000000000E+00 -0.10864326802E+04  0.30855952394E+04  0.28880031185E+04 0.  0.
        3    1    3    3  502    0 -0.72821794586E+03  0.13382900304E+03 -0.18677658261E+04  0.20091691741E+04  0.10100000352E+00 0. -1.
       -3    1    3    3    0  502  0.72821794586E+03 -0.13382900304E+03  0.78133314599E+03  0.10764260652E+04  0.10100000352E+00 0.  1.
</event>
<event>
 5   0  0.4224163E-06  0.2887901E+04  0.7818609E-02  0.8276487E-01
       -2   -1    0    0    0  501  0.00000000000E+00  0.00000000000E+00  0.10575480783E+04  0.10575480783E+04  0.25500000920E-02 0. -1.
        2   -1    0    0  501    0  0.00000000000E+00  0.00000000000E+00 -0.19715344406E+04  0.19715344406E+04  0.25500000920E-02 0.  1.
    10030    2    1    2    0    0  0.00000000000E+00  0.00000000000E+00 -0.91398636230E+03  0.30290825188E+04  0.28879005931E+04 0.  0.
        4    1    3    3  502    0 -0.10540912330E+04  0.52760459393E+03  0.41775369350E+03  0.12505977356E+04  0.12699999809E+01 0. -1.
       -4    1    3    3    0  502  0.10540912330E+04 -0.52760459393E+03 -0.13317400558E+04  0.17784847832E+04  0.12699999809E+01 0.  1.
</event>
<event>
 5   0  0.4115143E-06  0.2853140E+04  0.7818609E-02  0.8286958E-01
       -2   -1    0    0    0  501  0.00000000000E+00  0.00000000000E+00  0.78562542184E+03  0.78562542184E+03  0.25500000920E-02 0.  1.
        2   -1    0    0  501    0  0.00000000000E+00  0.00000000000E+00 -0.25904227926E+04  0.25904227926E+04  0.25500000920E-02 0. -1.
    10030    2    1    2    0    0  0.00000000000E+00  0.00000000000E+00 -0.18047973707E+04  0.33760482144E+04  0.28531400240E+04 0.  0.
        1    1    3    3  502    0 -0.13490860656E+04  0.60191207637E+02 -0.14465066600E+04  0.19788981053E+04  0.50400001928E-02 0. -1.
       -1    1    3    3    0  502  0.13490860656E+04 -0.60191207637E+02 -0.35829071078E+03  0.13971501091E+04  0.50400001928E-02 0.  1.
</event>
<event>
 5   0  0.4224163E-06  0.2766606E+04  0.7818609E-02  0.8313711E-01
        2   -1    0    0  501    0  0.00000000000E+00  0.00000000000E+00  0.17711949131E+04  0.17711949131E+04  0.25500000920E-02 0. -1.
       -2   -1    0    0    0  501  0.00000000000E+00  0.00000000000E+00 -0.10803595924E+04  0.10803595924E+04  0.25500000920E-02 0.  1.
    10030    2    1    2    0    0  0.00000000000E+00  0.00000000000E+00  0.69083532070E+03  0.28515545054E+04  0.27666061623E+04 0.  0.
        4    1    3    3  502    0 -0.51720961944E+03  0.78572350072E+03  0.13907875004E+04  0.16790350485E+04  0.12699999809E+01 0. -1.
       -4    1    3    3    0  502  0.51720961944E+03 -0.78572350072E+03 -0.69995217971E+03  0.11725194569E+04  0.12699999809E+01 0.  1.
</event>
<event>
 5   0  0.4115143E-06  0.2919836E+04  0.7818609E-02  0.8267000E-01
        2   -1    0    0  501    0  0.00000000000E+00  0.00000000000E+00  0.24167283851E+04  0.24167283851E+04  0.25500000920E-02 0. -1.
       -2   -1    0    0    0  501  0.00000000000E+00  0.00000000000E+00 -0.88191956405E+03  0.88191956406E+03  0.25500000920E-02 0.  1.
    10030    2    1    2    0    0  0.00000000000E+00  0.00000000000E+00  0.15348088211E+04  0.32986479492E+04  0.29198356418E+04 0.  0.
        1    1    3    3  502    0 -0.46531036355E+03 -0.80457082408E+03  0.20393063181E+04  0.22411198550E+04  0.50400001928E-02 0. -1.
       -1    1    3    3    0  502  0.46531036355E+03  0.80457082408E+03 -0.50449749705E+03  0.10575280942E+04  0.50400001928E-02 0.  1.
</event>
<event>
 5   0  0.1602873E-06  0.2883422E+04  0.7818609E-02  0.8277827E-01
       -1   -1    0    0    0  501  0.00000000000E+00  0.00000000000E+00  0.13144467486E+04  0.13144467486E+04  0.50400001928E-02 0.  1.
        1   -1    0    0  501    0  0.00000000000E+00  0.00000000000E+00 -0.15812969917E+04  0.15812969917E+04  0.50400001928E-02 0. -1.
    10030    2    1    2    0    0  0.00000000000E+00  0.00000000000E+00 -0.26685024319E+03  0.28957437403E+04  0.28834220567E+04 0.  0.
        1    1    3    3  502    0  0.13341915139E+04  0.16110303702E+03  0.39083006697E+03  0.13995604044E+04  0.50400001928E-02 0.  1.
       -1    1    3    3    0  502 -0.13341915139E+04 -0.16110303702E+03 -0.65768031016E+03  0.14961833359E+04  0.50400001928E-02 0. -1.
</event>
<event>
 5   0  0.1511126E-06  0.2906341E+04  0.7818609E-02  0.8270993E-01
        1   -1    0    0  501    0  0.00000000000E+00  0.00000000000E+00  0.11599502020E+04  0.11599502020E+04  0.50400001928E-02 0. -1.
       -1   -1    0    0    0  501  0.00000000000E+00  0.00000000000E+00 -0.18205135015E+04  0.18205135015E+04  0.50400001928E-02 0.  1.
    10030    2    1    2    0    0  0.00000000000E+00  0.00000000000E+00 -0.66056329954E+03  0.29804637035E+04  0.29063413453E+04 0.  0.
        5    1    3    3  502    0  0.84694457771E+03  0.42339080800E+03  0.80015091726E+03  0.12396928952E+04  0.46999998093E+01 0. -1.
       -5    1    3    3    0  502 -0.84694457771E+03 -0.42339080800E+03 -0.14607142168E+04  0.17407708083E+04  0.46999998093E+01 0.  1.
</event>
<event>
 5   0  0.4224163E-06  0.2907679E+04  0.7818609E-02  0.8270596E-01
        2   -1    0    0  501    0  0.00000000000E+00  0.00000000000E+00  0.29241810715E+04  0.29241810715E+04  0.25500000920E-02 0. -1.
       -2   -1    0    0    0  501  0.00000000000E+00  0.00000000000E+00 -0.72281773679E+03  0.72281773680E+03  0.25500000920E-02 0.  1.
    10030    2    1    2    0    0  0.00000000000E+00  0.00000000000E+00  0.22013633347E+04  0.36469988083E+04  0.29076794487E+04 0.  0.
        4    1    3    3  502    0 -0.26874708300E+02  0.24177699333E+03 -0.69710846749E+03  0.73833609745E+03  0.12699999809E+01 0.  1.
       -4    1    3    3    0  502  0.26874708300E+02 -0.24177699333E+03  0.28984718022E+04  0.29086627109E+04  0.12699999809E+01 0. -1.
</event>
<event>
 5   0  0.4115143E-06  0.2908345E+04  0.7818609E-02  0.8270399E-01
       -2   -1    0    0    0  501  0.00000000000E+00  0.00000000000E+00  0.21426279923E+04  0.21426279923E+04  0.25500000920E-02 0.  1.
        2   -1    0    0  501    0  0.00000000000E+00  0.00000000000E+00 -0.98692719427E+03  0.98692719428E+03  0.25500000920E-02 0. -1.
    10030    2    1    2    0    0  0.00000000000E+00  0.00000000000E+00  0.11557007981E+04  0.31295551866E+04  0.29083451190E+04 0.  0.
        1    1    3    3  502    0  0.10511624692E+04  0.42380245437E+03 -0.40252677038E+03  0.12027380671E+04  0.50400001928E-02 0. -1.
       -1    1    3    3    0  502 -0.10511624692E+04 -0.42380245437E+03  0.15582275684E+04  0.19268171195E+04  0.50400001928E-02 0.  1.
</event>
<event>
 5   0  0.4162450E-06  0.2904793E+04  0.7818609E-02  0.8271453E-01
       -2   -1    0    0    0  501  0.00000000000E+00  0.00000000000E+00  0.26856401296E+04  0.26856401296E+04  0.25500000920E-02 0.  1.
        2   -1    0    0  501    0  0.00000000000E+00  0.00000000000E+00 -0.78545719450E+03  0.78545719450E+03  0.25500000920E-02 0. -1.
    10030    2    1    2    0    0  0.00000000000E+00  0.00000000000E+00  0.19001829351E+04  0.34710973241E+04  0.29047928406E+04 0.  0.
        2    1    3    3  502    0  0.28165745057E+03 -0.49798314123E+03  0.25453173858E+04  0.26088232448E+04  0.25500000920E-02 0.  1.
       -2    1    3    3    0  502 -0.28165745057E+03  0.49798314123E+03 -0.64513445065E+03  0.86227407930E+03  0.25500000920E-02 0. -1.
</event>
<event>
 5   0  0.4148677E-06  0.2611840E+04  0.7818609E-02  0.8364191E-01
        2   -1    0    0  501    0  0.00000000000E+00  0.00000000000E+00  0.17092234239E+04  0.17092234239E+04  0.25500000920E-02 0. -1.
       -2   -1    0    0    0  501  0.00000000000E+00  0.00000000000E+00 -0.99777888466E+03  0.99777888466E+03  0.25500000920E-02 0.  1.
    10030    2    1    2    0    0  0.00000000000E+00  0.00000000000E+00  0.71144453926E+03  0.27070023086E+04  0.26118399963E+04 0.  0.
        5    1    3    3  502    0 -0.51715541093E+03  0.43030050557E+03 -0.80434282559E+03  0.10486170489E+04  0.46999998093E+01 0.  1.
       -5    1    3    3    0  502  0.51715541093E+03 -0.43030050557E+03  0.15157873649E+04  0.16583852597E+04  0.46999998093E+01 0. -1.
</event>
<event>
 5   0  0.4162450E-06  0.2886221E+04  0.7818609E-02  0.8276989E-01
       -2   -1    0    0    0  501  0.00000000000E+00  0.00000000000E+00  0.21942700732E+04  0.21942700732E+04  0.25500000920E-02 0.  1.
        2   -1    0    0  501    0  0.00000000000E+00  0.00000000000E+00 -0.94909354724E+03  0.94909354724E+03  0.25500000920E-02 0. -1.
    10030    2    1    2    0    0  0.00000000000E+00  0.00000000000E+00  0.12451765260E+04  0.31433636205E+04  0.28862207590E+04 0.  0.
        2    1    3    3  502    0  0.68482574126E+03 -0.37756059451E+03 -0.69832935757E+03  0.10484284382E+04  0.25500000920E-02 0. -1.
       -2    1    3    3    0  502 -0.68482574126E+03  0.37756059451E+03  0.19435058836E+04  0.20949351823E+04  0.25500000920E-02 0.  1.
</event>
<event>
 5   0  0.1543678E-06  0.2913386E+04  0.7818609E-02  0.8268906E-01
       -1   -1    0    0    0  501  0.00000000000E+00  0.00000000000E+00  0.81246693995E+03  0.81246693996E+03  0.50400001928E-02 0. -1.
        1   -1    0    0  501    0  0.00000000000E+00  0.00000000000E+00 -0.26117433717E+04  0.26117433717E+04  0.50400001928E-02 0.  1.
    10030    2    1    2    0    0  0.00000000000E+00  0.00000000000E+00 -0.17992764318E+04  0.34242103117E+04  0.29133864455E+04 0.  0.
        3    1    3    3  502    0  0.13461426208E+04 -0.55046344080E+03 -0.99688041274E+03  0.17632017817E+04  0.10100000352E+00 0.  1.
       -3    1    3    3    0  502 -0.13461426208E+04  0.55046344080E+03 -0.80239601904E+03  0.16610085300E+04  0.10100000352E+00 0. -1.
</event>
<event>
 5   0  0.4115143E-06  0.2898881E+04  0.7818609E-02  0.8273210E-01
       -2   -1    0    0    0  501  0.00000000000E+00  0.00000000000E+00  0.13396888017E+04  0.13396888017E+04  0.25500000920E-02 0. -1.
        2   -1    0    0  501    0  0.00000000000E+00  0.00000000000E+00 -0.15681836376E+04  0.15681836376E+04  0.25500000920E-02 0.  1.
    10030    2    1    2    0    0  0.00000000000E+00  0.00000000000E+00 -0.22849483597E+03  0.29078724393E+04  0.28988812037E+04 0.  0.
        1    1    3    3  502    0  0.69143877387E+03 -0.12544935057E+04  0.10788133230E+03  0.14364817840E+04  0.50400001928E-02 0. -1.
       -1    1    3    3    0  502 -0.69143877387E+03  0.12544935057E+04 -0.33637616827E+03  0.14713906553E+04  0.50400001928E-02 0.  1.
</event>
<event>
 5   0  0.1580212E-06  0.2899971E+04  0.7818609E-02  0.8272886E-01
        1   -1    0    0  501    0  0.00000000000E+00  0.00000000000E+00  0.12792245393E+04  0.12792245394E+04  0.50400001928E-02 0. -1.
       -1   -1    0    0    0  501  0.00000000000E+00  0.00000000000E+00 -0.16435414673E+04  0.16435414673E+04  0.50400001928E-02 0.  1.
    10030    2    1    2    0    0  0.00000000000E+00  0.00000000000E+00 -0.36431692793E+03  0.29227660066E+04  0.28999714318E+04 0.  0.
        4    1    3    3  502    0 -0.12672356767E+04 -0.48519733477E+03  0.33289092542E+03  0.13971831287E+04  0.12699999809E+01 0.  1.
       -4    1    3    3    0  502  0.12672356767E+04  0.48519733477E+03 -0.69720785335E+03  0.15255828780E+04  0.12699999809E+01 0. -1.
</event>
<event>
 5   0  0.1580212E-06  0.2879641E+04  0.7818609E-02  0.8278961E-01
        1   -1    0    0  501    0  0.00000000000E+00  0.00000000000E+00  0.17174065623E+04  0.17174065623E+04  0.50400001928E-02 0.  1.
       -1   -1    0    0    0  501  0.00000000000E+00  0.00000000000E+00 -0.12071008931E+04  0.12071008931E+04  0.50400001928E-02 0. -1.
    10030    2    1    2    0    0  0.00000000000E+00  0.00000000000E+00  0.51030566922E+03  0.29245074555E+04  0.28796409465E+04 0.  0.
        4    1    3    3  502    0 -0.21660698105E+03 -0.11232854558E+04 -0.63276468400E+03  0.13073184607E+04  0.12699999809E+01 0. -1.
       -4    1    3    3    0  502  0.21660698105E+03  0.11232854558E+04  0.11430703532E+04  0.16171889948E+04  0.12699999809E+01 0.  1.
</event>
<event>
 5   0  0.4187518E-06  0.2899565E+04  0.7818609E-02  0.8273007E-01
        2   -1    0    0  501    0  0.00000000000E+00  0.00000000000E+00  0.26309139050E+04  0.26309139050E+04  0.25500000920E-02 0. -1.
       -2   -1    0    0    0  501  0.00000000000E+00  0.00000000000E+00 -0.79891225266E+03  0.79891225267E+03  0.25500000920E-02 0.  1.
    10030    2    1    2    0    0  0.00000000000E+00  0.00000000000E+00  0.18320016524E+04  0.34298261577E+04  0.28995650394E+04 0.  0.
        3    1    3    3  502    0  0.11237120528E+04 -0.76565994095E+03  0.32113595496E+03  0.13971729437E+04  0.10100000352E+00 0.  1.
       -3    1    3    3    0  502 -0.11237120528E+04  0.76565994095E+03  0.15108656974E+04  0.20326532140E+04  0.10100000352E+00 0. -1.
</event>
<event>
 5   0  0.4148677E-06  0.2892568E+04  0.7818609E-02  0.8275092E-01
        2   -1    0    0  501    0  0.00000000000E+00  0.00000000000E+00  0.28557708959E+04  0.28557708959E+04  0.25500000920E-02 0.  1.
       -2   -1    0    0    0  501  0.00000000000E+00  0.00000000000E+00 -0.73245977952E+03  0.73245977953E+03  0.25500000920E-02 0. -1.
    10030    2    1    2    0    0  0.00000000000E+00  0.00000000000E+00  0.21233111164E+04  0.35882306754E+04  0.28925679392E+04 0.  0.
        5    1    3    3  502    0 -0.89479225255E+03 -0.54399859658E+01  0.24711564909E+04  0.26281779356E+04  0.46999998093E+01 0.  1.
       -5    1    3    3    0  502  0.89479225255E+03  0.54399859658E+01 -0.34784537452E+03  0.96005273983E+03  0.46999998093E+01 0. -1.
</event>
<event>
 5   0  0.4148677E-06  0.2886022E+04  0.7818609E-02  0.8277048E-01
       -2   -1    0    0    0  501  0.00000000000E+00  0.00000000000E+00  0.12781149193E+04  0.12781149193E+04  0.25500000920E-02 0.  1.
        2   -1    0    0  501    0  0.00000000000E+00  0.00000000000E+00 -0.16291816397E+04  0.16291816397E+04  0.25500000920E-02 0. -1.
    10030    2    1    2    0    0  0.00000000000E+00  0.00000000000E+00 -0.35106672032E+03  0.29072965590E+04  0.28860224254E+04 0.  0.
        5    1    3    3  502    0 -0.86114250902E+03 -0.64428660938E+03 -0.11446998738E+04  0.15706786899E+04  0.46999998093E+01 0. -1.
       -5    1    3    3    0  502  0.86114250902E+03  0.64428660938E+03  0.79363315343E+03  0.13366178691E+04  0.46999998093E+01 0.  1.
</event>
<event>
 5   0  0.4115143E-06  0.2918852E+04  0.7818609E-02  0.8267290E-01
       -2   -1    0    0    0  501  0.00000000000E+00  0.00000000000E+00  0.14641786012E+04  0.14641786012E+04  0.25500000920E-02 0. -1.
        2   -1    0    0  501    0  0.00000000000E+00  0.00000000000E+00 -0.14546888560E+04  0.14546888560E+04  0.25500000920E-02 0.  1.
    10030    2    1    2    0    0  0.00000000000E+00  0.00000000000E+00  0.94897451549E+01  0.29188674572E+04  0.29188520307E+04 0.  0.
        1    1    3    3  502    0  0.43311495948E+03  0.27758520868E+03  0.13705054279E+04  0.14638740534E+04  0.50400001928E-02 0. -1.
       -1    1    3    3    0  502 -0.43311495948E+03 -0.27758520868E+03 -0.13610156828E+04  0.14549934038E+04  0.50400001928E-02 0.  1.
</event>
<event>
 5   0  0.1602873E-06  0.2846871E+04  0.7818609E-02  0.8288863E-01
       -1   -1    0    0    0  501  0.00000000000E+00  0.00000000000E+00  0.11875233387E+04  0.11875233387E+04  0.50400001928E-02 0. -1.
        1   -1    0    0  501    0  0.00000000000E+00  0.00000000000E+00 -0.17062143118E+04  0.17062143118E+04  0.50400001928E-02 0.  1.
    10030    2    1    2    0    0  0.00000000000E+00  0.00000000000E+00 -0.51869097317E+03  0.28937376505E+04  0.28468714871E+04 0.  0.
        1    1    3    3  502    0 -0.49935854784E+03  0.34085541984E+03  0.10505223022E+04  0.12120802300E+04  0.50400001928E-02 0. -1.
       -1    1    3    3    0  502  0.49935854784E+03 -0.34085541984E+03 -0.15692132753E+04  0.16816574205E+04  0.50400001928E-02 0.  1.
</event>
<event>
 5   0  0.1360125E-06  0.2797853E+04  0.7818609E-02  0.8303935E-01
        3   -1    0    0  501    0  0.00000000000E+00  0.00000000000E+00  0.26940768320E+04  0.26940768339E+04  0.10100000352E+00 0.  1.
       -3   -1    0    0    0  501  0.00000000000E+00  0.00000000000E+00 -0.72640690799E+03  0.72640691502E+03  0.10100000352E+00 0. -1.
    10030    2    1    2    0    0  0.00000000000E+00  0.00000000000E+00  0.19676699240E+04  0.34204837489E+04  0.27978534891E+04 0.  0.
        5    1    3    3  502    0  0.67104446101E+03  0.59791228414E+03  0.22943906877E+04  0.24641530971E+04  0.46999998093E+01 0.  1.
       -5    1    3    3    0  502 -0.67104446101E+03 -0.59791228414E+03 -0.32672076368E+03  0.95633065182E+03  0.46999998093E+01 0. -1.
</event>
<event>
 5   0  0.4148677E-06  0.2881618E+04  0.7818609E-02  0.8278368E-01
        2   -1    0    0  501    0  0.00000000000E+00  0.00000000000E+00  0.13273441761E+04  0.13273441761E+04  0.25500000920E-02 0. -1.
       -2   -1    0    0    0  501  0.00000000000E+00  0.00000000000E+00 -0.15639731848E+04  0.15639731848E+04  0.25500000920E-02 0.  1.
    10030    2    1    2    0    0  0.00000000000E+00  0.00000000000E+00 -0.23662900869E+03  0.28913173609E+04  0.28816180861E+04 0.  0.
        5    1    3    3  502    0  0.92410183547E+02  0.14368947091E+04 -0.17047565102E+03  0.14499276136E+04  0.46999998093E+01 0. -1.
       -5    1    3    3    0  502 -0.92410183547E+02 -0.14368947091E+04 -0.66153357665E+02  0.14413897474E+04  0.46999998093E+01 0.  1.
</event>
<event>
 5   0  0.4162450E-06  0.2904247E+04  0.7818609E-02  0.8271615E-01
        2   -1    0    0  501    0  0.00000000000E+00  0.00000000000E+00  0.10651270692E+04  0.10651270692E+04  0.25500000920E-02 0. -1.
       -2   -1    0    0    0  501  0.00000000000E+00  0.00000000000E+00 -0.19797282267E+04  0.19797282267E+04  0.25500000920E-02 0.  1.
    10030    2    1    2    0    0  0.00000000000E+00  0.00000000000E+00 -0.91460115744E+03  0.30448552959E+04  0.29042466314E+04 0.  0.
        2    1    3    3  502    0  0.16891306927E+03  0.98513953724E+03 -0.15616903467E+04  0.18541597212E+04  0.25500000920E-02 0.  1.
       -2    1    3    3    0  502 -0.16891306927E+03 -0.98513953724E+03  0.64708918924E+03  0.11906955747E+04  0.25500000920E-02 0. -1.
</event>
<event>
 5   0  0.4187518E-06  0.2922948E+04  0.7818609E-02  0.8266082E-01
        2   -1    0    0  501    0  0.00000000000E+00  0.00000000000E+00  0.13962697789E+04  0.13962697789E+04  0.25500000920E-02 0.  1.
       -2   -1    0    0    0  501  0.00000000000E+00  0.00000000000E+00 -0.15297232086E+04  0.15297232086E+04  0.25500000920E-02 0. -1.
    10030    2    1    2    0    0  0.00000000000E+00  0.00000000000E+00 -0.13345342975E+03  0.29259929875E+04  0.29229480229E+04 0.  0.
        3    1    3    3  502    0  0.12082178925E+04  0.18066093395E+03  0.73627938934E+03  0.14263716901E+04  0.10100000352E+00 0.  1.
       -3    1    3    3    0  502 -0.12082178925E+04 -0.18066093395E+03 -0.86973281908E+03  0.14996212974E+04  0.10100000352E+00 0. -1.
</event>
<event>
 5   0  0.1602873E-06  0.2873978E+04  0.7818609E-02  0.8280662E-01
       -1   -1    0    0    0  501  0.00000000000E+00  0.00000000000E+00  0.11891336677E+04  0.11891336677E+04  0.50400001928E-02 0.  1.
        1   -1    0    0  501    0  0.00000000000E+00  0.00000000000E+00 -0.17365053060E+04  0.17365053060E+04  0.50400001928E-02 0. -1.
    10030    2    1    2    0    0  0.00000000000E+00  0.00000000000E+00 -0.54737163833E+03  0.29256389737E+04  0.28739776781E+04 0.  0.
        1    1    3    3  502    0 -0.52178887560E+03  0.84967220467E+03 -0.13270472593E+04  0.16598978627E+04  0.50400001928E-02 0. -1.
       -1    1    3    3    0  502  0.52178887560E+03 -0.84967220467E+03  0.77967562101E+03  0.12657411110E+04  0.50400001928E-02 0.  1.
</event>
<event>
 5   0  0.4187518E-06  0.2913057E+04  0.7818609E-02  0.8269003E-01
        2   -1    0    0  501    0  0.00000000000E+00  0.00000000000E+00  0.15395922819E+04  0.15395922819E+04  0.25500000920E-02 0.  1.
       -2   -1    0    0    0  501  0.00000000000E+00  0.00000000000E+00 -0.13779458161E+04  0.13779458161E+04  0.25500000920E-02 0. -1.
    10030    2    1    2    0    0  0.00000000000E+00  0.00000000000E+00  0.16164646584E+03  0.29175380980E+04  0.29130566376E+04 0.  0.
        3    1    3    3  502    0 -0.76869502928E+03  0.59341821579E+03  0.11680518764E+04  0.15190070517E+04  0.10100000352E+00 0.  1.
       -3    1    3    3    0  502  0.76869502928E+03 -0.59341821579E+03 -0.10064054106E+04  0.13985310463E+04  0.10100000352E+00 0. -1.
</event>
<event>
 5   0  0.4148677E-06  0.2989446E+04  0.7818609E-02  0.8246751E-01
        2   -1    0    0  501    0  0.00000000000E+00  0.00000000000E+00  0.15062174203E+04  0.15062174203E+04  0.25500000920E-02 0. -1.
       -2   -1    0    0    0  501  0.00000000000E+00  0.00000000000E+00 -0.14833164330E+04  0.14833164330E+04  0.25500000920E-02 0.  1.
    10030    2    1    2    0    0  0.00000000000E+00  0.00000000000E+00  0.22900987254E+02  0.29895338533E+04  0.29894461368E+04 0.  0.
        5    1    3    3  502    0  0.14400006242E+04 -0.29518826084E+03  0.28245116501E+03  0.14968428968E+04  0.46999998093E+01 0. -1.
       -5    1    3    3    0  502 -0.14400006242E+04  0.29518826084E+03 -0.25955017776E+03  0.14926909565E+04  0.46999998093E+01 0.  1.
</event>
<event>
 5   0  0.1602873E-06  0.3029743E+04  0.7818609E-02  0.8235288E-01
       -1   -1    0    0    0  501  0.00000000000E+00  0.00000000000E+00  0.17064002342E+04  0.17064002342E+04  0.50400001928E-02 0.  1.
        1   -1    0    0  501    0  0.00000000000E+00  0.00000000000E+00 -0.13448399266E+04  0.13448399266E+04  0.50400001928E-02 0. -1.
    10030    2    1    2    0    0  0.00000000000E+00  0.00000000000E+00  0.36156030766E+03  0.30512401608E+04  0.30297426727E+04 0.  0.
        1    1    3    3  502    0  0.12798999456E+04 -0.53083272370E+03 -0.43586163450E+03  0.14525503832E+04  0.50400001928E-02 0. -1.
       -1    1    3    3    0  502 -0.12798999456E+04  0.53083272370E+03  0.79742194217E+03  0.15986897776E+04  0.50400001928E-02 0.  1.
</event>
<event>
 5   0  0.1550278E-06  0.2860382E+04  0.7818609E-02  0.8284764E-01
       -1   -1    0    0    0  501  0.00000000000E+00  0.00000000000E+00  0.10680379103E+04  0.10680379103E+04  0.50400001928E-02 0.  1.
        1   -1    0    0  501    0  0.00000000000E+00  0.00000000000E+00 -0.19151436208E+04  0.19151436208E+04  0.50400001928E-02 0. -1.
    10030    2    1    2    0    0  0.00000000000E+00  0.00000000000E+00 -0.84710571047E+03  0.29831815311E+04  0.28603817862E+04 0.  0.
        2    1    3    3  502    0  0.13442551149E+04  0.10084616147E+03  0.74717550502E+02  0.13501016535E+04  0.25500000920E-02 0.  1.
       -2    1    3    3    0  502 -0.13442551149E+04 -0.10084616147E+03 -0.92182326097E+03  0.16330798777E+04  0.25500000920E-02 0. -1.
</event>
<event>
 5   0  0.4224163E-06  0.2922532E+04  0.7818609E-02  0.8266205E-01
       -2   -1    0    0    0  501  0.00000000000E+00  0.00000000000E+00  0.17395085448E+04  0.17395085448E+04  0.25500000920E-02 0. -1.
        2   -1    0    0  501    0  0.00000000000E+00  0.00000000000E+00 -0.12275293680E+04  0.12275293680E+04  0.25500000920E-02 0.  1.
    10030    2    1    2    0    0  0.00000000000E+00  0.00000000000E+00  0.51197917673E+03  0.29670379128E+04  0.29225316591E+04 0.  0.
        4    1    3    3  502    0  0.64577104109E+03  0.12023070210E+04 -0.27420263618E+03  0.13920312887E+04  0.12699999809E+01 0.  1.
       -4    1    3    3    0  502 -0.64577104109E+03 -0.12023070210E+04  0.78618181291E+03  0.15750066241E+04  0.12699999809E+01 0. -1.
</event>
<event>
 5   0  0.4224163E-06  0.2906119E+04  0.7818609E-02  0.8271059E-01
       -2   -1    0    0    0  501  0.00000000000E+00  0.00000000000E+00  0.12876530711E+04  0.12876530711E+04  0.25500000920E-02 0.  1.
        2   -1    0    0  501    0  0.00000000000E+00  0.00000000000E+00 -0.16397130824E+04  0.16397130824E+04  0.25500000920E-02 0. -1.
    10030    2    1    2    0    0  0.00000000000E+00  0.00000000000E+00 -0.35206001132E+03  0.29273661535E+04  0.29061187769E+04 0.  0.
        4    1    3    3  502    0  0.81714431354E+03  0.51548346762E+03 -0.12692908287E+04  0.15951642095E+04  0.12699999809E+01 0. -1.
       -4    1    3    3    0  502 -0.81714431354E+03 -0.51548346762E+03  0.91723081734E+03  0.13322019440E+04  0.12699999809E+01 0.  1.
</event>
<event>
 5   0  0.4162450E-06  0.2893589E+04  0.7818609E-02  0.8274787E-01
        2   -1    0    0  501    0  0.00000000000E+00  0.00000000000E+00  0.23256937665E+04  0.23256937665E+04  0.25500000920E-02 0. -1.
       -2   -1    0    0    0  501  0.00000000000E+00  0.00000000000E+00 -0.90003866467E+03  0.90003866468E+03  0.25500000920E-02 0.  1.
    10030    2    1    2    0    0  0.00000000000E+00  0.00000000000E+00  0.14256551018E+04  0.32257324311E+04  0.28935889909E+04 0.  0.
        2    1    3    3  502    0  0.10333351186E+04  0.63104645388E+03  0.15957023047E+04  0.20030643873E+04  0.25500000920E-02 0. -1.
       -2    1    3    3    0  502 -0.10333351186E+04 -0.63104645388E+03 -0.17004720291E+03  0.12226680439E+04  0.25500000920E-02 0.  1.
</event>
<event>
 5   0  0.4115143E-06  0.2901376E+04  0.7818609E-02  0.8272468E-01
       -2   -1    0    0    0  501  0.00000000000E+00  0.00000000000E+00  0.11403361848E+04  0.11403361848E+04  0.25500000920E-02 0. -1.
        2   -1    0    0  501    0  0.00000000000E+00  0.00000000000E+00 -0.18455039809E+04  0.18455039809E+04  0.25500000920E-02 0.  1.
    10030    2    1    2    0    0  0.00000000000E+00  0.00000000000E+00 -0.70516779611E+03  0.29858401657E+04  0.29013755142E+04 0.  0.
        1    1    3    3  502    0  0.38198217690E+03  0.75931550613E+03 -0.15624031545E+04  0.17786438763E+04  0.50400001928E-02 0.  1.
       -1    1    3    3    0  502 -0.38198217690E+03 -0.75931550613E+03  0.85723535842E+03  0.12071962894E+04  0.50400001928E-02 0. -1.
</event>
<event>
 5   0  0.4224163E-06  0.2889157E+04  0.7818609E-02  0.8276111E-01
        2   -1    0    0  501    0  0.00000000000E+00  0.00000000000E+00  0.19730620421E+04  0.19730620421E+04  0.25500000920E-02 0. -1.
       -2   -1    0    0    0  501  0.00000000000E+00  0.00000000000E+00 -0.10576488159E+04  0.10576488159E+04  0.25500000920E-02 0.  1.
    10030    2    1    2    0    0  0.00000000000E+00  0.00000000000E+00  0.91541322612E+03  0.30307108580E+04  0.28891567854E+04 0.  0.
        4    1    3    3  502    0 -0.11751779719E+04 -0.46544487923E+03 -0.27593237137E+03  0.12937629179E+04  0.12699999809E+01 0.  1.
       -4    1    3    3    0  502  0.11751779719E+04  0.46544487923E+03  0.11913455975E+04  0.17369479401E+04  0.12699999809E+01 0. -1.
</event>
<event>
 5   0  0.4148677E-06  0.2904436E+04  0.7818609E-02  0.8271559E-01
        2   -1    0    0  501    0  0.00000000000E+00  0.00000000000E+00  0.29938168822E+04  0.29938168822E+04  0.25500000920E-02 0. -1.
       -2   -1    0    0    0  501  0.00000000000E+00  0.00000000000E+00 -0.70443089329E+03  0.70443089329E+03  0.25500000920E-02 0.  1.
    10030    2    1    2    0    0  0.00000000000E+00  0.00000000000E+00  0.22893859889E+04  0.36982477755E+04  0.29044359870E+04 0.  0.
        5    1    3    3  502    0 -0.12406539568E+04 -0.29285172826E+02  0.18434771167E+03  0.12546258529E+04  0.46999998093E+01 0.  1.
       -5    1    3    3    0  502  0.12406539568E+04  0.29285172826E+02  0.21050382772E+04  0.24436219226E+04  0.46999998093E+01 0. -1.
</event>
<event>
 5   0  0.1543678E-06  0.2929629E+04  0.7818609E-02  0.8264116E-01
        1   -1    0    0  501    0  0.00000000000E+00  0.00000000000E+00  0.16449361874E+04  0.16449361875E+04  0.50400001928E-02 0. -1.
       -1   -1    0    0    0  501  0.00000000000E+00  0.00000000000E+00 -0.13044163347E+04  0.13044163347E+04  0.50400001928E-02 0.  1.
    10030    2    1    2    0    0  0.00000000000E+00  0.00000000000E+00  0.34051985272E+03  0.29493525222E+04  0.29296290772E+04 0.  0.
        3    1    3    3  502    0 -0.69867005066E+03  0.69669270819E+03  0.12602127252E+04  0.16005176326E+04  0.10100000352E+00 0. -1.
       -3    1    3    3    0  502  0.69867005066E+03 -0.69669270819E+03 -0.91969287251E+03  0.13488348896E+04  0.10100000352E+00 0.  1.
</event>
<event>
 5   0  0.1543678E-06  0.2930440E+04  0.7818609E-02  0.8263878E-01
       -1   -1    0    0    0  501  0.00000000000E+00  0.00000000000E+00  0.14758775811E+04  0.14758775811E+04  0.50400001928E-02 0. -1.
        1   -1    0    0  501    0  0.00000000000E+00  0.00000000000E+00 -0.14546389888E+04  0.14546389888E+04  0.50400001928E-02 0.  1.
    10030    2    1    2    0    0  0.00000000000E+00  0.00000000000E+00  0.21238592256E+02  0.29305165699E+04  0.29304396068E+04 0.  0.
        3    1    3    3  502    0  0.85485257206E+03 -0.47540329000E+03  0.11015594256E+04  0.14731647520E+04  0.10100000352E+00 0. -1.
       -3    1    3    3    0  502 -0.85485257206E+03  0.47540329000E+03 -0.10803208334E+04  0.14573518180E+04  0.10100000352E+00 0.  1.
</event>
<event>
 5   0  0.1580212E-06  0.2914305E+04  0.7818609E-02  0.8268634E-01
        1   -1    0    0  501    0  0.00000000000E+00  0.00000000000E+00  0.17028766695E+04  0.17028766696E+04  0.50400001928E-02 0. -1.
       -1   -1    0    0    0  501  0.00000000000E+00  0.00000000000E+00 -0.12468864981E+04  0.12468864982E+04  0.50400001928E-02 0.  1.
    10030    2    1    2    0    0  0.00000000000E+00  0.00000000000E+00  0.45599017140E+03  0.29497631677E+04  0.29143053562E+04 0.  0.
        4    1    3    3  502    0 -0.39505370491E+02  0.82367630926E+03 -0.98799138095E+03  0.12869078904E+04  0.12699999809E+01 0.  1.
       -4    1    3    3    0  502  0.39505370491E+02 -0.82367630926E+03  0.14439815524E+04  0.16628552773E+04  0.12699999809E+01 0. -1.
</event>
<event>
 5   0  0.1543678E-06  0.2907471E+04  0.7818609E-02  0.8270658E-01
        1   -1    0    0  501    0  0.00000000000E+00  0.00000000000E+00  0.12625482174E+04  0.12625482174E+04  0.50400001928E-02 0. -1.
       -1   -1    0    0    0  501  0.00000000000E+00  0.00000000000E+00 -0.16738743392E+04  0.16738743392E+04  0.50400001928E-02 0.  1.
    10030    2    1    2    0    0  0.00000000000E+00  0.00000000000E+00 -0.41132612181E+03  0.29364225566E+04  0.29074711095E+04 0.  0.
        3    1    3    3  502    0  0.31958531447E+03  0.61692456150E+03  0.10840082586E+04  0.12875576114E+04  0.10100000352E+00 0. -1.
       -3    1    3    3    0  502 -0.31958531447E+03 -0.61692456150E+03 -0.14953343804E+04  0.16488649451E+04  0.10100000352E+00 0.  1.
</event>
<event>
 5   0  0.4115143E-06  0.2647392E+04  0.7818609E-02  0.8352279E-01
        2   -1    0    0  501    0  0.00000000000E+00  0.00000000000E+00  0.14195901543E+04  0.14195901543E+04  0.25500000920E-02 0. -1.
       -2   -1    0    0    0  501  0.00000000000E+00  0.00000000000E+00 -0.12342798604E+04  0.12342798604E+04  0.25500000920E-02 0.  1.
    10030    2    1    2    0    0  0.00000000000E+00  0.00000000000E+00  0.18531029387E+03  0.26538700148E+04  0.26473923302E+04 0.  0.
        1    1    3    3  502    0 -0.10608573089E+04 -0.84010924718E+01  0.88622507904E+03  0.13823471702E+04  0.50400001928E-02 0. -1.
       -1    1    3    3    0  502  0.10608573089E+04  0.84010924718E+01 -0.70091478517E+03  0.12715228446E+04  0.50400001928E-02 0.  1.
</event>
<event>
 5   0  0.4224163E-06  0.2908056E+04  0.7818609E-02  0.8270485E-01
       -2   -1    0    0    0  501  0.00000000000E+00  0.00000000000E+00  0.14414913663E+04  0.14414913663E+04  0.25500000920E-02 0. -1.
        2   -1    0    0  501    0  0.00000000000E+00  0.00000000000E+00 -0.14666732738E+04  0.14666732738E+04  0.25500000920E-02 0.  1.
    10030    2    1    2    0    0  0.00000000000E+00  0.00000000000E+00 -0.25181907524E+02  0.29081646400E+04  0.29080556124E+04 0.  0.
        4    1    3    3  502    0  0.24903321258E+03  0.13996629337E+04  0.29257844535E+03  0.14514398467E+04  0.12699999809E+01 0. -1.
       -4    1    3    3    0  502 -0.24903321258E+03 -0.13996629337E+04 -0.31776035287E+03  0.14567247934E+04  0.12699999809E+01 0.  1.
</event>
<event>
 5   0  0.4162450E-06  0.2865696E+04  0.7818609E-02  0.8283158E-01
       -2   -1    0    0    0  501  0.00000000000E+00  0.00000000000E+00  0.26878733731E+04  0.26878733731E+04  0.25500000920E-02 0.  1.
        2   -1    0    0  501    0  0.00000000000E+00  0.00000000000E+00 -0.76382098424E+03  0.76382098424E+03  0.25500000920E-02 0. -1.
    10030    2    1    2    0    0  0.00000000000E+00  0.00000000000E+00  0.19240523889E+04  0.34516943574E+04  0.28656964846E+04 0.  0.
        2    1    3    3  502    0 -0.53788686673E+03  0.82437832330E+03 -0.29210583735E+03  0.10267656605E+04  0.25500000920E-02 0. -1.
       -2    1    3    3    0  502  0.53788686673E+03 -0.82437832330E+03  0.22161582262E+04  0.24249286969E+04  0.25500000920E-02 0.  1.
</event>
<event>
 5   0  0.1360125E-06  0.2890929E+04  0.7818609E-02  0.8275581E-01
       -3   -1    0    0    0  501  0.00000000000E+00  0.00000000000E+00  0.14303346713E+04  0.14303346749E+04  0.10100000352E+00 0.  1.
        3   -1    0    0  501    0  0.00000000000E+00  0.00000000000E+00 -0.14607544281E+04  0.14607544316E+04  0.10100000352E+00 0. -1.
    10030    2    1    2    0    0  0.00000000000E+00  0.00000000000E+00 -0.30419756797E+02  0.28910891065E+04  0.28909290653E+04 0.  0.
        4    1    3    3  502    0 -0.11235271728E+04 -0.59525948592E+02 -0.92273433354E+03  0.14550934368E+04  0.12699999809E+01 0. -1.
       -4    1    3    3    0  502  0.11235271728E+04  0.59525948592E+02  0.89231457675E+03  0.14359956697E+04  0.12699999809E+01 0.  1.
</event>
<event>
 5   0  0.1543678E-06  0.2933100E+04  0.7818609E-02  0.8263097E-01
       -1   -1    0    0    0  501  0.00000000000E+00  0.00000000000E+00  0.15652320819E+04  0.15652320819E+04  0.50400001928E-02 0.  1.
        1   -1    0    0  501    0  0.00000000000E+00  0.00000000000E+00 -0.13740895203E+04  0.13740895203E+04  0.50400001928E-02 0. -1.
    10030    2    1    2    0    0  0.00000000000E+00  0.00000000000E+00  0.19114256158E+03  0.29393216022E+04  0.29331000669E+04 0.  0.
        3    1    3    3  502    0  0.46675129370E+03 -0.64821450217E+02  0.14872972713E+04  0.15601640215E+04  0.10100000352E+00 0.  1.
       -3    1    3    3    0  502 -0.46675129370E+03  0.64821450217E+02 -0.12961547097E+04  0.13791575807E+04  0.10100000352E+00 0. -1.
</event>
<event>
 5   0  0.4115143E-06  0.2897691E+04  0.7818609E-02  0.8273565E-01
       -2   -1    0    0    0  501  0.00000000000E+00  0.00000000000E+00  0.86489676163E+03  0.86489676163E+03  0.25500000920E-02 0.  1.
        2   -1    0    0  501    0  0.00000000000E+00  0.00000000000E+00 -0.24270564807E+04  0.24270564807E+04  0.25500000920E-02 0. -1.
    10030    2    1    2    0    0  0.00000000000E+00  0.00000000000E+00 -0.15621597191E+04  0.32919532424E+04  0.28976910052E+04 0.  0.
        1    1    3    3  502    0 -0.56590386835E+03 -0.47414909176E+03  0.63516873664E+03  0.97391163534E+03  0.50400001928E-02 0.  1.
       -1    1    3    3    0  502  0.56590386835E+03  0.47414909176E+03 -0.21973284557E+04  0.23180416070E+04  0.50400001928E-02 0. -1.
</event>
<event>
 5   0  0.1580212E-06  0.2887659E+04  0.7818609E-02  0.8276559E-01
       -1   -1    0    0    0  501  0.00000000000E+00  0.00000000000E+00  0.81906973232E+03  0.81906973234E+03  0.50400001928E-02 0. -1.
        1   -1    0    0  501    0  0.00000000000E+00  0.00000000000E+00 -0.25451350476E+04  0.25451350476E+04  0.50400001928E-02 0.  1.
    10030    2    1    2    0    0  0.00000000000E+00  0.00000000000E+00 -0.17260653152E+04  0.33642047799E+04  0.28876586240E+04 0.  0.
        4    1    3    3  502    0 -0.10339920298E+04  0.89197391763E+03 -0.31672930764E+03  0.14018117044E+04  0.12699999809E+01 0.  1.
       -4    1    3    3    0  502  0.10339920298E+04 -0.89197391763E+03 -0.14093360076E+04  0.19623930755E+04  0.12699999809E+01 0. -1.
</event>
<event>
 5   0  0.1543678E-06  0.2902246E+04  0.7818609E-02  0.8272209E-01
        1   -1    0    0  501    0  0.00000000000E+00  0.00000000000E+00  0.23067328381E+04  0.23067328381E+04  0.50400001928E-02 0. -1.
       -1   -1    0    0    0  501  0.00000000000E+00  0.00000000000E+00 -0.91287497500E+03  0.91287497501E+03  0.50400001928E-02 0.  1.
    10030    2    1    2    0    0  0.00000000000E+00  0.00000000000E+00  0.13938578631E+04  0.32196078131E+04  0.29022464967E+04 0.  0.
        3    1    3    3  502    0 -0.59316486355E+03  0.28510759534E+03 -0.73779495597E+03  0.98867198985E+03  0.10100000352E+00 0.  1.
       -3    1    3    3    0  502  0.59316486355E+03 -0.28510759534E+03  0.21316528190E+04  0.22309358232E+04  0.10100000352E+00 0. -1.
</event>
<event>
 5   0  0.1602873E-06  0.2924139E+04  0.7818609E-02  0.8265731E-01
        1   -1    0    0  501    0  0.00000000000E+00  0.00000000000E+00  0.16036288647E+04  0.16036288647E+04  0.50400001928E-02 0. -1.
       -1   -1    0    0    0  501  0.00000000000E+00  0.00000000000E+00 -0.13330062720E+04  0.13330062720E+04  0.50400001928E-02 0.  1.
    10030    2    1    2    0    0  0.00000000000E+00  0.00000000000E+00  0.27062259276E+03  0.29366351367E+04  0.29241390764E+04 0.  0.
        1    1    3    3  502    0 -0.41681318645E+03 -0.13989061902E+04  0.21918810887E+03  0.14760471498E+04  0.50400001928E-02 0. -1.
       -1    1    3    3    0  502  0.41681318645E+03  0.13989061902E+04  0.51434483891E+02  0.14605879869E+04  0.50400001928E-02 0.  1.
</event>
<event>
 5   0  0.1360125E-06  0.2888983E+04  0.7818609E-02  0.8276163E-01
        3   -1    0    0  501    0  0.00000000000E+00  0.00000000000E+00  0.18881935817E+04  0.18881935844E+04  0.10100000352E+00 0. -1.
       -3   -1    0    0    0  501  0.00000000000E+00  0.00000000000E+00 -0.11050540560E+04  0.11050540606E+04  0.10100000352E+00 0.  1.
    10030    2    1    2    0    0  0.00000000000E+00  0.00000000000E+00  0.78313952567E+03  0.29932476450E+04  0.28889832031E+04 0.  0.
        4    1    3    3  502    0  0.36844649264E+03  0.85305996903E+03  0.15374174274E+04  0.17964181272E+04  0.12699999809E+01 0. -1.
       -4    1    3    3    0  502 -0.36844649264E+03 -0.85305996903E+03 -0.75427790175E+03  0.11968295178E+04  0.12699999809E+01 0.  1.
</event>
<event>
 5   0  0.1543678E-06  0.2895797E+04  0.7818609E-02  0.8274129E-01
        1   -1    0    0  501    0  0.00000000000E+00  0.00000000000E+00  0.12374321029E+04  0.12374321029E+04  0.50400001928E-02 0.  1.
       -1   -1    0    0    0  501  0.00000000000E+00  0.00000000000E+00 -0.16941613629E+04  0.16941613629E+04  0.50400001928E-02 0. -1.
    10030    2    1    2    0    0  0.00000000000E+00  0.00000000000E+00 -0.45672926001E+03  0.29315934658E+04  0.28957967179E+04 0.  0.
        3    1    3    3  502    0  0.11727886607E+04  0.16724749365E+02  0.63106819401E+03  0.13319009106E+04  0.10100000352E+00 0. -1.
       -3    1    3    3    0  502 -0.11727886607E+04 -0.16724749365E+02 -0.10877974540E+04  0.15996925552E+04  0.10100000352E+00 0.  1.
</event>
<event>
 5   0  0.4224163E-06  0.2893458E+04  0.7818609E-02  0.8274827E-01
        2   -1    0    0  501    0  0.00000000000E+00  0.00000000000E+00  0.14700898972E+04  0.14700898972E+04  0.25500000920E-02 0.  1.
       -2   -1    0    0    0  501  0.00000000000E+00  0.00000000000E+00 -0.14237392213E+04  0.14237392213E+04  0.25500000920E-02 0. -1.
    10030    2    1    2    0    0  0.00000000000E+00  0.00000000000E+00  0.46350675899E+02  0.28938291186E+04  0.28934578937E+04 0.  0.
        4    1    3    3  502    0  0.43778458408E+02  0.11310046435E+04  0.92436528922E+03  0.14613489857E+04  0.12699999809E+01 0.  1.
       -4    1    3    3    0  502 -0.43778458408E+02 -0.11310046435E+04 -0.87801461332E+03  0.14324801329E+04  0.12699999809E+01 0. -1.
</event>
<event>
 5   0  0.4115143E-06  0.2908645E+04  0.7818609E-02  0.8270310E-01
        2   -1    0    0  501    0  0.00000000000E+00  0.00000000000E+00  0.13177396690E+04  0.13177396690E+04  0.25500000920E-02 0. -1.
       -2   -1    0    0    0  501  0.00000000000E+00  0.00000000000E+00 -0.16050616532E+04  0.16050616532E+04  0.25500000920E-02 0.  1.
    10030    2    1    2    0    0  0.00000000000E+00  0.00000000000E+00 -0.28732198426E+03  0.29228013222E+04  0.29086446408E+04 0.  0.
        1    1    3    3  502    0 -0.14294830813E+04  0.98033155615E+02  0.10659133509E+03  0.14367999486E+04  0.50400001928E-02 0. -1.
       -1    1    3    3    0  502  0.14294830813E+04 -0.98033155615E+02 -0.39391331934E+03  0.14860013737E+04  0.50400001928E-02 0.  1.
</event>
<event>
 5   0  0.1580212E-06  0.2895824E+04  0.7818609E-02  0.8274121E-01
       -1   -1    0    0    0  501  0.00000000000E+00  0.00000000000E+00  0.16914124839E+04  0.16914124839E+04  0.50400001928E-02 0.  1.
        1   -1    0    0  501    0  0.00000000000E+00  0.00000000000E+00 -0.12394664372E+04  0.12394664372E+04  0.50400001928E-02 0. -1.
    10030    2    1    2    0    0  0.00000000000E+00  0.00000000000E+00  0.45194604670E+03  0.29308789212E+04  0.28958238934E+04 0.  0.
        4    1    3    3  502    0 -0.96095904791E+03  0.90131560787E+03  0.83377181584E+03  0.15591629711E+04  0.12699999809E+01 0.  1.
       -4    1    3    3    0  502  0.96095904791E+03 -0.90131560787E+03 -0.38182576914E+03  0.13717159501E+04  0.12699999809E+01 0. -1.
</event>
<event>
 5   0  0.4148677E-06  0.2898564E+04  0.7818609E-02  0.8273305E-01
        2   -1    0    0  501    0  0.00000000000E+00  0.00000000000E+00  0.17371297652E+04  0.17371297652E+04  0.25500000920E-02 0. -1.
       -2   -1    0    0    0  501  0.00000000000E+00  0.00000000000E+00 -0.12091318290E+04  0.12091318290E+04  0.25500000920E-02 0.  1.
    10030    2    1    2    0    0  0.00000000000E+00  0.00000000000E+00  0.52799793624E+03  0.29462615942E+04  0.28985643966E+04 0.  0.
        5    1    3    3  502    0 -0.12383184434E+03  0.19704601155E+03 -0.11900068425E+04  0.12125592074E+04  0.46999998093E+01 0.  1.
       -5    1    3    3    0  502  0.12383184434E+03 -0.19704601155E+03  0.17180047787E+04  0.17337023868E+04  0.46999998093E+01 0. -1.
</event>
<event>
 5   0  0.1580212E-06  0.2877043E+04  0.7818609E-02  0.8279741E-01
       -1   -1    0    0    0  501  0.00000000000E+00  0.00000000000E+00  0.14376546372E+04  0.14376546372E+04  0.50400001928E-02 0.  1.
        1   -1    0    0  501    0  0.00000000000E+00  0.00000000000E+00 -0.14393892315E+04  0.14393892315E+04  0.50400001928E-02 0. -1.
    10030    2    1    2    0    0  0.00000000000E+00  0.00000000000E+00 -0.17345943243E+01  0.28770438687E+04  0.28770433458E+04 0.  0.
        4    1    3    3  502    0  0.49481650341E+03  0.15612330676E+03  0.13408203661E+04  0.14377130194E+04  0.12699999809E+01 0.  1.
       -4    1    3    3    0  502 -0.49481650341E+03 -0.15612330676E+03 -0.13425549605E+04  0.14393308493E+04  0.12699999809E+01 0. -1.
</event>
<event>
 5   0  0.1602873E-06  0.2898621E+04  0.7818609E-02  0.8273288E-01
        1   -1    0    0  501    0  0.00000000000E+00  0.00000000000E+00  0.19668563581E+04  0.19668563581E+04  0.50400001928E-02 0. -1.
       -1   -1    0    0    0  501  0.00000000000E+00  0.00000000000E+00 -0.10679479456E+04  0.10679479456E+04  0.50400001928E-02 0.  1.
    10030    2    1    2    0    0  0.00000000000E+00  0.00000000000E+00  0.89890841253E+03  0.30348043037E+04  0.28986205043E+04 0.  0.
        1    1    3    3  502    0  0.75918034534E+02  0.62512990929E+03 -0.91722837681E+03  0.11125910510E+04  0.50400001928E-02 0.  1.
       -1    1    3    3    0  502 -0.75918034534E+02 -0.62512990929E+03  0.18161367893E+04  0.19222132528E+04  0.50400001928E-02 0. -1.
</event>
<event>
 5   0  0.1543678E-06  0.2882009E+04  0.7818609E-02  0.8278251E-01
       -1   -1    0    0    0  501  0.00000000000E+00  0.00000000000E+00  0.19835418581E+04  0.19835418581E+04  0.50400001928E-02 0.  1.
        1   -1    0    0  501    0  0.00000000000E+00  0.00000000000E+00 -0.10468614400E+04  0.10468614400E+04  0.50400001928E-02 0. -1.
    10030    2    1    2    0    0  0.00000000000E+00  0.00000000000E+00  0.93668041817E+03  0.30304032981E+04  0.28820086647E+04 0.  0.
        3    1    3    3  502    0 -0.63245156601E+03 -0.61796526717E+03  0.16647387403E+04  0.18850016282E+04  0.10100000352E+00 0.  1.
       -3    1    3    3    0  502  0.63245156601E+03  0.61796526717E+03 -0.72805832212E+03  0.11454016699E+04  0.10100000352E+00 0. -1.
</event>
<event>
 5   0  0.1543678E-06  0.2914385E+04  0.7818609E-02  0.8268610E-01
        1   -1    0    0  501    0  0.00000000000E+00  0.00000000000E+00  0.20461058450E+04  0.20461058450E+04  0.50400001928E-02 0.  1.
       -1   -1    0    0    0  501  0.00000000000E+00  0.00000000000E+00 -0.10377813416E+04  0.10377813416E+04  0.50400001928E-02 0. -1.
    10030    2    1    2    0    0  0.00000000000E+00  0.00000000000E+00  0.10083245035E+04  0.30838871866E+04  0.29143853340E+04 0.  0.
        3    1    3    3  502    0  0.74201416838E+03  0.80827621858E+03 -0.51052199016E+03  0.12101769227E+04  0.10100000352E+00 0. -1.
       -3    1    3    3    0  502 -0.74201416838E+03 -0.80827621858E+03  0.15188464936E+04  0.18737102639E+04  0.10100000352E+00 0.  1.
</event>
<event>
 5   0  0.4148677E-06  0.2917249E+04  0.7818609E-02  0.8267764E-01
        2   -1    0    0  501    0  0.00000000000E+00  0.00000000000E+00  0.15423962093E+04  0.15423962093E+04  0.25500000920E-02 0.  1.
       -2   -1    0    0    0  501  0.00000000000E+00  0.00000000000E+00 -0.13794026575E+04  0.13794026575E+04  0.25500000920E-02 0. -1.
    10030    2    1    2    0    0  0.00000000000E+00  0.00000000000E+00  0.16299355180E+03  0.29217988668E+04  0.29172489986E+04 0.  0.
        5    1    3    3  502    0  0.30830397771E+03 -0.13966937431E+04  0.36787731423E+03  0.14768752699E+04  0.46999998093E+01 0. -1.
       -5    1    3    3    0  502 -0.30830397771E+03  0.13966937431E+04 -0.20488376243E+03  0.14449235969E+04  0.46999998093E+01 0.  1.
</event>
<event>
 5   0  0.4115143E-06  0.2888250E+04  0.7818609E-02  0.8276382E-01
        2   -1    0    0  501    0  0.00000000000E+00  0.00000000000E+00  0.22227225182E+04  0.22227225182E+04  0.25500000920E-02 0. -1.
       -2   -1    0    0    0  501  0.00000000000E+00  0.00000000000E+00 -0.93826220584E+03  0.93826220585E+03  0.25500000920E-02 0.  1.
    10030    2    1    2    0    0  0.00000000000E+00  0.00000000000E+00  0.12844603123E+04  0.31609847240E+04  0.28882496657E+04 0.  0.
        1    1    3    3  502    0  0.10885336782E+03  0.64512239226E+03  0.20512262624E+04  0.21530353310E+04  0.50400001928E-02 0. -1.
       -1    1    3    3    0  502 -0.10885336782E+03 -0.64512239226E+03 -0.76676595011E+03  0.10079493931E+04  0.50400001928E-02 0.  1.
</event>
<event>
 5   0  0.1580212E-06  0.2880009E+04  0.7818609E-02  0.8278850E-01
       -1   -1    0    0    0  501  0.00000000000E+00  0.00000000000E+00  0.27865854263E+04  0.27865854263E+04  0.50400001928E-02 0.  1.
        1   -1    0    0  501    0  0.00000000000E+00  0.00000000000E+00 -0.74414121809E+03  0.74414121811E+03  0.50400001928E-02 0. -1.
    10030    2    1    2    0    0  0.00000000000E+00  0.00000000000E+00  0.20424442082E+04  0.35307266444E+04  0.28800090788E+04 0.  0.
        4    1    3    3  502    0  0.68585141254E+03 -0.94320783631E+03  0.20568197362E+04  0.23644327486E+04  0.12699999809E+01 0.  1.
       -4    1    3    3    0  502 -0.68585141254E+03  0.94320783631E+03 -0.14375528036E+02  0.11662938958E+04  0.12699999809E+01 0. -1.
</event>
<event>
 5   0  0.1543678E-06  0.2892835E+04  0.7818609E-02  0.8275013E-01
       -1   -1    0    0    0  501  0.00000000000E+00  0.00000000000E+00  0.95457366005E+03  0.95457366007E+03  0.50400001928E-02 0.  1.
        1   -1    0    0  501    0  0.00000000000E+00  0.00000000000E+00 -0.21916832564E+04  0.21916832564E+04  0.50400001928E-02 0. -1.
    10030    2    1    2    0    0  0.00000000000E+00  0.00000000000E+00 -0.12371095964E+04  0.31462569165E+04  0.28928346705E+04 0.  0.
        3    1    3    3  502    0  0.95760104095E+03  0.95413339610E+03 -0.11781717423E+04  0.17931700856E+04  0.10100000352E+00 0. -1.
       -3    1    3    3    0  502 -0.95760104095E+03 -0.95413339610E+03 -0.58937854058E+02  0.13530868309E+04  0.10100000352E+00 0.  1.
</event>
<event>
 5   0  0.4148677E-06  0.2903903E+04  0.7818609E-02  0.8271717E-01
       -2   -1    0    0    0  501  0.00000000000E+00  0.00000000000E+00  0.93998354630E+03  0.93998354630E+03  0.25500000920E-02 0.  1.
        2   -1    0    0  501    0  0.00000000000E+00  0.00000000000E+00 -0.22427661783E+04  0.22427661783E+04  0.25500000920E-02 0. -1.
    10030    2    1    2    0    0  0.00000000000E+00  0.00000000000E+00 -0.13027826320E+04  0.31827497246E+04  0.29039031016E+04 0.  0.
        5    1    3    3  502    0 -0.12168599277E+04 -0.41404685362E+03 -0.13914786103E+04  0.18943119314E+04  0.46999998093E+01 0. -1.
       -5    1    3    3    0  502  0.12168599277E+04  0.41404685362E+03  0.88695978250E+02  0.12884377932E+04  0.46999998093E+01 0.  1.
</event>
<event>
 5   0  0.1511126E-06  0.2940275E+04  0.7818609E-02  0.8260994E-01
       -1   -1    0    0    0  501  0.00000000000E+00  0.00000000000E+00  0.11815769580E+04  0.11815769580E+04  0.50400001928E-02 0. -1.
        1   -1    0    0  501    0  0.00000000000E+00  0.00000000000E+00 -0.18291698501E+04  0.18291698501E+04  0.50400001928E-02 0.  1.
    10030    2    1    2    0    0  0.00000000000E+00  0.00000000000E+00 -0.64759289216E+03  0.30107468081E+04  0.29402754613E+04 0.  0.
        5    1    3    3  502    0 -0.10748726128E+04 -0.91459968528E+03 -0.74529208290E+03  0.15960344911E+04  0.46999998093E+01 0.  1.
       -5    1    3    3    0  502  0.10748726128E+04  0.91459968528E+03  0.97699190741E+02  0.14147123170E+04  0.46999998093E+01 0. -1.
</event>
<event>
 5   0  0.1543678E-06  0.2907420E+04  0.7818609E-02  0.8270673E-01
       -1   -1    0    0    0  501  0.00000000000E+00  0.00000000000E+00  0.11266191460E+04  0.11266191460E+04  0.50400001928E-02 0.  1.
        1   -1    0    0  501    0  0.00000000000E+00  0.00000000000E+00 -0.18757650391E+04  0.18757650391E+04  0.50400001928E-02 0. -1.
    10030    2    1    2    0    0  0.00000000000E+00  0.00000000000E+00 -0.74914589305E+03  0.30023841851E+04  0.29074200291E+04 0.  0.
        3    1    3    3  502    0 -0.95198470717E+03  0.16740754569E+03 -0.14958433189E+04  0.17809681114E+04  0.10100000352E+00 0. -1.
       -3    1    3    3    0  502  0.95198470717E+03 -0.16740754569E+03  0.74669742586E+03  0.12214160737E+04  0.10100000352E+00 0.  1.
</event>
<event>
 5   0  0.4224163E-06  0.2880701E+04  0.7818609E-02  0.8278643E-01
        2   -1    0    0  501    0  0.00000000000E+00  0.00000000000E+00  0.17239894002E+04  0.17239894002E+04  0.25500000920E-02 0. -1.
       -2   -1    0    0    0  501  0.00000000000E+00  0.00000000000E+00 -0.12033774767E+04  0.12033774767E+04  0.25500000920E-02 0.  1.
    10030    2    1    2    0    0  0.00000000000E+00  0.00000000000E+00  0.52061192346E+03  0.29273668769E+04  0.28807013134E+04 0.  0.
        4    1    3    3  502    0 -0.67910347434E+03  0.10953404620E+04  0.91388582616E+03  0.15799180905E+04  0.12699999809E+01 0. -1.
       -4    1    3    3    0  502  0.67910347434E+03 -0.10953404620E+04 -0.39327390270E+03  0.13474487864E+04  0.12699999809E+01 0.  1.
</event>
<event>
 5   0  0.4162450E-06  0.2901853E+04  0.7818609E-02  0.8272326E-01
        2   -1    0    0  501    0  0.00000000000E+00  0.00000000000E+00  0.18640057463E+04  0.18640057463E+04  0.25500000920E-02 0.  1.
       -2   -1    0    0    0  501  0.00000000000E+00  0.00000000000E+00 -0.11293889314E+04  0.11293889314E+04  0.25500000920E-02 0. -1.
    10030    2    1    2    0    0  0.00000000000E+00  0.00000000000E+00  0.73461681492E+03  0.29933946777E+04  0.29018528274E+04 0.  0.
        2    1    3    3  502    0  0.18568963385E+01  0.65300035483E+03  0.17038571062E+04  0.18247032498E+04  0.25500000920E-02 0.  1.
       -2    1    3    3    0  502 -0.18568963385E+01 -0.65300035483E+03 -0.96924029125E+03  0.11686914279E+04  0.25500000920E-02 0. -1.
</event>
<event>
 5   0  0.1550278E-06  0.2904731E+04  0.7818609E-02  0.8271471E-01
       -1   -1    0    0    0  501  0.00000000000E+00  0.00000000000E+00  0.98845536852E+03  0.98845536854E+03  0.50400001928E-02 0.  1.
        1   -1    0    0  501    0  0.00000000000E+00  0.00000000000E+00 -0.21340013935E+04  0.21340013935E+04  0.50400001928E-02 0. -1.
    10030    2    1    2    0    0  0.00000000000E+00  0.00000000000E+00 -0.11455460249E+04  0.31224567620E+04  0.29047307165E+04 0.  0.
        2    1    3    3  502    0  0.11473382209E+04 -0.60226580618E+02  0.38227710050E+03  0.12108459918E+04  0.25500000920E-02 0.  1.
       -2    1    3    3    0  502 -0.11473382209E+04  0.60226580618E+02 -0.15278231254E+04  0.19116107702E+04  0.25500000920E-02 0. -1.
</event>
<event>
 5   0  0.4162450E-06  0.2887370E+04  0.7818609E-02  0.8276645E-01
        2   -1    0    0  501    0  0.00000000000E+00  0.00000000000E+00  0.24078021297E+04  0.24078021297E+04  0.25500000920E-02 0.  1.
       -2   -1    0    0    0  501  0.00000000000E+00  0.00000000000E+00 -0.86561375756E+03  0.86561375756E+03  0.25500000920E-02 0. -1.
    10030    2    1    2    0    0  0.00000000000E+00  0.00000000000E+00  0.15421883721E+04  0.32734158872E+04  0.28873701868E+04 0.  0.
        2    1    3    3  502    0 -0.13462297061E+03  0.14242310081E+04  0.55105870109E+03  0.15330437048E+04  0.25500000920E-02 0. -1.
       -2    1    3    3    0  502  0.13462297061E+03 -0.14242310081E+04  0.99112967100E+03  0.17403721824E+04  0.25500000920E-02 0.  1.
</event>
<event>
 5   0  0.1550278E-06  0.2897939E+04  0.7818609E-02  0.8273491E-01
       -1   -1    0    0    0  501  0.00000000000E+00  0.00000000000E+00  0.95972776051E+03  0.95972776052E+03  0.50400001928E-02 0. -1.
        1   -1    0    0  501    0  0.00000000000E+00  0.00000000000E+00 -0.21876127837E+04  0.21876127837E+04  0.50400001928E-02 0.  1.
    10030    2    1    2    0    0  0.00000000000E+00  0.00000000000E+00 -0.12278850232E+04  0.31473405443E+04  0.28979390731E+04 0.  0.
        2    1    3    3  502    0  0.49205776051E+01 -0.42667420282E+03 -0.21178291786E+04  0.21603878164E+04  0.25500000920E-02 0.  1.
       -2    1    3    3    0  502 -0.49205776051E+01  0.42667420282E+03  0.88994415536E+03  0.98695272789E+03  0.25500000920E-02 0. -1.
</event>
<event>
 5   0  0.1543678E-06  0.2879335E+04  0.7818609E-02  0.8279053E-01
        1   -1    0    0  501    0  0.00000000000E+00  0.00000000000E+00  0.13437917355E+04  0.13437917356E+04  0.50400001928E-02 0. -1.
       -1   -1    0    0    0  501  0.00000000000E+00  0.00000000000E+00 -0.15423835338E+04  0.15423835338E+04  0.50400001928E-02 0.  1.
    10030    2    1    2    0    0  0.00000000000E+00  0.00000000000E+00 -0.19859179822E+03  0.28861752693E+04  0.28793348161E+04 0.  0.
        3    1    3    3  502    0  0.45704991391E+03  0.10799796326E+04  0.73778780994E+03  0.13854896222E+04  0.10100000352E+00 0. -1.
       -3    1    3    3    0  502 -0.45704991391E+03 -0.10799796326E+04 -0.93637960816E+03  0.15006856471E+04  0.10100000352E+00 0.  1.
</event>
<event>
 5   0  0.4162450E-06  0.2918328E+04  0.7818609E-02  0.8267445E-01
        2   -1    0    0  501    0  0.00000000000E+00  0.00000000000E+00  0.14296793501E+04  0.14296793501E+04  0.25500000920E-02 0. -1.
       -2   -1    0    0    0  501  0.00000000000E+00  0.00000000000E+00 -0.14892563601E+04  0.14892563601E+04  0.25500000920E-02 0.  1.
    10030    2    1    2    0    0  0.00000000000E+00  0.00000000000E+00 -0.59577009983E+02  0.29189357101E+04  0.29183276478E+04 0.  0.
        2    1    3    3  502    0  0.63221183356E+02 -0.14474006454E+04 -0.20358753319E+03  0.14630151845E+04  0.25500000920E-02 0. -1.
       -2    1    3    3    0  502 -0.63221183356E+02  0.14474006454E+04  0.14401052321E+03  0.14559205257E+04  0.25500000920E-02 0.  1.
</event>
<event>
 5   0  0.4224163E-06  0.2894939E+04  0.7818609E-02  0.8274385E-01
       -2   -1    0    0    0  501  0.00000000000E+00  0.00000000000E+00  0.14753290185E+04  0.14753290185E+04  0.25500000920E-02 0. -1.
        2   -1    0    0  501    0  0.00000000000E+00  0.00000000000E+00 -0.14201362569E+04  0.14201362569E+04  0.25500000920E-02 0.  1.
    10030    2    1    2    0    0  0.00000000000E+00  0.00000000000E+00  0.55192761535E+02  0.28954652754E+04  0.28949391911E+04 0.  0.
        4    1    3    3  502    0 -0.61696505715E+03  0.33820821066E+03  0.12927910557E+04  0.14718495175E+04  0.12699999809E+01 0. -1.
       -4    1    3    3    0  502  0.61696505715E+03 -0.33820821066E+03 -0.12375982942E+04  0.14236157579E+04  0.12699999809E+01 0.  1.
</event>
<event>
 5   0  0.4115143E-06  0.2915387E+04  0.7818609E-02  0.8268314E-01
       -2   -1    0    0    0  501  0.00000000000E+00  0.00000000000E+00  0.11560915090E+04  0.11560915090E+04  0.25500000920E-02 0. -1.
        2   -1    0    0  501    0  0.00000000000E+00  0.00000000000E+00 -0.18379771076E+04  0.18379771076E+04  0.25500000920E-02 0.  1.
    10030    2    1    2    0    0  0.00000000000E+00  0.00000000000E+00 -0.68188559860E+03  0.29940686167E+04  0.29153865801E+04 0.  0.
        1    1    3    3  502    0  0.87284233094E+03 -0.36250791097E+03 -0.14806706094E+04  0.17566021672E+04  0.50400001928E-02 0.  1.
       -1    1    3    3    0  502 -0.87284233094E+03  0.36250791097E+03  0.79878501076E+03  0.12374664495E+04  0.50400001928E-02 0. -1.
</event>
<event>
 5   0  0.4115143E-06  0.2895971E+04  0.7818609E-02  0.8274077E-01
       -2   -1    0    0    0  501  0.00000000000E+00  0.00000000000E+00  0.15429815206E+04  0.15429815206E+04  0.25500000920E-02 0.  1.
        2   -1    0    0  501    0  0.00000000000E+00  0.00000000000E+00 -0.13588380222E+04  0.13588380222E+04  0.25500000920E-02 0. -1.
    10030    2    1    2    0    0  0.00000000000E+00  0.00000000000E+00  0.18414349836E+03  0.29018195429E+04  0.28959709652E+04 0.  0.
        1    1    3    3  502    0  0.98784692201E+03 -0.10474007960E+04 -0.62421305084E+02  0.14411059600E+04  0.50400001928E-02 0.  1.
       -1    1    3    3    0  502 -0.98784692201E+03  0.10474007960E+04  0.24656480345E+03  0.14607135828E+04  0.50400001928E-02 0. -1.
</event>
<event>
 5   0  0.1550278E-06  0.2914900E+04  0.7818609E-02  0.8268458E-01
        1   -1    0    0  501    0  0.00000000000E+00  0.00000000000E+00  0.23260709029E+04  0.23260709029E+04  0.50400001928E-02 0.  1.
       -1   -1    0    0    0  501  0.00000000000E+00  0.00000000000E+00 -0.91319654843E+03  0.91319654844E+03  0.50400001928E-02 0. -1.
    10030    2    1    2    0    0  0.00000000000E+00  0.00000000000E+00  0.14128743545E+04  0.32392674514E+04  0.29148996003E+04 0.  0.
        2    1    3    3  502    0  0.32020633524E+03  0.13439758764E+04  0.19073096087E+03  0.13946976565E+04  0.25500000920E-02 0. -1.
       -2    1    3    3    0  502 -0.32020633524E+03 -0.13439758764E+04  0.12221433936E+04  0.18445697949E+04  0.25500000920E-02 0.  1.
</event>
<event>
 5   0  0.1550278E-06  0.2881608E+04  0.7818609E-02  0.8278371E-01
       -1   -1    0    0    0  501  0.00000000000E+00  0.00000000000E+00  0.11026437654E+04  0.11026437654E+04  0.50400001928E-02 0.  1.
        1   -1    0    0  501    0  0.00000000000E+00  0.00000000000E+00 -0.18826722330E+04  0.18826722330E+04  0.50400001928E-02 0. -1.
    10030    2    1    2    0    0  0.00000000000E+00  0.00000000000E+00 -0.78002846762E+03  0.29853159984E+04  0.28816084397E+04 0.  0.
        2    1    3    3  502    0 -0.95038231411E+03  0.10828043349E+04 -0.40555508745E+03  0.14967186441E+04  0.25500000920E-02 0. -1.
       -2    1    3    3    0  502  0.95038231411E+03 -0.10828043349E+04 -0.37447338017E+03  0.14885973543E+04  0.25500000920E-02 0.  1.
</event>
<event>
 5   0  0.4115143E-06  0.2907133E+04  0.7818609E-02  0.8270758E-01
       -2   -1    0    0    0  501  0.00000000000E+00  0.00000000000E+00  0.91849793368E+03  0.91849793368E+03  0.25500000920E-02 0.  1.
        2   -1    0    0  501    0  0.00000000000E+00  0.00000000000E+00 -0.23003376721E+04  0.23003376721E+04  0.25500000920E-02 0. -1.
    10030    2    1    2    0    0  0.00000000000E+00  0.00000000000E+00 -0.13818397384E+04  0.32188356058E+04  0.29071328821E+04 0.  0.
        1    1    3    3  502    0  0.10565512777E+04  0.99279286590E+03 -0.80660778215E+03  0.16590823944E+04  0.50400001928E-02 0. -1.
       -1    1    3    3    0  502 -0.10565512777E+04 -0.99279286590E+03 -0.57523195628E+03  0.15597532114E+04  0.50400001928E-02 0.  1.
</event>
<event>
 5   0  0.4148677E-06  0.2896905E+04  0.7818609E-02  0.8273799E-01
       -2   -1    0    0    0  501  0.00000000000E+00  0.00000000000E+00  0.11956290438E+04  0.11956290438E+04  0.25500000920E-02 0.  1.
        2   -1    0    0  501    0  0.00000000000E+00  0.00000000000E+00 -0.17547373761E+04  0.17547373761E+04  0.25500000920E-02 0. -1.
    10030    2    1    2    0    0  0.00000000000E+00  0.00000000000E+00 -0.55910833232E+03  0.29503664199E+04  0.28969052253E+04 0.  0.
        5    1    3    3  502    0 -0.10667415468E+04  0.33179310649E+03  0.65939727480E+03  0.12972474896E+04  0.46999998093E+01 0.  1.
       -5    1    3    3    0  502  0.10667415468E+04 -0.33179310649E+03 -0.12185056071E+04  0.16531189303E+04  0.46999998093E+01 0. -1.
</event>
<event>
 5   0  0.4224163E-06  0.2865832E+04  0.7818609E-02  0.8283117E-01
       -2   -1    0    0    0  501  0.00000000000E+00  0.00000000000E+00  0.72656681076E+03  0.72656681076E+03  0.25500000920E-02 0. -1.
        2   -1    0    0  501    0  0.00000000000E+00  0.00000000000E+00 -0.28259592671E+04  0.28259592671E+04  0.25500000920E-02 0.  1.
    10030    2    1    2    0    0  0.00000000000E+00  0.00000000000E+00 -0.20993924564E+04  0.35525260779E+04  0.28658319644E+04 0.  0.
        4    1    3    3  502    0  0.11078432539E+03 -0.14278562502E+04 -0.11078387757E+04  0.18106228221E+04  0.12699999809E+01 0. -1.
       -4    1    3    3    0  502 -0.11078432539E+03  0.14278562502E+04 -0.99155368066E+03  0.17419032558E+04  0.12699999809E+01 0.  1.
</event>
<event>
 5   0  0.1602873E-06  0.2906473E+04  0.7818609E-02  0.8270954E-01
        1   -1    0    0  501    0  0.00000000000E+00  0.00000000000E+00  0.22133565915E+04  0.22133565915E+04  0.50400001928E-02 0. -1.
       -1   -1    0    0    0  501  0.00000000000E+00  0.00000000000E+00 -0.95416006766E+03  0.95416006767E+03  0.50400001928E-02 0.  1.
    10030    2    1    2    0    0  0.00000000000E+00  0.00000000000E+00  0.12591965238E+04  0.31675166591E+04  0.29064731033E+04 0.  0.
        1    1    3    3  502    0  0.10994300319E+04 -0.94411716623E+03  0.51124993928E+03  0.15367108118E+04  0.50400001928E-02 0. -1.
       -1    1    3    3    0  502 -0.10994300319E+04  0.94411716623E+03  0.74794658452E+03  0.16308058474E+04  0.50400001928E-02 0.  1.
</event>
<event>
 5   0  0.4187518E-06  0.2888908E+04  0.7818609E-02  0.8276185E-01
       -2   -1    0    0    0  501  0.00000000000E+00  0.00000000000E+00  0.81738514588E+03  0.81738514588E+03  0.25500000920E-02 0. -1.
        2   -1    0    0  501    0  0.00000000000E+00  0.00000000000E+00 -0.25525872270E+04  0.25525872270E+04  0.25500000920E-02 0.  1.
    10030    2    1    2    0    0  0.00000000000E+00  0.00000000000E+00 -0.17352020811E+04  0.33699723729E+04  0.28889076710E+04 0.  0.
        3    1    3    3  502    0  0.88168811669E+03  0.50587898547E+03 -0.20647266748E+04  0.23013873500E+04  0.10100000352E+00 0.  1.
       -3    1    3    3    0  502 -0.88168811669E+03 -0.50587898547E+03  0.32952459367E+03  0.10685850229E+04  0.10100000352E+00 0. -1.
</event>
<event>
 5   0  0.4115143E-06  0.2864784E+04  0.7818609E-02  0.8283433E-01
       -2   -1    0    0    0  501  0.00000000000E+00  0.00000000000E+00  0.80534092867E+03  0.80534092867E+03  0.25500000920E-02 0. -1.
        2   -1    0    0  501    0  0.00000000000E+00  0.00000000000E+00 -0.25476739980E+04  0.25476739980E+04  0.25500000920E-02 0.  1.
    10030    2    1    2    0    0  0.00000000000E+00  0.00000000000E+00 -0.17423330693E+04  0.33530149266E+04  0.28647835126E+04 0.  0.
        1    1    3    3  502    0 -0.13308800464E+04  0.52914012711E+03 -0.89773212684E+03  0.16903117889E+04  0.50400001928E-02 0. -1.
       -1    1    3    3    0  502  0.13308800464E+04 -0.52914012711E+03 -0.84460094245E+03  0.16627031377E+04  0.50400001928E-02 0.  1.
</event>
<event>
 5   0  0.1580212E-06  0.2923125E+04  0.7818609E-02  0.8266030E-01
        1   -1    0    0  501    0  0.00000000000E+00  0.00000000000E+00  0.18549164800E+04  0.18549164800E+04  0.50400001928E-02 0. -1.
       -1   -1    0    0    0  501  0.00000000000E+00  0.00000000000E+00 -0.11516236045E+04  0.11516236045E+04  0.50400001928E-02 0.  1.
    10030    2    1    2    0    0  0.00000000000E+00  0.00000000000E+00  0.70329287545E+03  0.30065400845E+04  0.29231254525E+04 0.  0.
        4    1    3    3  502    0 -0.11517735241E+03 -0.12877471671E+04 -0.34942402684E+03  0.13392749353E+04  0.12699999809E+01 0.  1.
       -4    1    3    3    0  502  0.11517735241E+03  0.12877471671E+04  0.10527169023E+04  0.16672651493E+04  0.12699999809E+01 0. -1.
</event>
<event>
 5   0  0.4187518E-06  0.2724782E+04  0.7818609E-02  0.8327009E-01
        2   -1    0    0  501    0  0.00000000000E+00  0.00000000000E+00  0.11575400219E+04  0.11575400219E+04  0.25500000920E-02 0. -1.
       -2   -1    0    0    0  501  0.00000000000E+00  0.00000000000E+00 -0.16034947536E+04  0.16034947536E+04  0.25500000920E-02 0.  1.
    10030    2    1    2    0    0  0.00000000000E+00  0.00000000000E+00 -0.44595473173E+03  0.27610347755E+04  0.27247820847E+04 0.  0.
        3    1    3    3  502    0 -0.26194413235E+02  0.97835435936E+03  0.73739075092E+03  0.12254013749E+04  0.10100000352E+00 0. -1.
       -3    1    3    3    0  502  0.26194413235E+02 -0.97835435936E+03 -0.11833454827E+04  0.15356334007E+04  0.10100000352E+00 0.  1.
</event>
<event>
 5   0  0.4115143E-06  0.2914044E+04  0.7818609E-02  0.8268711E-01
       -2   -1    0    0    0  501  0.00000000000E+00  0.00000000000E+00  0.12924195740E+04  0.12924195740E+04  0.25500000920E-02 0. -1.
        2   -1    0    0  501    0  0.00000000000E+00  0.00000000000E+00 -0.16425877596E+04  0.16425877596E+04  0.25500000920E-02 0.  1.
    10030    2    1    2    0    0  0.00000000000E+00  0.00000000000E+00 -0.35016818561E+03  0.29350073336E+04  0.29140436322E+04 0.  0.
        1    1    3    3  502    0 -0.36708938768E+03  0.32991459076E+03  0.12056589121E+04  0.13027707657E+04  0.50400001928E-02 0. -1.
       -1    1    3    3    0  502  0.36708938768E+03 -0.32991459076E+03 -0.15558270977E+04  0.16322365679E+04  0.50400001928E-02 0.  1.
</event>
<event>
 5   0  0.1550278E-06  0.2895825E+04  0.7818609E-02  0.8274121E-01
       -1   -1    0    0    0  501  0.00000000000E+00  0.00000000000E+00  0.96866626304E+03  0.96866626306E+03  0.50400001928E-02 0.  1.
        1   -1    0    0  501    0  0.00000000000E+00  0.00000000000E+00 -0.21642655732E+04  0.21642655732E+04  0.50400001928E-02 0. -1.
    10030    2    1    2    0    0  0.00000000000E+00  0.00000000000E+00 -0.11955993102E+04  0.31329318363E+04  0.28958253021E+04 0.  0.
        2    1    3    3  502    0  0.25092565474E+02 -0.14253384232E+04 -0.87199090509E+03  0.16711036462E+04  0.25500000920E-02 0.  1.
       -2    1    3    3    0  502 -0.25092565474E+02  0.14253384232E+04 -0.32360840510E+03  0.14618281901E+04  0.25500000920E-02 0. -1.
</event>
<event>
 5   0  0.4148677E-06  0.2896087E+04  0.7818609E-02  0.8274043E-01
       -2   -1    0    0    0  501  0.00000000000E+00  0.00000000000E+00  0.11880647122E+04  0.11880647122E+04  0.25500000920E-02 0. -1.
        2   -1    0    0  501    0  0.00000000000E+00  0.00000000000E+00 -0.17649123194E+04  0.17649123194E+04  0.25500000920E-02 0.  1.
    10030    2    1    2    0    0  0.00000000000E+00  0.00000000000E+00 -0.57684760724E+03  0.29529770316E+04  0.28960870476E+04 0.  0.
        5    1    3    3  502    0  0.13529030596E+04  0.19485214360E+03 -0.77582408174E+03  0.15716994440E+04  0.46999998093E+01 0.  1.
       -5    1    3    3    0  502 -0.13529030596E+04 -0.19485214360E+03  0.19897647451E+03  0.13812775876E+04  0.46999998093E+01 0. -1.
</event>
<event>
 5   0  0.1602873E-06  0.2848052E+04  0.7818609E-02  0.8288504E-01
       -1   -1    0    0    0  501  0.00000000000E+00  0.00000000000E+00  0.11707447153E+04  0.11707447153E+04  0.50400001928E-02 0. -1.
        1   -1    0    0  501    0  0.00000000000E+00  0.00000000000E+00 -0.17321021770E+04  0.17321021770E+04  0.50400001928E-02 0.  1.
    10030    2    1    2    0    0  0.00000000000E+00  0.00000000000E+00 -0.56135746169E+03  0.29028468923E+04  0.28480515936E+04 0.  0.
        1    1    3    3  502    0  0.23962104554E+03 -0.37886348768E+03  0.10969522933E+04  0.11850148192E+04  0.50400001928E-02 0. -1.
       -1    1    3    3    0  502 -0.23962104554E+03  0.37886348768E+03 -0.16583097550E+04  0.17178320731E+04  0.50400001928E-02 0.  1.
</event>
<event>
 5   0  0.4115143E-06  0.2914627E+04  0.7818609E-02  0.8268539E-01
       -2   -1    0    0    0  501  0.00000000000E+00  0.00000000000E+00  0.11685067687E+04  0.11685067687E+04  0.25500000920E-02 0.  1.
        2   -1    0    0  501    0  0.00000000000E+00  0.00000000000E+00 -0.18175009163E+04  0.18175009163E+04  0.25500000920E-02 0. -1.
    10030    2    1    2    0    0  0.00000000000E+00  0.00000000000E+00 -0.64899414759E+03  0.29860076849E+04  0.29146266469E+04 0.  0.
        1    1    3    3  502    0 -0.12482523349E+04  0.45121625637E+03  0.29192976937E+03  0.13590264868E+04  0.50400001928E-02 0. -1.
       -1    1    3    3    0  502  0.12482523349E+04 -0.45121625637E+03 -0.94092391696E+03  0.16269811981E+04  0.50400001928E-02 0.  1.
</event>
<event>
 5   0  0.4162450E-06  0.2899013E+04  0.7818609E-02  0.8273171E-01
       -2   -1    0    0    0  501  0.00000000000E+00  0.00000000000E+00  0.14848040521E+04  0.14848040521E+04  0.25500000920E-02 0. -1.
        2   -1    0    0  501    0  0.00000000000E+00  0.00000000000E+00 -0.14150475793E+04  0.14150475793E+04  0.25500000920E-02 0.  1.
    10030    2    1    2    0    0  0.00000000000E+00  0.00000000000E+00  0.69756472732E+02  0.28998516314E+04  0.28990125075E+04 0.  0.
        2    1    3    3  502    0  0.75413838374E+03 -0.91905647612E+03 -0.79462584964E+03  0.14299719400E+04  0.25500000920E-02 0. -1.
       -2    1    3    3    0  502 -0.75413838374E+03  0.91905647612E+03  0.86438232237E+03  0.14698796915E+04  0.25500000920E-02 0.  1.
</event>
<event>
 5   0  0.1360125E-06  0.2899541E+04  0.7818609E-02  0.8273014E-01
       -3   -1    0    0    0  501  0.00000000000E+00  0.00000000000E+00  0.19963126624E+04  0.19963126649E+04  0.10100000352E+00 0. -1.
        3   -1    0    0  501    0  0.00000000000E+00  0.00000000000E+00 -0.10528586549E+04  0.10528586598E+04  0.10100000352E+00 0.  1.
    10030    2    1    2    0    0  0.00000000000E+00  0.00000000000E+00  0.94345400747E+03  0.30491713247E+04  0.28995413953E+04 0.  0.
        4    1    3    3  502    0 -0.25557713029E+03 -0.35257806432E+03 -0.98245730661E+03  0.10746417697E+04  0.12699999809E+01 0.  1.
       -4    1    3    3    0  502  0.25557713029E+03  0.35257806432E+03  0.19259113141E+04  0.19745295550E+04  0.12699999809E+01 0. -1.
</event>
<event>
 5   0  0.1543678E-06  0.2785274E+04  0.7818609E-02  0.8307855E-01
       -1   -1    0    0    0  501  0.00000000000E+00  0.00000000000E+00  0.11135160025E+04  0.11135160025E+04  0.50400001928E-02 0. -1.
        1   -1    0    0  501    0  0.00000000000E+00  0.00000000000E+00 -0.17417236322E+04  0.17417236322E+04  0.50400001928E-02 0.  1.
    10030    2    1    2    0    0  0.00000000000E+00  0.00000000000E+00 -0.62820762974E+03  0.28552396347E+04  0.27852735136E+04 0.  0.
        3    1    3    3  502    0  0.53768582574E+03  0.76915360856E+03 -0.13688989170E+04  0.16596950249E+04  0.10100000352E+00 0.  1.
       -3    1    3    3    0  502 -0.53768582574E+03 -0.76915360856E+03  0.74069128721E+03  0.11955446098E+04  0.10100000352E+00 0. -1.
</event>
<event>
 5   0  0.4187518E-06  0.2906995E+04  0.7818609E-02  0.8270799E-01
        2   -1    0    0  501    0  0.00000000000E+00  0.00000000000E+00  0.23570692717E+04  0.23570692717E+04  0.25500000920E-02 0.  1.
       -2   -1    0    0    0  501  0.00000000000E+00  0.00000000000E+00 -0.89630602407E+03  0.89630602407E+03  0.25500000920E-02 0. -1.
    10030    2    1    2    0    0  0.00000000000E+00  0.00000000000E+00  0.14607632476E+04  0.32533752958E+04  0.29069952786E+04 0.  0.
        3    1    3    3  502    0 -0.46152165706E+03 -0.13745062618E+04  0.84443474451E+03  0.16778974198E+04  0.10100000352E+00 0. -1.
       -3    1    3    3    0  502  0.46152165706E+03  0.13745062618E+04  0.61632850313E+03  0.15754778759E+04  0.10100000352E+00 0.  1.
</event>
<event>
 5   0  0.4148677E-06  0.2902737E+04  0.7818609E-02  0.8272063E-01
        2   -1    0    0  501    0  0.00000000000E+00  0.00000000000E+00  0.87924520936E+03  0.87924520936E+03  0.25500000920E-02 0. -1.
       -2   -1    0    0    0  501  0.00000000000E+00  0.00000000000E+00 -0.23957720330E+04  0.23957720330E+04  0.25500000920E-02 0.  1.
    10030    2    1    2    0    0  0.00000000000E+00  0.00000000000E+00 -0.15165268236E+04  0.32750172423E+04  0.29027373858E+04 0.  0.
        5    1    3    3  502    0  0.86210215684E+03 -0.92586370457E+03  0.44307401615E+02  0.12658708323E+04  0.46999998093E+01 0. -1.
       -5    1    3    3    0  502 -0.86210215684E+03  0.92586370457E+03 -0.15608342252E+04  0.20091464100E+04  0.46999998093E+01 0.  1.
</event>
<event>
 5   0  0.1360125E-06  0.2961865E+04  0.7818609E-02  0.8254705E-01
       -3   -1    0    0    0  501  0.00000000000E+00  0.00000000000E+00  0.10082507979E+04  0.10082508029E+04  0.10100000352E+00 0. -1.
        3   -1    0    0  501    0  0.00000000000E+00  0.00000000000E+00 -0.21752143355E+04  0.21752143378E+04  0.10100000352E+00 0.  1.
    10030    2    1    2    0    0  0.00000000000E+00  0.00000000000E+00 -0.11669635376E+04  0.31834651407E+04  0.29618653589E+04 0.  0.
        4    1    3    3  502    0 -0.43360901220E+03 -0.99488815861E+03 -0.16665122948E+04  0.19887393156E+04  0.12699999809E+01 0.  1.
       -4    1    3    3    0  502  0.43360901220E+03  0.99488815861E+03  0.49954875720E+03  0.11947258252E+04  0.12699999809E+01 0. -1.
</event>
<event>
 5   0  0.4115143E-06  0.2894306E+04  0.7818609E-02  0.8274574E-01
        2   -1    0    0  501    0  0.00000000000E+00  0.00000000000E+00  0.22466066041E+04  0.22466066042E+04  0.25500000920E-02 0. -1.
       -2   -1    0    0    0  501  0.00000000000E+00  0.00000000000E+00 -0.93218447915E+03  0.93218447916E+03  0.25500000920E-02 0.  1.
    10030    2    1    2    0    0  0.00000000000E+00  0.00000000000E+00  0.13144221250E+04  0.31787910833E+04  0.28943060012E+04 0.  0.
        1    1    3    3  502    0  0.99496150068E+03 -0.14719789340E+02  0.18112464850E+04  0.20665862889E+04  0.50400001928E-02 0. -1.
       -1    1    3    3    0  502 -0.99496150068E+03  0.14719789340E+02 -0.49682435999E+03  0.11122047944E+04  0.50400001928E-02 0.  1.
</event>
<event>
 5   0  0.1602873E-06  0.2890301E+04  0.7818609E-02  0.8275769E-01
        1   -1    0    0  501    0  0.00000000000E+00  0.00000000000E+00  0.10866422421E+04  0.10866422421E+04  0.50400001928E-02 0.  1.
       -1   -1    0    0    0  501  0.00000000000E+00  0.00000000000E+00 -0.19219387454E+04  0.19219387454E+04  0.50400001928E-02 0. -1.
    10030    2    1    2    0    0  0.00000000000E+00  0.00000000000E+00 -0.83529650326E+03  0.30085809875E+04  0.28903009030E+04 0.  0.
        1    1    3    3  502    0  0.22402948441E+03 -0.18351651290E+03  0.10561284199E+04  0.10951140396E+04  0.50400001928E-02 0.  1.
       -1    1    3    3    0  502 -0.22402948441E+03  0.18351651290E+03 -0.18914249232E+04  0.19134669478E+04  0.50400001928E-02 0. -1.
</event>
<event>
 5   0  0.4187518E-06  0.2883620E+04  0.7818609E-02  0.8277768E-01
       -2   -1    0    0    0  501  0.00000000000E+00  0.00000000000E+00  0.14580867845E+04  0.14580867845E+04  0.25500000920E-02 0.  1.
        2   -1    0    0  501    0  0.00000000000E+00  0.00000000000E+00 -0.14257144331E+04  0.14257144331E+04  0.25500000920E-02 0. -1.
    10030    2    1    2    0    0  0.00000000000E+00  0.00000000000E+00  0.32372351457E+02  0.28838012176E+04  0.28836195126E+04 0.  0.
        3    1    3    3  502    0 -0.13897985500E+04 -0.11683346200E+03  0.38175714909E+03  0.14460043563E+04  0.10100000352E+00 0.  1.
       -3    1    3    3    0  502  0.13897985500E+04  0.11683346200E+03 -0.34938479763E+03  0.14377968613E+04  0.10100000352E+00 0. -1.
</event>
<event>
 5   0  0.4224163E-06  0.2885270E+04  0.7818609E-02  0.8277274E-01
       -2   -1    0    0    0  501  0.00000000000E+00  0.00000000000E+00  0.13831062620E+04  0.13831062620E+04  0.25500000920E-02 0. -1.
        2   -1    0    0  501    0  0.00000000000E+00  0.00000000000E+00 -0.15047259795E+04  0.15047259795E+04  0.25500000920E-02 0.  1.
    10030    2    1    2    0    0  0.00000000000E+00  0.00000000000E+00 -0.12161971741E+03  0.28878322415E+04  0.28852701259E+04 0.  0.
        4    1    3    3  502    0  0.72080484300E+03 -0.43979046938E+03 -0.12315575109E+04  0.14932216159E+04  0.12699999809E+01 0.  1.
       -4    1    3    3    0  502 -0.72080484300E+03  0.43979046938E+03  0.11099377935E+04  0.13946106256E+04  0.12699999809E+01 0. -1.
</event>
<event>
 5   0  0.4162450E-06  0.2816101E+04  0.7818609E-02  0.8298287E-01
        2   -1    0    0  501    0  0.00000000000E+00  0.00000000000E+00  0.29854260056E+04  0.29854260056E+04  0.25500000920E-02 0. -1.
       -2   -1    0    0    0  501  0.00000000000E+00  0.00000000000E+00 -0.66409478592E+03  0.66409478593E+03  0.25500000920E-02 0.  1.
    10030    2    1    2    0    0  0.00000000000E+00  0.00000000000E+00  0.23213312197E+04  0.36495207916E+04  0.28161007398E+04 0.  0.
        2    1    3    3  502    0 -0.94526267740E+03  0.86838350525E+03  0.41058760444E+03  0.13476622805E+04  0.25500000920E-02 0.  1.
       -2    1    3    3    0  502  0.94526267740E+03 -0.86838350525E+03  0.19107436153E+04  0.23018585110E+04  0.25500000920E-02 0. -1.
</event>
<event>
 5   0  0.4162450E-06  0.2912147E+04  0.7818609E-02  0.8269273E-01
       -2   -1    0    0    0  501  0.00000000000E+00  0.00000000000E+00  0.11224721019E+04  0.11224721019E+04  0.25500000920E-02 0. -1.
        2   -1    0    0  501    0  0.00000000000E+00  0.00000000000E+00 -0.18888217445E+04  0.18888217445E+04  0.25500000920E-02 0.  1.
    10030    2    1    2    0    0  0.00000000000E+00  0.00000000000E+00 -0.76634964260E+03  0.30112938463E+04  0.29121467776E+04 0.  0.
        2    1    3    3  502    0  0.12856036433E+04 -0.68298963988E+03 -0.35218555283E+03  0.14977604079E+04  0.25500000920E-02 0.  1.
       -2    1    3    3    0  502 -0.12856036433E+04  0.68298963988E+03 -0.41416408976E+03  0.15135334384E+04  0.25500000920E-02 0. -1.
</event>
<event>
 5   0  0.4115143E-06  0.2875429E+04  0.7818609E-02  0.8280226E-01
       -2   -1    0    0    0  501  0.00000000000E+00  0.00000000000E+00  0.15103144103E+04  0.15103144103E+04  0.25500000920E-02 0.  1.
        2   -1    0    0  501    0  0.00000000000E+00  0.00000000000E+00 -0.13686047656E+04  0.13686047656E+04  0.25500000920E-02 0. -1.
    10030    2    1    2    0    0  0.00000000000E+00  0.00000000000E+00  0.14170964464E+03  0.28789191759E+04  0.28754293589E+04 0.  0.
        1    1    3    3  502    0  0.40508107743E+03  0.10189522124E+04  0.10018592937E+04  0.14852866170E+04  0.50400001928E-02 0.  1.
       -1    1    3    3    0  502 -0.40508107743E+03 -0.10189522124E+04 -0.86014964902E+03  0.13936325589E+04  0.50400001928E-02 0. -1.
</event>
<event>
 5   0  0.1360125E-06  0.2890252E+04  0.7818609E-02  0.8275784E-01
        3   -1    0    0  501    0  0.00000000000E+00  0.00000000000E+00  0.11281096264E+04  0.11281096309E+04  0.10100000352E+00 0.  1.
       -3   -1    0    0    0  501  0.00000000000E+00  0.00000000000E+00 -0.18512295089E+04  0.18512295117E+04  0.10100000352E+00 0. -1.
    10030    2    1    2    0    0  0.00000000000E+00  0.00000000000E+00 -0.72311988252E+03  0.29793391426E+04  0.28902524738E+04 0.  0.
        4    1    3    3  502    0 -0.11912658091E+04  0.35576275850E+03 -0.11209533377E+04  0.16739830842E+04  0.12699999809E+01 0. -1.
       -4    1    3    3    0  502  0.11912658091E+04 -0.35576275850E+03  0.39783345514E+03  0.13053560584E+04  0.12699999809E+01 0.  1.
</event>
<event>
 5   0  0.1602873E-06  0.2929501E+04  0.7818609E-02  0.8264154E-01
        1   -1    0    0  501    0  0.00000000000E+00  0.00000000000E+00  0.20044569259E+04  0.20044569259E+04  0.50400001928E-02 0. -1.
       -1   -1    0    0    0  501  0.00000000000E+00  0.00000000000E+00 -0.10703614612E+04  0.10703614612E+04  0.50400001928E-02 0.  1.
    10030    2    1    2    0    0  0.00000000000E+00  0.00000000000E+00  0.93409546465E+03  0.30748183871E+04  0.29295006019E+04 0.  0.
        1    1    3    3  502    0 -0.59064744029E+03 -0.93965557545E+03  0.14703275877E+04  0.18421944019E+04  0.50400001928E-02 0. -1.
       -1    1    3    3    0  502  0.59064744029E+03  0.93965557545E+03 -0.53623212303E+03  0.12326239852E+04  0.50400001928E-02 0.  1.
</event>
<event>
 5   0  0.4115143E-06  0.2916720E+04  0.7818609E-02  0.8267920E-01
        2   -1    0    0  501    0  0.00000000000E+00  0.00000000000E+00  0.12560164370E+04  0.12560164370E+04  0.25500000920E-02 0.  1.
       -2   -1    0    0    0  501  0.00000000000E+00  0.00000000000E+00 -0.16933008428E+04  0.16933008428E+04  0.25500000920E-02 0. -1.
    10030    2    1    2    0    0  0.00000000000E+00  0.00000000000E+00 -0.43728440576E+03  0.29493172798E+04  0.29167198641E+04 0.  0.
        1    1    3    3  502    0 -0.87331874064E+03 -0.70578857034E+03 -0.11596286221E+04  0.16141752291E+04  0.50400001928E-02 0. -1.
       -1    1    3    3    0  502  0.87331874064E+03  0.70578857034E+03  0.72234421638E+03  0.13351420508E+04  0.50400001928E-02 0.  1.
</event>
<event>
 5   0  0.1550278E-06  0.3013312E+04  0.7818609E-02  0.8239940E-01
        1   -1    0    0  501    0  0.00000000000E+00  0.00000000000E+00  0.16623634064E+04  0.16623634064E+04  0.50400001928E-02 0. -1.
       -1   -1    0    0    0  501  0.00000000000E+00  0.00000000000E+00 -0.13655334671E+04  0.13655334672E+04  0.50400001928E-02 0.  1.
    10030    2    1    2    0    0  0.00000000000E+00  0.00000000000E+00  0.29682993927E+03  0.30278968736E+04  0.30133123741E+04 0.  0.
        2    1    3    3  502    0  0.11623239718E+04 -0.79540178305E+03 -0.38929355818E+03  0.14612359448E+04  0.25500000920E-02 0.  1.
       -2    1    3    3    0  502 -0.11623239718E+04  0.79540178305E+03  0.68612349746E+03  0.15666609288E+04  0.25500000920E-02 0. -1.
</event>
<event>
 5   0  0.1511126E-06  0.2909901E+04  0.7818609E-02  0.8269938E-01
       -1   -1    0    0    0  501  0.00000000000E+00  0.00000000000E+00  0.14167444668E+04  0.14167444668E+04  0.50400001928E-02 0.  1.
        1   -1    0    0  501    0  0.00000000000E+00  0.00000000000E+00 -0.14941864365E+04  0.14941864365E+04  0.50400001928E-02 0. -1.
    10030    2    1    2    0    0  0.00000000000E+00  0.00000000000E+00 -0.77441969717E+02  0.29109309033E+04  0.29099005937E+04 0.  0.
        5    1    3    3  502    0  0.16372000194E+03 -0.43958021582E+03 -0.14164607015E+04  0.14921186327E+04  0.46999998093E+01 0. -1.
       -5    1    3    3    0  502 -0.16372000194E+03  0.43958021582E+03  0.13390187318E+04  0.14188122706E+04  0.46999998093E+01 0.  1.
</event>
<event>
 5   0  0.1580212E-06  0.2900582E+04  0.7818609E-02  0.8272704E-01
       -1   -1    0    0    0  501  0.00000000000E+00  0.00000000000E+00  0.12106939411E+04  0.12106939411E+04  0.50400001928E-02 0. -1.
        1   -1    0    0  501    0  0.00000000000E+00  0.00000000000E+00 -0.17373042022E+04  0.17373042022E+04  0.50400001928E-02 0.  1.
    10030    2    1    2    0    0  0.00000000000E+00  0.00000000000E+00 -0.52661026111E+03  0.29479981433E+04  0.29005817840E+04 0.  0.
        4    1    3    3  502    0  0.81523702333E+03  0.11985404601E+04 -0.21529501688E+03  0.14654228727E+04  0.12699999809E+01 0.  1.
       -4    1    3    3    0  502 -0.81523702333E+03 -0.11985404601E+04 -0.31131524422E+03  0.14825752706E+04  0.12699999809E+01 0. -1.
</event>
<event>
 5   0  0.4115143E-06  0.2902720E+04  0.7818609E-02  0.8272069E-01
        2   -1    0    0  501    0  0.00000000000E+00  0.00000000000E+00  0.25336473760E+04  0.25336473760E+04  0.25500000920E-02 0.  1.
       -2   -1    0    0    0  501  0.00000000000E+00  0.00000000000E+00 -0.83138890066E+03  0.83138890066E+03  0.25500000920E-02 0. -1.
    10030    2    1    2    0    0  0.00000000000E+00  0.00000000000E+00  0.17022584754E+04  0.33650362767E+04  0.29027203149E+04 0.  0.
        1    1    3    3  502    0  0.48253981341E+03  0.42990021057E+03 -0.65538088369E+03  0.92042542626E+03  0.50400001928E-02 0. -1.
       -1    1    3    3    0  502 -0.48253981341E+03 -0.42990021057E+03  0.23576393591E+04  0.24446108504E+04  0.50400001928E-02 0.  1.
</event>
<event>
 5   0  0.1550278E-06  0.2904696E+04  0.7818609E-02  0.8271482E-01
        1   -1    0    0  501    0  0.00000000000E+00  0.00000000000E+00  0.19414523943E+04  0.19414523944E+04  0.50400001928E-02 0.  1.
       -1   -1    0    0    0  501  0.00000000000E+00  0.00000000000E+00 -0.10864619826E+04  0.10864619826E+04  0.50400001928E-02 0. -1.
    10030    2    1    2    0    0  0.00000000000E+00  0.00000000000E+00  0.85499041172E+03  0.30279143770E+04  0.29046956588E+04 0.  0.
        2    1    3    3  502    0  0.41314592614E+03  0.13911596880E+04  0.48737211483E+03  0.15308645963E+04  0.25500000920E-02 0.  1.
       -2    1    3    3    0  502 -0.41314592614E+03 -0.13911596880E+04  0.36761829689E+03  0.14970497807E+04  0.25500000920E-02 0. -1.
</event>
<event>
 5   0  0.1511126E-06  0.2901071E+04  0.7818609E-02  0.8272559E-01
       -1   -1    0    0    0  501  0.00000000000E+00  0.00000000000E+00  0.15224824954E+04  0.15224824954E+04  0.50400001928E-02 0. -1.
        1   -1    0    0  501    0  0.00000000000E+00  0.00000000000E+00 -0.13819882138E+04  0.13819882138E+04  0.50400001928E-02 0.  1.
    10030    2    1    2    0    0  0.00000000000E+00  0.00000000000E+00  0.14049428153E+03  0.29044707092E+04  0.29010707433E+04 0.  0.
        5    1    3    3  502    0  0.45006291901E+03  0.27564029227E+03 -0.12824457039E+04  0.13868032575E+04  0.46999998093E+01 0.  1.
       -5    1    3    3    0  502 -0.45006291901E+03 -0.27564029227E+03  0.14229399854E+04  0.15176674517E+04  0.46999998093E+01 0. -1.
</event>
<event>
 5   0  0.1511126E-06  0.2821070E+04  0.7818609E-02  0.8296757E-01
       -1   -1    0    0    0  501  0.00000000000E+00  0.00000000000E+00  0.10719600893E+04  0.10719600893E+04  0.50400001928E-02 0.  1.
        1   -1    0    0  501    0  0.00000000000E+00  0.00000000000E+00 -0.18560480354E+04  0.18560480354E+04  0.50400001928E-02 0. -1.
    10030    2    1    2    0    0  0.00000000000E+00  0.00000000000E+00 -0.78408794610E+03  0.29280081246E+04  0.28210703059E+04 0.  0.
        5    1    3    3  502    0 -0.10139701448E+04 -0.63095325212E+03  0.38697397885E+03  0.12553917362E+04  0.46999998093E+01 0.  1.
       -5    1    3    3    0  502  0.10139701448E+04  0.63095325212E+03 -0.11710619249E+04  0.16726163885E+04  0.46999998093E+01 0. -1.
</event>
<event>
 5   0  0.4115143E-06  0.2886665E+04  0.7818609E-02  0.8276856E-01
       -2   -1    0    0    0  501  0.00000000000E+00  0.00000000000E+00  0.17536970300E+04  0.17536970300E+04  0.25500000920E-02 0.  1.
        2   -1    0    0  501    0  0.00000000000E+00  0.00000000000E+00 -0.11878954799E+04  0.11878954799E+04  0.25500000920E-02 0. -1.
    10030    2    1    2    0    0  0.00000000000E+00  0.00000000000E+00  0.56580155013E+03  0.29415925098E+04  0.28866650481E+04 0.  0.
        1    1    3    3  502    0 -0.95720217204E+03  0.50719197241E+03 -0.68904526774E+03  0.12838469831E+04  0.50400001928E-02 0. -1.
       -1    1    3    3    0  502  0.95720217204E+03 -0.50719197241E+03  0.12548468179E+04  0.16577455267E+04  0.50400001928E-02 0.  1.
</event>
<event>
 5   0  0.1511126E-06  0.2887360E+04  0.7818609E-02  0.8276648E-01
        1   -1    0    0  501    0  0.00000000000E+00  0.00000000000E+00  0.20313721023E+04  0.20313721023E+04  0.50400001928E-02 0. -1.
       -1   -1    0    0    0  501  0.00000000000E+00  0.00000000000E+00 -0.10260119524E+04  0.10260119524E+04  0.50400001928E-02 0.  1.
    10030    2    1    2    0    0  0.00000000000E+00  0.00000000000E+00  0.10053601499E+04  0.30573840547E+04  0.28873600792E+04 0.  0.
        5    1    3    3  502    0 -0.71046796790E+03 -0.72175825451E+03  0.15920928927E+04  0.18869238406E+04  0.46999998093E+01 0. -1.
       -5    1    3    3    0  502  0.71046796790E+03  0.72175825451E+03 -0.58673274276E+03  0.11704602141E+04  0.46999998093E+01 0.  1.
</event>
<event>
 5   0  0.4162450E-06  0.2918432E+04  0.7818609E-02  0.8267415E-01
       -2   -1    0    0    0  501  0.00000000000E+00  0.00000000000E+00  0.11677678640E+04  0.11677678640E+04  0.25500000920E-02 0.  1.
        2   -1    0    0  501    0  0.00000000000E+00  0.00000000000E+00 -0.18234026851E+04  0.18234026851E+04  0.25500000920E-02 0. -1.
    10030    2    1    2    0    0  0.00000000000E+00  0.00000000000E+00 -0.65563482114E+03  0.29911705490E+04  0.29184318109E+04 0.  0.
        2    1    3    3  502    0  0.30614711415E+03  0.50819087012E+03  0.10385745563E+04  0.11960857515E+04  0.25500000920E-02 0.  1.
       -2    1    3    3    0  502 -0.30614711415E+03 -0.50819087012E+03 -0.16942093774E+04  0.17950847976E+04  0.25500000920E-02 0. -1.
</event>
<event>
 5   0  0.1550278E-06  0.2889578E+04  0.7818609E-02  0.8275985E-01
       -1   -1    0    0    0  501  0.00000000000E+00  0.00000000000E+00  0.82496175288E+03  0.82496175290E+03  0.50400001928E-02 0.  1.
        1   -1    0    0  501    0  0.00000000000E+00  0.00000000000E+00 -0.25303175405E+04  0.25303175405E+04  0.50400001928E-02 0. -1.
    10030    2    1    2    0    0  0.00000000000E+00  0.00000000000E+00 -0.17053557876E+04  0.33552792934E+04  0.28895779578E+04 0.  0.
        2    1    3    3  502    0  0.46473561442E+03 -0.10159563845E+04 -0.19164405872E+04  0.22183081596E+04  0.25500000920E-02 0. -1.
       -2    1    3    3    0  502 -0.46473561442E+03  0.10159563845E+04  0.21108479957E+03  0.11369711338E+04  0.25500000920E-02 0.  1.
</event>
<event>
 5   0  0.4148677E-06  0.2908910E+04  0.7818609E-02  0.8270231E-01
       -2   -1    0    0    0  501  0.00000000000E+00  0.00000000000E+00  0.92309187384E+03  0.92309187384E+03  0.25500000920E-02 0. -1.
        2   -1    0    0  501    0  0.00000000000E+00  0.00000000000E+00 -0.22916896086E+04  0.22916896086E+04  0.25500000920E-02 0.  1.
    10030    2    1    2    0    0  0.00000000000E+00  0.00000000000E+00 -0.13685977348E+04  0.32147814825E+04  0.29089104868E+04 0.  0.
        5    1    3    3  502    0  0.46190423291E+03 -0.72475448716E+03  0.61244882854E+03  0.10553389241E+04  0.46999998093E+01 0. -1.
       -5    1    3    3    0  502 -0.46190423291E+03  0.72475448716E+03 -0.19810465633E+04  0.21594425584E+04  0.46999998093E+01 0.  1.
</event>
<event>
 5   0  0.4224163E-06  0.2941157E+04  0.7818609E-02  0.8260736E-01
        2   -1    0    0  501    0  0.00000000000E+00  0.00000000000E+00  0.22118841225E+04  0.22118841225E+04  0.25500000920E-02 0.  1.
       -2   -1    0    0    0  501  0.00000000000E+00  0.00000000000E+00 -0.97771885466E+03  0.97771885466E+03  0.25500000920E-02 0. -1.
    10030    2    1    2    0    0  0.00000000000E+00  0.00000000000E+00  0.12341652679E+04  0.31896029772E+04  0.29411567866E+04 0.  0.
        4    1    3    3  502    0 -0.44566346087E+03  0.13632834060E+04  0.96923005499E+03  0.17310592358E+04  0.12699999809E+01 0.  1.
       -4    1    3    3    0  502  0.44566346087E+03 -0.13632834060E+04  0.26493521286E+03  0.14585437414E+04  0.12699999809E+01 0. -1.
</event>
<event>
 5   0  0.4224163E-06  0.2899965E+04  0.7818609E-02  0.8272888E-01
        2   -1    0    0  501    0  0.00000000000E+00  0.00000000000E+00  0.25417993121E+04  0.25417993121E+04  0.25500000920E-02 0.  1.
       -2   -1    0    0    0  501  0.00000000000E+00  0.00000000000E+00 -0.82714979875E+03  0.82714979875E+03  0.25500000920E-02 0. -1.
    10030    2    1    2    0    0  0.00000000000E+00  0.00000000000E+00  0.17146495133E+04  0.33689491108E+04  0.28999646822E+04 0.  0.
        4    1    3    3  502    0  0.10561181794E+04  0.31866687502E+03 -0.23587420477E+03  0.11280835250E+04  0.12699999809E+01 0. -1.
       -4    1    3    3    0  502 -0.10561181794E+04 -0.31866687502E+03  0.19505237181E+04  0.22408655858E+04  0.12699999809E+01 0.  1.
</event>
<event>
 5   0  0.1360125E-06  0.2860020E+04  0.7818609E-02  0.8284873E-01
        3   -1    0    0  501    0  0.00000000000E+00  0.00000000000E+00  0.11166365116E+04  0.11166365162E+04  0.10100000352E+00 0.  1.
       -3   -1    0    0    0  501  0.00000000000E+00  0.00000000000E+00 -0.18313293551E+04  0.18313293579E+04  0.10100000352E+00 0. -1.
    10030    2    1    2    0    0  0.00000000000E+00  0.00000000000E+00 -0.71469284347E+03  0.29479658741E+04  0.28600204430E+04 0.  0.
        1    1    3    3  502    0 -0.13581176652E+04  0.39672534829E+03 -0.14346981239E+03  0.14221315627E+04  0.50400001928E-02 0. -1.
       -1    1    3    3    0  502  0.13581176652E+04 -0.39672534829E+03 -0.57122303107E+03  0.15258343114E+04  0.50400001928E-02 0.  1.
</event>
<event>
 5   0  0.1360125E-06  0.2906324E+04  0.7818609E-02  0.8270998E-01
        3   -1    0    0  501    0  0.00000000000E+00  0.00000000000E+00  0.18449984190E+04  0.18449984217E+04  0.10100000352E+00 0. -1.
       -3   -1    0    0    0  501  0.00000000000E+00  0.00000000000E+00 -0.11445431029E+04  0.11445431073E+04  0.10100000352E+00 0.  1.
    10030    2    1    2    0    0  0.00000000000E+00  0.00000000000E+00  0.70045531611E+03  0.29895415291E+04  0.29063242944E+04 0.  0.
        2    1    3    3  502    0 -0.90498360110E+02 -0.12002892851E+04  0.11876613445E+04  0.16909830840E+04  0.25500000920E-02 0. -1.
       -2    1    3    3    0  502  0.90498360110E+02  0.12002892851E+04 -0.48720602843E+03  0.12985584451E+04  0.25500000920E-02 0.  1.
</event>
<event>
 5   0  0.4115143E-06  0.2918031E+04  0.7818609E-02  0.8267533E-01
        2   -1    0    0  501    0  0.00000000000E+00  0.00000000000E+00  0.17668251569E+04  0.17668251569E+04  0.25500000920E-02 0. -1.
       -2   -1    0    0    0  501  0.00000000000E+00  0.00000000000E+00 -0.12048313511E+04  0.12048313511E+04  0.25500000920E-02 0.  1.
    10030    2    1    2    0    0  0.00000000000E+00  0.00000000000E+00  0.56199380572E+03  0.29716565080E+04  0.29180310766E+04 0.  0.
        1    1    3    3  502    0  0.17003049211E+02  0.13600978988E+04  0.81849459341E+03  0.15874787549E+04  0.50400001928E-02 0. -1.
       -1    1    3    3    0  502 -0.17003049211E+02 -0.13600978988E+04 -0.25650078768E+03  0.13841777531E+04  0.50400001928E-02 0.  1.
</event>
<event>
 5   0  0.4148677E-06  0.2912592E+04  0.7818609E-02  0.8269141E-01
        2   -1    0    0  501    0  0.00000000000E+00  0.00000000000E+00  0.21092934206E+04  0.21092934206E+04  0.25500000920E-02 0. -1.
       -2   -1    0    0    0  501  0.00000000000E+00  0.00000000000E+00 -0.10054544507E+04  0.10054544507E+04  0.25500000920E-02 0.  1.
    10030    2    1    2    0    0  0.00000000000E+00  0.00000000000E+00  0.11038389699E+04  0.31147478713E+04  0.29125922870E+04 0.  0.
        5    1    3    3  502    0 -0.11397075867E+04  0.34382008740E+02 -0.41686029004E+03  0.12140469914E+04  0.46999998093E+01 0.  1.
       -5    1    3    3    0  502  0.11397075867E+04 -0.34382008740E+02  0.15206992599E+04  0.19007008799E+04  0.46999998093E+01 0. -1.
</event>
<event>
 5   0  0.1511126E-06  0.2908557E+04  0.7818609E-02  0.8270336E-01
        1   -1    0    0  501    0  0.00000000000E+00  0.00000000000E+00  0.17517461363E+04  0.17517461363E+04  0.50400001928E-02 0.  1.
       -1   -1    0    0    0  501  0.00000000000E+00  0.00000000000E+00 -0.12073248138E+04  0.12073248138E+04  0.50400001928E-02 0. -1.
    10030    2    1    2    0    0  0.00000000000E+00  0.00000000000E+00  0.54442132250E+03  0.29590709501E+04  0.29085574279E+04 0.  0.
        5    1    3    3  502    0 -0.33901075584E+03  0.14121769458E+04  0.19518266667E+03  0.14653635666E+04  0.46999998093E+01 0. -1.
       -5    1    3    3    0  502  0.33901075584E+03 -0.14121769458E+04  0.34923865583E+03  0.14937073835E+04  0.46999998093E+01 0.  1.
</event>
<event>
 5   0  0.4224163E-06  0.2883347E+04  0.7818609E-02  0.8277849E-01
       -2   -1    0    0    0  501  0.00000000000E+00  0.00000000000E+00  0.17429953868E+04  0.17429953868E+04  0.25500000920E-02 0.  1.
        2   -1    0    0  501    0  0.00000000000E+00  0.00000000000E+00 -0.11924430177E+04  0.11924430177E+04  0.25500000920E-02 0. -1.
    10030    2    1    2    0    0  0.00000000000E+00  0.00000000000E+00  0.55055236912E+03  0.29354384045E+04  0.28833471375E+04 0.  0.
        4    1    3    3  502    0  0.49237896219E+03 -0.10353352141E+04 -0.61462379755E+03  0.13008151573E+04  0.12699999809E+01 0. -1.
       -4    1    3    3    0  502 -0.49237896219E+03  0.10353352141E+04  0.11651761667E+04  0.16346232472E+04  0.12699999809E+01 0.  1.
</event>
<event>
 5   0  0.4115143E-06  0.2975550E+04  0.7818609E-02  0.8250748E-01
        2   -1    0    0  501    0  0.00000000000E+00  0.00000000000E+00  0.26832310385E+04  0.26832310385E+04  0.25500000920E-02 0. -1.
       -2   -1    0    0    0  501  0.00000000000E+00  0.00000000000E+00 -0.82492850537E+03  0.82492850537E+03  0.25500000920E-02 0.  1.
    10030    2    1    2    0    0  0.00000000000E+00  0.00000000000E+00  0.18583025332E+04  0.35081595439E+04  0.29755495426E+04 0.  0.
        1    1    3    3  502    0  0.68882820131E+03  0.80365941206E+03 -0.30351716762E+03  0.11011246127E+04  0.50400001928E-02 0.  1.
       -1    1    3    3    0  502 -0.68882820131E+03 -0.80365941206E+03  0.21618197008E+04  0.24070349312E+04  0.50400001928E-02 0. -1.
</event>
<event>
 5   0  0.1543678E-06  0.2915451E+04  0.7818609E-02  0.8268295E-01
       -1   -1    0    0    0  501  0.00000000000E+00  0.00000000000E+00  0.19633512209E+04  0.19633512209E+04  0.50400001928E-02 0. -1.
        1   -1    0    0  501    0  0.00000000000E+00  0.00000000000E+00 -0.10823148191E+04  0.10823148191E+04  0.50400001928E-02 0.  1.
    10030    2    1    2    0    0  0.00000000000E+00  0.00000000000E+00  0.88103640176E+03  0.30456660400E+04  0.29154513349E+04 0.  0.
        3    1    3    3  502    0 -0.12581097866E+03 -0.15590082759E+03 -0.10678656530E+04  0.10864946081E+04  0.10100000352E+00 0.  1.
       -3    1    3    3    0  502  0.12581097866E+03  0.15590082759E+03  0.19489020548E+04  0.19591714319E+04  0.10100000352E+00 0. -1.
</event>
<event>
 5   0  0.4187518E-06  0.2924529E+04  0.7818609E-02  0.8265617E-01
        2   -1    0    0  501    0  0.00000000000E+00  0.00000000000E+00  0.19208069009E+04  0.19208069009E+04  0.25500000920E-02 0.  1.
       -2   -1    0    0    0  501  0.00000000000E+00  0.00000000000E+00 -0.11131870657E+04  0.11131870657E+04  0.25500000920E-02 0. -1.
    10030    2    1    2    0    0  0.00000000000E+00  0.00000000000E+00  0.80761983515E+03  0.30339939666E+04  0.29245289520E+04 0.  0.
        3    1    3    3  502    0 -0.38492753600E+03 -0.31727068428E+03 -0.10221893608E+04  0.11374097742E+04  0.10100000352E+00 0. -1.
       -3    1    3    3    0  502  0.38492753600E+03  0.31727068428E+03  0.18298091959E+04  0.18965841924E+04  0.10100000352E+00 0.  1.
</event>
<event>
 5   0  0.1543678E-06  0.2859251E+04  0.7818609E-02  0.8285106E-01
       -1   -1    0    0    0  501  0.00000000000E+00  0.00000000000E+00  0.11354780348E+04  0.11354780348E+04  0.50400001928E-02 0. -1.
        1   -1    0    0  501    0  0.00000000000E+00  0.00000000000E+00 -0.17999726786E+04  0.17999726786E+04  0.50400001928E-02 0.  1.
    10030    2    1    2    0    0  0.00000000000E+00  0.00000000000E+00 -0.66449464386E+03  0.29354507134E+04  0.28592512585E+04 0.  0.
        3    1    3    3  502    0  0.17273249969E+03 -0.14075975118E+04 -0.14670417854E+03  0.14257241661E+04  0.10100000352E+00 0.  1.
       -3    1    3    3    0  502 -0.17273249969E+03  0.14075975118E+04 -0.51779046532E+03  0.15097265473E+04  0.10100000352E+00 0. -1.
</event>
<event>
 5   0  0.1511126E-06  0.2912120E+04  0.7818609E-02  0.8269281E-01
       -1   -1    0    0    0  501  0.00000000000E+00  0.00000000000E+00  0.28615631204E+04  0.28615631204E+04  0.50400001928E-02 0. -1.
        1   -1    0    0  501    0  0.00000000000E+00  0.00000000000E+00 -0.74089232333E+03  0.74089232334E+03  0.50400001928E-02 0.  1.
    10030    2    1    2    0    0  0.00000000000E+00  0.00000000000E+00  0.21206707971E+04  0.36024554438E+04  0.29121196051E+04 0.  0.
        5    1    3    3  502    0  0.36322057182E+03  0.10490358521E+04 -0.10518070150E+03  0.11151190398E+04  0.46999998093E+01 0.  1.
       -5    1    3    3    0  502 -0.36322057182E+03 -0.10490358521E+04  0.22258514986E+04  0.24873364040E+04  0.46999998093E+01 0. -1.
</event>
<event>
 5   0  0.1602873E-06  0.2807532E+04  0.7818609E-02  0.8300934E-01
        1   -1    0    0  501    0  0.00000000000E+00  0.00000000000E+00  0.12132647580E+04  0.12132647581E+04  0.50400001928E-02 0. -1.
       -1   -1    0    0    0  501  0.00000000000E+00  0.00000000000E+00 -0.16241791962E+04  0.16241791962E+04  0.50400001928E-02 0.  1.
    10030    2    1    2    0    0  0.00000000000E+00  0.00000000000E+00 -0.41091443818E+03  0.28374439543E+04  0.28075322827E+04 0.  0.
        1    1    3    3  502    0 -0.95633639000E+03  0.94331693448E+03 -0.61739423021E+03  0.14783780860E+04  0.50400001928E-02 0.  1.
       -1    1    3    3    0  502  0.95633639000E+03 -0.94331693448E+03  0.20647979204E+03  0.13590658683E+04  0.50400001928E-02 0. -1.
</event>
<event>
 5   0  0.1602873E-06  0.2758384E+04  0.7818609E-02  0.8316306E-01
        1   -1    0    0  501    0  0.00000000000E+00  0.00000000000E+00  0.15074152575E+04  0.15074152575E+04  0.50400001928E-02 0. -1.
       -1   -1    0    0    0  501  0.00000000000E+00  0.00000000000E+00 -0.12618756104E+04  0.12618756104E+04  0.50400001928E-02 0.  1.
    10030    2    1    2    0    0  0.00000000000E+00  0.00000000000E+00  0.24553964716E+03  0.27692908679E+04  0.27583839821E+04 0.  0.
        1    1    3    3  502    0  0.50356370514E+03  0.68654663063E+03  0.12120705856E+04  0.14812284718E+04  0.50400001928E-02 0. -1.
       -1    1    3    3    0  502 -0.50356370514E+03 -0.68654663063E+03 -0.96653093847E+03  0.12880623961E+04  0.50400001928E-02 0.  1.
</event>
<event>
 5   0  0.4187518E-06  0.2845242E+04  0.7818609E-02  0.8289358E-01
        2   -1    0    0  501    0  0.00000000000E+00  0.00000000000E+00  0.18561923568E+04  0.18561923568E+04  0.25500000920E-02 0. -1.
       -2   -1    0    0    0  501  0.00000000000E+00  0.00000000000E+00 -0.10903240468E+04  0.10903240468E+04  0.25500000920E-02 0.  1.
    10030    2    1    2    0    0  0.00000000000E+00  0.00000000000E+00  0.76586831000E+03  0.29465164035E+04  0.28452424586E+04 0.  0.
        3    1    3    3  502    0 -0.85555757688E+03  0.11342507432E+04  0.45866459895E+03  0.14929423098E+04  0.10100000352E+00 0.  1.
       -3    1    3    3    0  502  0.85555757688E+03 -0.11342507432E+04  0.30720371105E+03  0.14535740938E+04  0.10100000352E+00 0. -1.
</event>
<event>
 5   0  0.1602873E-06  0.2917816E+04  0.7818609E-02  0.8267596E-01
        1   -1    0    0  501    0  0.00000000000E+00  0.00000000000E+00  0.13510053872E+04  0.13510053872E+04  0.50400001928E-02 0. -1.
       -1   -1    0    0    0  501  0.00000000000E+00  0.00000000000E+00 -0.15754290564E+04  0.15754290564E+04  0.50400001928E-02 0.  1.
    10030    2    1    2    0    0  0.00000000000E+00  0.00000000000E+00 -0.22442366917E+03  0.29264344436E+04  0.29178164043E+04 0.  0.
        1    1    3    3  502    0 -0.80384419711E+03 -0.21736416816E+03  0.10892413679E+04  0.13710796594E+04  0.50400001928E-02 0. -1.
       -1    1    3    3    0  502  0.80384419711E+03  0.21736416816E+03 -0.13136650371E+04  0.15553547841E+04  0.50400001928E-02 0.  1.
</event>
<event>
 5   0  0.1550278E-06  0.2901814E+04  0.7818609E-02  0.8272338E-01
       -1   -1    0    0    0  501  0.00000000000E+00  0.00000000000E+00  0.14775181362E+04  0.14775181362E+04  0.50400001928E-02 0. -1.
        1   -1    0    0  501    0  0.00000000000E+00  0.00000000000E+00 -0.14247752496E+04  0.14247752496E+04  0.50400001928E-02 0.  1.
    10030    2    1    2    0    0  0.00000000000E+00  0.00000000000E+00  0.52742886584E+02  0.29022933858E+04  0.29018141024E+04 0.  0.
        2    1    3    3  502    0 -0.42613470107E+03  0.13868646381E+04  0.14246597167E+02  0.14509263501E+04  0.25500000920E-02 0.  1.
       -2    1    3    3    0  502  0.42613470107E+03 -0.13868646381E+04  0.38496289416E+02  0.14513670357E+04  0.25500000920E-02 0. -1.
</event>
<event>
 5   0  0.1511126E-06  0.2907531E+04  0.7818609E-02  0.8270640E-01
       -1   -1    0    0    0  501  0.00000000000E+00  0.00000000000E+00  0.18839162532E+04  0.18839162532E+04  0.50400001928E-02 0.  1.
        1   -1    0    0  501    0  0.00000000000E+00  0.00000000000E+00 -0.11218303786E+04  0.11218303786E+04  0.50400001928E-02 0. -1.
    10030    2    1    2    0    0  0.00000000000E+00  0.00000000000E+00  0.76208587455E+03  0.30057466318E+04  0.29075312439E+04 0.  0.
        5    1    3    3  502    0  0.30531080753E+03  0.13249277237E+04  0.91297679652E+03  0.16377413969E+04  0.46999998093E+01 0.  1.
       -5    1    3    3    0  502 -0.30531080753E+03 -0.13249277237E+04 -0.15089092197E+03  0.13680052349E+04  0.46999998093E+01 0. -1.
</event>
<event>
 5   0  0.4115143E-06  0.2884728E+04  0.7818609E-02  0.8277436E-01
       -2   -1    0    0    0  501  0.00000000000E+00  0.00000000000E+00  0.13808499039E+04  0.13808499039E+04  0.25500000920E-02 0. -1.
        2   -1    0    0  501    0  0.00000000000E+00  0.00000000000E+00 -0.15066180177E+04  0.15066180177E+04  0.25500000920E-02 0.  1.
    10030    2    1    2    0    0  0.00000000000E+00  0.00000000000E+00 -0.12576811372E+03  0.28874679216E+04  0.28847276093E+04 0.  0.
        1    1    3    3  502    0  0.55996106113E+03 -0.88483062071E+03  0.92999154647E+03  0.14004877343E+04  0.50400001928E-02 0. -1.
       -1    1    3    3    0  502 -0.55996106113E+03  0.88483062071E+03 -0.10557596602E+04  0.14869801873E+04  0.50400001928E-02 0.  1.
</event>
<event>
 5   0  0.4187518E-06  0.2908847E+04  0.7818609E-02  0.8270250E-01
       -2   -1    0    0    0  501  0.00000000000E+00  0.00000000000E+00  0.11871814753E+04  0.11871814753E+04  0.25500000920E-02 0.  1.
        2   -1    0    0  501    0  0.00000000000E+00  0.00000000000E+00 -0.17818233855E+04  0.17818233855E+04  0.25500000920E-02 0. -1.
    10030    2    1    2    0    0  0.00000000000E+00  0.00000000000E+00 -0.59464191026E+03  0.29690048608E+04  0.29088469987E+04 0.  0.
        3    1    3    3  502    0 -0.14068152108E+03 -0.89710616843E+02 -0.17720225435E+04  0.17798604411E+04  0.10100000352E+00 0. -1.
       -3    1    3    3    0  502  0.14068152108E+03  0.89710616843E+02  0.11773806332E+04  0.11891444197E+04  0.10100000352E+00 0.  1.
</event>
<event>
 5   0  0.1602873E-06  0.2906325E+04  0.7818609E-02  0.8270998E-01
        1   -1    0    0  501    0  0.00000000000E+00  0.00000000000E+00  0.12301303376E+04  0.12301303376E+04  0.50400001928E-02 0. -1.
       -1   -1    0    0    0  501  0.00000000000E+00  0.00000000000E+00 -0.17166326649E+04  0.17166326649E+04  0.50400001928E-02 0.  1.
    10030    2    1    2    0    0  0.00000000000E+00  0.00000000000E+00 -0.48650232735E+03  0.29467630025E+04  0.29063254598E+04 0.  0.
        1    1    3    3  502    0 -0.62951828502E+03  0.85125075633E+03 -0.12524700502E+04  0.16400007159E+04  0.50400001928E-02 0.  1.
       -1    1    3    3    0  502  0.62951828502E+03 -0.85125075633E+03  0.76596772287E+03  0.13067622867E+04  0.50400001928E-02 0. -1.
</event>
<event>
 5   0  0.1550278E-06  0.2910254E+04  0.7818609E-02  0.8269833E-01
       -1   -1    0    0    0  501  0.00000000000E+00  0.00000000000E+00  0.12317726462E+04  0.12317726462E+04  0.50400001928E-02 0.  1.
        1   -1    0    0  501    0  0.00000000000E+00  0.00000000000E+00 -0.17189819131E+04  0.17189819131E+04  0.50400001928E-02 0. -1.
    10030    2    1    2    0    0  0.00000000000E+00  0.00000000000E+00 -0.48720926695E+03  0.29507545593E+04  0.29102542156E+04 0.  0.
        2    1    3    3  502    0  0.18724072619E+03  0.39022760441E+03  0.11649943332E+04  0.12427986438E+04  0.25500000920E-02 0.  1.
       -2    1    3    3    0  502 -0.18724072619E+03 -0.39022760441E+03 -0.16522036001E+04  0.17079559154E+04  0.25500000920E-02 0. -1.
</event>
<event>
 5   0  0.1580212E-06  0.2913471E+04  0.7818609E-02  0.8268881E-01
       -1   -1    0    0    0  501  0.00000000000E+00  0.00000000000E+00  0.20658879381E+04  0.20658879381E+04  0.50400001928E-02 0. -1.
        1   -1    0    0  501    0  0.00000000000E+00  0.00000000000E+00 -0.10271989241E+04  0.10271989241E+04  0.50400001928E-02 0.  1.
    10030    2    1    2    0    0  0.00000000000E+00  0.00000000000E+00  0.10386890140E+04  0.30930868622E+04  0.29134706913E+04 0.  0.
        4    1    3    3  502    0 -0.59422900766E+02 -0.14538751587E+04  0.59283797756E+03  0.15712232619E+04  0.12699999809E+01 0. -1.
       -4    1    3    3    0  502  0.59422900766E+02  0.14538751587E+04  0.44585103644E+03  0.15218636003E+04  0.12699999809E+01 0.  1.
</event>
<event>
 5   0  0.1543678E-06  0.2900111E+04  0.7818609E-02  0.8272844E-01
        1   -1    0    0  501    0  0.00000000000E+00  0.00000000000E+00  0.35770145529E+04  0.35770145529E+04  0.50400001928E-02 0.  1.
       -1   -1    0    0    0  501  0.00000000000E+00  0.00000000000E+00 -0.58782571391E+03  0.58782571394E+03  0.50400001928E-02 0. -1.
    10030    2    1    2    0    0  0.00000000000E+00  0.00000000000E+00  0.29891888390E+04  0.41648402668E+04  0.29001111243E+04 0.  0.
        3    1    3    3  502    0 -0.49573511199E+03  0.12633383216E+04  0.22281069239E+04  0.26088766722E+04  0.10100000352E+00 0.  1.
       -3    1    3    3    0  502  0.49573511199E+03 -0.12633383216E+04  0.76108191508E+03  0.15559635946E+04  0.10100000352E+00 0. -1.
</event>
<event>
 5   0  0.1602873E-06  0.2903700E+04  0.7818609E-02  0.8271777E-01
        1   -1    0    0  501    0  0.00000000000E+00  0.00000000000E+00  0.11082827346E+04  0.11082827346E+04  0.50400001928E-02 0.  1.
       -1   -1    0    0    0  501  0.00000000000E+00  0.00000000000E+00 -0.19019231024E+04  0.19019231024E+04  0.50400001928E-02 0. -1.
    10030    2    1    2    0    0  0.00000000000E+00  0.00000000000E+00 -0.79364036780E+03  0.30102058370E+04  0.29037000788E+04 0.  0.
        1    1    3    3  502    0  0.12988242585E+04 -0.27616660433E+03  0.21178747740E+03  0.13446435897E+04  0.50400001928E-02 0.  1.
       -1    1    3    3    0  502 -0.12988242585E+04  0.27616660433E+03 -0.10054278452E+04  0.16655622473E+04  0.50400001928E-02 0. -1.
</event>
<event>
 5   0  0.4224163E-06  0.2905546E+04  0.7818609E-02  0.8271229E-01
       -2   -1    0    0    0  501  0.00000000000E+00  0.00000000000E+00  0.10527917222E+04  0.10527917222E+04  0.25500000920E-02 0.  1.
        2   -1    0    0  501    0  0.00000000000E+00  0.00000000000E+00 -0.20047164658E+04  0.20047164658E+04  0.25500000920E-02 0. -1.
    10030    2    1    2    0    0  0.00000000000E+00  0.00000000000E+00 -0.95192474356E+03  0.30575081880E+04  0.29055456634E+04 0.  0.
        4    1    3    3  502    0  0.67568874187E+03 -0.76083973281E+03 -0.15670694334E+04  0.18684594180E+04  0.12699999809E+01 0. -1.
       -4    1    3    3    0  502 -0.67568874187E+03  0.76083973281E+03  0.61514468983E+03  0.11890487699E+04  0.12699999809E+01 0.  1.
</event>
<event>
 5   0  0.4224163E-06  0.2920241E+04  0.7818609E-02  0.8266881E-01
       -2   -1    0    0    0  501  0.00000000000E+00  0.00000000000E+00  0.11055892218E+04  0.11055892218E+04  0.25500000920E-02 0.  1.
        2   -1    0    0  501    0  0.00000000000E+00  0.00000000000E+00 -0.19283398390E+04  0.19283398390E+04  0.25500000920E-02 0. -1.
    10030    2    1    2    0    0  0.00000000000E+00  0.00000000000E+00 -0.82275061718E+03  0.30339290608E+04  0.29202409092E+04 0.  0.
        4    1    3    3  502    0  0.29214415828E+03  0.74457049926E+03 -0.16804953082E+04  0.18611285639E+04  0.12699999809E+01 0. -1.
       -4    1    3    3    0  502 -0.29214415828E+03 -0.74457049926E+03  0.85774469101E+03  0.11728004969E+04  0.12699999809E+01 0.  1.
</event>
<event>
 5   0  0.1543678E-06  0.2630381E+04  0.7818609E-02  0.8357954E-01
       -1   -1    0    0    0  501  0.00000000000E+00  0.00000000000E+00  0.15741051827E+04  0.15741051827E+04  0.50400001928E-02 0. -1.
        1   -1    0    0  501    0  0.00000000000E+00  0.00000000000E+00 -0.10988629659E+04  0.10988629659E+04  0.50400001928E-02 0.  1.
    10030    2    1    2    0    0  0.00000000000E+00  0.00000000000E+00  0.47524221683E+03  0.26729681486E+04  0.26303808772E+04 0.  0.
        3    1    3    3  502    0  0.93324888959E+03 -0.72442589423E+03  0.82488738024E+03  0.14408974864E+04  0.10100000352E+00 0. -1.
       -3    1    3    3    0  502 -0.93324888959E+03  0.72442589423E+03 -0.34964516341E+03  0.12320706622E+04  0.10100000352E+00 0.  1.
</event>
<event>
 5   0  0.1580212E-06  0.2899877E+04  0.7818609E-02  0.8272914E-01
        1   -1    0    0  501    0  0.00000000000E+00  0.00000000000E+00  0.20570755997E+04  0.20570755997E+04  0.50400001928E-02 0. -1.
       -1   -1    0    0    0  501  0.00000000000E+00  0.00000000000E+00 -0.10219955582E+04  0.10219955582E+04  0.50400001928E-02 0.  1.
    10030    2    1    2    0    0  0.00000000000E+00  0.00000000000E+00  0.10350800415E+04  0.30790711579E+04  0.28998773256E+04 0.  0.
        4    1    3    3  502    0  0.15671825651E+03 -0.13930427321E+04  0.12425785570E+03  0.14073273581E+04  0.12699999809E+01 0.  1.
       -4    1    3    3    0  502 -0.15671825651E+03  0.13930427321E+04  0.91082218581E+03  0.16717437998E+04  0.12699999809E+01 0. -1.
</event>
<event>
 5   0  0.4224163E-06  0.2933524E+04  0.7818609E-02  0.8262972E-01
       -2   -1    0    0    0  501  0.00000000000E+00  0.00000000000E+00  0.15134297306E+04  0.15134297306E+04  0.25500000920E-02 0. -1.
        2   -1    0    0  501    0  0.00000000000E+00  0.00000000000E+00 -0.14215335160E+04  0.14215335160E+04  0.25500000920E-02 0.  1.
    10030    2    1    2    0    0  0.00000000000E+00  0.00000000000E+00  0.91896214611E+02  0.29349632466E+04  0.29335242192E+04 0.  0.
        4    1    3    3  502    0  0.14212426876E+02 -0.83296328866E+03 -0.11618555991E+04  0.14296642541E+04  0.12699999809E+01 0.  1.
       -4    1    3    3    0  502 -0.14212426876E+02  0.83296328866E+03  0.12537518138E+04  0.15052989925E+04  0.12699999809E+01 0. -1.
</event>
<event>
 5   0  0.4224163E-06  0.2886347E+04  0.7818609E-02  0.8276951E-01
       -2   -1    0    0    0  501  0.00000000000E+00  0.00000000000E+00  0.11060719153E+04  0.11060719153E+04  0.25500000920E-02 0. -1.
        2   -1    0    0  501    0  0.00000000000E+00  0.00000000000E+00 -0.18830151547E+04  0.18830151547E+04  0.25500000920E-02 0.  1.
    10030    2    1    2    0    0  0.00000000000E+00  0.00000000000E+00 -0.77694323940E+03  0.29890870700E+04  0.28863472963E+04 0.  0.
        4    1    3    3  502    0  0.77241083072E+03 -0.15294900089E+03  0.86401488662E+03  0.11689889758E+04  0.12699999809E+01 0. -1.
       -4    1    3    3    0  502 -0.77241083072E+03  0.15294900089E+03 -0.16409581260E+04  0.18200980942E+04  0.12699999809E+01 0.  1.
</event>
<event>
 5   0  0.4148677E-06  0.2889562E+04  0.7818609E-02  0.8275990E-01
        2   -1    0    0  501    0  0.00000000000E+00  0.00000000000E+00  0.18860336840E+04  0.18860336840E+04  0.25500000920E-02 0.  1.
       -2   -1    0    0    0  501  0.00000000000E+00  0.00000000000E+00 -0.11067631485E+04  0.11067631485E+04  0.25500000920E-02 0. -1.
    10030    2    1    2    0    0  0.00000000000E+00  0.00000000000E+00  0.77927053554E+03  0.29927968325E+04  0.28895623048E+04 0.  0.
        5    1    3    3  502    0  0.10512010104E+04  0.26708393858E+03  0.13782053931E+04  0.17538043192E+04  0.46999998093E+01 0.  1.
       -5    1    3    3    0  502 -0.10512010104E+04 -0.26708393858E+03 -0.59893485758E+03  0.12389925133E+04  0.46999998093E+01 0. -1.
</event>
<event>
 5   0  0.4115143E-06  0.2813157E+04  0.7818609E-02  0.8299195E-01
        2   -1    0    0  501    0  0.00000000000E+00  0.00000000000E+00  0.10740441587E+04  0.10740441587E+04  0.25500000920E-02 0.  1.
       -2   -1    0    0    0  501  0.00000000000E+00  0.00000000000E+00 -0.18420683700E+04  0.18420683700E+04  0.25500000920E-02 0. -1.
    10030    2    1    2    0    0  0.00000000000E+00  0.00000000000E+00 -0.76802421131E+03  0.29161125288E+04  0.28131567840E+04 0.  0.
        1    1    3    3  502    0 -0.28891708336E+03 -0.71849759400E+03 -0.16011877289E+04  0.17786270033E+04  0.50400001928E-02 0. -1.
       -1    1    3    3    0  502  0.28891708336E+03  0.71849759400E+03  0.83316351757E+03  0.11374855255E+04  0.50400001928E-02 0.  1.
</event>
<event>
 5   0  0.1360125E-06  0.2961137E+04  0.7818609E-02  0.8254916E-01
       -3   -1    0    0    0  501  0.00000000000E+00  0.00000000000E+00  0.15021773275E+04  0.15021773309E+04  0.10100000352E+00 0. -1.
        3   -1    0    0  501    0  0.00000000000E+00  0.00000000000E+00 -0.14592706343E+04  0.14592706378E+04  0.10100000352E+00 0.  1.
    10030    2    1    2    0    0  0.00000000000E+00  0.00000000000E+00  0.42906693149E+02  0.29614479687E+04  0.29611371274E+04 0.  0.
        1    1    3    3  502    0  0.12678937077E+03  0.25724064358E+03 -0.14312262313E+04  0.14596769568E+04  0.50400001928E-02 0.  1.
       -1    1    3    3    0  502 -0.12678937077E+03 -0.25724064358E+03  0.14741329244E+04  0.15017710119E+04  0.50400001928E-02 0. -1.
</event>
<event>
 5   0  0.4148677E-06  0.2968879E+04  0.7818609E-02  0.8252674E-01
        2   -1    0    0  501    0  0.00000000000E+00  0.00000000000E+00  0.11032364186E+04  0.11032364186E+04  0.25500000920E-02 0.  1.
       -2   -1    0    0    0  501  0.00000000000E+00  0.00000000000E+00 -0.19973598433E+04  0.19973598433E+04  0.25500000920E-02 0. -1.
    10030    2    1    2    0    0  0.00000000000E+00  0.00000000000E+00 -0.89412342465E+03  0.31005962619E+04  0.29688786571E+04 0.  0.
        5    1    3    3  502    0 -0.15408628752E+03 -0.72591597617E+03  0.89560545206E+03  0.11631112605E+04  0.46999998093E+01 0.  1.
       -5    1    3    3    0  502  0.15408628752E+03  0.72591597617E+03 -0.17897288767E+04  0.19374850014E+04  0.46999998093E+01 0. -1.
</event>
<event>
 5   0  0.1550278E-06  0.2905554E+04  0.7818609E-02  0.8271227E-01
        1   -1    0    0  501    0  0.00000000000E+00  0.00000000000E+00  0.15771226689E+04  0.15771226689E+04  0.50400001928E-02 0.  1.
       -1   -1    0    0    0  501  0.00000000000E+00  0.00000000000E+00 -0.13382354546E+04  0.13382354546E+04  0.50400001928E-02 0. -1.
    10030    2    1    2    0    0  0.00000000000E+00  0.00000000000E+00  0.23888721436E+03  0.29153581235E+04  0.29055543167E+04 0.  0.
        2    1    3    3  502    0 -0.92289432052E+03  0.12068258241E+03  0.12386728568E+04  0.15493897698E+04  0.25500000920E-02 0.  1.
       -2    1    3    3    0  502  0.92289432052E+03 -0.12068258241E+03 -0.99978564245E+03  0.13659683537E+04  0.25500000920E-02 0. -1.
</event>
<event>
 5   0  0.4148677E-06  0.2869657E+04  0.7818609E-02  0.8281963E-01
        2   -1    0    0  501    0  0.00000000000E+00  0.00000000000E+00  0.20755241446E+04  0.20755241446E+04  0.25500000920E-02 0.  1.
       -2   -1    0    0    0  501  0.00000000000E+00  0.00000000000E+00 -0.99190978060E+03  0.99190978060E+03  0.25500000920E-02 0. -1.
    10030    2    1    2    0    0  0.00000000000E+00  0.00000000000E+00  0.10836143640E+04  0.30674339252E+04  0.28696569125E+04 0.  0.
        5    1    3    3  502    0 -0.43285845425E+03 -0.69874596353E+03 -0.71529840007E+03  0.10896266581E+04  0.46999998093E+01 0. -1.
       -5    1    3    3    0  502  0.43285845425E+03  0.69874596353E+03  0.17989127641E+04  0.19778072671E+04  0.46999998093E+01 0.  1.
</event>
<event>
 5   0  0.1543678E-06  0.2901513E+04  0.7818609E-02  0.8272427E-01
        1   -1    0    0  501    0  0.00000000000E+00  0.00000000000E+00  0.14193737798E+04  0.14193737798E+04  0.50400001928E-02 0. -1.
       -1   -1    0    0    0  501  0.00000000000E+00  0.00000000000E+00 -0.14828332752E+04  0.14828332752E+04  0.50400001928E-02 0.  1.
    10030    2    1    2    0    0  0.00000000000E+00  0.00000000000E+00 -0.63459495340E+02  0.29022070550E+04  0.29015131712E+04 0.  0.
        3    1    3    3  502    0  0.30996099745E+03  0.67725058005E+03  0.12135380582E+04  0.14238745721E+04  0.10100000352E+00 0. -1.
       -3    1    3    3    0  502 -0.30996099745E+03 -0.67725058005E+03 -0.12769975535E+04  0.14783324829E+04  0.10100000352E+00 0.  1.
</event>
<event>
 5   0  0.1580212E-06  0.3003398E+04  0.7818609E-02  0.8242761E-01
        1   -1    0    0  501    0  0.00000000000E+00  0.00000000000E+00  0.12719578996E+04  0.12719578996E+04  0.50400001928E-02 0.  1.
       -1   -1    0    0    0  501  0.00000000000E+00  0.00000000000E+00 -0.17729354097E+04  0.17729354097E+04  0.50400001928E-02 0. -1.
    10030    2    1    2    0    0  0.00000000000E+00  0.00000000000E+00 -0.50097751012E+03  0.30448933092E+04  0.30033975426E+04 0.  0.
        4    1    3    3  502    0  0.91564223930E+03 -0.92920231926E+03  0.50361606324E+03  0.13983734882E+04  0.12699999809E+01 0. -1.
       -4    1    3    3    0  502 -0.91564223930E+03  0.92920231926E+03 -0.10045935734E+04  0.16465198210E+04  0.12699999809E+01 0.  1.
</event>
<event>
 5   0  0.1511126E-06  0.2895126E+04  0.7818609E-02  0.8274329E-01
        1   -1    0    0  501    0  0.00000000000E+00  0.00000000000E+00  0.23744548675E+04  0.23744548675E+04  0.50400001928E-02 0.  1.
       -1   -1    0    0    0  501  0.00000000000E+00  0.00000000000E+00 -0.88249240305E+03  0.88249240306E+03  0.50400001928E-02 0. -1.
    10030    2    1    2    0    0  0.00000000000E+00  0.00000000000E+00  0.14919624644E+04  0.32569472705E+04  0.28951258225E+04 0.  0.
        5    1    3    3  502    0 -0.29618166988E+03  0.84583751891E+03 -0.53286057079E+03  0.10426539061E+04  0.46999998093E+01 0. -1.
       -5    1    3    3    0  502  0.29618166988E+03 -0.84583751891E+03  0.20248230352E+04  0.22142933645E+04  0.46999998093E+01 0.  1.
</event>
<event>
 5   0  0.1543678E-06  0.2897685E+04  0.7818609E-02  0.8273567E-01
        1   -1    0    0  501    0  0.00000000000E+00  0.00000000000E+00  0.19811154300E+04  0.19811154300E+04  0.50400001928E-02 0.  1.
       -1   -1    0    0    0  501  0.00000000000E+00  0.00000000000E+00 -0.10595772866E+04  0.10595772866E+04  0.50400001928E-02 0. -1.
    10030    2    1    2    0    0  0.00000000000E+00  0.00000000000E+00  0.92153814341E+03  0.30406927166E+04  0.28976852222E+04 0.  0.
        3    1    3    3  502    0  0.87905002933E+03  0.10302414997E+04 -0.79436851166E+02  0.13566269662E+04  0.10100000352E+00 0. -1.
       -3    1    3    3    0  502 -0.87905002933E+03 -0.10302414997E+04  0.10009749946E+04  0.16840657504E+04  0.10100000352E+00 0.  1.
</event>
<event>
 5   0  0.4162450E-06  0.2573136E+04  0.7818609E-02  0.8377384E-01
        2   -1    0    0  501    0  0.00000000000E+00  0.00000000000E+00  0.15337283994E+04  0.15337283994E+04  0.25500000920E-02 0. -1.
       -2   -1    0    0    0  501  0.00000000000E+00  0.00000000000E+00 -0.10792374152E+04  0.10792374152E+04  0.25500000920E-02 0.  1.
    10030    2    1    2    0    0  0.00000000000E+00  0.00000000000E+00  0.45449098419E+03  0.26129658145E+04  0.25731358871E+04 0.  0.
        2    1    3    3  502    0 -0.10402111486E+04  0.74308856796E+03  0.37453275080E+03  0.13321015858E+04  0.25500000920E-02 0. -1.
       -2    1    3    3    0  502  0.10402111486E+04 -0.74308856796E+03  0.79958233383E+02  0.12808642288E+04  0.25500000920E-02 0.  1.
</event>
<event>
 5   0  0.1511126E-06  0.2924575E+04  0.7818609E-02  0.8265603E-01
        1   -1    0    0  501    0  0.00000000000E+00  0.00000000000E+00  0.17228950920E+04  0.17228950920E+04  0.50400001928E-02 0. -1.
       -1   -1    0    0    0  501  0.00000000000E+00  0.00000000000E+00 -0.12410998556E+04  0.12410998556E+04  0.50400001928E-02 0.  1.
    10030    2    1    2    0    0  0.00000000000E+00  0.00000000000E+00  0.48179523641E+03  0.29639949475E+04  0.29245750801E+04 0.  0.
        5    1    3    3  502    0  0.44452472841E+03 -0.96835244098E+03  0.12558722967E+04  0.16469808742E+04  0.46999998093E+01 0. -1.
       -5    1    3    3    0  502 -0.44452472841E+03  0.96835244098E+03 -0.77407706034E+03  0.13170140734E+04  0.46999998093E+01 0.  1.
</event>
<event>
 5   0  0.1550278E-06  0.2878335E+04  0.7818609E-02  0.8279353E-01
        1   -1    0    0  501    0  0.00000000000E+00  0.00000000000E+00  0.12662675460E+04  0.12662675461E+04  0.50400001928E-02 0.  1.
       -1   -1    0    0    0  501  0.00000000000E+00  0.00000000000E+00 -0.16356761235E+04  0.16356761235E+04  0.50400001928E-02 0. -1.
    10030    2    1    2    0    0  0.00000000000E+00  0.00000000000E+00 -0.36940857744E+03  0.29019436695E+04  0.28783353460E+04 0.  0.
        2    1    3    3  502    0 -0.14076650900E+04  0.29887365648E+03 -0.20375698761E+03  0.14533971852E+04  0.25500000920E-02 0. -1.
       -2    1    3    3    0  502  0.14076650900E+04 -0.29887365648E+03 -0.16565158983E+03  0.14485464843E+04  0.25500000920E-02 0.  1.
</event>
<event>
 5   0  0.1543678E-06  0.2920590E+04  0.7818609E-02  0.8266777E-01
        1   -1    0    0  501    0  0.00000000000E+00  0.00000000000E+00  0.22548653703E+04  0.22548653703E+04  0.50400001928E-02 0. -1.
       -1   -1    0    0    0  501  0.00000000000E+00  0.00000000000E+00 -0.94571591654E+03  0.94571591655E+03  0.50400001928E-02 0.  1.
    10030    2    1    2    0    0  0.00000000000E+00  0.00000000000E+00  0.13091494537E+04  0.32005812868E+04  0.29205903995E+04 0.  0.
        3    1    3    3  502    0  0.38026547237E+03 -0.80961454023E+03 -0.61037422254E+03  0.10828823736E+04  0.10100000352E+00 0.  1.
       -3    1    3    3    0  502 -0.38026547237E+03  0.80961454023E+03  0.19195236763E+04  0.21176989133E+04  0.10100000352E+00 0. -1.
</event>
<event>
 5   0  0.4115143E-06  0.2900083E+04  0.7818609E-02  0.8272853E-01
        2   -1    0    0  501    0  0.00000000000E+00  0.00000000000E+00  0.15894960284E+04  0.15894960284E+04  0.25500000920E-02 0.  1.
       -2   -1    0    0    0  501  0.00000000000E+00  0.00000000000E+00 -0.13228221196E+04  0.13228221196E+04  0.25500000920E-02 0. -1.
    10030    2    1    2    0    0  0.00000000000E+00  0.00000000000E+00  0.26667390879E+03  0.29123181481E+04  0.29000831060E+04 0.  0.
        1    1    3    3  502    0 -0.40464521466E+03  0.11828587917E+04  0.87109810304E+03  0.15237140729E+04  0.50400001928E-02 0.  1.
       -1    1    3    3    0  502  0.40464521466E+03 -0.11828587917E+04 -0.60442419424E+03  0.13886040751E+04  0.50400001928E-02 0. -1.
</event>
<event>
 5   0  0.4162450E-06  0.2900220E+04  0.7818609E-02  0.8272812E-01
        2   -1    0    0  501    0  0.00000000000E+00  0.00000000000E+00  0.11991661857E+04  0.11991661857E+04  0.25500000920E-02 0.  1.
       -2   -1    0    0    0  501  0.00000000000E+00  0.00000000000E+00 -0.17535678774E+04  0.17535678774E+04  0.25500000920E-02 0. -1.
    10030    2    1    2    0    0  0.00000000000E+00  0.00000000000E+00 -0.55440169167E+03  0.29527340631E+04  0.29002202005E+04 0.  0.
        2    1    3    3  502    0 -0.11434411637E+04  0.84978652534E+03 -0.17009253823E+01  0.14246395076E+04  0.25500000920E-02 0. -1.
       -2    1    3    3    0  502  0.11434411637E+04 -0.84978652534E+03 -0.55270076629E+03  0.15280945555E+04  0.25500000920E-02 0.  1.
</event>
<event>
 5   0  0.1543678E-06  0.2927201E+04  0.7818609E-02  0.8264830E-01
        1   -1    0    0  501    0  0.00000000000E+00  0.00000000000E+00  0.24877504657E+04  0.24877504657E+04  0.50400001928E-02 0.  1.
       -1   -1    0    0    0  501  0.00000000000E+00  0.00000000000E+00 -0.86106993142E+03  0.86106993144E+03  0.50400001928E-02 0. -1.
    10030    2    1    2    0    0  0.00000000000E+00  0.00000000000E+00  0.16266805342E+04  0.33488203971E+04  0.29272014778E+04 0.  0.
        3    1    3    3  502    0  0.68642996021E+03 -0.12706681780E+04  0.54178340544E+03  0.15425021807E+04  0.10100000352E+00 0.  1.
       -3    1    3    3    0  502 -0.68642996021E+03  0.12706681780E+04  0.10848971288E+04  0.18063182164E+04  0.10100000352E+00 0. -1.
</event>
<event>
 5   0  0.4115143E-06  0.2851727E+04  0.7818609E-02  0.8287387E-01
        2   -1    0    0  501    0  0.00000000000E+00  0.00000000000E+00  0.20470380799E+04  0.20470380799E+04  0.25500000920E-02 0.  1.
       -2   -1    0    0    0  501  0.00000000000E+00  0.00000000000E+00 -0.99318493953E+03  0.99318493953E+03  0.25500000920E-02 0. -1.
    10030    2    1    2    0    0  0.00000000000E+00  0.00000000000E+00  0.10538531403E+04  0.30402230194E+04  0.28517274705E+04 0.  0.
        1    1    3    3  502    0 -0.12576859047E+04 -0.64902551762E+03  0.71182458765E+03  0.15842039645E+04  0.50400001928E-02 0.  1.
       -1    1    3    3    0  502  0.12576859047E+04  0.64902551762E+03  0.34202855268E+03  0.14560190549E+04  0.50400001928E-02 0. -1.
</event>
<event>
 5   0  0.1602873E-06  0.2877436E+04  0.7818609E-02  0.8279623E-01
        1   -1    0    0  501    0  0.00000000000E+00  0.00000000000E+00  0.14997715501E+04  0.14997715501E+04  0.50400001928E-02 0.  1.
       -1   -1    0    0    0  501  0.00000000000E+00  0.00000000000E+00 -0.13801498665E+04  0.13801498665E+04  0.50400001928E-02 0. -1.
    10030    2    1    2    0    0  0.00000000000E+00  0.00000000000E+00  0.11962168357E+03  0.28799214166E+04  0.28774360147E+04 0.  0.
        1    1    3    3  502    0  0.82515222926E+03 -0.73538189066E+03  0.98160950041E+03  0.14782489431E+04  0.50400001928E-02 0.  1.
       -1    1    3    3    0  502 -0.82515222926E+03  0.73538189066E+03 -0.86198781683E+03  0.14016724735E+04  0.50400001928E-02 0. -1.
</event>
<event>
 5   0  0.1543678E-06  0.2904683E+04  0.7818609E-02  0.8271486E-01
       -1   -1    0    0    0  501  0.00000000000E+00  0.00000000000E+00  0.14193675735E+04  0.14193675735E+04  0.50400001928E-02 0. -1.
        1   -1    0    0  501    0  0.00000000000E+00  0.00000000000E+00 -0.14860814782E+04  0.14860814782E+04  0.50400001928E-02 0.  1.
    10030    2    1    2    0    0  0.00000000000E+00  0.00000000000E+00 -0.66713904682E+02  0.29054490517E+04  0.29046830201E+04 0.  0.
        3    1    3    3  502    0  0.15769499227E+03  0.14337882116E+04  0.13603795330E+03  0.14488349393E+04  0.10100000352E+00 0.  1.
       -3    1    3    3    0  502 -0.15769499227E+03 -0.14337882116E+04 -0.20275185798E+03  0.14566141124E+04  0.10100000352E+00 0. -1.
</event>
<event>
 5   0  0.4224163E-06  0.2912068E+04  0.7818609E-02  0.8269296E-01
        2   -1    0    0  501    0  0.00000000000E+00  0.00000000000E+00  0.89110853911E+03  0.89110853911E+03  0.25500000920E-02 0.  1.
       -2   -1    0    0    0  501  0.00000000000E+00  0.00000000000E+00 -0.23790984635E+04  0.23790984635E+04  0.25500000920E-02 0. -1.
    10030    2    1    2    0    0  0.00000000000E+00  0.00000000000E+00 -0.14879899244E+04  0.32702070026E+04  0.29120679636E+04 0.  0.
        4    1    3    3  502    0 -0.76433736906E+02  0.99187540675E+03  0.44995161581E+03  0.10918411094E+04  0.12699999809E+01 0.  1.
       -4    1    3    3    0  502  0.76433736906E+02 -0.99187540675E+03 -0.19379415402E+04  0.21783658932E+04  0.12699999809E+01 0. -1.
</event>
<event>
 5   0  0.1550278E-06  0.2902597E+04  0.7818609E-02  0.8272105E-01
        1   -1    0    0  501    0  0.00000000000E+00  0.00000000000E+00  0.18606875362E+04  0.18606875362E+04  0.50400001928E-02 0.  1.
       -1   -1    0    0    0  501  0.00000000000E+00  0.00000000000E+00 -0.11319830230E+04  0.11319830230E+04  0.50400001928E-02 0. -1.
    10030    2    1    2    0    0  0.00000000000E+00  0.00000000000E+00  0.72870451321E+03  0.29926705592E+04  0.29025965631E+04 0.  0.
        2    1    3    3  502    0  0.10895499556E+04 -0.90004412951E+03  0.23849031002E+02  0.14134239693E+04  0.25500000920E-02 0. -1.
       -2    1    3    3    0  502 -0.10895499556E+04  0.90004412951E+03  0.70485548221E+03  0.15792465898E+04  0.25500000920E-02 0.  1.
</event>
<event>
 5   0  0.4115143E-06  0.2927020E+04  0.7818609E-02  0.8264883E-01
       -2   -1    0    0    0  501  0.00000000000E+00  0.00000000000E+00  0.17997426244E+04  0.17997426244E+04  0.25500000920E-02 0.  1.
        2   -1    0    0  501    0  0.00000000000E+00  0.00000000000E+00 -0.11900935204E+04  0.11900935204E+04  0.25500000920E-02 0. -1.
    10030    2    1    2    0    0  0.00000000000E+00  0.00000000000E+00  0.60964910409E+03  0.29898361448E+04  0.29270203523E+04 0.  0.
        1    1    3    3  502    0 -0.88338424392E+03 -0.71170048721E+03  0.12493176594E+04  0.16875070134E+04  0.50400001928E-02 0.  1.
       -1    1    3    3    0  502  0.88338424392E+03  0.71170048721E+03 -0.63966855535E+03  0.13023291315E+04  0.50400001928E-02 0. -1.
</event>
<event>
 5   0  0.4148677E-06  0.2891151E+04  0.7818609E-02  0.8275515E-01
       -2   -1    0    0    0  501  0.00000000000E+00  0.00000000000E+00  0.10159836541E+04  0.10159836541E+04  0.25500000920E-02 0. -1.
        2   -1    0    0  501    0  0.00000000000E+00  0.00000000000E+00 -0.20568130704E+04  0.20568130704E+04  0.25500000920E-02 0.  1.
    10030    2    1    2    0    0  0.00000000000E+00  0.00000000000E+00 -0.10408294164E+04  0.30727967245E+04  0.28911509535E+04 0.  0.
        5    1    3    3  502    0 -0.92680095798E+03 -0.63421992622E+03 -0.14878052430E+04  0.18640765707E+04  0.46999998093E+01 0.  1.
       -5    1    3    3    0  502  0.92680095798E+03  0.63421992622E+03  0.44697582662E+03  0.12087201538E+04  0.46999998093E+01 0. -1.
</event>
<event>
 5   0  0.4224163E-06  0.2897908E+04  0.7818609E-02  0.8273500E-01
       -2   -1    0    0    0  501  0.00000000000E+00  0.00000000000E+00  0.79440826374E+03  0.79440826375E+03  0.25500000920E-02 0.  1.
        2   -1    0    0  501    0  0.00000000000E+00  0.00000000000E+00 -0.26428075600E+04  0.26428075600E+04  0.25500000920E-02 0. -1.
    10030    2    1    2    0    0  0.00000000000E+00  0.00000000000E+00 -0.18483992962E+04  0.34372158237E+04  0.28979083251E+04 0.  0.
        4    1    3    3  502    0 -0.29618137417E+03 -0.15855279510E+03  0.74757536526E+03  0.81959315205E+03  0.12699999809E+01 0.  1.
       -4    1    3    3    0  502  0.29618137417E+03  0.15855279510E+03 -0.25959746615E+04  0.26176226717E+04  0.12699999809E+01 0. -1.
</event>
<event>
 5   0  0.1543678E-06  0.2881465E+04  0.7818609E-02  0.8278414E-01
       -1   -1    0    0    0  501  0.00000000000E+00  0.00000000000E+00  0.13436755787E+04  0.13436755787E+04  0.50400001928E-02 0.  1.
        1   -1    0    0  501    0  0.00000000000E+00  0.00000000000E+00 -0.15448001924E+04  0.15448001924E+04  0.50400001928E-02 0. -1.
    10030    2    1    2    0    0  0.00000000000E+00  0.00000000000E+00 -0.20112461369E+03  0.28884757712E+04  0.28814651083E+04 0.  0.
        3    1    3    3  502    0 -0.88602979041E+03  0.45238687985E+03 -0.11452146842E+04  0.15169770472E+04  0.10100000352E+00 0. -1.
       -3    1    3    3    0  502  0.88602979041E+03 -0.45238687985E+03  0.94409007049E+03  0.13714987240E+04  0.10100000352E+00 0.  1.
</event>
<event>
 5   0  0.1543678E-06  0.2985022E+04  0.7818609E-02  0.8248021E-01
        1   -1    0    0  501    0  0.00000000000E+00  0.00000000000E+00  0.16177629661E+04  0.16177629661E+04  0.50400001928E-02 0.  1.
       -1   -1    0    0    0  501  0.00000000000E+00  0.00000000000E+00 -0.13769568226E+04  0.13769568226E+04  0.50400001928E-02 0. -1.
    10030    2    1    2    0    0  0.00000000000E+00  0.00000000000E+00  0.24080614345E+03  0.29947197887E+04  0.29850224479E+04 0.  0.
        3    1    3    3  502    0 -0.13561234929E+04 -0.54967250342E+03 -0.17445468824E+03  0.14736503105E+04  0.10100000352E+00 0. -1.
       -3    1    3    3    0  502  0.13561234929E+04  0.54967250342E+03  0.41526083169E+03  0.15210694782E+04  0.10100000352E+00 0.  1.
</event>
<event>
 5   0  0.4187518E-06  0.2904815E+04  0.7818609E-02  0.8271446E-01
        2   -1    0    0  501    0  0.00000000000E+00  0.00000000000E+00  0.11328211057E+04  0.11328211057E+04  0.25500000920E-02 0.  1.
       -2   -1    0    0    0  501  0.00000000000E+00  0.00000000000E+00 -0.18621538759E+04  0.18621538759E+04  0.25500000920E-02 0. -1.
    10030    2    1    2    0    0  0.00000000000E+00  0.00000000000E+00 -0.72933277021E+03  0.29949749817E+04  0.29048147705E+04 0.  0.
        3    1    3    3  502    0 -0.96363199202E+03  0.98751603745E+03  0.10296673993E+03  0.13836100245E+04  0.10100000352E+00 0.  1.
       -3    1    3    3    0  502  0.96363199202E+03 -0.98751603745E+03 -0.83229951014E+03  0.16113649571E+04  0.10100000352E+00 0. -1.
</event>
<event>
 5   0  0.4224163E-06  0.2916190E+04  0.7818609E-02  0.8268077E-01
       -2   -1    0    0    0  501  0.00000000000E+00  0.00000000000E+00  0.12184972498E+04  0.12184972498E+04  0.25500000920E-02 0.  1.
        2   -1    0    0  501    0  0.00000000000E+00  0.00000000000E+00 -0.17448061384E+04  0.17448061384E+04  0.25500000920E-02 0. -1.
    10030    2    1    2    0    0  0.00000000000E+00  0.00000000000E+00 -0.52630888861E+03  0.29633033882E+04  0.29161903100E+04 0.  0.
        4    1    3    3  502    0  0.13192039363E+04 -0.62088252642E+03 -0.24722538581E+03  0.14788225524E+04  0.12699999809E+01 0. -1.
       -4    1    3    3    0  502 -0.13192039363E+04  0.62088252642E+03 -0.27908350280E+03  0.14844808358E+04  0.12699999809E+01 0.  1.
</event>
<event>
 5   0  0.1580212E-06  0.2896935E+04  0.7818609E-02  0.8273790E-01
       -1   -1    0    0    0  501  0.00000000000E+00  0.00000000000E+00  0.12510144754E+04  0.12510144754E+04  0.50400001928E-02 0. -1.
        1   -1    0    0  501    0  0.00000000000E+00  0.00000000000E+00 -0.16770855390E+04  0.16770855390E+04  0.50400001928E-02 0.  1.
    10030    2    1    2    0    0  0.00000000000E+00  0.00000000000E+00 -0.42607106363E+03  0.29281000144E+04  0.28969351293E+04 0.  0.
        4    1    3    3  502    0 -0.12405115332E+04 -0.56500781227E+03  0.28208520541E+03  0.13920044425E+04  0.12699999809E+01 0. -1.
       -4    1    3    3    0  502  0.12405115332E+04  0.56500781227E+03 -0.70815626904E+03  0.15360955720E+04  0.12699999809E+01 0.  1.
</event>
<event>
 5   0  0.1602873E-06  0.2881947E+04  0.7818609E-02  0.8278269E-01
        1   -1    0    0  501    0  0.00000000000E+00  0.00000000000E+00  0.14065295750E+04  0.14065295751E+04  0.50400001928E-02 0.  1.
       -1   -1    0    0    0  501  0.00000000000E+00  0.00000000000E+00 -0.14762611248E+04  0.14762611248E+04  0.50400001928E-02 0. -1.
    10030    2    1    2    0    0  0.00000000000E+00  0.00000000000E+00 -0.69731549732E+02  0.28827906998E+04  0.28819472115E+04 0.  0.
        1    1    3    3  502    0  0.82516080601E+02 -0.15796040552E+03  0.13954634067E+04  0.14067972535E+04  0.50400001928E-02 0.  1.
       -1    1    3    3    0  502 -0.82516080601E+02  0.15796040552E+03 -0.14651949564E+04  0.14759934463E+04  0.50400001928E-02 0. -1.
</event>
<event>
 5   0  0.1550278E-06  0.2915856E+04  0.7818609E-02  0.8268175E-01
       -1   -1    0    0    0  501  0.00000000000E+00  0.00000000000E+00  0.12212018228E+04  0.12212018228E+04  0.50400001928E-02 0.  1.
        1   -1    0    0  501    0  0.00000000000E+00  0.00000000000E+00 -0.17405427497E+04  0.17405427498E+04  0.50400001928E-02 0. -1.
    10030    2    1    2    0    0  0.00000000000E+00  0.00000000000E+00 -0.51934092691E+03  0.29617445726E+04  0.29158559489E+04 0.  0.
        2    1    3    3  502    0  0.64379695258E+03  0.12585367049E+04  0.10254337246E+03  0.14173582105E+04  0.25500000920E-02 0.  1.
       -2    1    3    3    0  502 -0.64379695258E+03 -0.12585367049E+04 -0.62188429937E+03  0.15443863621E+04  0.25500000920E-02 0. -1.
</event>
<event>
 5   0  0.4224163E-06  0.2899838E+04  0.7818609E-02  0.8272926E-01
        2   -1    0    0  501    0  0.00000000000E+00  0.00000000000E+00  0.21787483369E+04  0.21787483369E+04  0.25500000920E-02 0. -1.
       -2   -1    0    0    0  501  0.00000000000E+00  0.00000000000E+00 -0.96489557718E+03  0.96489557718E+03  0.25500000920E-02 0.  1.
    10030    2    1    2    0    0  0.00000000000E+00  0.00000000000E+00  0.12138527597E+04  0.31436439141E+04  0.28998376741E+04 0.  0.
        4    1    3    3  502    0  0.87149035397E+03 -0.10072919797E+04  0.12279139786E+04  0.18116034116E+04  0.12699999809E+01 0. -1.
       -4    1    3    3    0  502 -0.87149035397E+03  0.10072919797E+04 -0.14061218854E+02  0.13320405024E+04  0.12699999809E+01 0.  1.
</event>
<event>
 5   0  0.4224163E-06  0.2866694E+04  0.7818609E-02  0.8282857E-01
        2   -1    0    0  501    0  0.00000000000E+00  0.00000000000E+00  0.22121838868E+04  0.22121838868E+04  0.25500000920E-02 0. -1.
       -2   -1    0    0    0  501  0.00000000000E+00  0.00000000000E+00 -0.92871273740E+03  0.92871273740E+03  0.25500000920E-02 0.  1.
    10030    2    1    2    0    0  0.00000000000E+00  0.00000000000E+00  0.12834711494E+04  0.31408966243E+04  0.28666938122E+04 0.  0.
        4    1    3    3  502    0  0.64629650043E+03 -0.61726342133E+03 -0.58606297569E+03  0.10687304254E+04  0.12699999809E+01 0.  1.
       -4    1    3    3    0  502 -0.64629650043E+03  0.61726342133E+03  0.18695341251E+04  0.20721661989E+04  0.12699999809E+01 0. -1.
</event>
<event>
 5   0  0.4148677E-06  0.2928489E+04  0.7818609E-02  0.8264451E-01
       -2   -1    0    0    0  501  0.00000000000E+00  0.00000000000E+00  0.15415122239E+04  0.15415122239E+04  0.25500000920E-02 0.  1.
        2   -1    0    0  501    0  0.00000000000E+00  0.00000000000E+00 -0.13908495552E+04  0.13908495552E+04  0.25500000920E-02 0. -1.
    10030    2    1    2    0    0  0.00000000000E+00  0.00000000000E+00  0.15066266865E+03  0.29323617791E+04  0.29284887508E+04 0.  0.
        5    1    3    3  502    0 -0.11846705109E+04 -0.85097330579E+02  0.93279541399E+03  0.15102367859E+04  0.46999998093E+01 0.  1.
       -5    1    3    3    0  502  0.11846705109E+04  0.85097330579E+02 -0.78213274535E+03  0.14221249932E+04  0.46999998093E+01 0. -1.
</event>
<event>
 5   0  0.1511126E-06  0.2894000E+04  0.7818609E-02  0.8274665E-01
       -1   -1    0    0    0  501  0.00000000000E+00  0.00000000000E+00  0.12895841445E+04  0.12895841445E+04  0.50400001928E-02 0.  1.
        1   -1    0    0  501    0  0.00000000000E+00  0.00000000000E+00 -0.16236316595E+04  0.16236316595E+04  0.50400001928E-02 0. -1.
    10030    2    1    2    0    0  0.00000000000E+00  0.00000000000E+00 -0.33404751496E+03  0.29132158040E+04  0.28940004455E+04 0.  0.
        5    1    3    3  502    0 -0.87626623308E+03  0.78552943406E+03 -0.10145693017E+04  0.15537927664E+04  0.46999998093E+01 0. -1.
       -5    1    3    3    0  502  0.87626623308E+03 -0.78552943406E+03  0.68052178673E+03  0.13594230376E+04  0.46999998093E+01 0.  1.
</event>
<event>
 5   0  0.1550278E-06  0.2923183E+04  0.7818609E-02  0.8266013E-01
       -1   -1    0    0    0  501  0.00000000000E+00  0.00000000000E+00  0.81799457203E+03  0.81799457205E+03  0.50400001928E-02 0.  1.
        1   -1    0    0  501    0  0.00000000000E+00  0.00000000000E+00 -0.26115696818E+04  0.26115696818E+04  0.50400001928E-02 0. -1.
    10030    2    1    2    0    0  0.00000000000E+00  0.00000000000E+00 -0.17935751097E+04  0.34295642538E+04  0.29231830762E+04 0.  0.
        2    1    3    3  502    0  0.17529291416E+03  0.12683342961E+04 -0.69806195701E+02  0.12822918534E+04  0.25500000920E-02 0.  1.
       -2    1    3    3    0  502 -0.17529291416E+03 -0.12683342961E+04 -0.17237689140E+04  0.21472724004E+04  0.25500000920E-02 0. -1.
</event>
<event>
 5   0  0.4115143E-06  0.2869502E+04  0.7818609E-02  0.8282010E-01
        2   -1    0    0  501    0  0.00000000000E+00  0.00000000000E+00  0.24997970457E+04  0.24997970457E+04  0.25500000920E-02 0. -1.
       -2   -1    0    0    0  501  0.00000000000E+00  0.00000000000E+00 -0.82347128928E+03  0.82347128928E+03  0.25500000920E-02 0.  1.
    10030    2    1    2    0    0  0.00000000000E+00  0.00000000000E+00  0.16763257565E+04  0.33232683350E+04  0.28695024629E+04 0.  0.
        1    1    3    3  502    0  0.66706092277E+03 -0.54893354214E+03  0.21648268664E+04  0.23308311114E+04  0.50400001928E-02 0. -1.
       -1    1    3    3    0  502 -0.66706092277E+03  0.54893354214E+03 -0.48850110995E+03  0.99243722362E+03  0.50400001928E-02 0.  1.
</event>
<event>
 5   0  0.1580212E-06  0.2905176E+04  0.7818609E-02  0.8271339E-01
        1   -1    0    0  501    0  0.00000000000E+00  0.00000000000E+00  0.15143884042E+04  0.15143884042E+04  0.50400001928E-02 0. -1.
       -1   -1    0    0    0  501  0.00000000000E+00  0.00000000000E+00 -0.13933092529E+04  0.13933092529E+04  0.50400001928E-02 0.  1.
    10030    2    1    2    0    0  0.00000000000E+00  0.00000000000E+00  0.12107915127E+03  0.29076976571E+04  0.29051756408E+04 0.  0.
        4    1    3    3  502    0 -0.97976347013E+03  0.26868231545E+03  0.10996523591E+04  0.14971184214E+04  0.12699999809E+01 0. -1.
       -4    1    3    3    0  502  0.97976347013E+03 -0.26868231545E+03 -0.97857320783E+03  0.14105792356E+04  0.12699999809E+01 0.  1.
</event>
<event>
 5   0  0.4115143E-06  0.2942796E+04  0.7818609E-02  0.8260257E-01
        2   -1    0    0  501    0  0.00000000000E+00  0.00000000000E+00  0.17766603273E+04  0.17766603273E+04  0.25500000920E-02 0. -1.
       -2   -1    0    0    0  501  0.00000000000E+00  0.00000000000E+00 -0.12185852627E+04  0.12185852627E+04  0.25500000920E-02 0.  1.
    10030    2    1    2    0    0  0.00000000000E+00  0.00000000000E+00  0.55807506464E+03  0.29952455900E+04  0.29427960117E+04 0.  0.
        1    1    3    3  502    0  0.80123493071E+03  0.90105954379E+03 -0.57927543168E+03  0.13377016638E+04  0.50400001928E-02 0.  1.
       -1    1    3    3    0  502 -0.80123493071E+03 -0.90105954379E+03  0.11373504963E+04  0.16575439262E+04  0.50400001928E-02 0. -1.
</event>
<event>
 5   0  0.4162450E-06  0.2884588E+04  0.7818609E-02  0.8277478E-01
       -2   -1    0    0    0  501  0.00000000000E+00  0.00000000000E+00  0.14396446227E+04  0.14396446227E+04  0.25500000920E-02 0. -1.
        2   -1    0    0  501    0  0.00000000000E+00  0.00000000000E+00 -0.14449486099E+04  0.14449486099E+04  0.25500000920E-02 0.  1.
    10030    2    1    2    0    0  0.00000000000E+00  0.00000000000E+00 -0.53039872711E+01  0.28845932326E+04  0.28845883563E+04 0.  0.
        2    1    3    3  502    0 -0.85252059564E+03 -0.11338203826E+04 -0.26317588863E+03  0.14427756493E+04  0.25500000920E-02 0.  1.
       -2    1    3    3    0  502  0.85252059564E+03  0.11338203826E+04  0.25787190136E+03  0.14418175833E+04  0.25500000920E-02 0. -1.
</event>
<event>
 5   0  0.1602873E-06  0.2933428E+04  0.7818609E-02  0.8263001E-01
        1   -1    0    0  501    0  0.00000000000E+00  0.00000000000E+00  0.24171937446E+04  0.24171937446E+04  0.50400001928E-02 0. -1.
       -1   -1    0    0    0  501  0.00000000000E+00  0.00000000000E+00 -0.88997809372E+03  0.88997809373E+03  0.50400001928E-02 0.  1.
    10030    2    1    2    0    0  0.00000000000E+00  0.00000000000E+00  0.15272156509E+04  0.33071718383E+04  0.29334276749E+04 0.  0.
        1    1    3    3  502    0  0.62704045662E+03  0.13073240670E+04  0.51411268959E+03  0.15383718042E+04  0.50400001928E-02 0. -1.
       -1    1    3    3    0  502 -0.62704045662E+03 -0.13073240670E+04  0.10131029613E+04  0.17688000341E+04  0.50400001928E-02 0.  1.
</event>
<event>
 5   0  0.4224163E-06  0.2901387E+04  0.7818609E-02  0.8272465E-01
        2   -1    0    0  501    0  0.00000000000E+00  0.00000000000E+00  0.20591065928E+04  0.20591065928E+04  0.25500000920E-02 0.  1.
       -2   -1    0    0    0  501  0.00000000000E+00  0.00000000000E+00 -0.10220506082E+04  0.10220506082E+04  0.25500000920E-02 0. -1.
    10030    2    1    2    0    0  0.00000000000E+00  0.00000000000E+00  0.10370559846E+04  0.30811572010E+04  0.29013866654E+04 0.  0.
        4    1    3    3  502    0  0.30757202289E+03 -0.13751415103E+04  0.15235214539E+03  0.14173311228E+04  0.12699999809E+01 0.  1.
       -4    1    3    3    0  502 -0.30757202289E+03  0.13751415103E+04  0.88470383920E+03  0.16638260782E+04  0.12699999809E+01 0. -1.
</event>
<event>
 5   0  0.1543678E-06  0.2906254E+04  0.7818609E-02  0.8271019E-01
       -1   -1    0    0    0  501  0.00000000000E+00  0.00000000000E+00  0.94770609083E+03  0.94770609085E+03  0.50400001928E-02 0. -1.
        1   -1    0    0  501    0  0.00000000000E+00  0.00000000000E+00 -0.22280944575E+04  0.22280944575E+04  0.50400001928E-02 0.  1.
    10030    2    1    2    0    0  0.00000000000E+00  0.00000000000E+00 -0.12803883667E+04  0.31758005484E+04  0.29062544200E+04 0.  0.
        3    1    3    3  502    0  0.33004432455E+03  0.85331162626E+03 -0.18738414170E+04  0.20852701633E+04  0.10100000352E+00 0.  1.
       -3    1    3    3    0  502 -0.33004432455E+03 -0.85331162626E+03  0.59345305030E+03  0.10905303851E+04  0.10100000352E+00 0. -1.
</event>
<event>
 5   0  0.4148677E-06  0.2892857E+04  0.7818609E-02  0.8275006E-01
        2   -1    0    0  501    0  0.00000000000E+00  0.00000000000E+00  0.90156165720E+03  0.90156165721E+03  0.25500000920E-02 0.  1.
       -2   -1    0    0    0  501  0.00000000000E+00  0.00000000000E+00 -0.23205897182E+04  0.23205897182E+04  0.25500000920E-02 0. -1.
    10030    2    1    2    0    0  0.00000000000E+00  0.00000000000E+00 -0.14190280610E+04  0.32221513754E+04  0.28928565205E+04 0.  0.
        5    1    3    3  502    0  0.97667322311E+03  0.69077416523E+03  0.19610133987E+03  0.12122447598E+04  0.46999998093E+01 0. -1.
       -5    1    3    3    0  502 -0.97667322311E+03 -0.69077416523E+03 -0.16151294009E+04  0.20099066157E+04  0.46999998093E+01 0.  1.
</event>
<event>
 5   0  0.4148677E-06  0.2899399E+04  0.7818609E-02  0.8273056E-01
       -2   -1    0    0    0  501  0.00000000000E+00  0.00000000000E+00  0.17171895956E+04  0.17171895956E+04  0.25500000920E-02 0. -1.
        2   -1    0    0  501    0  0.00000000000E+00  0.00000000000E+00 -0.12238766020E+04  0.12238766020E+04  0.25500000920E-02 0.  1.
    10030    2    1    2    0    0  0.00000000000E+00  0.00000000000E+00  0.49331299368E+03  0.29410661976E+04  0.28993986737E+04 0.  0.
        5    1    3    3  502    0  0.10141888384E+04  0.74090667643E+02 -0.80140909739E+03  0.12947382200E+04  0.46999998093E+01 0.  1.
       -5    1    3    3    0  502 -0.10141888384E+04 -0.74090667643E+02  0.12947220911E+04  0.16463279776E+04  0.46999998093E+01 0. -1.
</event>
<event>
 5   0  0.4115143E-06  0.2901278E+04  0.7818609E-02  0.8272497E-01
        2   -1    0    0  501    0  0.00000000000E+00  0.00000000000E+00  0.25417944447E+04  0.25417944447E+04  0.25500000920E-02 0. -1.
       -2   -1    0    0    0  501  0.00000000000E+00  0.00000000000E+00 -0.82790074827E+03  0.82790074828E+03  0.25500000920E-02 0.  1.
    10030    2    1    2    0    0  0.00000000000E+00  0.00000000000E+00  0.17138936965E+04  0.33696951930E+04  0.29012780100E+04 0.  0.
        1    1    3    3  502    0 -0.71595206386E+03  0.10057003548E+04 -0.27842511165E+02  0.12348262091E+04  0.50400001928E-02 0.  1.
       -1    1    3    3    0  502  0.71595206386E+03 -0.10057003548E+04  0.17417362076E+04  0.21348689839E+04  0.50400001928E-02 0. -1.
</event>
<event>
 5   0  0.1580212E-06  0.2897946E+04  0.7818609E-02  0.8273489E-01
        1   -1    0    0  501    0  0.00000000000E+00  0.00000000000E+00  0.19616540021E+04  0.19616540021E+04  0.50400001928E-02 0. -1.
       -1   -1    0    0    0  501  0.00000000000E+00  0.00000000000E+00 -0.10702821073E+04  0.10702821073E+04  0.50400001928E-02 0.  1.
    10030    2    1    2    0    0  0.00000000000E+00  0.00000000000E+00  0.89137189485E+03  0.30319361094E+04  0.28979462930E+04 0.  0.
        4    1    3    3  502    0 -0.13212226950E+04  0.45603106643E+03  0.46018511371E+02  0.13984681118E+04  0.12699999809E+01 0.  1.
       -4    1    3    3    0  502  0.13212226950E+04 -0.45603106643E+03  0.84535338348E+03  0.16334679976E+04  0.12699999809E+01 0. -1.
</event>
<event>
 5   0  0.1543678E-06  0.2904783E+04  0.7818609E-02  0.8271456E-01
       -1   -1    0    0    0  501  0.00000000000E+00  0.00000000000E+00  0.10623923205E+04  0.10623923205E+04  0.50400001928E-02 0.  1.
        1   -1    0    0  501    0  0.00000000000E+00  0.00000000000E+00 -0.19855569239E+04  0.19855569239E+04  0.50400001928E-02 0. -1.
    10030    2    1    2    0    0  0.00000000000E+00  0.00000000000E+00 -0.92316460341E+03  0.30479492444E+04  0.29047825584E+04 0.  0.
        3    1    3    3  502    0 -0.89193591910E+02  0.12671778503E+04 -0.12003763169E+04  0.17477409744E+04  0.10100000352E+00 0. -1.
       -3    1    3    3    0  502  0.89193591910E+02 -0.12671778503E+04  0.27721171352E+03  0.13002082700E+04  0.10100000352E+00 0.  1.
</event>
<event>
 5   0  0.1543678E-06  0.2893466E+04  0.7818609E-02  0.8274824E-01
        1   -1    0    0  501    0  0.00000000000E+00  0.00000000000E+00  0.20732396735E+04  0.20732396735E+04  0.50400001928E-02 0. -1.
       -1   -1    0    0    0  501  0.00000000000E+00  0.00000000000E+00 -0.10095488306E+04  0.10095488306E+04  0.50400001928E-02 0.  1.
    10030    2    1    2    0    0  0.00000000000E+00  0.00000000000E+00  0.10636908429E+04  0.30827885040E+04  0.28934662174E+04 0.  0.
        3    1    3    3  502    0  0.11208099366E+04  0.72056389692E+03  0.11322887332E+04  0.17485722830E+04  0.10100000352E+00 0. -1.
       -3    1    3    3    0  502 -0.11208099366E+04 -0.72056389692E+03 -0.68597890238E+02  0.13342162210E+04  0.10100000352E+00 0.  1.
</event>
<event>
 5   0  0.4224163E-06  0.2913909E+04  0.7818609E-02  0.8268751E-01
        2   -1    0    0  501    0  0.00000000000E+00  0.00000000000E+00  0.17026890581E+04  0.17026890581E+04  0.25500000920E-02 0.  1.
       -2   -1    0    0    0  501  0.00000000000E+00  0.00000000000E+00 -0.12466847835E+04  0.12466847835E+04  0.25500000920E-02 0. -1.
    10030    2    1    2    0    0  0.00000000000E+00  0.00000000000E+00  0.45600427460E+03  0.29493738417E+04  0.29139090857E+04 0.  0.
        4    1    3    3  502    0  0.69206645886E+03 -0.11320273073E+03  0.15206295524E+04  0.16745407401E+04  0.12699999809E+01 0.  1.
       -4    1    3    3    0  502 -0.69206645886E+03  0.11320273073E+03 -0.10646252778E+04  0.12748331016E+04  0.12699999809E+01 0. -1.
</event>
<event>
 5   0  0.1511126E-06  0.2891011E+04  0.7818609E-02  0.8275557E-01
        1   -1    0    0  501    0  0.00000000000E+00  0.00000000000E+00  0.16583133467E+04  0.16583133467E+04  0.50400001928E-02 0.  1.
       -1   -1    0    0    0  501  0.00000000000E+00  0.00000000000E+00 -0.12600070105E+04  0.12600070105E+04  0.50400001928E-02 0. -1.
    10030    2    1    2    0    0  0.00000000000E+00  0.00000000000E+00  0.39830633618E+03  0.29183203573E+04  0.28910112020E+04 0.  0.
        5    1    3    3  502    0  0.12634908673E+03  0.78641605776E+03 -0.10184959415E+04  0.12929695977E+04  0.46999998093E+01 0. -1.
       -5    1    3    3    0  502 -0.12634908673E+03 -0.78641605776E+03  0.14168022777E+04  0.16253507596E+04  0.46999998093E+01 0.  1.
</event>
<event>
 5   0  0.1602873E-06  0.2824722E+04  0.7818609E-02  0.8295634E-01
        1   -1    0    0  501    0  0.00000000000E+00  0.00000000000E+00  0.17743321259E+04  0.17743321259E+04  0.50400001928E-02 0. -1.
       -1   -1    0    0    0  501  0.00000000000E+00  0.00000000000E+00 -0.11242338556E+04  0.11242338556E+04  0.50400001928E-02 0.  1.
    10030    2    1    2    0    0  0.00000000000E+00  0.00000000000E+00  0.65009827031E+03  0.28985659815E+04  0.28247224621E+04 0.  0.
        1    1    3    3  502    0  0.55908927506E+02  0.64361174165E+03  0.16138287297E+04  0.17383339872E+04  0.50400001928E-02 0. -1.
       -1    1    3    3    0  502 -0.55908927506E+02 -0.64361174165E+03 -0.96373045941E+03  0.11602319943E+04  0.50400001928E-02 0.  1.
</event>
<event>
 5   0  0.1550278E-06  0.2830871E+04  0.7818609E-02  0.8293748E-01
       -1   -1    0    0    0  501  0.00000000000E+00  0.00000000000E+00  0.84466352048E+03  0.84466352050E+03  0.50400001928E-02 0.  1.
        1   -1    0    0  501    0  0.00000000000E+00  0.00000000000E+00 -0.23719006682E+04  0.23719006682E+04  0.50400001928E-02 0. -1.
    10030    2    1    2    0    0  0.00000000000E+00  0.00000000000E+00 -0.15272371477E+04  0.32165641887E+04  0.28308712218E+04 0.  0.
        2    1    3    3  502    0 -0.31795692074E+03 -0.35412582047E+03  0.75102511251E+03  0.88912339965E+03  0.25500000920E-02 0.  1.
       -2    1    3    3    0  502  0.31795692074E+03  0.35412582047E+03 -0.22782622602E+04  0.23274407891E+04  0.25500000920E-02 0. -1.
</event>
<event>
 5   0  0.4187518E-06  0.2870312E+04  0.7818609E-02  0.8281766E-01
       -2   -1    0    0    0  501  0.00000000000E+00  0.00000000000E+00  0.10691590699E+04  0.10691590699E+04  0.25500000920E-02 0. -1.
        2   -1    0    0  501    0  0.00000000000E+00  0.00000000000E+00 -0.19264415424E+04  0.19264415424E+04  0.25500000920E-02 0.  1.
    10030    2    1    2    0    0  0.00000000000E+00  0.00000000000E+00 -0.85728247242E+03  0.29956006123E+04  0.28703117933E+04 0.  0.
        3    1    3    3  502    0 -0.21951369290E+02  0.22635368884E+03 -0.19075172939E+04  0.19210257915E+04  0.10100000352E+00 0.  1.
       -3    1    3    3    0  502  0.21951369290E+02 -0.22635368884E+03  0.10502348214E+04  0.10745748208E+04  0.10100000352E+00 0. -1.
</event>
<event>
 5   0  0.4224163E-06  0.2895222E+04  0.7818609E-02  0.8274301E-01
        2   -1    0    0  501    0  0.00000000000E+00  0.00000000000E+00  0.12840647020E+04  0.12840647020E+04  0.25500000920E-02 0.  1.
       -2   -1    0    0    0  501  0.00000000000E+00  0.00000000000E+00 -0.16319873189E+04  0.16319873189E+04  0.25500000920E-02 0. -1.
    10030    2    1    2    0    0  0.00000000000E+00  0.00000000000E+00 -0.34792261693E+03  0.29160520209E+04  0.28952217949E+04 0.  0.
        4    1    3    3  502    0  0.11510834788E+04  0.86976224502E+03 -0.54379854379E+02  0.14437584006E+04  0.12699999809E+01 0. -1.
       -4    1    3    3    0  502 -0.11510834788E+04 -0.86976224502E+03 -0.29354276256E+03  0.14722936203E+04  0.12699999809E+01 0.  1.
</event>
<event>
 5   0  0.4115143E-06  0.2911741E+04  0.7818609E-02  0.8269393E-01
        2   -1    0    0  501    0  0.00000000000E+00  0.00000000000E+00  0.24141038720E+04  0.24141038720E+04  0.25500000920E-02 0. -1.
       -2   -1    0    0    0  501  0.00000000000E+00  0.00000000000E+00 -0.87798982791E+03  0.87798982791E+03  0.25500000920E-02 0.  1.
    10030    2    1    2    0    0  0.00000000000E+00  0.00000000000E+00  0.15361140440E+04  0.32920936999E+04  0.29117408148E+04 0.  0.
        1    1    3    3  502    0 -0.11582791450E+04 -0.87555777418E+03  0.64762186218E+03  0.15898509584E+04  0.50400001928E-02 0. -1.
       -1    1    3    3    0  502  0.11582791450E+04  0.87555777418E+03  0.88849218187E+03  0.17022427415E+04  0.50400001928E-02 0.  1.
</event>
<event>
 5   0  0.4187518E-06  0.2916732E+04  0.7818609E-02  0.8267917E-01
       -2   -1    0    0    0  501  0.00000000000E+00  0.00000000000E+00  0.12695273590E+04  0.12695273590E+04  0.25500000920E-02 0.  1.
        2   -1    0    0  501    0  0.00000000000E+00  0.00000000000E+00 -0.16752936034E+04  0.16752936034E+04  0.25500000920E-02 0. -1.
    10030    2    1    2    0    0  0.00000000000E+00  0.00000000000E+00 -0.40576624433E+03  0.29448209624E+04  0.29167317764E+04 0.  0.
        3    1    3    3  502    0  0.14014542476E+04 -0.18777012944E+01 -0.61019549014E+03  0.15285339644E+04  0.10100000352E+00 0.  1.
       -3    1    3    3    0  502 -0.14014542476E+04  0.18777012944E+01  0.20442924582E+03  0.14162869980E+04  0.10100000352E+00 0. -1.
</event>
<event>
 5   0  0.1511126E-06  0.2950117E+04  0.7818609E-02  0.8258120E-01
        1   -1    0    0  501    0  0.00000000000E+00  0.00000000000E+00  0.19877202927E+04  0.19877202927E+04  0.50400001928E-02 0. -1.
       -1   -1    0    0    0  501  0.00000000000E+00  0.00000000000E+00 -0.10946196783E+04  0.10946196784E+04  0.50400001928E-02 0.  1.
    10030    2    1    2    0    0  0.00000000000E+00  0.00000000000E+00  0.89310061433E+03  0.30823399710E+04  0.29501171146E+04 0.  0.
        5    1    3    3  502    0  0.11996016552E+04 -0.55751849842E+03  0.11284138521E+04  0.17387383124E+04  0.46999998093E+01 0. -1.
       -5    1    3    3    0  502 -0.11996016552E+04  0.55751849842E+03 -0.23531323773E+03  0.13436016587E+04  0.46999998093E+01 0.  1.
</event>
<event>
 5   0  0.1580212E-06  0.2930214E+04  0.7818609E-02  0.8263944E-01
       -1   -1    0    0    0  501  0.00000000000E+00  0.00000000000E+00  0.10295098137E+04  0.10295098137E+04  0.50400001928E-02 0.  1.
        1   -1    0    0  501    0  0.00000000000E+00  0.00000000000E+00 -0.20850108490E+04  0.20850108490E+04  0.50400001928E-02 0. -1.
    10030    2    1    2    0    0  0.00000000000E+00  0.00000000000E+00 -0.10555010353E+04  0.31145206626E+04  0.29302144158E+04 0.  0.
        4    1    3    3  502    0 -0.34845435271E+02 -0.14297715744E+04 -0.18982807245E+03  0.14427395015E+04  0.12699999809E+01 0. -1.
       -4    1    3    3    0  502  0.34845435271E+02  0.14297715744E+04 -0.86567296284E+03  0.16717811611E+04  0.12699999809E+01 0.  1.
</event>
<event>
 5   0  0.1511126E-06  0.2879804E+04  0.7818609E-02  0.8278912E-01
        1   -1    0    0  501    0  0.00000000000E+00  0.00000000000E+00  0.14276371798E+04  0.14276371799E+04  0.50400001928E-02 0.  1.
       -1   -1    0    0    0  501  0.00000000000E+00  0.00000000000E+00 -0.14522719088E+04  0.14522719089E+04  0.50400001928E-02 0. -1.
    10030    2    1    2    0    0  0.00000000000E+00  0.00000000000E+00 -0.24634729002E+02  0.28799090887E+04  0.28798037241E+04 0.  0.
        5    1    3    3  502    0  0.11124160107E+03 -0.44203565108E+03  0.13535748654E+04  0.14282707085E+04  0.46999998093E+01 0.  1.
       -5    1    3    3    0  502 -0.11124160107E+03  0.44203565108E+03 -0.13782095944E+04  0.14516383802E+04  0.46999998093E+01 0. -1.
</event>
<event>
 5   0  0.1543678E-06  0.2893097E+04  0.7818609E-02  0.8274934E-01
       -1   -1    0    0    0  501  0.00000000000E+00  0.00000000000E+00  0.20236935317E+04  0.20236935317E+04  0.50400001928E-02 0. -1.
        1   -1    0    0  501    0  0.00000000000E+00  0.00000000000E+00 -0.10340015831E+04  0.10340015831E+04  0.50400001928E-02 0.  1.
    10030    2    1    2    0    0  0.00000000000E+00  0.00000000000E+00  0.98969194856E+03  0.30576951148E+04  0.28930968290E+04 0.  0.
        3    1    3    3  502    0  0.41950462768E+03  0.11201162160E+04 -0.36498595311E+03  0.12505435723E+04  0.10100000352E+00 0.  1.
       -3    1    3    3    0  502 -0.41950462768E+03 -0.11201162160E+04  0.13546779017E+04  0.18071515425E+04  0.10100000352E+00 0. -1.
</event>
<event>
 5   0  0.4224163E-06  0.2902121E+04  0.7818609E-02  0.8272247E-01
        2   -1    0    0  501    0  0.00000000000E+00  0.00000000000E+00  0.26755712225E+04  0.26755712225E+04  0.25500000920E-02 0.  1.
       -2   -1    0    0    0  501  0.00000000000E+00  0.00000000000E+00 -0.78696345395E+03  0.78696345395E+03  0.25500000920E-02 0. -1.
    10030    2    1    2    0    0  0.00000000000E+00  0.00000000000E+00  0.18886077686E+04  0.34625346765E+04  0.29021211350E+04 0.  0.
        4    1    3    3  502    0 -0.54422482324E+03 -0.12091275500E+04  0.16475327189E+04  0.21148370536E+04  0.12699999809E+01 0.  1.
       -4    1    3    3    0  502  0.54422482324E+03  0.12091275500E+04  0.24107504967E+03  0.13476976229E+04  0.12699999809E+01 0. -1.
</event>
<event>
 5   0  0.4115143E-06  0.2906433E+04  0.7818609E-02  0.8270966E-01
        2   -1    0    0  501    0  0.00000000000E+00  0.00000000000E+00  0.26092355572E+04  0.26092355572E+04  0.25500000920E-02 0.  1.
       -2   -1    0    0    0  501  0.00000000000E+00  0.00000000000E+00 -0.80937072090E+03  0.80937072090E+03  0.25500000920E-02 0. -1.
    10030    2    1    2    0    0  0.00000000000E+00  0.00000000000E+00  0.17998648363E+04  0.34186062781E+04  0.29064334597E+04 0.  0.
        1    1    3    3  502    0  0.40837083321E+02 -0.10803120154E+04  0.20421975410E+04  0.23106952448E+04  0.50400001928E-02 0.  1.
       -1    1    3    3    0  502 -0.40837083321E+02  0.10803120154E+04 -0.24233270470E+03  0.11079110333E+04  0.50400001928E-02 0. -1.
</event>
<event>
 5   0  0.4162450E-06  0.2843444E+04  0.7818609E-02  0.8289906E-01
       -2   -1    0    0    0  501  0.00000000000E+00  0.00000000000E+00  0.96925528963E+03  0.96925528963E+03  0.25500000920E-02 0. -1.
        2   -1    0    0  501    0  0.00000000000E+00  0.00000000000E+00 -0.20854087261E+04  0.20854087261E+04  0.25500000920E-02 0.  1.
    10030    2    1    2    0    0  0.00000000000E+00  0.00000000000E+00 -0.11161534365E+04  0.30546640157E+04  0.28434439954E+04 0.  0.
        2    1    3    3  502    0  0.13108268024E+04  0.27896522662E+03 -0.48267455386E+02  0.13410511738E+04  0.25500000920E-02 0. -1.
       -2    1    3    3    0  502 -0.13108268024E+04 -0.27896522662E+03 -0.10678859811E+04  0.17136128419E+04  0.25500000920E-02 0.  1.
</event>
<event>
 5   0  0.1543678E-06  0.2929996E+04  0.7818609E-02  0.8264008E-01
       -1   -1    0    0    0  501  0.00000000000E+00  0.00000000000E+00  0.16774661712E+04  0.16774661712E+04  0.50400001928E-02 0. -1.
        1   -1    0    0  501    0  0.00000000000E+00  0.00000000000E+00 -0.12794410641E+04  0.12794410641E+04  0.50400001928E-02 0.  1.
    10030    2    1    2    0    0  0.00000000000E+00  0.00000000000E+00  0.39802510711E+03  0.29569072353E+04  0.29299959747E+04 0.  0.
        3    1    3    3  502    0 -0.74172680707E+03 -0.97179825797E+02  0.14701914137E+04  0.16495652088E+04  0.10100000352E+00 0. -1.
       -3    1    3    3    0  502  0.74172680707E+03  0.97179825797E+02 -0.10721663066E+04  0.13073420265E+04  0.10100000352E+00 0.  1.
</event>
<event>
 5   0  0.4187518E-06  0.2904913E+04  0.7818609E-02  0.8271417E-01
        2   -1    0    0  501    0  0.00000000000E+00  0.00000000000E+00  0.25032620601E+04  0.25032620601E+04  0.25500000920E-02 0. -1.
       -2   -1    0    0    0  501  0.00000000000E+00  0.00000000000E+00 -0.84275203997E+03  0.84275203998E+03  0.25500000920E-02 0.  1.
    10030    2    1    2    0    0  0.00000000000E+00  0.00000000000E+00  0.16605100201E+04  0.33460141001E+04  0.29049125341E+04 0.  0.
        3    1    3    3  502    0 -0.17654711436E+03 -0.10859871585E+04 -0.26193153642E+03  0.11309929849E+04  0.10100000352E+00 0.  1.
       -3    1    3    3    0  502  0.17654711436E+03  0.10859871585E+04  0.19224415565E+04  0.22150211151E+04  0.10100000352E+00 0. -1.
</event>
<event>
 5   0  0.4148677E-06  0.2913644E+04  0.7818609E-02  0.8268829E-01
        2   -1    0    0  501    0  0.00000000000E+00  0.00000000000E+00  0.18235791813E+04  0.18235791813E+04  0.25500000920E-02 0.  1.
       -2   -1    0    0    0  501  0.00000000000E+00  0.00000000000E+00 -0.11638269665E+04  0.11638269665E+04  0.25500000920E-02 0. -1.
    10030    2    1    2    0    0  0.00000000000E+00  0.00000000000E+00  0.65975221477E+03  0.29874061479E+04  0.29136441971E+04 0.  0.
        5    1    3    3  502    0 -0.12272056325E+04 -0.76215088389E+03  0.52279062972E+03  0.15363071850E+04  0.46999998093E+01 0.  1.
       -5    1    3    3    0  502  0.12272056325E+04  0.76215088389E+03  0.13696158505E+03  0.14510989629E+04  0.46999998093E+01 0. -1.
</event>
<event>
 5   0  0.4115143E-06  0.2907328E+04  0.7818609E-02  0.8270701E-01
        2   -1    0    0  501    0  0.00000000000E+00  0.00000000000E+00  0.19143008948E+04  0.19143008948E+04  0.25500000920E-02 0.  1.
       -2   -1    0    0    0  501  0.00000000000E+00  0.00000000000E+00 -0.11038697551E+04  0.11038697551E+04  0.25500000920E-02 0. -1.
    10030    2    1    2    0    0  0.00000000000E+00  0.00000000000E+00  0.81043113964E+03  0.30181706499E+04  0.29073278866E+04 0.  0.
        1    1    3    3  502    0  0.48720394028E+03  0.90701144261E+03 -0.66011619729E+03  0.12230252779E+04  0.50400001928E-02 0. -1.
       -1    1    3    3    0  502 -0.48720394028E+03 -0.90701144261E+03  0.14705473369E+04  0.17951453720E+04  0.50400001928E-02 0.  1.
</event>
<event>
 5   0  0.1543678E-06  0.2901318E+04  0.7818609E-02  0.8272485E-01
       -1   -1    0    0    0  501  0.00000000000E+00  0.00000000000E+00  0.87859501671E+03  0.87859501673E+03  0.50400001928E-02 0.  1.
        1   -1    0    0  501    0  0.00000000000E+00  0.00000000000E+00 -0.23952009177E+04  0.23952009177E+04  0.50400001928E-02 0. -1.
    10030    2    1    2    0    0  0.00000000000E+00  0.00000000000E+00 -0.15166059010E+04  0.32737959344E+04  0.29013180386E+04 0.  0.
        3    1    3    3  502    0 -0.10584247884E+04 -0.13156162091E+03 -0.18678190063E+04  0.21508880360E+04  0.10100000352E+00 0. -1.
       -3    1    3    3    0  502  0.10584247884E+04  0.13156162091E+03  0.35121310528E+03  0.11229078985E+04  0.10100000352E+00 0.  1.
</event>
<event>
 5   0  0.1580212E-06  0.2899892E+04  0.7818609E-02  0.8272910E-01
       -1   -1    0    0    0  501  0.00000000000E+00  0.00000000000E+00  0.15849450290E+04  0.15849450290E+04  0.50400001928E-02 0. -1.
        1   -1    0    0  501    0  0.00000000000E+00  0.00000000000E+00 -0.13264454447E+04  0.13264454447E+04  0.50400001928E-02 0.  1.
    10030    2    1    2    0    0  0.00000000000E+00  0.00000000000E+00  0.25849958427E+03  0.29113904737E+04  0.28998918006E+04 0.  0.
        4    1    3    3  502    0  0.46560561537E+03  0.23741032562E+02  0.15076429365E+04  0.15780814499E+04  0.12699999809E+01 0. -1.
       -4    1    3    3    0  502 -0.46560561537E+03 -0.23741032562E+02 -0.12491433522E+04  0.13333090238E+04  0.12699999809E+01 0.  1.
</event>
<event>
 5   0  0.1511126E-06  0.2875034E+04  0.7818609E-02  0.8280345E-01
       -1   -1    0    0    0  501  0.00000000000E+00  0.00000000000E+00  0.11320111754E+04  0.11320111754E+04  0.50400001928E-02 0.  1.
        1   -1    0    0  501    0  0.00000000000E+00  0.00000000000E+00 -0.18254719290E+04  0.18254719290E+04  0.50400001928E-02 0. -1.
    10030    2    1    2    0    0  0.00000000000E+00  0.00000000000E+00 -0.69346075359E+03  0.29574831044E+04  0.28750336513E+04 0.  0.
        5    1    3    3  502    0  0.43248047008E+03  0.87253568371E+02  0.10606346036E+04  0.11487473154E+04  0.46999998093E+01 0.  1.
       -5    1    3    3    0  502 -0.43248047008E+03 -0.87253568371E+02 -0.17540953572E+04  0.18087357890E+04  0.46999998093E+01 0. -1.
</event>
<event>
 5   0  0.4115143E-06  0.2903865E+04  0.7818609E-02  0.8271728E-01
        2   -1    0    0  501    0  0.00000000000E+00  0.00000000000E+00  0.24132217553E+04  0.24132217553E+04  0.25500000920E-02 0. -1.
       -2   -1    0    0    0  501  0.00000000000E+00  0.00000000000E+00 -0.87356587171E+03  0.87356587171E+03  0.25500000920E-02 0.  1.
    10030    2    1    2    0    0  0.00000000000E+00  0.00000000000E+00  0.15396558836E+04  0.32867876270E+04  0.29038651252E+04 0.  0.
        1    1    3    3  502    0 -0.10317007817E+04 -0.98622785822E+03  0.46811327595E+03  0.15020592300E+04  0.50400001928E-02 0. -1.
       -1    1    3    3    0  502  0.10317007817E+04  0.98622785822E+03  0.10715426076E+04  0.17847283970E+04  0.50400001928E-02 0.  1.
</event>
<event>
 5   0  0.4148677E-06  0.2922957E+04  0.7818609E-02  0.8266080E-01
        2   -1    0    0  501    0  0.00000000000E+00  0.00000000000E+00  0.16000198184E+04  0.16000198184E+04  0.25500000920E-02 0.  1.
       -2   -1    0    0    0  501  0.00000000000E+00  0.00000000000E+00 -0.13349334273E+04  0.13349334273E+04  0.25500000920E-02 0. -1.
    10030    2    1    2    0    0  0.00000000000E+00  0.00000000000E+00  0.26508639115E+03  0.29349532457E+04  0.29229573654E+04 0.  0.
        5    1    3    3  502    0  0.68137944884E+02  0.11057952198E+04  0.10895928710E+04  0.15539178106E+04  0.46999998093E+01 0.  1.
       -5    1    3    3    0  502 -0.68137944884E+02 -0.11057952198E+04 -0.82450647985E+03  0.13810354351E+04  0.46999998093E+01 0. -1.
</event>
<event>
 5   0  0.4162450E-06  0.2884563E+04  0.7818609E-02  0.8277485E-01
       -2   -1    0    0    0  501  0.00000000000E+00  0.00000000000E+00  0.19242198683E+04  0.19242198683E+04  0.25500000920E-02 0. -1.
        2   -1    0    0  501    0  0.00000000000E+00  0.00000000000E+00 -0.10810488066E+04  0.10810488066E+04  0.25500000920E-02 0.  1.
    10030    2    1    2    0    0  0.00000000000E+00  0.00000000000E+00  0.84317106170E+03  0.30052686750E+04  0.28845627692E+04 0.  0.
        2    1    3    3  502    0 -0.11400385213E+04  0.29008640270E+03 -0.44780167916E+03  0.12587153352E+04  0.25500000920E-02 0.  1.
       -2    1    3    3    0  502  0.11400385213E+04 -0.29008640270E+03  0.12909727409E+04  0.17465533398E+04  0.25500000920E-02 0. -1.
</event>
<event>
 5   0  0.4187518E-06  0.2889792E+04  0.7818609E-02  0.8275921E-01
        2   -1    0    0  501    0  0.00000000000E+00  0.00000000000E+00  0.11797174286E+04  0.11797174286E+04  0.25500000920E-02 0.  1.
       -2   -1    0    0    0  501  0.00000000000E+00  0.00000000000E+00 -0.17696821612E+04  0.17696821612E+04  0.25500000920E-02 0. -1.
    10030    2    1    2    0    0  0.00000000000E+00  0.00000000000E+00 -0.58996473259E+03  0.29493995899E+04  0.28897923031E+04 0.  0.
        3    1    3    3  502    0 -0.43298338083E+03  0.13782918261E+04 -0.31917601778E+03  0.14795392210E+04  0.10100000352E+00 0.  1.
       -3    1    3    3    0  502  0.43298338083E+03 -0.13782918261E+04 -0.27078871481E+03  0.14698603689E+04  0.10100000352E+00 0. -1.
</event>
<event>
 5   0  0.4162450E-06  0.2892793E+04  0.7818609E-02  0.8275025E-01
       -2   -1    0    0    0  501  0.00000000000E+00  0.00000000000E+00  0.18642165931E+04  0.18642165931E+04  0.25500000920E-02 0. -1.
        2   -1    0    0  501    0  0.00000000000E+00  0.00000000000E+00 -0.11222207184E+04  0.11222207184E+04  0.25500000920E-02 0.  1.
    10030    2    1    2    0    0  0.00000000000E+00  0.00000000000E+00  0.74199587470E+03  0.29864373114E+04  0.28927927574E+04 0.  0.
        2    1    3    3  502    0 -0.12682577288E+04  0.35968870740E+03 -0.24342268821E+03  0.13405626573E+04  0.25500000920E-02 0.  1.
       -2    1    3    3    0  502  0.12682577288E+04 -0.35968870740E+03  0.98541856291E+03  0.16458746541E+04  0.25500000920E-02 0. -1.
</event>
<event>
 5   0  0.4187518E-06  0.2905926E+04  0.7818609E-02  0.8271116E-01
       -2   -1    0    0    0  501  0.00000000000E+00  0.00000000000E+00  0.11941320357E+04  0.11941320357E+04  0.25500000920E-02 0. -1.
        2   -1    0    0  501    0  0.00000000000E+00  0.00000000000E+00 -0.17678962105E+04  0.17678962105E+04  0.25500000920E-02 0.  1.
    10030    2    1    2    0    0  0.00000000000E+00  0.00000000000E+00 -0.57376417488E+03  0.29620282462E+04  0.29059260147E+04 0.  0.
        3    1    3    3  502    0 -0.14505479517E+04 -0.74623395422E+02 -0.24815544007E+03  0.14735125191E+04  0.10100000352E+00 0.  1.
       -3    1    3    3    0  502  0.14505479517E+04  0.74623395422E+02 -0.32560873482E+03  0.14885157271E+04  0.10100000352E+00 0. -1.
</event>
<event>
 5   0  0.4187518E-06  0.2926563E+04  0.7818609E-02  0.8265018E-01
       -2   -1    0    0    0  501  0.00000000000E+00  0.00000000000E+00  0.14817065213E+04  0.14817065213E+04  0.25500000920E-02 0.  1.
        2   -1    0    0  501    0  0.00000000000E+00  0.00000000000E+00 -0.14450853723E+04  0.14450853723E+04  0.25500000920E-02 0. -1.
    10030    2    1    2    0    0  0.00000000000E+00  0.00000000000E+00  0.36621148997E+02  0.29267918936E+04  0.29265627756E+04 0.  0.
        3    1    3    3  502    0 -0.79101913486E+03 -0.12030018155E+04 -0.24299089800E+03  0.14601264420E+04  0.10100000352E+00 0. -1.
       -3    1    3    3    0  502  0.79101913486E+03  0.12030018155E+04  0.27961204700E+03  0.14666654516E+04  0.10100000352E+00 0.  1.
</event>
<event>
 5   0  0.4224163E-06  0.2914912E+04  0.7818609E-02  0.8268454E-01
       -2   -1    0    0    0  501  0.00000000000E+00  0.00000000000E+00  0.18036093139E+04  0.18036093139E+04  0.25500000920E-02 0.  1.
        2   -1    0    0  501    0  0.00000000000E+00  0.00000000000E+00 -0.11777374410E+04  0.11777374410E+04  0.25500000920E-02 0. -1.
    10030    2    1    2    0    0  0.00000000000E+00  0.00000000000E+00  0.62587187285E+03  0.29813467549E+04  0.29149121551E+04 0.  0.
        4    1    3    3  502    0  0.11756654348E+04 -0.19516249175E+02  0.11937287965E+04  0.16755775574E+04  0.12699999809E+01 0.  1.
       -4    1    3    3    0  502 -0.11756654348E+04  0.19516249175E+02 -0.56785692361E+03  0.13057691975E+04  0.12699999809E+01 0. -1.
</event>
<event>
 5   0  0.1511126E-06  0.2813926E+04  0.7818609E-02  0.8298958E-01
       -1   -1    0    0    0  501  0.00000000000E+00  0.00000000000E+00  0.11120516141E+04  0.11120516141E+04  0.50400001928E-02 0. -1.
        1   -1    0    0  501    0  0.00000000000E+00  0.00000000000E+00 -0.17800839838E+04  0.17800839839E+04  0.50400001928E-02 0.  1.
    10030    2    1    2    0    0  0.00000000000E+00  0.00000000000E+00 -0.66803236980E+03  0.28921355979E+04  0.28139262730E+04 0.  0.
        5    1    3    3  502    0 -0.96751636527E+03 -0.91031494976E+03  0.14228823167E+03  0.13360498702E+04  0.46999998093E+01 0.  1.
       -5    1    3    3    0  502  0.96751636527E+03  0.91031494976E+03 -0.81032060147E+03  0.15560857277E+04  0.46999998093E+01 0. -1.
</event>
<event>
 5   0  0.1550278E-06  0.2916050E+04  0.7818609E-02  0.8268118E-01
       -1   -1    0    0    0  501  0.00000000000E+00  0.00000000000E+00  0.11700380821E+04  0.11700380822E+04  0.50400001928E-02 0. -1.
        1   -1    0    0  501    0  0.00000000000E+00  0.00000000000E+00 -0.18168952037E+04  0.18168952037E+04  0.50400001928E-02 0.  1.
    10030    2    1    2    0    0  0.00000000000E+00  0.00000000000E+00 -0.64685712151E+03  0.29869332858E+04  0.29160497798E+04 0.  0.
        2    1    3    3  502    0 -0.14257992116E+04  0.24440890866E+03 -0.13679785291E+03  0.14530494689E+04  0.25500000920E-02 0.  1.
       -2    1    3    3    0  502  0.14257992116E+04 -0.24440890866E+03 -0.51005926861E+03  0.15338838170E+04  0.25500000920E-02 0. -1.
</event>
<event>
 5   0  0.1550278E-06  0.2897243E+04  0.7818609E-02  0.8273698E-01
        1   -1    0    0  501    0  0.00000000000E+00  0.00000000000E+00  0.15648815839E+04  0.15648815839E+04  0.50400001928E-02 0. -1.
       -1   -1    0    0    0  501  0.00000000000E+00  0.00000000000E+00 -0.13409990602E+04  0.13409990602E+04  0.50400001928E-02 0.  1.
    10030    2    1    2    0    0  0.00000000000E+00  0.00000000000E+00  0.22388252372E+03  0.29058806442E+04  0.28972433335E+04 0.  0.
        2    1    3    3  502    0  0.78131483141E+03  0.65264351542E+03 -0.92171753071E+03  0.13733024541E+04  0.25500000920E-02 0.  1.
       -2    1    3    3    0  502 -0.78131483141E+03 -0.65264351542E+03  0.11456000544E+04  0.15325781901E+04  0.25500000920E-02 0. -1.
</event>
<event>
 5   0  0.1543678E-06  0.2915136E+04  0.7818609E-02  0.8268388E-01
       -1   -1    0    0    0  501  0.00000000000E+00  0.00000000000E+00  0.26212193511E+04  0.26212193511E+04  0.50400001928E-02 0.  1.
        1   -1    0    0  501    0  0.00000000000E+00  0.00000000000E+00 -0.81050249710E+03  0.81050249711E+03  0.50400001928E-02 0. -1.
    10030    2    1    2    0    0  0.00000000000E+00  0.00000000000E+00  0.18107168540E+04  0.34317218482E+04  0.29151362435E+04 0.  0.
        3    1    3    3  502    0 -0.12588769063E+04  0.18609818636E+02  0.40781516889E+02  0.12596747727E+04  0.10100000352E+00 0. -1.
       -3    1    3    3    0  502  0.12588769063E+04 -0.18609818636E+02  0.17699353371E+04  0.21720470756E+04  0.10100000352E+00 0.  1.
</event>
<event>
 5   0  0.4115143E-06  0.2879246E+04  0.7818609E-02  0.8279079E-01
        2   -1    0    0  501    0  0.00000000000E+00  0.00000000000E+00  0.16730055989E+04  0.16730055989E+04  0.25500000920E-02 0.  1.
       -2   -1    0    0    0  501  0.00000000000E+00  0.00000000000E+00 -0.12387966366E+04  0.12387966366E+04  0.25500000920E-02 0. -1.
    10030    2    1    2    0    0  0.00000000000E+00  0.00000000000E+00  0.43420896227E+03  0.29118022355E+04  0.28792455324E+04 0.  0.
        1    1    3    3  502    0  0.87653664386E+03  0.46628091653E+03  0.12713793590E+04  0.16131149543E+04  0.50400001928E-02 0.  1.
       -1    1    3    3    0  502 -0.87653664386E+03 -0.46628091653E+03 -0.83717039678E+03  0.12986872812E+04  0.50400001928E-02 0. -1.
</event>
<event>
 5   0  0.1543678E-06  0.2896411E+04  0.7818609E-02  0.8273946E-01
       -1   -1    0    0    0  501  0.00000000000E+00  0.00000000000E+00  0.13073667757E+04  0.13073667757E+04  0.50400001928E-02 0.  1.
        1   -1    0    0  501    0  0.00000000000E+00  0.00000000000E+00 -0.16042165667E+04  0.16042165667E+04  0.50400001928E-02 0. -1.
    10030    2    1    2    0    0  0.00000000000E+00  0.00000000000E+00 -0.29684979101E+03  0.29115833425E+04  0.28964111866E+04 0.  0.
        3    1    3    3  502    0  0.86858436981E+03 -0.56869775566E+03  0.86653898520E+03  0.13523112688E+04  0.10100000352E+00 0.  1.
       -3    1    3    3    0  502 -0.86858436981E+03  0.56869775566E+03 -0.11633887762E+04  0.15592720736E+04  0.10100000352E+00 0. -1.
</event>
<event>
 5   0  0.4187518E-06  0.2898640E+04  0.7818609E-02  0.8273282E-01
       -2   -1    0    0    0  501  0.00000000000E+00  0.00000000000E+00  0.18560482281E+04  0.18560482281E+04  0.25500000920E-02 0.  1.
        2   -1    0    0  501    0  0.00000000000E+00  0.00000000000E+00 -0.11317207247E+04  0.11317207247E+04  0.25500000920E-02 0. -1.
    10030    2    1    2    0    0  0.00000000000E+00  0.00000000000E+00  0.72432750342E+03  0.29877689528E+04  0.28986398505E+04 0.  0.
        3    1    3    3  502    0  0.18532727317E+03 -0.13813605375E+04  0.77191076082E+03  0.15932198108E+04  0.10100000352E+00 0.  1.
       -3    1    3    3    0  502 -0.18532727317E+03  0.13813605375E+04 -0.47583257404E+02  0.13945491420E+04  0.10100000352E+00 0. -1.
</event>
<event>
 5   0  0.1602873E-06  0.2920824E+04  0.7818609E-02  0.8266709E-01
       -1   -1    0    0    0  501  0.00000000000E+00  0.00000000000E+00  0.11239568788E+04  0.11239568788E+04  0.50400001928E-02 0.  1.
        1   -1    0    0  501    0  0.00000000000E+00  0.00000000000E+00 -0.18975843357E+04  0.18975843357E+04  0.50400001928E-02 0. -1.
    10030    2    1    2    0    0  0.00000000000E+00  0.00000000000E+00 -0.77362745687E+03  0.30215412145E+04  0.29208238340E+04 0.  0.
        1    1    3    3  502    0  0.68261576334E+03  0.32485692433E+03  0.90579553993E+03  0.11798143336E+04  0.50400001928E-02 0.  1.
       -1    1    3    3    0  502 -0.68261576334E+03 -0.32485692433E+03 -0.16794229968E+04  0.18417268809E+04  0.50400001928E-02 0. -1.
</event>
<event>
 5   0  0.4224163E-06  0.2704417E+04  0.7818609E-02  0.8333573E-01
        2   -1    0    0  501    0  0.00000000000E+00  0.00000000000E+00  0.16893651046E+04  0.16893651046E+04  0.25500000920E-02 0.  1.
       -2   -1    0    0    0  501  0.00000000000E+00  0.00000000000E+00 -0.10823404409E+04  0.10823404409E+04  0.25500000920E-02 0. -1.
    10030    2    1    2    0    0  0.00000000000E+00  0.00000000000E+00  0.60702466375E+03  0.27717055455E+04  0.27044172549E+04 0.  0.
        4    1    3    3  502    0  0.79663458718E+03  0.16458247915E+03  0.14105509289E+04  0.16283026726E+04  0.12699999809E+01 0.  1.
       -4    1    3    3    0  502 -0.79663458718E+03 -0.16458247915E+03 -0.80352626511E+03  0.11434028728E+04  0.12699999809E+01 0. -1.
</event>
<event>
 5   0  0.4224163E-06  0.2890941E+04  0.7818609E-02  0.8275578E-01
        2   -1    0    0  501    0  0.00000000000E+00  0.00000000000E+00  0.14561661009E+04  0.14561661009E+04  0.25500000920E-02 0.  1.
       -2   -1    0    0    0  501  0.00000000000E+00  0.00000000000E+00 -0.14348532352E+04  0.14348532352E+04  0.25500000920E-02 0. -1.
    10030    2    1    2    0    0  0.00000000000E+00  0.00000000000E+00  0.21312865693E+02  0.28910193360E+04  0.28909407748E+04 0.  0.
        4    1    3    3  502    0  0.75756362177E+03  0.85526957122E+03 -0.87480218168E+03  0.14389819841E+04  0.12699999809E+01 0. -1.
       -4    1    3    3    0  502 -0.75756362177E+03 -0.85526957122E+03  0.89611504738E+03  0.14520373520E+04  0.12699999809E+01 0.  1.
</event>
<event>
 5   0  0.1511126E-06  0.2936048E+04  0.7818609E-02  0.8262232E-01
        1   -1    0    0  501    0  0.00000000000E+00  0.00000000000E+00  0.12933886654E+04  0.12933886654E+04  0.50400001928E-02 0.  1.
       -1   -1    0    0    0  501  0.00000000000E+00  0.00000000000E+00 -0.16662389663E+04  0.16662389663E+04  0.50400001928E-02 0. -1.
    10030    2    1    2    0    0  0.00000000000E+00  0.00000000000E+00 -0.37285030093E+03  0.29596276317E+04  0.29360480874E+04 0.  0.
        5    1    3    3  502    0  0.30512304981E+03  0.12419597302E+04 -0.91298303400E+03  0.15713446972E+04  0.46999998093E+01 0. -1.
       -5    1    3    3    0  502 -0.30512304981E+03 -0.12419597302E+04  0.54013273307E+03  0.13882829345E+04  0.46999998093E+01 0.  1.
</event>
<event>
 5   0  0.1543678E-06  0.2885327E+04  0.7818609E-02  0.8277257E-01
        1   -1    0    0  501    0  0.00000000000E+00  0.00000000000E+00  0.15186107047E+04  0.15186107047E+04  0.50400001928E-02 0. -1.
       -1   -1    0    0    0  501  0.00000000000E+00  0.00000000000E+00 -0.13705141078E+04  0.13705141078E+04  0.50400001928E-02 0.  1.
    10030    2    1    2    0    0  0.00000000000E+00  0.00000000000E+00  0.14809659686E+03  0.28891248125E+04  0.28853265986E+04 0.  0.
        3    1    3    3  502    0  0.77705526263E+03 -0.76769314022E+03 -0.86958800971E+03  0.13961915898E+04  0.10100000352E+00 0.  1.
       -3    1    3    3    0  502 -0.77705526263E+03  0.76769314022E+03  0.10176846066E+04  0.14929332227E+04  0.10100000352E+00 0. -1.
</event>
<event>
 5   0  0.1550278E-06  0.2916220E+04  0.7818609E-02  0.8268068E-01
       -1   -1    0    0    0  501  0.00000000000E+00  0.00000000000E+00  0.12162843281E+04  0.12162843281E+04  0.50400001928E-02 0.  1.
        1   -1    0    0  501    0  0.00000000000E+00  0.00000000000E+00 -0.17480162366E+04  0.17480162366E+04  0.50400001928E-02 0. -1.
    10030    2    1    2    0    0  0.00000000000E+00  0.00000000000E+00 -0.53173190853E+03  0.29643005647E+04  0.29162199874E+04 0.  0.
        2    1    3    3  502    0  0.12164552655E+04  0.25823167261E+03 -0.10397578224E+04  0.16209698760E+04  0.25500000920E-02 0. -1.
       -2    1    3    3    0  502 -0.12164552655E+04 -0.25823167261E+03  0.50802591387E+03  0.13433306886E+04  0.25500000920E-02 0.  1.
</event>
<event>
 5   0  0.4224163E-06  0.2913106E+04  0.7818609E-02  0.8268989E-01
       -2   -1    0    0    0  501  0.00000000000E+00  0.00000000000E+00  0.20492386995E+04  0.20492386995E+04  0.25500000920E-02 0. -1.
        2   -1    0    0  501    0  0.00000000000E+00  0.00000000000E+00 -0.10352850570E+04  0.10352850570E+04  0.25500000920E-02 0.  1.
    10030    2    1    2    0    0  0.00000000000E+00  0.00000000000E+00  0.10139536425E+04  0.30845237565E+04  0.29131056993E+04 0.  0.
        4    1    3    3  502    0 -0.14291439388E+03  0.74130654739E+03  0.18259003521E+04  0.19758222668E+04  0.12699999809E+01 0. -1.
       -4    1    3    3    0  502  0.14291439388E+03 -0.74130654739E+03 -0.81194670961E+03  0.11087014897E+04  0.12699999809E+01 0.  1.
</event>
<event>
 5   0  0.1543678E-06  0.2911435E+04  0.7818609E-02  0.8269483E-01
       -1   -1    0    0    0  501  0.00000000000E+00  0.00000000000E+00  0.14794358985E+04  0.14794358985E+04  0.50400001928E-02 0. -1.
        1   -1    0    0  501    0  0.00000000000E+00  0.00000000000E+00 -0.14323793636E+04  0.14323793636E+04  0.50400001928E-02 0.  1.
    10030    2    1    2    0    0  0.00000000000E+00  0.00000000000E+00  0.47056534935E+02  0.29118152621E+04  0.29114350075E+04 0.  0.
        3    1    3    3  502    0 -0.38443864251E+03 -0.47274836559E+03  0.13457559112E+04  0.14772755564E+04  0.10100000352E+00 0. -1.
       -3    1    3    3    0  502  0.38443864251E+03  0.47274836559E+03 -0.12986993762E+04  0.14345397056E+04  0.10100000352E+00 0.  1.
</event>
<event>
 5   0  0.4162450E-06  0.2794802E+04  0.7818609E-02  0.8304884E-01
       -2   -1    0    0    0  501  0.00000000000E+00  0.00000000000E+00  0.11403021347E+04  0.11403021347E+04  0.25500000920E-02 0.  1.
        2   -1    0    0  501    0  0.00000000000E+00  0.00000000000E+00 -0.17124667754E+04  0.17124667754E+04  0.25500000920E-02 0. -1.
    10030    2    1    2    0    0  0.00000000000E+00  0.00000000000E+00 -0.57216464063E+03  0.28527689101E+04  0.27948019748E+04 0.  0.
        2    1    3    3  502    0 -0.12274515704E+04 -0.48656818445E+03  0.18094830257E+03  0.13327146146E+04  0.25500000920E-02 0. -1.
       -2    1    3    3    0  502  0.12274515704E+04  0.48656818445E+03 -0.75311294320E+03  0.15200542954E+04  0.25500000920E-02 0.  1.
</event>
<event>
 5   0  0.4224163E-06  0.2908349E+04  0.7818609E-02  0.8270398E-01
       -2   -1    0    0    0  501  0.00000000000E+00  0.00000000000E+00  0.16913702776E+04  0.16913702776E+04  0.25500000920E-02 0. -1.
        2   -1    0    0  501    0  0.00000000000E+00  0.00000000000E+00 -0.12502423586E+04  0.12502423586E+04  0.25500000920E-02 0.  1.
    10030    2    1    2    0    0  0.00000000000E+00  0.00000000000E+00  0.44112791901E+03  0.29416126362E+04  0.29083485108E+04 0.  0.
        4    1    3    3  502    0  0.10755260346E+04  0.37873929049E+03 -0.69221083129E+03  0.13339254661E+04  0.12699999809E+01 0.  1.
       -4    1    3    3    0  502 -0.10755260346E+04 -0.37873929049E+03  0.11333387503E+04  0.16076871701E+04  0.12699999809E+01 0. -1.
</event>
<event>
 5   0  0.1511126E-06  0.2893923E+04  0.7818609E-02  0.8274688E-01
       -1   -1    0    0    0  501  0.00000000000E+00  0.00000000000E+00  0.10463678747E+04  0.10463678747E+04  0.50400001928E-02 0. -1.
        1   -1    0    0  501    0  0.00000000000E+00  0.00000000000E+00 -0.20009192560E+04  0.20009192560E+04  0.50400001928E-02 0.  1.
    10030    2    1    2    0    0  0.00000000000E+00  0.00000000000E+00 -0.95455138133E+03  0.30472871308E+04  0.28939230324E+04 0.  0.
        5    1    3    3  502    0 -0.13656282171E+04  0.47129591555E+03 -0.56292034442E+03  0.15504714352E+04  0.46999998093E+01 0. -1.
       -5    1    3    3    0  502  0.13656282171E+04 -0.47129591555E+03 -0.39163103691E+03  0.14968156955E+04  0.46999998093E+01 0.  1.
</event>
<event>
 5   0  0.1550278E-06  0.2858589E+04  0.7818609E-02  0.8285306E-01
        1   -1    0    0  501    0  0.00000000000E+00  0.00000000000E+00  0.18623055166E+04  0.18623055166E+04  0.50400001928E-02 0.  1.
       -1   -1    0    0    0  501  0.00000000000E+00  0.00000000000E+00 -0.10969646521E+04  0.10969646521E+04  0.50400001928E-02 0. -1.
    10030    2    1    2    0    0  0.00000000000E+00  0.00000000000E+00  0.76534086446E+03  0.29592701687E+04  0.28585893886E+04 0.  0.
        2    1    3    3  502    0  0.10903385536E+04 -0.47243400473E+03 -0.43956527092E+03  0.12669844820E+04  0.25500000920E-02 0. -1.
       -2    1    3    3    0  502 -0.10903385536E+04  0.47243400473E+03  0.12049061354E+04  0.16922856867E+04  0.25500000920E-02 0.  1.
</event>
<event>
 5   0  0.4162450E-06  0.2884332E+04  0.7818609E-02  0.8277554E-01
        2   -1    0    0  501    0  0.00000000000E+00  0.00000000000E+00  0.17988649991E+04  0.17988649991E+04  0.25500000920E-02 0.  1.
       -2   -1    0    0    0  501  0.00000000000E+00  0.00000000000E+00 -0.11561976095E+04  0.11561976095E+04  0.25500000920E-02 0. -1.
    10030    2    1    2    0    0  0.00000000000E+00  0.00000000000E+00  0.64266738956E+03  0.29550626086E+04  0.28843324439E+04 0.  0.
        2    1    3    3  502    0 -0.43667732718E+03  0.97981506351E+03  0.13088789058E+04  0.16923027616E+04  0.25500000920E-02 0.  1.
       -2    1    3    3    0  502  0.43667732718E+03 -0.97981506351E+03 -0.66621151629E+03  0.12627598470E+04  0.25500000920E-02 0. -1.
</event>
<event>
 5   0  0.4187518E-06  0.2893548E+04  0.7818609E-02  0.8274800E-01
        2   -1    0    0  501    0  0.00000000000E+00  0.00000000000E+00  0.18163285666E+04  0.18163285666E+04  0.25500000920E-02 0. -1.
       -2   -1    0    0    0  501  0.00000000000E+00  0.00000000000E+00 -0.11524102346E+04  0.11524102346E+04  0.25500000920E-02 0.  1.
    10030    2    1    2    0    0  0.00000000000E+00  0.00000000000E+00  0.66391833195E+03  0.29687388012E+04  0.28935484302E+04 0.  0.
        3    1    3    3  502    0 -0.66817756867E+02  0.40584833250E+03 -0.10911601043E+04  0.11661079989E+04  0.10100000352E+00 0.  1.
       -3    1    3    3    0  502  0.66817756867E+02 -0.40584833250E+03  0.17550784363E+04  0.18026308023E+04  0.10100000352E+00 0. -1.
</event>
<event>
 5   0  0.4148677E-06  0.2911031E+04  0.7818609E-02  0.8269603E-01
        2   -1    0    0  501    0  0.00000000000E+00  0.00000000000E+00  0.17958838784E+04  0.17958838784E+04  0.25500000920E-02 0. -1.
       -2   -1    0    0    0  501  0.00000000000E+00  0.00000000000E+00 -0.11796558339E+04  0.11796558339E+04  0.25500000920E-02 0.  1.
    10030    2    1    2    0    0  0.00000000000E+00  0.00000000000E+00  0.61622804451E+03  0.29755397124E+04  0.29110306727E+04 0.  0.
        5    1    3    3  502    0 -0.50976052463E+03 -0.95831935364E+03  0.12992779699E+04  0.16930378345E+04  0.46999998093E+01 0. -1.
       -5    1    3    3    0  502  0.50976052463E+03  0.95831935364E+03 -0.68304992543E+03  0.12825018778E+04  0.46999998093E+01 0.  1.
</event>
<event>
 5   0  0.1550278E-06  0.2898309E+04  0.7818609E-02  0.8273381E-01
       -1   -1    0    0    0  501  0.00000000000E+00  0.00000000000E+00  0.12376607799E+04  0.12376607799E+04  0.50400001928E-02 0. -1.
        1   -1    0    0  501    0  0.00000000000E+00  0.00000000000E+00 -0.16967889130E+04  0.16967889130E+04  0.50400001928E-02 0.  1.
    10030    2    1    2    0    0  0.00000000000E+00  0.00000000000E+00 -0.45912813313E+03  0.29344496929E+04  0.28983092239E+04 0.  0.
        2    1    3    3  502    0  0.17152224010E+03  0.19746139787E+03  0.12135648713E+04  0.12414308597E+04  0.25500000920E-02 0. -1.
       -2    1    3    3    0  502 -0.17152224010E+03 -0.19746139787E+03 -0.16726930044E+04  0.16930188332E+04  0.25500000920E-02 0.  1.
</event>
<event>
 5   0  0.4162450E-06  0.2891644E+04  0.7818609E-02  0.8275368E-01
        2   -1    0    0  501    0  0.00000000000E+00  0.00000000000E+00  0.10071525263E+04  0.10071525263E+04  0.25500000920E-02 0.  1.
       -2   -1    0    0    0  501  0.00000000000E+00  0.00000000000E+00 -0.20755562869E+04  0.20755562869E+04  0.25500000920E-02 0. -1.
    10030    2    1    2    0    0  0.00000000000E+00  0.00000000000E+00 -0.10684037606E+04  0.30827088132E+04  0.28916443473E+04 0.  0.
        2    1    3    3  502    0  0.12222294890E+04  0.40276274420E+03 -0.12367920094E+04  0.17848577608E+04  0.25500000920E-02 0.  1.
       -2    1    3    3    0  502 -0.12222294890E+04 -0.40276274420E+03  0.16838824876E+03  0.12978510524E+04  0.25500000920E-02 0. -1.
</event>
<event>
 5   0  0.1550278E-06  0.2877903E+04  0.7818609E-02  0.8279483E-01
       -1   -1    0    0    0  501  0.00000000000E+00  0.00000000000E+00  0.72547381780E+03  0.72547381781E+03  0.50400001928E-02 0. -1.
        1   -1    0    0  501    0  0.00000000000E+00  0.00000000000E+00 -0.28541081906E+04  0.28541081906E+04  0.50400001928E-02 0.  1.
    10030    2    1    2    0    0  0.00000000000E+00  0.00000000000E+00 -0.21286343728E+04  0.35795820084E+04  0.28779025456E+04 0.  0.
        2    1    3    3  502    0  0.51234906173E+03 -0.12147864203E+04 -0.17813998198E+04  0.22162113902E+04  0.25500000920E-02 0.  1.
       -2    1    3    3    0  502 -0.51234906173E+03  0.12147864203E+04 -0.34723455298E+03  0.13633706182E+04  0.25500000920E-02 0. -1.
</event>
<event>
 5   0  0.4148677E-06  0.2902236E+04  0.7818609E-02  0.8272213E-01
        2   -1    0    0  501    0  0.00000000000E+00  0.00000000000E+00  0.13674381175E+04  0.13674381175E+04  0.25500000920E-02 0.  1.
       -2   -1    0    0    0  501  0.00000000000E+00  0.00000000000E+00 -0.15399182000E+04  0.15399182000E+04  0.25500000920E-02 0. -1.
    10030    2    1    2    0    0  0.00000000000E+00  0.00000000000E+00 -0.17248008244E+03  0.29073563175E+04  0.29022355828E+04 0.  0.
        5    1    3    3  502    0 -0.47881533510E+03 -0.13281925545E+04 -0.42203465090E+03  0.14735993090E+04  0.46999998093E+01 0. -1.
       -5    1    3    3    0  502  0.47881533510E+03  0.13281925545E+04  0.24955456846E+03  0.14337570085E+04  0.46999998093E+01 0.  1.
</event>
<event>
 5   0  0.1602873E-06  0.2904318E+04  0.7818609E-02  0.8271594E-01
        1   -1    0    0  501    0  0.00000000000E+00  0.00000000000E+00  0.26560911224E+04  0.26560911224E+04  0.50400001928E-02 0.  1.
       -1   -1    0    0    0  501  0.00000000000E+00  0.00000000000E+00 -0.79393578601E+03  0.79393578602E+03  0.50400001928E-02 0. -1.
    10030    2    1    2    0    0  0.00000000000E+00  0.00000000000E+00  0.18621553364E+04  0.34500269084E+04  0.29043180218E+04 0.  0.
        1    1    3    3  502    0  0.13207911474E+04 -0.75534077794E+02  0.16423992396E+04  0.21089499554E+04  0.50400001928E-02 0. -1.
       -1    1    3    3    0  502 -0.13207911474E+04  0.75534077794E+02  0.21975609672E+03  0.13410769530E+04  0.50400001928E-02 0.  1.
</event>
<event>
 5   0  0.1580212E-06  0.2875308E+04  0.7818609E-02  0.8280262E-01
        1   -1    0    0  501    0  0.00000000000E+00  0.00000000000E+00  0.13747224313E+04  0.13747224314E+04  0.50400001928E-02 0.  1.
       -1   -1    0    0    0  501  0.00000000000E+00  0.00000000000E+00 -0.15034667982E+04  0.15034667982E+04  0.50400001928E-02 0. -1.
    10030    2    1    2    0    0  0.00000000000E+00  0.00000000000E+00 -0.12874436688E+03  0.28781892296E+04  0.28753083538E+04 0.  0.
        4    1    3    3  502    0  0.12193165882E+04 -0.83933267411E+02  0.69340028820E+03  0.14051986721E+04  0.12699999809E+01 0.  1.
       -4    1    3    3    0  502 -0.12193165882E+04  0.83933267411E+02 -0.82214465509E+03  0.14729905575E+04  0.12699999809E+01 0. -1.
</event>
<event>
 5   0  0.1602873E-06  0.2901861E+04  0.7818609E-02  0.8272324E-01
        1   -1    0    0  501    0  0.00000000000E+00  0.00000000000E+00  0.22510531955E+04  0.22510531955E+04  0.50400001928E-02 0. -1.
       -1   -1    0    0    0  501  0.00000000000E+00  0.00000000000E+00 -0.93520617977E+03  0.93520617979E+03  0.50400001928E-02 0.  1.
    10030    2    1    2    0    0  0.00000000000E+00  0.00000000000E+00  0.13158470158E+04  0.31862593753E+04  0.29018606855E+04 0.  0.
        1    1    3    3  502    0  0.98397511945E+03  0.12704339959E+03 -0.50453822208E+03  0.11130614892E+04  0.50400001928E-02 0.  1.
       -1    1    3    3    0  502 -0.98397511945E+03 -0.12704339959E+03  0.18203852378E+04  0.20731978862E+04  0.50400001928E-02 0. -1.
</event>
<event>
 5   0  0.4148677E-06  0.2560050E+04  0.7818609E-02  0.8381899E-01
       -2   -1    0    0    0  501  0.00000000000E+00  0.00000000000E+00  0.86810973317E+03  0.86810973317E+03  0.25500000920E-02 0. -1.
        2   -1    0    0  501    0  0.00000000000E+00  0.00000000000E+00 -0.18873924299E+04  0.18873924299E+04  0.25500000920E-02 0.  1.
    10030    2    1    2    0    0  0.00000000000E+00  0.00000000000E+00 -0.10192826967E+04  0.27555021631E+04  0.25600497954E+04 0.  0.
        5    1    3    3  502    0  0.92566504524E+03 -0.46616539926E+03 -0.13181748413E+04  0.16768342069E+04  0.46999998093E+01 0.  1.
       -5    1    3    3    0  502 -0.92566504524E+03  0.46616539926E+03  0.29889214456E+03  0.10786679561E+04  0.46999998093E+01 0. -1.
</event>
<event>
 5   0  0.1511126E-06  0.3089810E+04  0.7818609E-02  0.8218540E-01
       -1   -1    0    0    0  501  0.00000000000E+00  0.00000000000E+00  0.11268168980E+04  0.11268168980E+04  0.50400001928E-02 0. -1.
        1   -1    0    0  501    0  0.00000000000E+00  0.00000000000E+00 -0.21181180607E+04  0.21181180607E+04  0.50400001928E-02 0.  1.
    10030    2    1    2    0    0  0.00000000000E+00  0.00000000000E+00 -0.99130116273E+03  0.32449349587E+04  0.30898098471E+04 0.  0.
        5    1    3    3  502    0  0.25044843201E+03 -0.57601060292E+03  0.98666382625E+03  0.11696325183E+04  0.46999998093E+01 0. -1.
       -5    1    3    3    0  502 -0.25044843201E+03  0.57601060292E+03 -0.19779649890E+04  0.20753024405E+04  0.46999998093E+01 0.  1.
</event>
<event>
 5   0  0.1543678E-06  0.2926086E+04  0.7818609E-02  0.8265158E-01
        1   -1    0    0  501    0  0.00000000000E+00  0.00000000000E+00  0.18221099421E+04  0.18221099421E+04  0.50400001928E-02 0. -1.
       -1   -1    0    0    0  501  0.00000000000E+00  0.00000000000E+00 -0.11747342998E+04  0.11747342998E+04  0.50400001928E-02 0.  1.
    10030    2    1    2    0    0  0.00000000000E+00  0.00000000000E+00  0.64737564234E+03  0.29968442419E+04  0.29260861552E+04 0.  0.
        3    1    3    3  502    0 -0.10370767716E+04 -0.94252022461E+03  0.75411530424E+03  0.15914026851E+04  0.10100000352E+00 0.  1.
       -3    1    3    3    0  502  0.10370767716E+04  0.94252022461E+03 -0.10673966190E+03  0.14054415568E+04  0.10100000352E+00 0. -1.
</event>
<event>
 5   0  0.4115143E-06  0.2927043E+04  0.7818609E-02  0.8264877E-01
        2   -1    0    0  501    0  0.00000000000E+00  0.00000000000E+00  0.12190113231E+04  0.12190113231E+04  0.25500000920E-02 0. -1.
       -2   -1    0    0    0  501  0.00000000000E+00  0.00000000000E+00 -0.17570755770E+04  0.17570755770E+04  0.25500000920E-02 0.  1.
    10030    2    1    2    0    0  0.00000000000E+00  0.00000000000E+00 -0.53806425393E+03  0.29760869002E+04  0.29270428928E+04 0.  0.
        1    1    3    3  502    0 -0.33512662042E+03 -0.47548782759E+03  0.10964127530E+04  0.12411766397E+04  0.50400001928E-02 0. -1.
       -1    1    3    3    0  502  0.33512662042E+03  0.47548782759E+03 -0.16344770069E+04  0.17349102605E+04  0.50400001928E-02 0.  1.
</event>
<event>
 5   0  0.1543678E-06  0.3097297E+04  0.7818609E-02  0.8216480E-01
        1   -1    0    0  501    0  0.00000000000E+00  0.00000000000E+00  0.16648618053E+04  0.16648618053E+04  0.50400001928E-02 0. -1.
       -1   -1    0    0    0  501  0.00000000000E+00  0.00000000000E+00 -0.14405474335E+04  0.14405474335E+04  0.50400001928E-02 0.  1.
    10030    2    1    2    0    0  0.00000000000E+00  0.00000000000E+00  0.22431437188E+03  0.31054092388E+04  0.30972971448E+04 0.  0.
        3    1    3    3  502    0  0.11652752021E+04  0.10120755454E+04  0.23956945905E+03  0.15619080454E+04  0.10100000352E+00 0. -1.
       -3    1    3    3    0  502 -0.11652752021E+04 -0.10120755454E+04 -0.15255087168E+02  0.15435011934E+04  0.10100000352E+00 0.  1.
</event>
<event>
 5   0  0.4187518E-06  0.2656567E+04  0.7818609E-02  0.8349237E-01
        2   -1    0    0  501    0  0.00000000000E+00  0.00000000000E+00  0.18363505339E+04  0.18363505339E+04  0.25500000920E-02 0. -1.
       -2   -1    0    0    0  501  0.00000000000E+00  0.00000000000E+00 -0.96078424922E+03  0.96078424922E+03  0.25500000920E-02 0.  1.
    10030    2    1    2    0    0  0.00000000000E+00  0.00000000000E+00  0.87556628467E+03  0.27971347831E+04  0.26565667084E+04 0.  0.
        3    1    3    3  502    0 -0.43361547454E+02  0.43973572063E+03  0.17566970486E+04  0.18114171962E+04  0.10100000352E+00 0. -1.
       -3    1    3    3    0  502  0.43361547454E+02 -0.43973572063E+03 -0.88113076395E+03  0.98571758693E+03  0.10100000352E+00 0.  1.
</event>
<event>
 5   0  0.1543678E-06  0.2932439E+04  0.7818609E-02  0.8263291E-01
        1   -1    0    0  501    0  0.00000000000E+00  0.00000000000E+00  0.15195697102E+04  0.15195697102E+04  0.50400001928E-02 0. -1.
       -1   -1    0    0    0  501  0.00000000000E+00  0.00000000000E+00 -0.14147423780E+04  0.14147423780E+04  0.50400001928E-02 0.  1.
    10030    2    1    2    0    0  0.00000000000E+00  0.00000000000E+00  0.10482733215E+03  0.29343120882E+04  0.29324390294E+04 0.  0.
        3    1    3    3  502    0  0.23753421535E+03  0.90625250709E+03  0.11810008886E+04  0.15074744506E+04  0.10100000352E+00 0. -1.
       -3    1    3    3    0  502 -0.23753421535E+03 -0.90625250709E+03 -0.10761735565E+04  0.14268376376E+04  0.10100000352E+00 0.  1.
</event>
<event>
 5   0  0.1602873E-06  0.2908894E+04  0.7818609E-02  0.8270236E-01
       -1   -1    0    0    0  501  0.00000000000E+00  0.00000000000E+00  0.14653996986E+04  0.14653996986E+04  0.50400001928E-02 0. -1.
        1   -1    0    0  501    0  0.00000000000E+00  0.00000000000E+00 -0.14435761126E+04  0.14435761126E+04  0.50400001928E-02 0.  1.
    10030    2    1    2    0    0  0.00000000000E+00  0.00000000000E+00  0.21823586059E+02  0.29089758112E+04  0.29088939481E+04 0.  0.
        1    1    3    3  502    0  0.54171349851E+03  0.13203777034E+04  0.29121453684E+03  0.14565907801E+04  0.50400001928E-02 0.  1.
       -1    1    3    3    0  502 -0.54171349851E+03 -0.13203777034E+04 -0.26939095079E+03  0.14523850311E+04  0.50400001928E-02 0. -1.
</event>
<event>
 5   0  0.4115143E-06  0.2924989E+04  0.7818609E-02  0.8265481E-01
        2   -1    0    0  501    0  0.00000000000E+00  0.00000000000E+00  0.10976632341E+04  0.10976632341E+04  0.25500000920E-02 0. -1.
       -2   -1    0    0    0  501  0.00000000000E+00  0.00000000000E+00 -0.19485850124E+04  0.19485850124E+04  0.25500000920E-02 0.  1.
    10030    2    1    2    0    0  0.00000000000E+00  0.00000000000E+00 -0.85092177833E+03  0.30462482465E+04  0.29249889754E+04 0.  0.
        1    1    3    3  502    0 -0.60958782967E+03  0.79389916875E+03 -0.15359761252E+04  0.18333291765E+04  0.50400001928E-02 0.  1.
       -1    1    3    3    0  502  0.60958782967E+03 -0.79389916875E+03  0.68505434684E+03  0.12129190700E+04  0.50400001928E-02 0. -1.
</event>
<event>
 5   0  0.1543678E-06  0.2840539E+04  0.7818609E-02  0.8290792E-01
       -1   -1    0    0    0  501  0.00000000000E+00  0.00000000000E+00  0.15098001101E+04  0.15098001101E+04  0.50400001928E-02 0.  1.
        1   -1    0    0  501    0  0.00000000000E+00  0.00000000000E+00 -0.13360480500E+04  0.13360480500E+04  0.50400001928E-02 0. -1.
    10030    2    1    2    0    0  0.00000000000E+00  0.00000000000E+00  0.17375206013E+03  0.28458481601E+04  0.28405390284E+04 0.  0.
        3    1    3    3  502    0 -0.10098527736E+04 -0.21731856818E+03  0.10634468334E+04  0.14825481989E+04  0.10100000352E+00 0.  1.
       -3    1    3    3    0  502  0.10098527736E+04  0.21731856818E+03 -0.88969477323E+03  0.13632999612E+04  0.10100000352E+00 0. -1.
</event>
<event>
 5   0  0.1543678E-06  0.2800058E+04  0.7818609E-02  0.8303250E-01
        1   -1    0    0  501    0  0.00000000000E+00  0.00000000000E+00  0.93133421330E+03  0.93133421331E+03  0.50400001928E-02 0.  1.
       -1   -1    0    0    0  501  0.00000000000E+00  0.00000000000E+00 -0.21045949036E+04  0.21045949036E+04  0.50400001928E-02 0. -1.
    10030    2    1    2    0    0  0.00000000000E+00  0.00000000000E+00 -0.11732606903E+04  0.30359291169E+04  0.28000580272E+04 0.  0.
        3    1    3    3  502    0 -0.85159231443E+03  0.35514724245E+02  0.61761123357E+03  0.10525751335E+04  0.10100000352E+00 0.  1.
       -3    1    3    3    0  502  0.85159231443E+03 -0.35514724245E+02 -0.17908719239E+04  0.19833539834E+04  0.10100000352E+00 0. -1.
</event>
<event>
 5   0  0.4187518E-06  0.2918420E+04  0.7818609E-02  0.8267418E-01
       -2   -1    0    0    0  501  0.00000000000E+00  0.00000000000E+00  0.12676590872E+04  0.12676590872E+04  0.25500000920E-02 0. -1.
        2   -1    0    0  501    0  0.00000000000E+00  0.00000000000E+00 -0.16797057679E+04  0.16797057679E+04  0.25500000920E-02 0.  1.
    10030    2    1    2    0    0  0.00000000000E+00  0.00000000000E+00 -0.41204668063E+03  0.29473648551E+04  0.29184203128E+04 0.  0.
        3    1    3    3  502    0  0.75878028328E+03 -0.94043898886E+03 -0.10321344748E+04  0.15891741863E+04  0.10100000352E+00 0.  1.
       -3    1    3    3    0  502 -0.75878028328E+03  0.94043898886E+03  0.62008779420E+03  0.13581906688E+04  0.10100000352E+00 0. -1.
</event>
<event>
 5   0  0.4148677E-06  0.2907872E+04  0.7818609E-02  0.8270539E-01
        2   -1    0    0  501    0  0.00000000000E+00  0.00000000000E+00  0.11247846793E+04  0.11247846793E+04  0.25500000920E-02 0.  1.
       -2   -1    0    0    0  501  0.00000000000E+00  0.00000000000E+00 -0.18794078983E+04  0.18794078983E+04  0.25500000920E-02 0. -1.
    10030    2    1    2    0    0  0.00000000000E+00  0.00000000000E+00 -0.75462321897E+03  0.30041925776E+04  0.29078715310E+04 0.  0.
        5    1    3    3  502    0 -0.13050419537E+04 -0.63909278573E+03 -0.32741020725E+03  0.14895615541E+04  0.46999998093E+01 0. -1.
       -5    1    3    3    0  502  0.13050419537E+04  0.63909278573E+03 -0.42721301172E+03  0.15146310234E+04  0.46999998093E+01 0.  1.
</event>
<event>
 5   0  0.4162450E-06  0.2794462E+04  0.7818609E-02  0.8304990E-01
       -2   -1    0    0    0  501  0.00000000000E+00  0.00000000000E+00  0.73487394656E+03  0.73487394656E+03  0.25500000920E-02 0.  1.
        2   -1    0    0  501    0  0.00000000000E+00  0.00000000000E+00 -0.26565847201E+04  0.26565847201E+04  0.25500000920E-02 0. -1.
    10030    2    1    2    0    0  0.00000000000E+00  0.00000000000E+00 -0.19217107735E+04  0.33914586666E+04  0.27944623079E+04 0.  0.
        2    1    3    3  502    0 -0.11768815178E+03 -0.52556714079E+03 -0.25255434370E+04  0.25823324675E+04  0.25500000920E-02 0. -1.
       -2    1    3    3    0  502  0.11768815178E+03  0.52556714079E+03  0.60383266351E+03  0.80912619911E+03  0.25500000920E-02 0.  1.
</event>
<event>
 5   0  0.4162450E-06  0.2932547E+04  0.7818609E-02  0.8263259E-01
        2   -1    0    0  501    0  0.00000000000E+00  0.00000000000E+00  0.19334636083E+04  0.19334636083E+04  0.25500000920E-02 0. -1.
       -2   -1    0    0    0  501  0.00000000000E+00  0.00000000000E+00 -0.11119723820E+04  0.11119723820E+04  0.25500000920E-02 0.  1.
    10030    2    1    2    0    0  0.00000000000E+00  0.00000000000E+00  0.82149122629E+03  0.30454359903E+04  0.29325471072E+04 0.  0.
        2    1    3    3  502    0  0.53566486537E+03 -0.35519559675E+02  0.18277339809E+04  0.19049435667E+04  0.25500000920E-02 0. -1.
       -2    1    3    3    0  502 -0.53566486537E+03  0.35519559675E+02 -0.10062427546E+04  0.11404924236E+04  0.25500000920E-02 0.  1.
</event>
<event>
 5   0  0.4187518E-06  0.2910554E+04  0.7818609E-02  0.8269744E-01
       -2   -1    0    0    0  501  0.00000000000E+00  0.00000000000E+00  0.18293729517E+04  0.18293729517E+04  0.25500000920E-02 0. -1.
        2   -1    0    0  501    0  0.00000000000E+00  0.00000000000E+00 -0.11576811347E+04  0.11576811347E+04  0.25500000920E-02 0.  1.
    10030    2    1    2    0    0  0.00000000000E+00  0.00000000000E+00  0.67169181705E+03  0.29870540864E+04  0.29105535930E+04 0.  0.
        3    1    3    3  502    0 -0.10388347856E+04  0.39919206077E+03  0.12982016900E+04  0.17099297212E+04  0.10100000352E+00 0. -1.
       -3    1    3    3    0  502  0.10388347856E+04 -0.39919206077E+03 -0.62650987295E+03  0.12771243652E+04  0.10100000352E+00 0.  1.
</event>
<event>
 5   0  0.1550278E-06  0.2947489E+04  0.7818609E-02  0.8258887E-01
       -1   -1    0    0    0  501  0.00000000000E+00  0.00000000000E+00  0.13645409701E+04  0.13645409701E+04  0.50400001928E-02 0. -1.
        1   -1    0    0  501    0  0.00000000000E+00  0.00000000000E+00 -0.15916877024E+04  0.15916877024E+04  0.50400001928E-02 0.  1.
    10030    2    1    2    0    0  0.00000000000E+00  0.00000000000E+00 -0.22714673229E+03  0.29562286725E+04  0.29474891563E+04 0.  0.
        2    1    3    3  502    0  0.64728611849E+03  0.23016487345E+02  0.12141395080E+04  0.13760973159E+04  0.25500000920E-02 0. -1.
       -2    1    3    3    0  502 -0.64728611849E+03 -0.23016487345E+02 -0.14412862403E+04  0.15801313567E+04  0.25500000920E-02 0.  1.
</event>
<event>
 5   0  0.4115143E-06  0.2909583E+04  0.7818609E-02  0.8270032E-01
        2   -1    0    0  501    0  0.00000000000E+00  0.00000000000E+00  0.20365463585E+04  0.20365463585E+04  0.25500000920E-02 0.  1.
       -2   -1    0    0    0  501  0.00000000000E+00  0.00000000000E+00 -0.10392192236E+04  0.10392192236E+04  0.25500000920E-02 0. -1.
    10030    2    1    2    0    0  0.00000000000E+00  0.00000000000E+00  0.99732713491E+03  0.30757655821E+04  0.29095828743E+04 0.  0.
        1    1    3    3  502    0 -0.24317172706E+00 -0.62719142875E+03  0.18862860007E+04  0.19878239419E+04  0.50400001928E-02 0.  1.
       -1    1    3    3    0  502  0.24317172706E+00  0.62719142875E+03 -0.88895886581E+03  0.10879416402E+04  0.50400001928E-02 0. -1.
</event>
<event>
 5   0  0.1543678E-06  0.2651763E+04  0.7818609E-02  0.8350828E-01
        1   -1    0    0  501    0  0.00000000000E+00  0.00000000000E+00  0.91396927532E+03  0.91396927534E+03  0.50400001928E-02 0.  1.
       -1   -1    0    0    0  501  0.00000000000E+00  0.00000000000E+00 -0.19234358559E+04  0.19234358559E+04  0.50400001928E-02 0. -1.
    10030    2    1    2    0    0  0.00000000000E+00  0.00000000000E+00 -0.10094665806E+04  0.28374051313E+04  0.26517626405E+04 0.  0.
        3    1    3    3  502    0  0.11547730684E+04 -0.56449995871E+03 -0.85277395733E+03  0.15425253565E+04  0.10100000352E+00 0.  1.
       -3    1    3    3    0  502 -0.11547730684E+04  0.56449995871E+03 -0.15669262328E+03  0.12948797748E+04  0.10100000352E+00 0. -1.
</event>
<event>
 5   0  0.1543678E-06  0.2894763E+04  0.7818609E-02  0.8274437E-01
       -1   -1    0    0    0  501  0.00000000000E+00  0.00000000000E+00  0.11508806342E+04  0.11508806343E+04  0.50400001928E-02 0. -1.
        1   -1    0    0  501    0  0.00000000000E+00  0.00000000000E+00 -0.18202702923E+04  0.18202702923E+04  0.50400001928E-02 0.  1.
    10030    2    1    2    0    0  0.00000000000E+00  0.00000000000E+00 -0.66938965805E+03  0.29711509266E+04  0.28947634297E+04 0.  0.
        3    1    3    3  502    0 -0.53704637863E+03  0.93878993787E+03  0.65254358317E+03  0.12631541863E+04  0.10100000352E+00 0. -1.
       -3    1    3    3    0  502  0.53704637863E+03 -0.93878993787E+03 -0.13219332412E+04  0.17079967402E+04  0.10100000352E+00 0.  1.
</event>
<event>
 5   0  0.1580212E-06  0.2853347E+04  0.7818609E-02  0.8286895E-01
       -1   -1    0    0    0  501  0.00000000000E+00  0.00000000000E+00  0.13187386013E+04  0.13187386013E+04  0.50400001928E-02 0. -1.
        1   -1    0    0  501    0  0.00000000000E+00  0.00000000000E+00 -0.15434424613E+04  0.15434424613E+04  0.50400001928E-02 0.  1.
    10030    2    1    2    0    0  0.00000000000E+00  0.00000000000E+00 -0.22470385999E+03  0.28621810625E+04  0.28533469137E+04 0.  0.
        4    1    3    3  502    0 -0.49271591621E+03 -0.12504728259E+04 -0.59231455841E+03  0.14687713952E+04  0.12699999809E+01 0.  1.
       -4    1    3    3    0  502  0.49271591621E+03  0.12504728259E+04  0.36761069842E+03  0.13934096673E+04  0.12699999809E+01 0. -1.
</event>
<event>
 5   0  0.4224163E-06  0.2898034E+04  0.7818609E-02  0.8273463E-01
        2   -1    0    0  501    0  0.00000000000E+00  0.00000000000E+00  0.27301207020E+04  0.27301207020E+04  0.25500000920E-02 0.  1.
       -2   -1    0    0    0  501  0.00000000000E+00  0.00000000000E+00 -0.76906859615E+03  0.76906859616E+03  0.25500000920E-02 0. -1.
    10030    2    1    2    0    0  0.00000000000E+00  0.00000000000E+00  0.19610521059E+04  0.34991892982E+04  0.28980338822E+04 0.  0.
        4    1    3    3  502    0 -0.46060273402E+03 -0.13947457338E+03 -0.66975197148E+03  0.82472865320E+03  0.12699999809E+01 0. -1.
       -4    1    3    3    0  502  0.46060273402E+03  0.13947457338E+03  0.26308040774E+04  0.26744606450E+04  0.12699999809E+01 0.  1.
</event>
<event>
 5   0  0.1543678E-06  0.2897707E+04  0.7818609E-02  0.8273560E-01
       -1   -1    0    0    0  501  0.00000000000E+00  0.00000000000E+00  0.15133024324E+04  0.15133024324E+04  0.50400001928E-02 0. -1.
        1   -1    0    0  501    0  0.00000000000E+00  0.00000000000E+00 -0.13871496776E+04  0.13871496776E+04  0.50400001928E-02 0.  1.
    10030    2    1    2    0    0  0.00000000000E+00  0.00000000000E+00  0.12615275479E+03  0.29004521099E+04  0.28977073566E+04 0.  0.
        3    1    3    3  502    0 -0.91886124358E+03 -0.75634989352E+03  0.89017973593E+03  0.14862002284E+04  0.10100000352E+00 0. -1.
       -3    1    3    3    0  502  0.91886124358E+03  0.75634989352E+03 -0.76402698114E+03  0.14142518816E+04  0.10100000352E+00 0.  1.
</event>
<event>
 5   0  0.4148677E-06  0.2729579E+04  0.7818609E-02  0.8325471E-01
       -2   -1    0    0    0  501  0.00000000000E+00  0.00000000000E+00  0.12746695057E+04  0.12746695057E+04  0.25500000920E-02 0. -1.
        2   -1    0    0  501    0  0.00000000000E+00  0.00000000000E+00 -0.14612813025E+04  0.14612813025E+04  0.25500000920E-02 0.  1.
    10030    2    1    2    0    0  0.00000000000E+00  0.00000000000E+00 -0.18661179679E+03  0.27359508082E+04  0.27295792464E+04 0.  0.
        5    1    3    3  502    0 -0.46604439577E+03  0.10734701426E+04 -0.79715091440E+03  0.14159827669E+04  0.46999998093E+01 0.  1.
       -5    1    3    3    0  502  0.46604439577E+03 -0.10734701426E+04  0.61053911761E+03  0.13199680413E+04  0.46999998093E+01 0. -1.
</event>
<event>
 5   0  0.1543678E-06  0.2899620E+04  0.7818609E-02  0.8272990E-01
       -1   -1    0    0    0  501  0.00000000000E+00  0.00000000000E+00  0.68345427874E+03  0.68345427875E+03  0.50400001928E-02 0. -1.
        1   -1    0    0  501    0  0.00000000000E+00  0.00000000000E+00 -0.30754790711E+04  0.30754790711E+04  0.50400001928E-02 0.  1.
    10030    2    1    2    0    0  0.00000000000E+00  0.00000000000E+00 -0.23920247924E+04  0.37589333498E+04  0.28996202030E+04 0.  0.
        3    1    3    3  502    0 -0.95586550246E+03  0.98086782177E+03 -0.18125219819E+04  0.22717870692E+04  0.10100000352E+00 0. -1.
       -3    1    3    3    0  502  0.95586550246E+03 -0.98086782177E+03 -0.57950281042E+03  0.14871462807E+04  0.10100000352E+00 0.  1.
</event>
<event>
 5   0  0.4115143E-06  0.2864427E+04  0.7818609E-02  0.8283541E-01
       -2   -1    0    0    0  501  0.00000000000E+00  0.00000000000E+00  0.11043446104E+04  0.11043446104E+04  0.25500000920E-02 0.  1.
        2   -1    0    0  501    0  0.00000000000E+00  0.00000000000E+00 -0.18574231571E+04  0.18574231571E+04  0.25500000920E-02 0. -1.
    10030    2    1    2    0    0  0.00000000000E+00  0.00000000000E+00 -0.75307854672E+03  0.29617677674E+04  0.28644268206E+04 0.  0.
        1    1    3    3  502    0 -0.80820462829E+03 -0.82848733268E+03  0.49572136578E+03  0.12590971583E+04  0.50400001928E-02 0.  1.
       -1    1    3    3    0  502  0.80820462829E+03  0.82848733268E+03 -0.12487999125E+04  0.17026706091E+04  0.50400001928E-02 0. -1.
</event>
<event>
 5   0  0.1543678E-06  0.2879034E+04  0.7818609E-02  0.8279143E-01
        1   -1    0    0  501    0  0.00000000000E+00  0.00000000000E+00  0.28122059448E+04  0.28122059448E+04  0.50400001928E-02 0.  1.
       -1   -1    0    0    0  501  0.00000000000E+00  0.00000000000E+00 -0.73686259766E+03  0.73686259768E+03  0.50400001928E-02 0. -1.
    10030    2    1    2    0    0  0.00000000000E+00  0.00000000000E+00  0.20753433471E+04  0.35490685425E+04  0.28790341281E+04 0.  0.
        3    1    3    3  502    0 -0.10868632839E+04 -0.61203077235E+03  0.19234848725E+04  0.22925199081E+04  0.10100000352E+00 0.  1.
       -3    1    3    3    0  502  0.10868632839E+04  0.61203077235E+03  0.15185847466E+03  0.12565486344E+04  0.10100000352E+00 0. -1.
</event>
<event>
 5   0  0.4148677E-06  0.2905864E+04  0.7818609E-02  0.8271135E-01
        2   -1    0    0  501    0  0.00000000000E+00  0.00000000000E+00  0.13338223979E+04  0.13338223979E+04  0.25500000920E-02 0.  1.
       -2   -1    0    0    0  501  0.00000000000E+00  0.00000000000E+00 -0.15826775598E+04  0.15826775598E+04  0.25500000920E-02 0. -1.
    10030    2    1    2    0    0  0.00000000000E+00  0.00000000000E+00 -0.24885516187E+03  0.29164999578E+04  0.29058635742E+04 0.  0.
        5    1    3    3  502    0 -0.72880095647E+03  0.16591113559E+03  0.11260507482E+04  0.13515508561E+04  0.46999998093E+01 0.  1.
       -5    1    3    3    0  502  0.72880095647E+03 -0.16591113559E+03 -0.13749059101E+04  0.15649491016E+04  0.46999998093E+01 0. -1.
</event>
<event>
 5   0  0.4187518E-06  0.2900162E+04  0.7818609E-02  0.8272829E-01
        2   -1    0    0  501    0  0.00000000000E+00  0.00000000000E+00  0.18016587760E+04  0.18016587760E+04  0.25500000920E-02 0. -1.
       -2   -1    0    0    0  501  0.00000000000E+00  0.00000000000E+00 -0.11671107140E+04  0.11671107140E+04  0.25500000920E-02 0.  1.
    10030    2    1    2    0    0  0.00000000000E+00  0.00000000000E+00  0.63454806200E+03  0.29687694900E+04  0.29001622440E+04 0.  0.
        3    1    3    3  502    0  0.78253790134E+03 -0.12196443667E+04  0.37180044829E+03  0.14960392815E+04  0.10100000352E+00 0.  1.
       -3    1    3    3    0  502 -0.78253790134E+03  0.12196443667E+04  0.26274761370E+03  0.14727302085E+04  0.10100000352E+00 0. -1.
</event>
<event>
 5   0  0.4187518E-06  0.2908543E+04  0.7818609E-02  0.8270340E-01
       -2   -1    0    0    0  501  0.00000000000E+00  0.00000000000E+00  0.17479824831E+04  0.17479824831E+04  0.25500000920E-02 0. -1.
        2   -1    0    0  501    0  0.00000000000E+00  0.00000000000E+00 -0.12099124358E+04  0.12099124358E+04  0.25500000920E-02 0.  1.
    10030    2    1    2    0    0  0.00000000000E+00  0.00000000000E+00  0.53807004731E+03  0.29578949189E+04  0.29085431018E+04 0.  0.
        3    1    3    3  502    0  0.98686778021E+03  0.73973934064E+03 -0.51461341543E+03  0.13363941354E+04  0.10100000352E+00 0.  1.
       -3    1    3    3    0  502 -0.98686778021E+03 -0.73973934064E+03  0.10526834627E+04  0.16215007834E+04  0.10100000352E+00 0. -1.
</event>
<event>
 5   0  0.1602873E-06  0.2884380E+04  0.7818609E-02  0.8277540E-01
        1   -1    0    0  501    0  0.00000000000E+00  0.00000000000E+00  0.16544737018E+04  0.16544737019E+04  0.50400001928E-02 0.  1.
       -1   -1    0    0    0  501  0.00000000000E+00  0.00000000000E+00 -0.12571442768E+04  0.12571442768E+04  0.50400001928E-02 0. -1.
    10030    2    1    2    0    0  0.00000000000E+00  0.00000000000E+00  0.39732942509E+03  0.29116179786E+04  0.28843801035E+04 0.  0.
        1    1    3    3  502    0 -0.67844335461E+02  0.72836605758E+03  0.14532983646E+04  0.16270206219E+04  0.50400001928E-02 0.  1.
       -1    1    3    3    0  502  0.67844335461E+02 -0.72836605758E+03 -0.10559689395E+04  0.12845973567E+04  0.50400001928E-02 0. -1.
</event>
<event>
 5   0  0.1580212E-06  0.2920081E+04  0.7818609E-02  0.8266928E-01
        1   -1    0    0  501    0  0.00000000000E+00  0.00000000000E+00  0.15239351013E+04  0.15239351013E+04  0.50400001928E-02 0. -1.
       -1   -1    0    0    0  501  0.00000000000E+00  0.00000000000E+00 -0.13988245213E+04  0.13988245213E+04  0.50400001928E-02 0.  1.
    10030    2    1    2    0    0  0.00000000000E+00  0.00000000000E+00  0.12511058000E+03  0.29227596227E+04  0.29200806760E+04 0.  0.
        4    1    3    3  502    0  0.23268613004E+03  0.44751644355E+03 -0.13088485568E+04  0.14026759996E+04  0.12699999809E+01 0.  1.
       -4    1    3    3    0  502 -0.23268613004E+03 -0.44751644355E+03  0.14339591368E+04  0.15200836231E+04  0.12699999809E+01 0. -1.
</event>
<event>
 5   0  0.1602873E-06  0.2878658E+04  0.7818609E-02  0.8279256E-01
        1   -1    0    0  501    0  0.00000000000E+00  0.00000000000E+00  0.13755347108E+04  0.13755347108E+04  0.50400001928E-02 0.  1.
       -1   -1    0    0    0  501  0.00000000000E+00  0.00000000000E+00 -0.15060818096E+04  0.15060818096E+04  0.50400001928E-02 0. -1.
    10030    2    1    2    0    0  0.00000000000E+00  0.00000000000E+00 -0.13054709883E+03  0.28816165204E+04  0.28786578862E+04 0.  0.
        1    1    3    3  502    0 -0.47098995002E+03 -0.17767869198E+03  0.12845434906E+04  0.13796569247E+04  0.50400001928E-02 0.  1.
       -1    1    3    3    0  502  0.47098995002E+03  0.17767869198E+03 -0.14150905895E+04  0.15019595957E+04  0.50400001928E-02 0. -1.
</event>
<event>
 5   0  0.1511126E-06  0.2872899E+04  0.7818609E-02  0.8280987E-01
        1   -1    0    0  501    0  0.00000000000E+00  0.00000000000E+00  0.14051198454E+04  0.14051198454E+04  0.50400001928E-02 0.  1.
       -1   -1    0    0    0  501  0.00000000000E+00  0.00000000000E+00 -0.14684772532E+04  0.14684772532E+04  0.50400001928E-02 0. -1.
    10030    2    1    2    0    0  0.00000000000E+00  0.00000000000E+00 -0.63357407844E+02  0.28735970986E+04  0.28728985579E+04 0.  0.
        5    1    3    3  502    0  0.87400380869E+02  0.96048842675E+03  0.10330929753E+04  0.14133223377E+04  0.46999998093E+01 0.  1.
       -5    1    3    3    0  502 -0.87400380869E+02 -0.96048842675E+03 -0.10964503832E+04  0.14602747609E+04  0.46999998093E+01 0. -1.
</event>
<event>
 5   0  0.1580212E-06  0.2881173E+04  0.7818609E-02  0.8278501E-01
       -1   -1    0    0    0  501  0.00000000000E+00  0.00000000000E+00  0.93744177634E+03  0.93744177635E+03  0.50400001928E-02 0.  1.
        1   -1    0    0  501    0  0.00000000000E+00  0.00000000000E+00 -0.22137791074E+04  0.22137791074E+04  0.50400001928E-02 0. -1.
    10030    2    1    2    0    0  0.00000000000E+00  0.00000000000E+00 -0.12763373311E+04  0.31512208838E+04  0.28811726910E+04 0.  0.
        4    1    3    3  502    0 -0.27493243582E+03 -0.10492036926E+03 -0.21805552558E+04  0.22003224683E+04  0.12699999809E+01 0. -1.
       -4    1    3    3    0  502  0.27493243582E+03  0.10492036926E+03  0.90421792474E+03  0.95089841543E+03  0.12699999809E+01 0.  1.
</event>
<event>
 5   0  0.1550278E-06  0.2905049E+04  0.7818609E-02  0.8271377E-01
       -1   -1    0    0    0  501  0.00000000000E+00  0.00000000000E+00  0.20986212020E+04  0.20986212020E+04  0.50400001928E-02 0.  1.
        1   -1    0    0  501    0  0.00000000000E+00  0.00000000000E+00 -0.10053401055E+04  0.10053401055E+04  0.50400001928E-02 0. -1.
    10030    2    1    2    0    0  0.00000000000E+00  0.00000000000E+00  0.10932810965E+04  0.31039613075E+04  0.29050494390E+04 0.  0.
        2    1    3    3  502    0 -0.58568872913E+03 -0.10782420824E+04 -0.28387892486E+03  0.12594540562E+04  0.25500000920E-02 0. -1.
       -2    1    3    3    0  502  0.58568872913E+03  0.10782420824E+04  0.13771600213E+04  0.18445072513E+04  0.25500000920E-02 0.  1.
</event>
<event>
 5   0  0.4162450E-06  0.2895630E+04  0.7818609E-02  0.8274179E-01
       -2   -1    0    0    0  501  0.00000000000E+00  0.00000000000E+00  0.11883901096E+04  0.11883901096E+04  0.25500000920E-02 0.  1.
        2   -1    0    0  501    0  0.00000000000E+00  0.00000000000E+00 -0.17638724826E+04  0.17638724826E+04  0.25500000920E-02 0. -1.
    10030    2    1    2    0    0  0.00000000000E+00  0.00000000000E+00 -0.57548237304E+03  0.29522625922E+04  0.28956302339E+04 0.  0.
        2    1    3    3  502    0  0.79387166056E+03 -0.11875808594E+04 -0.47358711038E+02  0.14292737172E+04  0.25500000920E-02 0. -1.
       -2    1    3    3    0  502 -0.79387166056E+03  0.11875808594E+04 -0.52812366200E+03  0.15229888750E+04  0.25500000920E-02 0.  1.
</event>
<event>
 5   0  0.1511126E-06  0.2899459E+04  0.7818609E-02  0.8273039E-01
        1   -1    0    0  501    0  0.00000000000E+00  0.00000000000E+00  0.14295080992E+04  0.14295080992E+04  0.50400001928E-02 0.  1.
       -1   -1    0    0    0  501  0.00000000000E+00  0.00000000000E+00 -0.14702367366E+04  0.14702367366E+04  0.50400001928E-02 0. -1.
    10030    2    1    2    0    0  0.00000000000E+00  0.00000000000E+00 -0.40728637431E+02  0.28997448358E+04  0.28994587928E+04 0.  0.
        5    1    3    3  502    0 -0.10007358575E+04  0.10480036263E+04 -0.64065032736E+02  0.14504862204E+04  0.46999998093E+01 0. -1.
       -5    1    3    3    0  502  0.10007358575E+04 -0.10480036263E+04  0.23336395306E+02  0.14492586154E+04  0.46999998093E+01 0.  1.
</event>
<event>
 5   0  0.1543678E-06  0.2764936E+04  0.7818609E-02  0.8314238E-01
        1   -1    0    0  501    0  0.00000000000E+00  0.00000000000E+00  0.18457992226E+04  0.18457992226E+04  0.50400001928E-02 0.  1.
       -1   -1    0    0    0  501  0.00000000000E+00  0.00000000000E+00 -0.10354418818E+04  0.10354418818E+04  0.50400001928E-02 0. -1.
    10030    2    1    2    0    0  0.00000000000E+00  0.00000000000E+00  0.81035734080E+03  0.28812411044E+04  0.27649360357E+04 0.  0.
        3    1    3    3  502    0  0.68547775672E+03  0.52758931479E+03  0.15289606137E+04  0.17566874533E+04  0.10100000352E+00 0.  1.
       -3    1    3    3    0  502 -0.68547775672E+03 -0.52758931479E+03 -0.71860327292E+03  0.11245536511E+04  0.10100000352E+00 0. -1.
</event>
<event>
 5   0  0.4162450E-06  0.2863430E+04  0.7818609E-02  0.8283842E-01
       -2   -1    0    0    0  501  0.00000000000E+00  0.00000000000E+00  0.22003144269E+04  0.22003144269E+04  0.25500000920E-02 0. -1.
        2   -1    0    0  501    0  0.00000000000E+00  0.00000000000E+00 -0.93159799949E+03  0.93159799949E+03  0.25500000920E-02 0.  1.
    10030    2    1    2    0    0  0.00000000000E+00  0.00000000000E+00  0.12687164274E+04  0.31319124264E+04  0.28634304729E+04 0.  0.
        2    1    3    3  502    0 -0.10205649990E+04  0.10037563967E+04  0.66388366494E+03  0.15779167727E+04  0.25500000920E-02 0.  1.
       -2    1    3    3    0  502  0.10205649990E+04 -0.10037563967E+04  0.60483276245E+03  0.15539956537E+04  0.25500000920E-02 0. -1.
</event>
<event>
 5   0  0.1550278E-06  0.2875730E+04  0.7818609E-02  0.8280135E-01
       -1   -1    0    0    0  501  0.00000000000E+00  0.00000000000E+00  0.10631801886E+04  0.10631801886E+04  0.50400001928E-02 0. -1.
        1   -1    0    0  501    0  0.00000000000E+00  0.00000000000E+00 -0.19445959250E+04  0.19445959250E+04  0.50400001928E-02 0.  1.
    10030    2    1    2    0    0  0.00000000000E+00  0.00000000000E+00 -0.88141573646E+03  0.30077761136E+04  0.28757300724E+04 0.  0.
        2    1    3    3  502    0 -0.16379277324E+03 -0.10626355067E+04  0.55781932632E+03  0.12112739960E+04  0.25500000920E-02 0. -1.
       -2    1    3    3    0  502  0.16379277324E+03  0.10626355067E+04 -0.14392350628E+04  0.17965021176E+04  0.25500000920E-02 0.  1.
</event>
<event>
 5   0  0.1511126E-06  0.2560941E+04  0.7818609E-02  0.8381591E-01
        1   -1    0    0  501    0  0.00000000000E+00  0.00000000000E+00  0.14051153107E+04  0.14051153107E+04  0.50400001928E-02 0.  1.
       -1   -1    0    0    0  501  0.00000000000E+00  0.00000000000E+00 -0.11668826560E+04  0.11668826560E+04  0.50400001928E-02 0. -1.
    10030    2    1    2    0    0  0.00000000000E+00  0.00000000000E+00  0.23823265468E+03  0.25719979667E+04  0.25609409878E+04 0.  0.
        5    1    3    3  502    0 -0.74000212160E+03 -0.83339259726E+03  0.75226365710E+03  0.13446445854E+04  0.46999998093E+01 0.  1.
       -5    1    3    3    0  502  0.74000212160E+03  0.83339259726E+03 -0.51403100242E+03  0.12273533813E+04  0.46999998093E+01 0. -1.
</event>
<event>
 5   0  0.4115143E-06  0.2892866E+04  0.7818609E-02  0.8275003E-01
       -2   -1    0    0    0  501  0.00000000000E+00  0.00000000000E+00  0.15460995114E+04  0.15460995114E+04  0.25500000920E-02 0.  1.
        2   -1    0    0  501    0  0.00000000000E+00  0.00000000000E+00 -0.13531917371E+04  0.13531917371E+04  0.25500000920E-02 0. -1.
    10030    2    1    2    0    0  0.00000000000E+00  0.00000000000E+00  0.19290777432E+03  0.28992912486E+04  0.28928664564E+04 0.  0.
        1    1    3    3  502    0  0.77566343276E+03 -0.38264988597E+03 -0.10654717726E+04  0.13723355255E+04  0.50400001928E-02 0. -1.
       -1    1    3    3    0  502 -0.77566343276E+03  0.38264988597E+03  0.12583795469E+04  0.15269557231E+04  0.50400001928E-02 0.  1.
</event>
<event>
 5   0  0.4162450E-06  0.2925959E+04  0.7818609E-02  0.8265195E-01
        2   -1    0    0  501    0  0.00000000000E+00  0.00000000000E+00  0.12889751114E+04  0.12889751114E+04  0.25500000920E-02 0.  1.
       -2   -1    0    0    0  501  0.00000000000E+00  0.00000000000E+00 -0.16604738324E+04  0.16604738324E+04  0.25500000920E-02 0. -1.
    10030    2    1    2    0    0  0.00000000000E+00  0.00000000000E+00 -0.37149872102E+03  0.29494489438E+04  0.29259592910E+04 0.  0.
        2    1    3    3  502    0  0.31514153626E+03  0.65580571557E+03 -0.14651565805E+04  0.16358725897E+04  0.25500000920E-02 0. -1.
       -2    1    3    3    0  502 -0.31514153626E+03 -0.65580571557E+03  0.10936578595E+04  0.13135763541E+04  0.25500000920E-02 0.  1.
</event>
<event>
 5   0  0.4224163E-06  0.2904019E+04  0.7818609E-02  0.8271683E-01
       -2   -1    0    0    0  501  0.00000000000E+00  0.00000000000E+00  0.15913501717E+04  0.15913501717E+04  0.25500000920E-02 0. -1.
        2   -1    0    0  501    0  0.00000000000E+00  0.00000000000E+00 -0.13248692281E+04  0.13248692281E+04  0.25500000920E-02 0.  1.
    10030    2    1    2    0    0  0.00000000000E+00  0.00000000000E+00  0.26648094364E+03  0.29162193998E+04  0.29040185079E+04 0.  0.
        4    1    3    3  502    0  0.74267785087E+03 -0.54310841842E+03 -0.99477412518E+03  0.13550329580E+04  0.12699999809E+01 0.  1.
       -4    1    3    3    0  502 -0.74267785087E+03  0.54310841842E+03  0.12612550688E+04  0.15611864417E+04  0.12699999809E+01 0. -1.
</event>
<event>
 5   0  0.4148677E-06  0.2957174E+04  0.7818609E-02  0.8256067E-01
       -2   -1    0    0    0  501  0.00000000000E+00  0.00000000000E+00  0.10353758010E+04  0.10353758010E+04  0.25500000920E-02 0.  1.
        2   -1    0    0  501    0  0.00000000000E+00  0.00000000000E+00 -0.21115220199E+04  0.21115220199E+04  0.25500000920E-02 0. -1.
    10030    2    1    2    0    0  0.00000000000E+00  0.00000000000E+00 -0.10761462189E+04  0.31468978210E+04  0.29571735172E+04 0.  0.
        5    1    3    3  502    0  0.14370919333E+04  0.20688206996E+03 -0.24055920404E+03  0.14717079317E+04  0.46999998093E+01 0.  1.
       -5    1    3    3    0  502 -0.14370919333E+04 -0.20688206996E+03 -0.83558701485E+03  0.16751898892E+04  0.46999998093E+01 0. -1.
</event>
<event>
 5   0  0.4224163E-06  0.2908092E+04  0.7818609E-02  0.8270474E-01
        2   -1    0    0  501    0  0.00000000000E+00  0.00000000000E+00  0.11940358808E+04  0.11940358808E+04  0.25500000920E-02 0. -1.
       -2   -1    0    0    0  501  0.00000000000E+00  0.00000000000E+00 -0.17706746696E+04  0.17706746696E+04  0.25500000920E-02 0.  1.
    10030    2    1    2    0    0  0.00000000000E+00  0.00000000000E+00 -0.57663878888E+03  0.29647105504E+04  0.29080915314E+04 0.  0.
        4    1    3    3  502    0  0.97681485701E+03  0.53853882151E+03 -0.12392479026E+04  0.16673116998E+04  0.12699999809E+01 0.  1.
       -4    1    3    3    0  502 -0.97681485701E+03 -0.53853882151E+03  0.66260911373E+03  0.12973988506E+04  0.12699999809E+01 0. -1.
</event>
<event>
 5   0  0.4115143E-06  0.2901221E+04  0.7818609E-02  0.8272514E-01
       -2   -1    0    0    0  501  0.00000000000E+00  0.00000000000E+00  0.16308620812E+04  0.16308620812E+04  0.25500000920E-02 0. -1.
        2   -1    0    0  501    0  0.00000000000E+00  0.00000000000E+00 -0.12902813990E+04  0.12902813990E+04  0.25500000920E-02 0.  1.
    10030    2    1    2    0    0  0.00000000000E+00  0.00000000000E+00  0.34058068218E+03  0.29211434803E+04  0.29012211276E+04 0.  0.
        1    1    3    3  502    0  0.74567978729E+03 -0.40082021384E+03 -0.10157526162E+04  0.13222891387E+04  0.50400001928E-02 0.  1.
       -1    1    3    3    0  502 -0.74567978729E+03  0.40082021384E+03  0.13563332984E+04  0.15988543415E+04  0.50400001928E-02 0. -1.
</event>
<event>
 5   0  0.1580212E-06  0.2661719E+04  0.7818609E-02  0.8347534E-01
       -1   -1    0    0    0  501  0.00000000000E+00  0.00000000000E+00  0.10316726048E+04  0.10316726048E+04  0.50400001928E-02 0. -1.
        1   -1    0    0  501    0  0.00000000000E+00  0.00000000000E+00 -0.17168109936E+04  0.17168109936E+04  0.50400001928E-02 0.  1.
    10030    2    1    2    0    0  0.00000000000E+00  0.00000000000E+00 -0.68513838880E+03  0.27484835984E+04  0.26617188955E+04 0.  0.
        4    1    3    3  502    0  0.71459936140E+03 -0.74137968364E+03  0.52805736629E+03  0.11572131513E+04  0.12699999809E+01 0. -1.
       -4    1    3    3    0  502 -0.71459936140E+03  0.74137968364E+03 -0.12131957551E+04  0.15912704471E+04  0.12699999809E+01 0.  1.
</event>
<event>
 5   0  0.4162450E-06  0.2900500E+04  0.7818609E-02  0.8272729E-01
        2   -1    0    0  501    0  0.00000000000E+00  0.00000000000E+00  0.18085562898E+04  0.18085562898E+04  0.25500000920E-02 0. -1.
       -2   -1    0    0    0  501  0.00000000000E+00  0.00000000000E+00 -0.11629304557E+04  0.11629304557E+04  0.25500000920E-02 0.  1.
    10030    2    1    2    0    0  0.00000000000E+00  0.00000000000E+00  0.64562583410E+03  0.29714867456E+04  0.29005000881E+04 0.  0.
        2    1    3    3  502    0  0.50444626787E+03 -0.11271759112E+04  0.11018400486E+04  0.16550054576E+04  0.25500000920E-02 0. -1.
       -2    1    3    3    0  502 -0.50444626787E+03  0.11271759112E+04 -0.45621421450E+03  0.13164812879E+04  0.25500000920E-02 0.  1.
</event>
<event>
 5   0  0.4187518E-06  0.2928819E+04  0.7818609E-02  0.8264354E-01
       -2   -1    0    0    0  501  0.00000000000E+00  0.00000000000E+00  0.23164407720E+04  0.23164407720E+04  0.25500000920E-02 0.  1.
        2   -1    0    0  501    0  0.00000000000E+00  0.00000000000E+00 -0.92577187523E+03  0.92577187523E+03  0.25500000920E-02 0. -1.
    10030    2    1    2    0    0  0.00000000000E+00  0.00000000000E+00  0.13906688968E+04  0.32422126472E+04  0.29288193644E+04 0.  0.
        3    1    3    3  502    0 -0.10582086456E+04 -0.30884605967E+03  0.17624903664E+04  0.20788371095E+04  0.10100000352E+00 0. -1.
       -3    1    3    3    0  502  0.10582086456E+04  0.30884605967E+03 -0.37182146964E+03  0.11633755377E+04  0.10100000352E+00 0.  1.
</event>
<event>
 5   0  0.1360125E-06  0.2902945E+04  0.7818609E-02  0.8272002E-01
        4   -1    0    0  501    0  0.00000000000E+00  0.00000000000E+00  0.87985552926E+03  0.87985644583E+03  0.12699999809E+01 0. -1.
       -4   -1    0    0    0  501  0.00000000000E+00  0.00000000000E+00 -0.23944496970E+04  0.23944500338E+04  0.12699999809E+01 0.  1.
    10030    2    1    2    0    0  0.00000000000E+00  0.00000000000E+00 -0.15145941678E+04  0.32743064796E+04  0.29029446136E+04 0.  0.
        5    1    3    3  502    0 -0.20271440318E+03  0.78384048858E+02  0.86138963032E+03  0.88839820666E+03  0.46999998093E+01 0. -1.
       -5    1    3    3    0  502  0.20271440318E+03 -0.78384048858E+02 -0.23759837981E+04  0.23859082730E+04  0.46999998093E+01 0.  1.
</event>
<event>
 5   0  0.4115143E-06  0.2887132E+04  0.7818609E-02  0.8276716E-01
       -2   -1    0    0    0  501  0.00000000000E+00  0.00000000000E+00  0.85343701897E+03  0.85343701898E+03  0.25500000920E-02 0.  1.
        2   -1    0    0  501    0  0.00000000000E+00  0.00000000000E+00 -0.24417528445E+04  0.24417528445E+04  0.25500000920E-02 0. -1.
    10030    2    1    2    0    0  0.00000000000E+00  0.00000000000E+00 -0.15883158255E+04  0.32951898635E+04  0.28871316345E+04 0.  0.
        1    1    3    3  502    0 -0.13589097918E+04  0.10779631305E+03 -0.13362946227E+04  0.19089104709E+04  0.50400001928E-02 0. -1.
       -1    1    3    3    0  502  0.13589097918E+04 -0.10779631305E+03 -0.25202120287E+03  0.13862793925E+04  0.50400001928E-02 0.  1.
</event>
<event>
 5   0  0.1602873E-06  0.2900209E+04  0.7818609E-02  0.8272815E-01
        1   -1    0    0  501    0  0.00000000000E+00  0.00000000000E+00  0.18569396404E+04  0.18569396404E+04  0.50400001928E-02 0.  1.
       -1   -1    0    0    0  501  0.00000000000E+00  0.00000000000E+00 -0.11324024782E+04  0.11324024782E+04  0.50400001928E-02 0. -1.
    10030    2    1    2    0    0  0.00000000000E+00  0.00000000000E+00  0.72453716228E+03  0.29893421186E+04  0.29002089929E+04 0.  0.
        1    1    3    3  502    0 -0.85822907506E+03 -0.44962538679E+03 -0.74981719054E+03  0.12251309942E+04  0.50400001928E-02 0. -1.
       -1    1    3    3    0  502  0.85822907506E+03  0.44962538679E+03  0.14743543528E+04  0.17642111244E+04  0.50400001928E-02 0.  1.
</event>
<event>
 5   0  0.4162450E-06  0.2811910E+04  0.7818609E-02  0.8299580E-01
        2   -1    0    0  501    0  0.00000000000E+00  0.00000000000E+00  0.10741457623E+04  0.10741457623E+04  0.25500000920E-02 0. -1.
       -2   -1    0    0    0  501  0.00000000000E+00  0.00000000000E+00 -0.18402622293E+04  0.18402622294E+04  0.25500000920E-02 0.  1.
    10030    2    1    2    0    0  0.00000000000E+00  0.00000000000E+00 -0.76611646705E+03  0.29144079917E+04  0.28119102939E+04 0.  0.
        2    1    3    3  502    0 -0.68736125398E+03 -0.76721239943E+03  0.60870677056E+03  0.11964966744E+04  0.25500000920E-02 0. -1.
       -2    1    3    3    0  502  0.68736125398E+03  0.76721239943E+03 -0.13748232376E+04  0.17179113173E+04  0.25500000920E-02 0.  1.
</event>
<event>
 5   0  0.1511126E-06  0.2949507E+04  0.7818609E-02  0.8258298E-01
       -1   -1    0    0    0  501  0.00000000000E+00  0.00000000000E+00  0.12069406088E+04  0.12069406089E+04  0.50400001928E-02 0.  1.
        1   -1    0    0  501    0  0.00000000000E+00  0.00000000000E+00 -0.18019922722E+04  0.18019922722E+04  0.50400001928E-02 0. -1.
    10030    2    1    2    0    0  0.00000000000E+00  0.00000000000E+00 -0.59505166336E+03  0.30089328811E+04  0.29495068403E+04 0.  0.
        5    1    3    3  502    0 -0.33285223817E+03 -0.46752508149E+03  0.10883385549E+04  0.12303955520E+04  0.46999998093E+01 0.  1.
       -5    1    3    3    0  502  0.33285223817E+03  0.46752508149E+03 -0.16833902182E+04  0.17785373291E+04  0.46999998093E+01 0. -1.
</event>
<event>
 5   0  0.4148677E-06  0.2904426E+04  0.7818609E-02  0.8271562E-01
        2   -1    0    0  501    0  0.00000000000E+00  0.00000000000E+00  0.19300045063E+04  0.19300045063E+04  0.25500000920E-02 0. -1.
       -2   -1    0    0    0  501  0.00000000000E+00  0.00000000000E+00 -0.10927031294E+04  0.10927031294E+04  0.25500000920E-02 0.  1.
    10030    2    1    2    0    0  0.00000000000E+00  0.00000000000E+00  0.83730137694E+03  0.30227076357E+04  0.29044255637E+04 0.  0.
        5    1    3    3  502    0 -0.42579350566E+03 -0.36319807195E+03 -0.97595426256E+03  0.11250430043E+04  0.46999998093E+01 0.  1.
       -5    1    3    3    0  502  0.42579350566E+03  0.36319807195E+03  0.18132556395E+04  0.18976646314E+04  0.46999998093E+01 0. -1.
</event>
<event>
 5   0  0.1580212E-06  0.2881427E+04  0.7818609E-02  0.8278425E-01
        1   -1    0    0  501    0  0.00000000000E+00  0.00000000000E+00  0.24499721544E+04  0.24499721544E+04  0.50400001928E-02 0. -1.
       -1   -1    0    0    0  501  0.00000000000E+00  0.00000000000E+00 -0.84721594138E+03  0.84721594140E+03  0.50400001928E-02 0.  1.
    10030    2    1    2    0    0  0.00000000000E+00  0.00000000000E+00  0.16027562131E+04  0.32971880958E+04  0.28814270528E+04 0.  0.
        4    1    3    3  502    0  0.43268961454E+03  0.58045642436E+03 -0.62394238248E+03  0.95574874976E+03  0.12699999809E+01 0.  1.
       -4    1    3    3    0  502 -0.43268961454E+03 -0.58045642436E+03  0.22266985955E+04  0.23414393461E+04  0.12699999809E+01 0. -1.
</event>
<event>
 5   0  0.4224163E-06  0.2904251E+04  0.7818609E-02  0.8271614E-01
        2   -1    0    0  501    0  0.00000000000E+00  0.00000000000E+00  0.19748973233E+04  0.19748973233E+04  0.25500000920E-02 0.  1.
       -2   -1    0    0    0  501  0.00000000000E+00  0.00000000000E+00 -0.10677358581E+04  0.10677358581E+04  0.25500000920E-02 0. -1.
    10030    2    1    2    0    0  0.00000000000E+00  0.00000000000E+00  0.90716146525E+03  0.30426331814E+04  0.29042511517E+04 0.  0.
        4    1    3    3  502    0 -0.12648889101E+04 -0.33173483301E+03 -0.20791187337E+03  0.13240924871E+04  0.12699999809E+01 0.  1.
       -4    1    3    3    0  502  0.12648889101E+04  0.33173483301E+03  0.11150733386E+04  0.17185406943E+04  0.12699999809E+01 0. -1.
</event>
<event>
 5   0  0.1602873E-06  0.2916761E+04  0.7818609E-02  0.8267908E-01
        1   -1    0    0  501    0  0.00000000000E+00  0.00000000000E+00  0.17962500506E+04  0.17962500506E+04  0.50400001928E-02 0.  1.
       -1   -1    0    0    0  501  0.00000000000E+00  0.00000000000E+00 -0.11840630875E+04  0.11840630876E+04  0.50400001928E-02 0. -1.
    10030    2    1    2    0    0  0.00000000000E+00  0.00000000000E+00  0.61218696308E+03  0.29803131382E+04  0.29167607930E+04 0.  0.
        1    1    3    3  502    0  0.71465060424E+03 -0.12625901736E+04  0.15448969245E+03  0.14590155920E+04  0.50400001928E-02 0.  1.
       -1    1    3    3    0  502 -0.71465060424E+03  0.12625901736E+04  0.45769727063E+03  0.15212975462E+04  0.50400001928E-02 0. -1.
</event>
<event>
 5   0  0.4115143E-06  0.2896544E+04  0.7818609E-02  0.8273906E-01
        2   -1    0    0  501    0  0.00000000000E+00  0.00000000000E+00  0.24858703499E+04  0.24858703499E+04  0.25500000920E-02 0.  1.
       -2   -1    0    0    0  501  0.00000000000E+00  0.00000000000E+00 -0.84376559552E+03  0.84376559552E+03  0.25500000920E-02 0. -1.
    10030    2    1    2    0    0  0.00000000000E+00  0.00000000000E+00  0.16421047544E+04  0.33296359455E+04  0.28965440623E+04 0.  0.
        1    1    3    3  502    0 -0.98361086249E+03 -0.82272596994E+03  0.15948455925E+04  0.20464361252E+04  0.50400001928E-02 0.  1.
       -1    1    3    3    0  502  0.98361086249E+03  0.82272596994E+03  0.47259161921E+02  0.12831998203E+04  0.50400001928E-02 0. -1.
</event>
<event>
 5   0  0.1580212E-06  0.2902498E+04  0.7818609E-02  0.8272135E-01
       -1   -1    0    0    0  501  0.00000000000E+00  0.00000000000E+00  0.11606798668E+04  0.11606798669E+04  0.50400001928E-02 0. -1.
        1   -1    0    0  501    0  0.00000000000E+00  0.00000000000E+00 -0.18145605445E+04  0.18145605445E+04  0.50400001928E-02 0.  1.
    10030    2    1    2    0    0  0.00000000000E+00  0.00000000000E+00 -0.65388067762E+03  0.29752404113E+04  0.29024981593E+04 0.  0.
        4    1    3    3  502    0  0.71942749464E+03 -0.66545885733E+03  0.77026428086E+03  0.12464830870E+04  0.12699999809E+01 0. -1.
       -4    1    3    3    0  502 -0.71942749464E+03  0.66545885733E+03 -0.14241449585E+04  0.17287573243E+04  0.12699999809E+01 0.  1.
</event>
<event>
 5   0  0.4187518E-06  0.2913512E+04  0.7818609E-02  0.8268868E-01
        2   -1    0    0  501    0  0.00000000000E+00  0.00000000000E+00  0.24964575572E+04  0.24964575572E+04  0.25500000920E-02 0.  1.
       -2   -1    0    0    0  501  0.00000000000E+00  0.00000000000E+00 -0.85005995115E+03  0.85005995115E+03  0.25500000920E-02 0. -1.
    10030    2    1    2    0    0  0.00000000000E+00  0.00000000000E+00  0.16463976060E+04  0.33465175083E+04  0.29135123745E+04 0.  0.
        3    1    3    3  502    0 -0.66595094659E+03  0.88348350076E+03  0.19117271619E+04  0.22087857549E+04  0.10100000352E+00 0.  1.
       -3    1    3    3    0  502  0.66595094659E+03 -0.88348350076E+03 -0.26532955584E+03  0.11377317534E+04  0.10100000352E+00 0. -1.
</event>
<event>
 5   0  0.1543678E-06  0.2910746E+04  0.7818609E-02  0.8269687E-01
        1   -1    0    0  501    0  0.00000000000E+00  0.00000000000E+00  0.17466000762E+04  0.17466000762E+04  0.50400001928E-02 0. -1.
       -1   -1    0    0    0  501  0.00000000000E+00  0.00000000000E+00 -0.12127053127E+04  0.12127053127E+04  0.50400001928E-02 0.  1.
    10030    2    1    2    0    0  0.00000000000E+00  0.00000000000E+00  0.53389476352E+03  0.29593053889E+04  0.29107464277E+04 0.  0.
        3    1    3    3  502    0 -0.10484753327E+04 -0.65497656337E+03  0.10477545990E+04  0.16205198338E+04  0.10100000352E+00 0. -1.
       -3    1    3    3    0  502  0.10484753327E+04  0.65497656337E+03 -0.51385983544E+03  0.13387855551E+04  0.10100000352E+00 0.  1.
</event>
<event>
 5   0  0.4115143E-06  0.2904522E+04  0.7818609E-02  0.8271533E-01
        2   -1    0    0  501    0  0.00000000000E+00  0.00000000000E+00  0.12487352285E+04  0.12487352285E+04  0.25500000920E-02 0. -1.
       -2   -1    0    0    0  501  0.00000000000E+00  0.00000000000E+00 -0.16889586158E+04  0.16889586158E+04  0.25500000920E-02 0.  1.
    10030    2    1    2    0    0  0.00000000000E+00  0.00000000000E+00 -0.44022338730E+03  0.29376938444E+04  0.29045220765E+04 0.  0.
        1    1    3    3  502    0 -0.43171863909E+03 -0.11881623700E+04 -0.94308392234E+03  0.15771867630E+04  0.50400001928E-02 0. -1.
       -1    1    3    3    0  502  0.43171863909E+03  0.11881623700E+04  0.50286053505E+03  0.13605070814E+04  0.50400001928E-02 0.  1.
</event>
<event>
 5   0  0.1580212E-06  0.2901368E+04  0.7818609E-02  0.8272471E-01
        1   -1    0    0  501    0  0.00000000000E+00  0.00000000000E+00  0.14556308875E+04  0.14556308875E+04  0.50400001928E-02 0.  1.
       -1   -1    0    0    0  501  0.00000000000E+00  0.00000000000E+00 -0.14457539594E+04  0.14457539594E+04  0.50400001928E-02 0. -1.
    10030    2    1    2    0    0  0.00000000000E+00  0.00000000000E+00  0.98769281210E+01  0.29013848469E+04  0.29013680353E+04 0.  0.
        4    1    3    3  502    0  0.88649038681E+03 -0.70909514266E+03  0.90816093558E+03  0.14537671839E+04  0.12699999809E+01 0.  1.
       -4    1    3    3    0  502 -0.88649038681E+03  0.70909514266E+03 -0.89828400746E+03  0.14476176630E+04  0.12699999809E+01 0. -1.
</event>
<event>
 5   0  0.4187518E-06  0.2918931E+04  0.7818609E-02  0.8267267E-01
       -2   -1    0    0    0  501  0.00000000000E+00  0.00000000000E+00  0.85335202713E+03  0.85335202714E+03  0.25500000920E-02 0.  1.
        2   -1    0    0  501    0  0.00000000000E+00  0.00000000000E+00 -0.24960846062E+04  0.24960846062E+04  0.25500000920E-02 0. -1.
    10030    2    1    2    0    0  0.00000000000E+00  0.00000000000E+00 -0.16427325791E+04  0.33494366333E+04  0.29189305292E+04 0.  0.
        3    1    3    3  502    0  0.11900731976E+04 -0.28759030603E+03  0.90187102732E+02  0.12276465793E+04  0.10100000352E+00 0. -1.
       -3    1    3    3    0  502 -0.11900731976E+04  0.28759030603E+03 -0.17329196818E+04  0.21217900541E+04  0.10100000352E+00 0.  1.
</event>
<event>
 5   0  0.1580212E-06  0.2569681E+04  0.7818609E-02  0.8378573E-01
       -1   -1    0    0    0  501  0.00000000000E+00  0.00000000000E+00  0.10908929690E+04  0.10908929690E+04  0.50400001928E-02 0.  1.
        1   -1    0    0  501    0  0.00000000000E+00  0.00000000000E+00 -0.15132696449E+04  0.15132696449E+04  0.50400001928E-02 0. -1.
    10030    2    1    2    0    0  0.00000000000E+00  0.00000000000E+00 -0.42237667584E+03  0.26041626139E+04  0.25696810820E+04 0.  0.
        4    1    3    3  502    0 -0.11775864485E+04  0.42947292153E+03 -0.49721084949E+03  0.13484721264E+04  0.12699999809E+01 0. -1.
       -4    1    3    3    0  502  0.11775864485E+04 -0.42947292153E+03  0.74834173651E+02  0.12556904875E+04  0.12699999809E+01 0.  1.
</event>
<event>
 5   0  0.1580212E-06  0.2878743E+04  0.7818609E-02  0.8279230E-01
       -1   -1    0    0    0  501  0.00000000000E+00  0.00000000000E+00  0.14847706546E+04  0.14847706546E+04  0.50400001928E-02 0. -1.
        1   -1    0    0  501    0  0.00000000000E+00  0.00000000000E+00 -0.13953608608E+04  0.13953608609E+04  0.50400001928E-02 0.  1.
    10030    2    1    2    0    0  0.00000000000E+00  0.00000000000E+00  0.89409793776E+02  0.28801315155E+04  0.28787433778E+04 0.  0.
        4    1    3    3  502    0  0.75865799438E+03 -0.11368083316E+04  0.49646898863E+03  0.14540901639E+04  0.12699999809E+01 0. -1.
       -4    1    3    3    0  502 -0.75865799438E+03  0.11368083316E+04 -0.40705919485E+03  0.14260413515E+04  0.12699999809E+01 0.  1.
</event>
<event>
 5   0  0.1511126E-06  0.2917779E+04  0.7818609E-02  0.8267607E-01
       -1   -1    0    0    0  501  0.00000000000E+00  0.00000000000E+00  0.14037747092E+04  0.14037747092E+04  0.50400001928E-02 0.  1.
        1   -1    0    0  501    0  0.00000000000E+00  0.00000000000E+00 -0.15161678764E+04  0.15161678764E+04  0.50400001928E-02 0. -1.
    10030    2    1    2    0    0  0.00000000000E+00  0.00000000000E+00 -0.11239316721E+03  0.29199425856E+04  0.29177786892E+04 0.  0.
        5    1    3    3  502    0 -0.90044250705E+03  0.11408587664E+04  0.70311552493E+02  0.14551017963E+04  0.46999998093E+01 0. -1.
       -5    1    3    3    0  502  0.90044250705E+03 -0.11408587664E+04 -0.18270471971E+03  0.14648407893E+04  0.46999998093E+01 0.  1.
</event>
<event>
 5   0  0.4162450E-06  0.2898616E+04  0.7818609E-02  0.8273289E-01
       -2   -1    0    0    0  501  0.00000000000E+00  0.00000000000E+00  0.15955545146E+04  0.15955545146E+04  0.25500000920E-02 0.  1.
        2   -1    0    0  501    0  0.00000000000E+00  0.00000000000E+00 -0.13164658918E+04  0.13164658918E+04  0.25500000920E-02 0. -1.
    10030    2    1    2    0    0  0.00000000000E+00  0.00000000000E+00  0.27908862277E+03  0.29120204064E+04  0.28986155985E+04 0.  0.
        2    1    3    3  502    0 -0.98967684641E+03 -0.77052816135E+03  0.86906997926E+03  0.15259280902E+04  0.25500000920E-02 0.  1.
       -2    1    3    3    0  502  0.98967684641E+03  0.77052816135E+03 -0.58998135648E+03  0.13860923161E+04  0.25500000920E-02 0. -1.
</event>
<event>
 5   0  0.4224163E-06  0.2891168E+04  0.7818609E-02  0.8275510E-01
       -2   -1    0    0    0  501  0.00000000000E+00  0.00000000000E+00  0.11431523018E+04  0.11431523018E+04  0.25500000920E-02 0. -1.
        2   -1    0    0  501    0  0.00000000000E+00  0.00000000000E+00 -0.18280270865E+04  0.18280270865E+04  0.25500000920E-02 0.  1.
    10030    2    1    2    0    0  0.00000000000E+00  0.00000000000E+00 -0.68487478470E+03  0.29711793884E+04  0.28911681873E+04 0.  0.
        4    1    3    3  502    0  0.10942825653E+04  0.34435822502E+03  0.56149251092E+03  0.12772283949E+04  0.12699999809E+01 0. -1.
       -4    1    3    3    0  502 -0.10942825653E+04 -0.34435822502E+03 -0.12463672956E+04  0.16939509935E+04  0.12699999809E+01 0.  1.
</event>
<event>
 5   0  0.4148677E-06  0.2857239E+04  0.7818609E-02  0.8285715E-01
       -2   -1    0    0    0  501  0.00000000000E+00  0.00000000000E+00  0.14716195152E+04  0.14716195152E+04  0.25500000920E-02 0.  1.
        2   -1    0    0  501    0  0.00000000000E+00  0.00000000000E+00 -0.13868763684E+04  0.13868763684E+04  0.25500000920E-02 0. -1.
    10030    2    1    2    0    0  0.00000000000E+00  0.00000000000E+00  0.84743146724E+02  0.28584958836E+04  0.28572394572E+04 0.  0.
        5    1    3    3  502    0 -0.10383622536E+04 -0.41680637451E+03  0.93102368546E+03  0.14555929776E+04  0.46999998093E+01 0. -1.
       -5    1    3    3    0  502  0.10383622536E+04  0.41680637451E+03 -0.84628053874E+03  0.14029029060E+04  0.46999998093E+01 0.  1.
</event>
<event>
 5   0  0.1360125E-06  0.2878794E+04  0.7818609E-02  0.8279215E-01
       -4   -1    0    0    0  501  0.00000000000E+00  0.00000000000E+00  0.15445209238E+04  0.15445214460E+04  0.12699999809E+01 0.  1.
        4   -1    0    0  501    0  0.00000000000E+00  0.00000000000E+00 -0.13414266279E+04  0.13414272291E+04  0.12699999809E+01 0. -1.
    10030    2    1    2    0    0  0.00000000000E+00  0.00000000000E+00  0.20309429590E+03  0.28859486751E+04  0.28787935776E+04 0.  0.
        1    1    3    3  502    0  0.11501300942E+04 -0.19399763641E+03  0.94710591894E+03  0.15024792639E+04  0.50400001928E-02 0.  1.
       -1    1    3    3    0  502 -0.11501300942E+04  0.19399763641E+03 -0.74401162304E+03  0.13834694112E+04  0.50400001928E-02 0. -1.
</event>
<event>
 5   0  0.1580212E-06  0.2908562E+04  0.7818609E-02  0.8270335E-01
       -1   -1    0    0    0  501  0.00000000000E+00  0.00000000000E+00  0.12200089101E+04  0.12200089101E+04  0.50400001928E-02 0. -1.
        1   -1    0    0  501    0  0.00000000000E+00  0.00000000000E+00 -0.17335386196E+04  0.17335386196E+04  0.50400001928E-02 0.  1.
    10030    2    1    2    0    0  0.00000000000E+00  0.00000000000E+00 -0.51352970947E+03  0.29535475297E+04  0.29085615427E+04 0.  0.
        4    1    3    3  502    0 -0.69948568262E+03 -0.12736688311E+04 -0.19739314806E+03  0.14664508786E+04  0.12699999809E+01 0. -1.
       -4    1    3    3    0  502  0.69948568262E+03  0.12736688311E+04 -0.31613656141E+03  0.14870966511E+04  0.12699999809E+01 0.  1.
</event>
<event>
 5   0  0.1602873E-06  0.2896638E+04  0.7818609E-02  0.8273879E-01
        1   -1    0    0  501    0  0.00000000000E+00  0.00000000000E+00  0.18215768534E+04  0.18215768534E+04  0.50400001928E-02 0.  1.
       -1   -1    0    0    0  501  0.00000000000E+00  0.00000000000E+00 -0.11515449270E+04  0.11515449270E+04  0.50400001928E-02 0. -1.
    10030    2    1    2    0    0  0.00000000000E+00  0.00000000000E+00  0.67003192635E+03  0.29731217804E+04  0.28966377645E+04 0.  0.
        1    1    3    3  502    0 -0.52693919217E+03 -0.64073453710E+03 -0.88352188105E+03  0.12119474302E+04  0.50400001928E-02 0. -1.
       -1    1    3    3    0  502  0.52693919217E+03  0.64073453710E+03  0.15535538074E+04  0.17611743502E+04  0.50400001928E-02 0.  1.
</event>
<event>
 5   0  0.4187518E-06  0.2889547E+04  0.7818609E-02  0.8275994E-01
       -2   -1    0    0    0  501  0.00000000000E+00  0.00000000000E+00  0.13787012455E+04  0.13787012455E+04  0.25500000920E-02 0.  1.
        2   -1    0    0  501    0  0.00000000000E+00  0.00000000000E+00 -0.15140119808E+04  0.15140119808E+04  0.25500000920E-02 0. -1.
    10030    2    1    2    0    0  0.00000000000E+00  0.00000000000E+00 -0.13531073531E+03  0.28927132264E+04  0.28895468183E+04 0.  0.
        3    1    3    3  502    0 -0.33420518435E+03 -0.52473665020E+03 -0.13730507362E+04  0.15074183201E+04  0.10100000352E+00 0. -1.
       -3    1    3    3    0  502  0.33420518435E+03  0.52473665020E+03  0.12377400009E+04  0.13852949063E+04  0.10100000352E+00 0.  1.
</event>
<event>
 5   0  0.4115143E-06  0.2933355E+04  0.7818609E-02  0.8263022E-01
        2   -1    0    0  501    0  0.00000000000E+00  0.00000000000E+00  0.17109176181E+04  0.17109176181E+04  0.25500000920E-02 0. -1.
       -2   -1    0    0    0  501  0.00000000000E+00  0.00000000000E+00 -0.12573035781E+04  0.12573035781E+04  0.25500000920E-02 0.  1.
    10030    2    1    2    0    0  0.00000000000E+00  0.00000000000E+00  0.45361404006E+03  0.29682211962E+04  0.29333549687E+04 0.  0.
        1    1    3    3  502    0  0.60996118075E+03  0.11274876919E+04  0.94792176333E+03  0.15943138985E+04  0.50400001928E-02 0. -1.
       -1    1    3    3    0  502 -0.60996118075E+03 -0.11274876919E+04 -0.49430772327E+03  0.13739072977E+04  0.50400001928E-02 0.  1.
</event>
<event>
 5   0  0.4148677E-06  0.2885450E+04  0.7818609E-02  0.8277220E-01
        2   -1    0    0  501    0  0.00000000000E+00  0.00000000000E+00  0.94549059986E+03  0.94549059987E+03  0.25500000920E-02 0. -1.
       -2   -1    0    0    0  501  0.00000000000E+00  0.00000000000E+00 -0.22014554014E+04  0.22014554014E+04  0.25500000920E-02 0.  1.
    10030    2    1    2    0    0  0.00000000000E+00  0.00000000000E+00 -0.12559648015E+04  0.31469460013E+04  0.28854499739E+04 0.  0.
        5    1    3    3  502    0 -0.12736116976E+04  0.63764838266E+03 -0.37749180408E+03  0.14735007188E+04  0.46999998093E+01 0.  1.
       -5    1    3    3    0  502  0.12736116976E+04 -0.63764838266E+03 -0.87847299744E+03  0.16734452825E+04  0.46999998093E+01 0. -1.
</event>
<event>
 5   0  0.1511126E-06  0.2910387E+04  0.7818609E-02  0.8269794E-01
       -1   -1    0    0    0  501  0.00000000000E+00  0.00000000000E+00  0.11130089707E+04  0.11130089707E+04  0.50400001928E-02 0.  1.
        1   -1    0    0  501    0  0.00000000000E+00  0.00000000000E+00 -0.19025801312E+04  0.19025801312E+04  0.50400001928E-02 0. -1.
    10030    2    1    2    0    0  0.00000000000E+00  0.00000000000E+00 -0.78957116047E+03  0.30155891019E+04  0.29103874337E+04 0.  0.
        5    1    3    3  502    0 -0.53127253340E+03  0.13523600652E+04 -0.47792572418E+03  0.15295631201E+04  0.46999998093E+01 0. -1.
       -5    1    3    3    0  502  0.53127253340E+03 -0.13523600652E+04 -0.31164543629E+03  0.14860259818E+04  0.46999998093E+01 0.  1.
</event>
<event>
 5   0  0.4162450E-06  0.2911809E+04  0.7818609E-02  0.8269373E-01
       -2   -1    0    0    0  501  0.00000000000E+00  0.00000000000E+00  0.14159902864E+04  0.14159902864E+04  0.25500000920E-02 0.  1.
        2   -1    0    0  501    0  0.00000000000E+00  0.00000000000E+00 -0.14969436420E+04  0.14969436420E+04  0.25500000920E-02 0. -1.
    10030    2    1    2    0    0  0.00000000000E+00  0.00000000000E+00 -0.80953355597E+02  0.29129339284E+04  0.29118088237E+04 0.  0.
        2    1    3    3  502    0 -0.13112376049E+04  0.10482516413E+03  0.58372377780E+03  0.14391198075E+04  0.25500000920E-02 0.  1.
       -2    1    3    3    0  502  0.13112376049E+04 -0.10482516413E+03 -0.66467713340E+03  0.14738141210E+04  0.25500000920E-02 0. -1.
</event>
<event>
 5   0  0.1602873E-06  0.2770567E+04  0.7818609E-02  0.8312465E-01
       -1   -1    0    0    0  501  0.00000000000E+00  0.00000000000E+00  0.12254299388E+04  0.12254299388E+04  0.50400001928E-02 0. -1.
        1   -1    0    0  501    0  0.00000000000E+00  0.00000000000E+00 -0.15659889134E+04  0.15659889134E+04  0.50400001928E-02 0.  1.
    10030    2    1    2    0    0  0.00000000000E+00  0.00000000000E+00 -0.34055897460E+03  0.27914188522E+04  0.27705665113E+04 0.  0.
        1    1    3    3  502    0 -0.10750323805E+04  0.55960033582E+03 -0.84627078426E+03  0.14781817870E+04  0.50400001928E-02 0.  1.
       -1    1    3    3    0  502  0.10750323805E+04 -0.55960033582E+03  0.50571180967E+03  0.13132370652E+04  0.50400001928E-02 0. -1.
</event>
<event>
 5   0  0.4187518E-06  0.2893904E+04  0.7818609E-02  0.8274693E-01
        2   -1    0    0  501    0  0.00000000000E+00  0.00000000000E+00  0.17657479895E+04  0.17657479895E+04  0.25500000920E-02 0.  1.
       -2   -1    0    0    0  501  0.00000000000E+00  0.00000000000E+00 -0.11857131530E+04  0.11857131530E+04  0.25500000920E-02 0. -1.
    10030    2    1    2    0    0  0.00000000000E+00  0.00000000000E+00  0.58003483654E+03  0.29514611425E+04  0.28939043633E+04 0.  0.
        3    1    3    3  502    0 -0.11306677110E+04  0.47129395609E+03  0.10754929324E+04  0.16300958634E+04  0.10100000352E+00 0. -1.
       -3    1    3    3    0  502  0.11306677110E+04 -0.47129395609E+03 -0.49545809590E+03  0.13213652791E+04  0.10100000352E+00 0.  1.
</event>
<event>
 5   0  0.4162450E-06  0.2890916E+04  0.7818609E-02  0.8275585E-01
       -2   -1    0    0    0  501  0.00000000000E+00  0.00000000000E+00  0.92236398370E+03  0.92236398371E+03  0.25500000920E-02 0.  1.
        2   -1    0    0  501    0  0.00000000000E+00  0.00000000000E+00 -0.22652109745E+04  0.22652109745E+04  0.25500000920E-02 0. -1.
    10030    2    1    2    0    0  0.00000000000E+00  0.00000000000E+00 -0.13428469908E+04  0.31875749582E+04  0.28909161305E+04 0.  0.
        2    1    3    3  502    0 -0.35793834213E+02  0.79578304028E+03  0.65849840602E+03  0.10335240667E+04  0.25500000920E-02 0.  1.
       -2    1    3    3    0  502  0.35793834213E+02 -0.79578304028E+03 -0.20013453968E+04  0.21540508915E+04  0.25500000920E-02 0. -1.
</event>
<event>
 5   0  0.1543678E-06  0.2947138E+04  0.7818609E-02  0.8258989E-01
       -1   -1    0    0    0  501  0.00000000000E+00  0.00000000000E+00  0.14536706125E+04  0.14536706125E+04  0.50400001928E-02 0.  1.
        1   -1    0    0  501    0  0.00000000000E+00  0.00000000000E+00 -0.14937398268E+04  0.14937398268E+04  0.50400001928E-02 0. -1.
    10030    2    1    2    0    0  0.00000000000E+00  0.00000000000E+00 -0.40069214233E+02  0.29474104393E+04  0.29471380619E+04 0.  0.
        3    1    3    3  502    0 -0.59693053188E+03  0.41829713140E+03  0.12607504269E+04  0.14562933081E+04  0.10100000352E+00 0.  1.
       -3    1    3    3    0  502  0.59693053188E+03 -0.41829713140E+03 -0.13008196412E+04  0.14911171312E+04  0.10100000352E+00 0. -1.
</event>
<event>
 5   0  0.4148677E-06  0.3060463E+04  0.7818609E-02  0.8226673E-01
        2   -1    0    0  501    0  0.00000000000E+00  0.00000000000E+00  0.20609524471E+04  0.20609524471E+04  0.25500000920E-02 0.  1.
       -2   -1    0    0    0  501  0.00000000000E+00  0.00000000000E+00 -0.11361781320E+04  0.11361781320E+04  0.25500000920E-02 0. -1.
    10030    2    1    2    0    0  0.00000000000E+00  0.00000000000E+00  0.92477431509E+03  0.31971305790E+04  0.30604634299E+04 0.  0.
        5    1    3    3  502    0  0.14711223804E+04 -0.36646075235E+03  0.67924437250E+03  0.16612915303E+04  0.46999998093E+01 0.  1.
       -5    1    3    3    0  502 -0.14711223804E+04  0.36646075235E+03  0.24552994258E+03  0.15358390488E+04  0.46999998093E+01 0. -1.
</event>
<event>
 5   0  0.4162450E-06  0.2905009E+04  0.7818609E-02  0.8271389E-01
       -2   -1    0    0    0  501  0.00000000000E+00  0.00000000000E+00  0.12287435414E+04  0.12287435414E+04  0.25500000920E-02 0. -1.
        2   -1    0    0  501    0  0.00000000000E+00  0.00000000000E+00 -0.17170135708E+04  0.17170135708E+04  0.25500000920E-02 0.  1.
    10030    2    1    2    0    0  0.00000000000E+00  0.00000000000E+00 -0.48827002932E+03  0.29457571122E+04  0.29050090090E+04 0.  0.
        2    1    3    3  502    0 -0.12310149014E+04 -0.38929274004E+03 -0.91891849739E+03  0.15847263896E+04  0.25500000920E-02 0. -1.
       -2    1    3    3    0  502  0.12310149014E+04  0.38929274004E+03  0.43064846806E+03  0.13610307226E+04  0.25500000920E-02 0.  1.
</event>
<event>
 5   0  0.4148677E-06  0.2907512E+04  0.7818609E-02  0.8270646E-01
       -2   -1    0    0    0  501  0.00000000000E+00  0.00000000000E+00  0.13319939898E+04  0.13319939898E+04  0.25500000920E-02 0. -1.
        2   -1    0    0  501    0  0.00000000000E+00  0.00000000000E+00 -0.15866491733E+04  0.15866491733E+04  0.25500000920E-02 0.  1.
    10030    2    1    2    0    0  0.00000000000E+00  0.00000000000E+00 -0.25465518354E+03  0.29186431631E+04  0.29075124507E+04 0.  0.
        5    1    3    3  502    0 -0.29919445484E+03  0.11304270562E+04 -0.99434843142E+03  0.15349702096E+04  0.46999998093E+01 0.  1.
       -5    1    3    3    0  502  0.29919445484E+03 -0.11304270562E+04  0.73969324787E+03  0.13836729535E+04  0.46999998093E+01 0. -1.
</event>
<event>
 5   0  0.1602873E-06  0.2881151E+04  0.7818609E-02  0.8278508E-01
       -1   -1    0    0    0  501  0.00000000000E+00  0.00000000000E+00  0.11605714024E+04  0.11605714024E+04  0.50400001928E-02 0.  1.
        1   -1    0    0  501    0  0.00000000000E+00  0.00000000000E+00 -0.17881350898E+04  0.17881350898E+04  0.50400001928E-02 0. -1.
    10030    2    1    2    0    0  0.00000000000E+00  0.00000000000E+00 -0.62756368739E+03  0.29487064922E+04  0.28811514704E+04 0.  0.
        1    1    3    3  502    0  0.74368233617E+02 -0.15334963719E+03 -0.17777806990E+04  0.17859313982E+04  0.50400001928E-02 0. -1.
       -1    1    3    3    0  502 -0.74368233617E+02  0.15334963719E+03  0.11502170116E+04  0.11627750940E+04  0.50400001928E-02 0.  1.
</event>
<event>
 5   0  0.4224163E-06  0.2937742E+04  0.7818609E-02  0.8261736E-01
       -2   -1    0    0    0  501  0.00000000000E+00  0.00000000000E+00  0.14726195720E+04  0.14726195720E+04  0.25500000920E-02 0.  1.
        2   -1    0    0  501    0  0.00000000000E+00  0.00000000000E+00 -0.14651318642E+04  0.14651318642E+04  0.25500000920E-02 0. -1.
    10030    2    1    2    0    0  0.00000000000E+00  0.00000000000E+00  0.74877078245E+01  0.29377514361E+04  0.29377418938E+04 0.  0.
        4    1    3    3  502    0 -0.59683513940E+03 -0.12490566709E+04  0.49489257076E+03  0.14701275524E+04  0.12699999809E+01 0.  1.
       -4    1    3    3    0  502  0.59683513940E+03  0.12490566709E+04 -0.48740486293E+03  0.14676238837E+04  0.12699999809E+01 0. -1.
</event>
<event>
 5   0  0.4187518E-06  0.3044511E+04  0.7818609E-02  0.8231134E-01
       -2   -1    0    0    0  501  0.00000000000E+00  0.00000000000E+00  0.13354587281E+04  0.13354587282E+04  0.25500000920E-02 0.  1.
        2   -1    0    0  501    0  0.00000000000E+00  0.00000000000E+00 -0.17351800601E+04  0.17351800601E+04  0.25500000920E-02 0. -1.
    10030    2    1    2    0    0  0.00000000000E+00  0.00000000000E+00 -0.39972133199E+03  0.30706387883E+04  0.30445107037E+04 0.  0.
        3    1    3    3  502    0 -0.75878745112E+03 -0.81690271566E+03  0.84545707863E+03  0.13992448409E+04  0.10100000352E+00 0.  1.
       -3    1    3    3    0  502  0.75878745112E+03  0.81690271566E+03 -0.12451784106E+04  0.16713939474E+04  0.10100000352E+00 0. -1.
</event>
<event>
 5   0  0.1360125E-06  0.2890074E+04  0.7818609E-02  0.8275837E-01
       -4   -1    0    0    0  501  0.00000000000E+00  0.00000000000E+00  0.16729948250E+04  0.16729953070E+04  0.12699999809E+01 0. -1.
        4   -1    0    0  501    0  0.00000000000E+00  0.00000000000E+00 -0.12481388226E+04  0.12481394687E+04  0.12699999809E+01 0.  1.
    10030    2    1    2    0    0  0.00000000000E+00  0.00000000000E+00  0.42485600238E+03  0.29211347757E+04  0.28900736591E+04 0.  0.
        4    1    3    3  502    0 -0.11512612848E+04  0.70067664065E+03  0.73935572735E+03  0.15372048676E+04  0.12699999809E+01 0. -1.
       -4    1    3    3    0  502  0.11512612848E+04 -0.70067664065E+03 -0.31449972497E+03  0.13839299081E+04  0.12699999809E+01 0.  1.
</event>
<event>
 5   0  0.4187518E-06  0.2700450E+04  0.7818609E-02  0.8334859E-01
        2   -1    0    0  501    0  0.00000000000E+00  0.00000000000E+00  0.14946837493E+04  0.14946837493E+04  0.25500000920E-02 0. -1.
       -2   -1    0    0    0  501  0.00000000000E+00  0.00000000000E+00 -0.12197282726E+04  0.12197282726E+04  0.25500000920E-02 0.  1.
    10030    2    1    2    0    0  0.00000000000E+00  0.00000000000E+00  0.27495547671E+03  0.27144120219E+04  0.27004503532E+04 0.  0.
        3    1    3    3  502    0  0.10873213606E+04 -0.45767020230E+03  0.79766737232E+03  0.14240797037E+04  0.10100000352E+00 0. -1.
       -3    1    3    3    0  502 -0.10873213606E+04  0.45767020230E+03 -0.52271189561E+03  0.12903323182E+04  0.10100000352E+00 0.  1.
</event>
<event>
 5   0  0.1543678E-06  0.2962735E+04  0.7818609E-02  0.8254453E-01
        1   -1    0    0  501    0  0.00000000000E+00  0.00000000000E+00  0.20291580540E+04  0.20291580540E+04  0.50400001928E-02 0. -1.
       -1   -1    0    0    0  501  0.00000000000E+00  0.00000000000E+00 -0.10814580082E+04  0.10814580082E+04  0.50400001928E-02 0.  1.
    10030    2    1    2    0    0  0.00000000000E+00  0.00000000000E+00  0.94770004581E+03  0.31106160623E+04  0.29627347012E+04 0.  0.
        3    1    3    3  502    0 -0.63781239995E+03 -0.11949485694E+04 -0.15587290487E+03  0.13634526444E+04  0.10100000352E+00 0.  1.
       -3    1    3    3    0  502  0.63781239995E+03  0.11949485694E+04  0.11035729507E+04  0.17471634178E+04  0.10100000352E+00 0. -1.
</event>
<event>
 5   0  0.1511126E-06  0.2884714E+04  0.7818609E-02  0.8277440E-01
       -1   -1    0    0    0  501  0.00000000000E+00  0.00000000000E+00  0.11030419843E+04  0.11030419843E+04  0.50400001928E-02 0. -1.
        1   -1    0    0  501    0  0.00000000000E+00  0.00000000000E+00 -0.18860513379E+04  0.18860513379E+04  0.50400001928E-02 0.  1.
    10030    2    1    2    0    0  0.00000000000E+00  0.00000000000E+00 -0.78300935357E+03  0.29890933222E+04  0.28847140657E+04 0.  0.
        5    1    3    3  502    0  0.99908493883E+02 -0.13288949750E+04 -0.96321905217E+03  0.16443103704E+04  0.46999998093E+01 0.  1.
       -5    1    3    3    0  502 -0.99908493883E+02  0.13288949750E+04  0.18020969860E+03  0.13447829518E+04  0.46999998093E+01 0. -1.
</event>
<event>
 5   0  0.4224163E-06  0.2886419E+04  0.7818609E-02  0.8276930E-01
       -2   -1    0    0    0  501  0.00000000000E+00  0.00000000000E+00  0.14158251579E+04  0.14158251579E+04  0.25500000920E-02 0. -1.
        2   -1    0    0  501    0  0.00000000000E+00  0.00000000000E+00 -0.14711237631E+04  0.14711237631E+04  0.25500000920E-02 0.  1.
    10030    2    1    2    0    0  0.00000000000E+00  0.00000000000E+00 -0.55298605186E+02  0.28869489210E+04  0.28864192587E+04 0.  0.
        4    1    3    3  502    0 -0.72567478908E+02  0.89410963822E+03 -0.11584116414E+04  0.14651338601E+04  0.12699999809E+01 0.  1.
       -4    1    3    3    0  502  0.72567478908E+02 -0.89410963822E+03  0.11031130362E+04  0.14218150610E+04  0.12699999809E+01 0. -1.
</event>
<event>
 5   0  0.1511126E-06  0.2898022E+04  0.7818609E-02  0.8273466E-01
        1   -1    0    0  501    0  0.00000000000E+00  0.00000000000E+00  0.18026560364E+04  0.18026560364E+04  0.50400001928E-02 0. -1.
       -1   -1    0    0    0  501  0.00000000000E+00  0.00000000000E+00 -0.11647438170E+04  0.11647438170E+04  0.50400001928E-02 0.  1.
    10030    2    1    2    0    0  0.00000000000E+00  0.00000000000E+00  0.63791221945E+03  0.29673998534E+04  0.28980217201E+04 0.  0.
        5    1    3    3  502    0  0.12445733402E+04  0.15138189414E+03  0.10627982550E+04  0.16436062478E+04  0.46999998093E+01 0. -1.
       -5    1    3    3    0  502 -0.12445733402E+04 -0.15138189414E+03 -0.42488603556E+03  0.13237936056E+04  0.46999998093E+01 0.  1.
</event>
<event>
 5   0  0.1511126E-06  0.2865591E+04  0.7818609E-02  0.8283189E-01
       -1   -1    0    0    0  501  0.00000000000E+00  0.00000000000E+00  0.18146064830E+04  0.18146064830E+04  0.50400001928E-02 0. -1.
        1   -1    0    0  501    0  0.00000000000E+00  0.00000000000E+00 -0.11313212209E+04  0.11313212209E+04  0.50400001928E-02 0.  1.
    10030    2    1    2    0    0  0.00000000000E+00  0.00000000000E+00  0.68328526213E+03  0.29459277038E+04  0.28655909141E+04 0.  0.
        5    1    3    3  502    0  0.18321567681E+03  0.98310027455E+02 -0.11157208356E+04  0.11349396102E+04  0.46999998093E+01 0.  1.
       -5    1    3    3    0  502 -0.18321567681E+03 -0.98310027455E+02  0.17990060977E+04  0.18109880937E+04  0.46999998093E+01 0. -1.
</event>
<event>
 5   0  0.1543678E-06  0.2911733E+04  0.7818609E-02  0.8269395E-01
        1   -1    0    0  501    0  0.00000000000E+00  0.00000000000E+00  0.24014339877E+04  0.24014339877E+04  0.50400001928E-02 0.  1.
       -1   -1    0    0    0  501  0.00000000000E+00  0.00000000000E+00 -0.88261752466E+03  0.88261752467E+03  0.50400001928E-02 0. -1.
    10030    2    1    2    0    0  0.00000000000E+00  0.00000000000E+00  0.15188164630E+04  0.32840515123E+04  0.29117333132E+04 0.  0.
        3    1    3    3  502    0  0.48883977938E+03 -0.12267621585E+01 -0.78728608138E+03  0.92670665207E+03  0.10100000352E+00 0. -1.
       -3    1    3    3    0  502 -0.48883977938E+03  0.12267621585E+01  0.23061025444E+04  0.23573448603E+04  0.10100000352E+00 0.  1.
</event>
<event>
 5   0  0.4115143E-06  0.2936351E+04  0.7818609E-02  0.8262143E-01
       -2   -1    0    0    0  501  0.00000000000E+00  0.00000000000E+00  0.11512623515E+04  0.11512623515E+04  0.25500000920E-02 0.  1.
        2   -1    0    0  501    0  0.00000000000E+00  0.00000000000E+00 -0.18723266132E+04  0.18723266132E+04  0.25500000920E-02 0. -1.
    10030    2    1    2    0    0  0.00000000000E+00  0.00000000000E+00 -0.72106426169E+03  0.30235889647E+04  0.29363508915E+04 0.  0.
        1    1    3    3  502    0 -0.10211344510E+04 -0.75484107678E+03  0.39827275470E+03  0.13308350031E+04  0.50400001928E-02 0. -1.
       -1    1    3    3    0  502  0.10211344510E+04  0.75484107678E+03 -0.11193370164E+04  0.16927539616E+04  0.50400001928E-02 0.  1.
</event>
<event>
 5   0  0.1550278E-06  0.2892969E+04  0.7818609E-02  0.8274973E-01
        1   -1    0    0  501    0  0.00000000000E+00  0.00000000000E+00  0.16932530937E+04  0.16932530937E+04  0.50400001928E-02 0. -1.
       -1   -1    0    0    0  501  0.00000000000E+00  0.00000000000E+00 -0.12356786443E+04  0.12356786443E+04  0.50400001928E-02 0.  1.
    10030    2    1    2    0    0  0.00000000000E+00  0.00000000000E+00  0.45757444941E+03  0.29289317380E+04  0.28929685012E+04 0.  0.
        2    1    3    3  502    0 -0.76957967576E+03 -0.64126550495E+03  0.12852350405E+04  0.16295101824E+04  0.25500000920E-02 0. -1.
       -2    1    3    3    0  502  0.76957967576E+03  0.64126550495E+03 -0.82766059105E+03  0.12994215556E+04  0.25500000920E-02 0.  1.
</event>
<event>
 5   0  0.1543678E-06  0.2874573E+04  0.7818609E-02  0.8280483E-01
        1   -1    0    0  501    0  0.00000000000E+00  0.00000000000E+00  0.10737512570E+04  0.10737512570E+04  0.50400001928E-02 0. -1.
       -1   -1    0    0    0  501  0.00000000000E+00  0.00000000000E+00 -0.19239026577E+04  0.19239026577E+04  0.50400001928E-02 0.  1.
    10030    2    1    2    0    0  0.00000000000E+00  0.00000000000E+00 -0.85015140064E+03  0.29976539147E+04  0.28745732880E+04 0.  0.
        3    1    3    3  502    0  0.70418097229E+03 -0.40657785934E+02 -0.17310011430E+04  0.18691947102E+04  0.10100000352E+00 0.  1.
       -3    1    3    3    0  502 -0.70418097229E+03  0.40657785934E+02  0.88084974241E+03  0.11284592045E+04  0.10100000352E+00 0. -1.
</event>
<event>
 5   0  0.1550278E-06  0.2665985E+04  0.7818609E-02  0.8346127E-01
        1   -1    0    0  501    0  0.00000000000E+00  0.00000000000E+00  0.11739539332E+04  0.11739539332E+04  0.50400001928E-02 0.  1.
       -1   -1    0    0    0  501  0.00000000000E+00  0.00000000000E+00 -0.15135764247E+04  0.15135764247E+04  0.50400001928E-02 0. -1.
    10030    2    1    2    0    0  0.00000000000E+00  0.00000000000E+00 -0.33962249154E+03  0.26875303579E+04  0.26659849940E+04 0.  0.
        2    1    3    3  502    0  0.16480863741E+03 -0.13131585908E+04 -0.93975413237E+01  0.13234937421E+04  0.25500000920E-02 0.  1.
       -2    1    3    3    0  502 -0.16480863741E+03  0.13131585908E+04 -0.33022495022E+03  0.13640366158E+04  0.25500000920E-02 0. -1.
</event>
<event>
 5   0  0.1543678E-06  0.2838328E+04  0.7818609E-02  0.8291467E-01
        1   -1    0    0  501    0  0.00000000000E+00  0.00000000000E+00  0.13786176888E+04  0.13786176888E+04  0.50400001928E-02 0.  1.
       -1   -1    0    0    0  501  0.00000000000E+00  0.00000000000E+00 -0.14609032838E+04  0.14609032838E+04  0.50400001928E-02 0. -1.
    10030    2    1    2    0    0  0.00000000000E+00  0.00000000000E+00 -0.82285595031E+02  0.28395209726E+04  0.28383284578E+04 0.  0.
        3    1    3    3  502    0 -0.37677242724E+03 -0.10912345979E+04 -0.86688445302E+03  0.14436893969E+04  0.10100000352E+00 0. -1.
       -3    1    3    3    0  502  0.37677242724E+03  0.10912345979E+04  0.78459885799E+03  0.13958315757E+04  0.10100000352E+00 0.  1.
</event>
<event>
 5   0  0.4148677E-06  0.2949512E+04  0.7818609E-02  0.8258297E-01
        2   -1    0    0  501    0  0.00000000000E+00  0.00000000000E+00  0.20714501832E+04  0.20714501832E+04  0.25500000920E-02 0.  1.
       -2   -1    0    0    0  501  0.00000000000E+00  0.00000000000E+00 -0.10499432557E+04  0.10499432557E+04  0.25500000920E-02 0. -1.
    10030    2    1    2    0    0  0.00000000000E+00  0.00000000000E+00  0.10215069275E+04  0.31213934389E+04  0.29495119253E+04 0.  0.
        5    1    3    3  502    0  0.80881034956E+03  0.12265822650E+04  0.37603704423E+03  0.15166094365E+04  0.46999998093E+01 0. -1.
       -5    1    3    3    0  502 -0.80881034956E+03 -0.12265822650E+04  0.64546988323E+03  0.16047840024E+04  0.46999998093E+01 0.  1.
</event>
<event>
 5   0  0.4115143E-06  0.2891496E+04  0.7818609E-02  0.8275412E-01
        2   -1    0    0  501    0  0.00000000000E+00  0.00000000000E+00  0.33601637977E+04  0.33601637977E+04  0.25500000920E-02 0.  1.
       -2   -1    0    0    0  501  0.00000000000E+00  0.00000000000E+00 -0.62204941105E+03  0.62204941106E+03  0.25500000920E-02 0. -1.
    10030    2    1    2    0    0  0.00000000000E+00  0.00000000000E+00  0.27381143867E+04  0.39822132088E+04  0.28914964371E+04 0.  0.
        1    1    3    3  502    0  0.67652547773E+03 -0.23606977990E+03  0.30984208621E+04  0.31801929976E+04  0.50400001928E-02 0.  1.
       -1    1    3    3    0  502 -0.67652547773E+03  0.23606977990E+03 -0.36030647541E+03  0.80202021125E+03  0.50400001928E-02 0. -1.
</event>
<event>
 5   0  0.1602873E-06  0.2890056E+04  0.7818609E-02  0.8275842E-01
       -1   -1    0    0    0  501  0.00000000000E+00  0.00000000000E+00  0.11340081299E+04  0.11340081299E+04  0.50400001928E-02 0. -1.
        1   -1    0    0  501    0  0.00000000000E+00  0.00000000000E+00 -0.18413505302E+04  0.18413505302E+04  0.50400001928E-02 0.  1.
    10030    2    1    2    0    0  0.00000000000E+00  0.00000000000E+00 -0.70734240031E+03  0.29753586601E+04  0.28900563809E+04 0.  0.
        1    1    3    3  502    0 -0.81308549732E+03  0.37197112271E+03  0.81501556870E+03  0.12098433450E+04  0.50400001928E-02 0. -1.
       -1    1    3    3    0  502  0.81308549732E+03 -0.37197112271E+03 -0.15223579690E+04  0.17655153151E+04  0.50400001928E-02 0.  1.
</event>
<event>
 5   0  0.4162450E-06  0.2902404E+04  0.7818609E-02  0.8272163E-01
        2   -1    0    0  501    0  0.00000000000E+00  0.00000000000E+00  0.14969680839E+04  0.14969680839E+04  0.25500000920E-02 0.  1.
       -2   -1    0    0    0  501  0.00000000000E+00  0.00000000000E+00 -0.14068351398E+04  0.14068351398E+04  0.25500000920E-02 0. -1.
    10030    2    1    2    0    0  0.00000000000E+00  0.00000000000E+00  0.90132944136E+02  0.29038032237E+04  0.29024040405E+04 0.  0.
        2    1    3    3  502    0 -0.73371472814E+03  0.97123642567E+03 -0.74547253497E+03  0.14273635827E+04  0.25500000920E-02 0. -1.
       -2    1    3    3    0  502  0.73371472814E+03 -0.97123642567E+03  0.83560547911E+03  0.14764396410E+04  0.25500000920E-02 0.  1.
</event>
<event>
 5   0  0.4148677E-06  0.2900563E+04  0.7818609E-02  0.8272710E-01
       -2   -1    0    0    0  501  0.00000000000E+00  0.00000000000E+00  0.10352586935E+04  0.10352586935E+04  0.25500000920E-02 0.  1.
        2   -1    0    0  501    0  0.00000000000E+00  0.00000000000E+00 -0.20316826658E+04  0.20316826658E+04  0.25500000920E-02 0. -1.
    10030    2    1    2    0    0  0.00000000000E+00  0.00000000000E+00 -0.99642397231E+03  0.30669413593E+04  0.29005634916E+04 0.  0.
        5    1    3    3  502    0  0.45083820364E+03  0.12659173171E+04 -0.10749275870E+04  0.17208408256E+04  0.46999998093E+01 0. -1.
       -5    1    3    3    0  502 -0.45083820364E+03 -0.12659173171E+04  0.78503614723E+02  0.13461005338E+04  0.46999998093E+01 0.  1.
</event>
<event>
 5   0  0.1550278E-06  0.2937950E+04  0.7818609E-02  0.8261675E-01
       -1   -1    0    0    0  501  0.00000000000E+00  0.00000000000E+00  0.17163125378E+04  0.17163125379E+04  0.50400001928E-02 0.  1.
        1   -1    0    0  501    0  0.00000000000E+00  0.00000000000E+00 -0.12572814850E+04  0.12572814850E+04  0.50400001928E-02 0. -1.
    10030    2    1    2    0    0  0.00000000000E+00  0.00000000000E+00  0.45903105281E+03  0.29735940229E+04  0.29379502898E+04 0.  0.
        2    1    3    3  502    0 -0.40071736209E+03  0.54138791924E+03  0.15508085128E+04  0.16907638294E+04  0.25500000920E-02 0.  1.
       -2    1    3    3    0  502  0.40071736209E+03 -0.54138791924E+03 -0.10917774600E+04  0.12828301935E+04  0.25500000920E-02 0. -1.
</event>
<event>
 5   0  0.4162450E-06  0.2917842E+04  0.7818609E-02  0.8267589E-01
        2   -1    0    0  501    0  0.00000000000E+00  0.00000000000E+00  0.22816577788E+04  0.22816577788E+04  0.25500000920E-02 0. -1.
       -2   -1    0    0    0  501  0.00000000000E+00  0.00000000000E+00 -0.93285265328E+03  0.93285265328E+03  0.25500000920E-02 0.  1.
    10030    2    1    2    0    0  0.00000000000E+00  0.00000000000E+00  0.13488051256E+04  0.32145104321E+04  0.29178420196E+04 0.  0.
        2    1    3    3  502    0 -0.14167296851E+04  0.17204529823E+03  0.34074278522E+03  0.14672519317E+04  0.25500000920E-02 0.  1.
       -2    1    3    3    0  502  0.14167296851E+04 -0.17204529823E+03  0.10080623403E+04  0.17472585004E+04  0.25500000920E-02 0. -1.
</event>
<event>
 5   0  0.4187518E-06  0.2906009E+04  0.7818609E-02  0.8271092E-01
       -2   -1    0    0    0  501  0.00000000000E+00  0.00000000000E+00  0.19828289333E+04  0.19828289333E+04  0.25500000920E-02 0. -1.
        2   -1    0    0  501    0  0.00000000000E+00  0.00000000000E+00 -0.10647526744E+04  0.10647526744E+04  0.25500000920E-02 0.  1.
    10030    2    1    2    0    0  0.00000000000E+00  0.00000000000E+00  0.91807625889E+03  0.30475816077E+04  0.29060092289E+04 0.  0.
        3    1    3    3  502    0  0.26507287291E+03 -0.76592446864E+03 -0.80566361051E+03  0.11428026002E+04  0.10100000352E+00 0.  1.
       -3    1    3    3    0  502 -0.26507287291E+03  0.76592446864E+03  0.17237398694E+04  0.19047790074E+04  0.10100000352E+00 0. -1.
</event>
<event>
 5   0  0.1511126E-06  0.2905555E+04  0.7818609E-02  0.8271227E-01
        1   -1    0    0  501    0  0.00000000000E+00  0.00000000000E+00  0.23406494952E+04  0.23406494952E+04  0.50400001928E-02 0. -1.
       -1   -1    0    0    0  501  0.00000000000E+00  0.00000000000E+00 -0.90169920434E+03  0.90169920435E+03  0.50400001928E-02 0.  1.
    10030    2    1    2    0    0  0.00000000000E+00  0.00000000000E+00  0.14389502908E+04  0.32423486995E+04  0.29055545340E+04 0.  0.
        5    1    3    3  502    0 -0.27695536069E+03  0.32159112016E+03 -0.83096848970E+03  0.93308940689E+03  0.46999998093E+01 0.  1.
       -5    1    3    3    0  502  0.27695536069E+03 -0.32159112016E+03  0.22699187805E+04  0.23092592926E+04  0.46999998093E+01 0. -1.
</event>
<event>
 5   0  0.4115143E-06  0.2885951E+04  0.7818609E-02  0.8277070E-01
       -2   -1    0    0    0  501  0.00000000000E+00  0.00000000000E+00  0.13977080660E+04  0.13977080660E+04  0.25500000920E-02 0. -1.
        2   -1    0    0  501    0  0.00000000000E+00  0.00000000000E+00 -0.14897094109E+04  0.14897094109E+04  0.25500000920E-02 0.  1.
    10030    2    1    2    0    0  0.00000000000E+00  0.00000000000E+00 -0.92001344841E+02  0.28874174769E+04  0.28859513923E+04 0.  0.
        1    1    3    3  502    0 -0.12637198346E+04  0.28272597484E+03 -0.68292210724E+03  0.14640028695E+04  0.50400001928E-02 0.  1.
       -1    1    3    3    0  502  0.12637198346E+04 -0.28272597484E+03  0.59092076240E+03  0.14234146074E+04  0.50400001928E-02 0. -1.
</event>
<event>
 5   0  0.1580212E-06  0.2905144E+04  0.7818609E-02  0.8271349E-01
        1   -1    0    0  501    0  0.00000000000E+00  0.00000000000E+00  0.16760865448E+04  0.16760865448E+04  0.50400001928E-02 0. -1.
       -1   -1    0    0    0  501  0.00000000000E+00  0.00000000000E+00 -0.12588646074E+04  0.12588646074E+04  0.50400001928E-02 0.  1.
    10030    2    1    2    0    0  0.00000000000E+00  0.00000000000E+00  0.41722193744E+03  0.29349511523E+04  0.29051444234E+04 0.  0.
        4    1    3    3  502    0  0.36995981745E+03 -0.13820535261E+04 -0.45006951414E+02  0.14314221788E+04  0.12699999809E+01 0.  1.
       -4    1    3    3    0  502 -0.36995981745E+03  0.13820535261E+04  0.46222888885E+03  0.15035289735E+04  0.12699999809E+01 0. -1.
</event>
<event>
 5   0  0.1550278E-06  0.2881326E+04  0.7818609E-02  0.8278455E-01
       -1   -1    0    0    0  501  0.00000000000E+00  0.00000000000E+00  0.12957424527E+04  0.12957424527E+04  0.50400001928E-02 0. -1.
        1   -1    0    0  501    0  0.00000000000E+00  0.00000000000E+00 -0.16017919825E+04  0.16017919825E+04  0.50400001928E-02 0.  1.
    10030    2    1    2    0    0  0.00000000000E+00  0.00000000000E+00 -0.30604952978E+03  0.28975344352E+04  0.28813259948E+04 0.  0.
        2    1    3    3  502    0 -0.49953120891E+03  0.13209210162E+04 -0.43948877546E+03  0.14790247271E+04  0.25500000920E-02 0.  1.
       -2    1    3    3    0  502  0.49953120891E+03 -0.13209210162E+04  0.13343924567E+03  0.14185097081E+04  0.25500000920E-02 0. -1.
</event>
<event>
 5   0  0.4224163E-06  0.2659616E+04  0.7818609E-02  0.8348228E-01
       -2   -1    0    0    0  501  0.00000000000E+00  0.00000000000E+00  0.77810117983E+03  0.77810117984E+03  0.25500000920E-02 0. -1.
        2   -1    0    0  501    0  0.00000000000E+00  0.00000000000E+00 -0.22726987285E+04  0.22726987285E+04  0.25500000920E-02 0.  1.
    10030    2    1    2    0    0  0.00000000000E+00  0.00000000000E+00 -0.14945975487E+04  0.30507999084E+04  0.26596161844E+04 0.  0.
        4    1    3    3  502    0 -0.30255204750E+03 -0.43817995255E+03  0.65047161254E+03  0.84062735138E+03  0.12699999809E+01 0. -1.
       -4    1    3    3    0  502  0.30255204750E+03  0.43817995255E+03 -0.21450691612E+04  0.22101725570E+04  0.12699999809E+01 0.  1.
</event>
<event>
 5   0  0.4162450E-06  0.2949449E+04  0.7818609E-02  0.8258315E-01
       -2   -1    0    0    0  501  0.00000000000E+00  0.00000000000E+00  0.15051371288E+04  0.15051371288E+04  0.25500000920E-02 0.  1.
        2   -1    0    0  501    0  0.00000000000E+00  0.00000000000E+00 -0.14449267450E+04  0.14449267450E+04  0.25500000920E-02 0. -1.
    10030    2    1    2    0    0  0.00000000000E+00  0.00000000000E+00  0.60210383740E+02  0.29500638738E+04  0.29494493671E+04 0.  0.
        2    1    3    3  502    0  0.52615081449E+03  0.10308948848E+04  0.94420694830E+03  0.14936886236E+04  0.25500000920E-02 0.  1.
       -2    1    3    3    0  502 -0.52615081449E+03 -0.10308948848E+04 -0.88399656456E+03  0.14563752502E+04  0.25500000920E-02 0. -1.
</event>
<event>
 5   0  0.4148677E-06  0.2897163E+04  0.7818609E-02  0.8273722E-01
        2   -1    0    0  501    0  0.00000000000E+00  0.00000000000E+00  0.13558427688E+04  0.13558427688E+04  0.25500000920E-02 0.  1.
       -2   -1    0    0    0  501  0.00000000000E+00  0.00000000000E+00 -0.15476639842E+04  0.15476639842E+04  0.25500000920E-02 0. -1.
    10030    2    1    2    0    0  0.00000000000E+00  0.00000000000E+00 -0.19182121540E+03  0.29035067530E+04  0.28971634551E+04 0.  0.
        5    1    3    3  502    0 -0.43412322220E+03  0.16935629505E+02 -0.14808252105E+04  0.15432482566E+04  0.46999998093E+01 0. -1.
       -5    1    3    3    0  502  0.43412322220E+03 -0.16935629505E+02  0.12890039951E+04  0.13602584963E+04  0.46999998093E+01 0.  1.
</event>
<event>
 5   0  0.1550278E-06  0.2903638E+04  0.7818609E-02  0.8271796E-01
        1   -1    0    0  501    0  0.00000000000E+00  0.00000000000E+00  0.17011914059E+04  0.17011914059E+04  0.50400001928E-02 0.  1.
       -1   -1    0    0    0  501  0.00000000000E+00  0.00000000000E+00 -0.12390016603E+04  0.12390016603E+04  0.50400001928E-02 0. -1.
    10030    2    1    2    0    0  0.00000000000E+00  0.00000000000E+00  0.46218974558E+03  0.29401930662E+04  0.29036383910E+04 0.  0.
        2    1    3    3  502    0 -0.42649411563E+03  0.93113864543E+03 -0.81087009392E+03  0.13063026896E+04  0.25500000920E-02 0. -1.
       -2    1    3    3    0  502  0.42649411563E+03 -0.93113864543E+03  0.12730598395E+04  0.16338903766E+04  0.25500000920E-02 0.  1.
</event>
<event>
 5   0  0.4224163E-06  0.2878580E+04  0.7818609E-02  0.8279279E-01
        2   -1    0    0  501    0  0.00000000000E+00  0.00000000000E+00  0.23329671593E+04  0.23329671593E+04  0.25500000920E-02 0.  1.
       -2   -1    0    0    0  501  0.00000000000E+00  0.00000000000E+00 -0.88794876384E+03  0.88794876384E+03  0.25500000920E-02 0. -1.
    10030    2    1    2    0    0  0.00000000000E+00  0.00000000000E+00  0.14450183955E+04  0.32209159232E+04  0.28785797229E+04 0.  0.
        4    1    3    3  502    0  0.38952504624E+03 -0.11098372507E+04  0.16506678924E+04  0.20268632387E+04  0.12699999809E+01 0.  1.
       -4    1    3    3    0  502 -0.38952504624E+03  0.11098372507E+04 -0.20564949688E+03  0.11940526844E+04  0.12699999809E+01 0. -1.
</event>
<event>
 5   0  0.4187518E-06  0.2897956E+04  0.7818609E-02  0.8273486E-01
        2   -1    0    0  501    0  0.00000000000E+00  0.00000000000E+00  0.15914512752E+04  0.15914512752E+04  0.25500000920E-02 0.  1.
       -2   -1    0    0    0  501  0.00000000000E+00  0.00000000000E+00 -0.13192591318E+04  0.13192591318E+04  0.25500000920E-02 0. -1.
    10030    2    1    2    0    0  0.00000000000E+00  0.00000000000E+00  0.27219214341E+03  0.29107104071E+04  0.28979555744E+04 0.  0.
        3    1    3    3  502    0  0.11752398286E+03 -0.10592635973E+04 -0.84989936832E+03  0.13631508360E+04  0.10100000352E+00 0. -1.
       -3    1    3    3    0  502 -0.11752398286E+03  0.10592635973E+04  0.11220915117E+04  0.15475595711E+04  0.10100000352E+00 0.  1.
</event>
<event>
 5   0  0.1511126E-06  0.2896141E+04  0.7818609E-02  0.8274027E-01
        1   -1    0    0  501    0  0.00000000000E+00  0.00000000000E+00  0.19505351029E+04  0.19505351029E+04  0.50400001928E-02 0.  1.
       -1   -1    0    0    0  501  0.00000000000E+00  0.00000000000E+00 -0.10750423697E+04  0.10750423697E+04  0.50400001928E-02 0. -1.
    10030    2    1    2    0    0  0.00000000000E+00  0.00000000000E+00  0.87549273323E+03  0.30255774726E+04  0.28961407972E+04 0.  0.
        5    1    3    3  502    0  0.54795535959E+03  0.45473776158E+03  0.17549893716E+04  0.18939512381E+04  0.46999998093E+01 0.  1.
       -5    1    3    3    0  502 -0.54795535959E+03 -0.45473776158E+03 -0.87949663833E+03  0.11316262346E+04  0.46999998093E+01 0. -1.
</event>
<event>
 5   0  0.4187518E-06  0.2928089E+04  0.7818609E-02  0.8264569E-01
        2   -1    0    0  501    0  0.00000000000E+00  0.00000000000E+00  0.14534084685E+04  0.14534084685E+04  0.25500000920E-02 0. -1.
       -2   -1    0    0    0  501  0.00000000000E+00  0.00000000000E+00 -0.14747585449E+04  0.14747585449E+04  0.25500000920E-02 0.  1.
    10030    2    1    2    0    0  0.00000000000E+00  0.00000000000E+00 -0.21350076434E+02  0.29281670134E+04  0.29280891777E+04 0.  0.
        3    1    3    3  502    0 -0.11760426174E+04  0.39239508268E+03 -0.78939748400E+03  0.14697613877E+04  0.10100000352E+00 0.  1.
       -3    1    3    3    0  502  0.11760426174E+04 -0.39239508268E+03  0.76804740757E+03  0.14584056258E+04  0.10100000352E+00 0. -1.
</event>
<event>
 5   0  0.1550278E-06  0.2888127E+04  0.7818609E-02  0.8276419E-01
       -1   -1    0    0    0  501  0.00000000000E+00  0.00000000000E+00  0.25082572269E+04  0.25082572269E+04  0.50400001928E-02 0.  1.
        1   -1    0    0  501    0  0.00000000000E+00  0.00000000000E+00 -0.83138189055E+03  0.83138189056E+03  0.50400001928E-02 0. -1.
    10030    2    1    2    0    0  0.00000000000E+00  0.00000000000E+00  0.16768753363E+04  0.33396391175E+04  0.28881271685E+04 0.  0.
        2    1    3    3  502    0  0.15167400239E+03  0.49727193488E+03 -0.71941276709E+03  0.88760301356E+03  0.25500000920E-02 0. -1.
       -2    1    3    3    0  502 -0.15167400239E+03 -0.49727193488E+03  0.23962881034E+04  0.24520361039E+04  0.25500000920E-02 0.  1.
</event>
<event>
 5   0  0.1602873E-06  0.2886657E+04  0.7818609E-02  0.8276858E-01
        1   -1    0    0  501    0  0.00000000000E+00  0.00000000000E+00  0.21982059561E+04  0.21982059561E+04  0.50400001928E-02 0. -1.
       -1   -1    0    0    0  501  0.00000000000E+00  0.00000000000E+00 -0.94768065704E+03  0.94768065705E+03  0.50400001928E-02 0.  1.
    10030    2    1    2    0    0  0.00000000000E+00  0.00000000000E+00  0.12505252990E+04  0.31458866131E+04  0.28866570733E+04 0.  0.
        1    1    3    3  502    0 -0.83359165707E+02  0.12546256278E+04 -0.14700927623E+03  0.12659565332E+04  0.50400001928E-02 0.  1.
       -1    1    3    3    0  502  0.83359165707E+02 -0.12546256278E+04  0.13975345752E+04  0.18799300800E+04  0.50400001928E-02 0. -1.
</event>
<event>
 5   0  0.4224163E-06  0.2901449E+04  0.7818609E-02  0.8272446E-01
       -2   -1    0    0    0  501  0.00000000000E+00  0.00000000000E+00  0.12726610958E+04  0.12726610958E+04  0.25500000920E-02 0.  1.
        2   -1    0    0  501    0  0.00000000000E+00  0.00000000000E+00 -0.16537017387E+04  0.16537017387E+04  0.25500000920E-02 0. -1.
    10030    2    1    2    0    0  0.00000000000E+00  0.00000000000E+00 -0.38104064293E+03  0.29263628344E+04  0.29014492012E+04 0.  0.
        4    1    3    3  502    0  0.71126053416E+03  0.12113916095E+04 -0.55590032983E+03  0.15107574155E+04  0.12699999809E+01 0. -1.
       -4    1    3    3    0  502 -0.71126053416E+03 -0.12113916095E+04  0.17485968690E+03  0.14156054189E+04  0.12699999809E+01 0.  1.
</event>
<event>
 5   0  0.4224163E-06  0.2893769E+04  0.7818609E-02  0.8274734E-01
        2   -1    0    0  501    0  0.00000000000E+00  0.00000000000E+00  0.12841351258E+04  0.12841351258E+04  0.25500000920E-02 0. -1.
       -2   -1    0    0    0  501  0.00000000000E+00  0.00000000000E+00 -0.16302602682E+04  0.16302602682E+04  0.25500000920E-02 0.  1.
    10030    2    1    2    0    0  0.00000000000E+00  0.00000000000E+00 -0.34612514233E+03  0.29143953940E+04  0.28937688053E+04 0.  0.
        4    1    3    3  502    0  0.88459432764E+03  0.74996644940E+03 -0.10443976595E+04  0.15606809039E+04  0.12699999809E+01 0.  1.
       -4    1    3    3    0  502 -0.88459432764E+03 -0.74996644940E+03  0.69827251716E+03  0.13537144901E+04  0.12699999809E+01 0. -1.
</event>
<event>
 5   0  0.4224163E-06  0.2901782E+04  0.7818609E-02  0.8272347E-01
       -2   -1    0    0    0  501  0.00000000000E+00  0.00000000000E+00  0.73221298503E+03  0.73221298503E+03  0.25500000920E-02 0. -1.
        2   -1    0    0  501    0  0.00000000000E+00  0.00000000000E+00 -0.28749622315E+04  0.28749622315E+04  0.25500000920E-02 0.  1.
    10030    2    1    2    0    0  0.00000000000E+00  0.00000000000E+00 -0.21427492465E+04  0.36071752165E+04  0.29017819886E+04 0.  0.
        4    1    3    3  502    0 -0.14060649451E+04  0.33524035405E+03 -0.12270258301E+04  0.18960481865E+04  0.12699999809E+01 0.  1.
       -4    1    3    3    0  502  0.14060649451E+04 -0.33524035405E+03 -0.91572341631E+03  0.17111270300E+04  0.12699999809E+01 0. -1.
</event>
<event>
 5   0  0.1543678E-06  0.2973845E+04  0.7818609E-02  0.8251239E-01
        1   -1    0    0  501    0  0.00000000000E+00  0.00000000000E+00  0.17169013583E+04  0.17169013583E+04  0.50400001928E-02 0. -1.
       -1   -1    0    0    0  501  0.00000000000E+00  0.00000000000E+00 -0.12877495514E+04  0.12877495514E+04  0.50400001928E-02 0.  1.
    10030    2    1    2    0    0  0.00000000000E+00  0.00000000000E+00  0.42915180691E+03  0.30046509098E+04  0.29738452912E+04 0.  0.
        3    1    3    3  502    0  0.63184989526E+03  0.12342549906E+04  0.75709182274E+03  0.15798125554E+04  0.10100000352E+00 0. -1.
       -3    1    3    3    0  502 -0.63184989526E+03 -0.12342549906E+04 -0.32794001583E+03  0.14248383544E+04  0.10100000352E+00 0.  1.
</event>
<event>
 5   0  0.4187518E-06  0.2902371E+04  0.7818609E-02  0.8272172E-01
        2   -1    0    0  501    0  0.00000000000E+00  0.00000000000E+00  0.11985206700E+04  0.11985206700E+04  0.25500000920E-02 0. -1.
       -2   -1    0    0    0  501  0.00000000000E+00  0.00000000000E+00 -0.17571154648E+04  0.17571154648E+04  0.25500000920E-02 0.  1.
    10030    2    1    2    0    0  0.00000000000E+00  0.00000000000E+00 -0.55859479481E+03  0.29556361348E+04  0.29023708958E+04 0.  0.
        3    1    3    3  502    0 -0.32672594521E+03  0.38089709207E+03 -0.16659428293E+04  0.17398844671E+04  0.10100000352E+00 0.  1.
       -3    1    3    3    0  502  0.32672594521E+03 -0.38089709207E+03  0.11073480345E+04  0.12157516678E+04  0.10100000352E+00 0. -1.
</event>
<event>
 5   0  0.4115143E-06  0.2907576E+04  0.7818609E-02  0.8270627E-01
        2   -1    0    0  501    0  0.00000000000E+00  0.00000000000E+00  0.20661052971E+04  0.20661052971E+04  0.25500000920E-02 0.  1.
       -2   -1    0    0    0  501  0.00000000000E+00  0.00000000000E+00 -0.10229386374E+04  0.10229386374E+04  0.25500000920E-02 0. -1.
    10030    2    1    2    0    0  0.00000000000E+00  0.00000000000E+00  0.10431666597E+04  0.30890439345E+04  0.29075755793E+04 0.  0.
        1    1    3    3  502    0  0.76606315078E+03 -0.25056787080E+03  0.18069976404E+04  0.19786049331E+04  0.50400001928E-02 0.  1.
       -1    1    3    3    0  502 -0.76606315078E+03  0.25056787080E+03 -0.76383098066E+03  0.11104390014E+04  0.50400001928E-02 0. -1.
</event>
<event>
 5   0  0.1550278E-06  0.2899136E+04  0.7818609E-02  0.8273135E-01
        1   -1    0    0  501    0  0.00000000000E+00  0.00000000000E+00  0.17749060230E+04  0.17749060230E+04  0.50400001928E-02 0.  1.
       -1   -1    0    0    0  501  0.00000000000E+00  0.00000000000E+00 -0.11838641457E+04  0.11838641457E+04  0.50400001928E-02 0. -1.
    10030    2    1    2    0    0  0.00000000000E+00  0.00000000000E+00  0.59104187731E+03  0.29587701687E+04  0.28991361490E+04 0.  0.
        2    1    3    3  502    0 -0.30792985008E+03 -0.93584785276E+03 -0.78965488133E+03  0.12626111150E+04  0.25500000920E-02 0. -1.
       -2    1    3    3    0  502  0.30792985008E+03  0.93584785276E+03  0.13806967586E+04  0.16961590537E+04  0.25500000920E-02 0.  1.
</event>
<event>
 5   0  0.1602873E-06  0.2891850E+04  0.7818609E-02  0.8275307E-01
        1   -1    0    0  501    0  0.00000000000E+00  0.00000000000E+00  0.17668251618E+04  0.17668251618E+04  0.50400001928E-02 0.  1.
       -1   -1    0    0    0  501  0.00000000000E+00  0.00000000000E+00 -0.11833082871E+04  0.11833082871E+04  0.50400001928E-02 0. -1.
    10030    2    1    2    0    0  0.00000000000E+00  0.00000000000E+00  0.58351687472E+03  0.29501334488E+04  0.28918498272E+04 0.  0.
        1    1    3    3  502    0  0.72592059993E+03  0.82588545439E+02  0.15646713537E+04  0.17268404762E+04  0.50400001928E-02 0.  1.
       -1    1    3    3    0  502 -0.72592059993E+03 -0.82588545439E+02 -0.98115447897E+03  0.12232929726E+04  0.50400001928E-02 0. -1.
</event>
<event>
 5   0  0.1550278E-06  0.2945934E+04  0.7818609E-02  0.8259340E-01
       -1   -1    0    0    0  501  0.00000000000E+00  0.00000000000E+00  0.14647020346E+04  0.14647020346E+04  0.50400001928E-02 0.  1.
        1   -1    0    0  501    0  0.00000000000E+00  0.00000000000E+00 -0.14812790175E+04  0.14812790175E+04  0.50400001928E-02 0. -1.
    10030    2    1    2    0    0  0.00000000000E+00  0.00000000000E+00 -0.16576982891E+02  0.29459810521E+04  0.29459344126E+04 0.  0.
        2    1    3    3  502    0  0.65726308719E+03  0.13144419062E+04  0.91111775238E+02  0.14724312025E+04  0.25500000920E-02 0.  1.
       -2    1    3    3    0  502 -0.65726308719E+03 -0.13144419062E+04 -0.10768875813E+03  0.14735498496E+04  0.25500000920E-02 0. -1.
</event>
<event>
 5   0  0.4187518E-06  0.2904047E+04  0.7818609E-02  0.8271674E-01
       -2   -1    0    0    0  501  0.00000000000E+00  0.00000000000E+00  0.12198982461E+04  0.12198982461E+04  0.25500000920E-02 0.  1.
        2   -1    0    0  501    0  0.00000000000E+00  0.00000000000E+00 -0.17283183692E+04  0.17283183692E+04  0.25500000920E-02 0. -1.
    10030    2    1    2    0    0  0.00000000000E+00  0.00000000000E+00 -0.50842012306E+03  0.29482166153E+04  0.29040472085E+04 0.  0.
        3    1    3    3  502    0 -0.80652500395E+03 -0.12074310795E+04 -0.25382565327E+03  0.14740420164E+04  0.10100000352E+00 0.  1.
       -3    1    3    3    0  502  0.80652500395E+03  0.12074310795E+04 -0.25459446979E+03  0.14741745989E+04  0.10100000352E+00 0. -1.
</event>
<event>
 5   0  0.1550278E-06  0.2902586E+04  0.7818609E-02  0.8272109E-01
        1   -1    0    0  501    0  0.00000000000E+00  0.00000000000E+00  0.19160397585E+04  0.19160397585E+04  0.50400001928E-02 0. -1.
       -1   -1    0    0    0  501  0.00000000000E+00  0.00000000000E+00 -0.10992732376E+04  0.10992732376E+04  0.50400001928E-02 0.  1.
    10030    2    1    2    0    0  0.00000000000E+00  0.00000000000E+00  0.81676652094E+03  0.30153129961E+04  0.29025859014E+04 0.  0.
        2    1    3    3  502    0 -0.10736939296E+04 -0.97253248017E+03  0.31774125834E+03  0.14831040377E+04  0.25500000920E-02 0. -1.
       -2    1    3    3    0  502  0.10736939296E+04  0.97253248017E+03  0.49902526260E+03  0.15322089584E+04  0.25500000920E-02 0.  1.
</event>
<event>
 5   0  0.4224163E-06  0.2894241E+04  0.7818609E-02  0.8274593E-01
       -2   -1    0    0    0  501  0.00000000000E+00  0.00000000000E+00  0.14473173138E+04  0.14473173138E+04  0.25500000920E-02 0.  1.
        2   -1    0    0  501    0  0.00000000000E+00  0.00000000000E+00 -0.14469239817E+04  0.14469239817E+04  0.25500000920E-02 0. -1.
    10030    2    1    2    0    0  0.00000000000E+00  0.00000000000E+00  0.39333201645E+00  0.28942412955E+04  0.28942412688E+04 0.  0.
        4    1    3    3  502    0 -0.59140941201E+03 -0.19527524586E+02 -0.13204130920E+04  0.14469411748E+04  0.12699999809E+01 0. -1.
       -4    1    3    3    0  502  0.59140941201E+03  0.19527524586E+02  0.13208064240E+04  0.14473001207E+04  0.12699999809E+01 0.  1.
</event>
<event>
 5   0  0.1543678E-06  0.2935911E+04  0.7818609E-02  0.8262272E-01
        1   -1    0    0  501    0  0.00000000000E+00  0.00000000000E+00  0.17408253791E+04  0.17408253791E+04  0.50400001928E-02 0. -1.
       -1   -1    0    0    0  501  0.00000000000E+00  0.00000000000E+00 -0.12378569825E+04  0.12378569825E+04  0.50400001928E-02 0.  1.
    10030    2    1    2    0    0  0.00000000000E+00  0.00000000000E+00  0.50296839658E+03  0.29786823617E+04  0.29359106600E+04 0.  0.
        3    1    3    3  502    0 -0.92677554116E+03  0.28747629647E+03  0.13690475079E+04  0.16780484539E+04  0.10100000352E+00 0. -1.
       -3    1    3    3    0  502  0.92677554116E+03 -0.28747629647E+03 -0.86607911130E+03  0.13006339077E+04  0.10100000352E+00 0.  1.
</event>
<event>
 5   0  0.1602873E-06  0.2888545E+04  0.7818609E-02  0.8276294E-01
       -1   -1    0    0    0  501  0.00000000000E+00  0.00000000000E+00  0.15962719871E+04  0.15962719871E+04  0.50400001928E-02 0. -1.
        1   -1    0    0  501    0  0.00000000000E+00  0.00000000000E+00 -0.13067470857E+04  0.13067470857E+04  0.50400001928E-02 0.  1.
    10030    2    1    2    0    0  0.00000000000E+00  0.00000000000E+00  0.28952490145E+03  0.29030190728E+04  0.28885454936E+04 0.  0.
        1    1    3    3  502    0 -0.22180184229E+03 -0.14267522313E+04  0.11134255452E+03  0.14481764918E+04  0.50400001928E-02 0. -1.
       -1    1    3    3    0  502  0.22180184229E+03  0.14267522313E+04  0.17818234693E+03  0.14548425810E+04  0.50400001928E-02 0.  1.
</event>
<event>
 5   0  0.4224163E-06  0.2814475E+04  0.7818609E-02  0.8298789E-01
       -2   -1    0    0    0  501  0.00000000000E+00  0.00000000000E+00  0.77002963541E+03  0.77002963542E+03  0.25500000920E-02 0. -1.
        2   -1    0    0  501    0  0.00000000000E+00  0.00000000000E+00 -0.25717413374E+04  0.25717413374E+04  0.25500000920E-02 0.  1.
    10030    2    1    2    0    0  0.00000000000E+00  0.00000000000E+00 -0.18017117019E+04  0.33417709728E+04  0.28144747605E+04 0.  0.
        4    1    3    3  502    0  0.95358343694E+02 -0.98416227863E+03  0.28806601899E+03  0.10298797253E+04  0.12699999809E+01 0. -1.
       -4    1    3    3    0  502 -0.95358343694E+02  0.98416227863E+03 -0.20897777209E+04  0.23118912475E+04  0.12699999809E+01 0.  1.
</event>
<event>
 5   0  0.4148677E-06  0.2862217E+04  0.7818609E-02  0.8284209E-01
        2   -1    0    0  501    0  0.00000000000E+00  0.00000000000E+00  0.16872467746E+04  0.16872467746E+04  0.25500000920E-02 0. -1.
       -2   -1    0    0    0  501  0.00000000000E+00  0.00000000000E+00 -0.12138542609E+04  0.12138542609E+04  0.25500000920E-02 0.  1.
    10030    2    1    2    0    0  0.00000000000E+00  0.00000000000E+00  0.47339251365E+03  0.29011010355E+04  0.28622171033E+04 0.  0.
        5    1    3    3  502    0  0.84579579186E+03 -0.89018670560E+02 -0.92992000110E+03  0.12601857576E+04  0.46999998093E+01 0.  1.
       -5    1    3    3    0  502 -0.84579579186E+03  0.89018670560E+02  0.14033125147E+04  0.16409152779E+04  0.46999998093E+01 0. -1.
</event>
<event>
 5   0  0.1550278E-06  0.2901730E+04  0.7818609E-02  0.8272363E-01
        1   -1    0    0  501    0  0.00000000000E+00  0.00000000000E+00  0.15362564975E+04  0.15362564975E+04  0.50400001928E-02 0. -1.
       -1   -1    0    0    0  501  0.00000000000E+00  0.00000000000E+00 -0.13702200301E+04  0.13702200301E+04  0.50400001928E-02 0.  1.
    10030    2    1    2    0    0  0.00000000000E+00  0.00000000000E+00  0.16603646740E+03  0.29064765276E+04  0.29017301213E+04 0.  0.
        2    1    3    3  502    0 -0.10403138580E+04  0.79566519141E+03  0.70827756939E+03  0.14889570630E+04  0.25500000920E-02 0. -1.
       -2    1    3    3    0  502  0.10403138580E+04 -0.79566519141E+03 -0.54224110200E+03  0.14175194647E+04  0.25500000920E-02 0.  1.
</event>
<event>
 5   0  0.1580212E-06  0.2896614E+04  0.7818609E-02  0.8273886E-01
       -1   -1    0    0    0  501  0.00000000000E+00  0.00000000000E+00  0.15068999896E+04  0.15068999896E+04  0.50400001928E-02 0. -1.
        1   -1    0    0  501    0  0.00000000000E+00  0.00000000000E+00 -0.13919918849E+04  0.13919918849E+04  0.50400001928E-02 0.  1.
    10030    2    1    2    0    0  0.00000000000E+00  0.00000000000E+00  0.11490810469E+03  0.28988918746E+04  0.28966135793E+04 0.  0.
        4    1    3    3  502    0 -0.12690857927E+04 -0.51832606139E+03 -0.41019314942E+03  0.14309090425E+04  0.12699999809E+01 0.  1.
       -4    1    3    3    0  502  0.12690857927E+04  0.51832606139E+03  0.52510125411E+03  0.14679828320E+04  0.12699999809E+01 0. -1.
</event>
<event>
 5   0  0.1602873E-06  0.2915189E+04  0.7818609E-02  0.8268373E-01
       -1   -1    0    0    0  501  0.00000000000E+00  0.00000000000E+00  0.20096228725E+04  0.20096228725E+04  0.50400001928E-02 0.  1.
        1   -1    0    0  501    0  0.00000000000E+00  0.00000000000E+00 -0.10572042217E+04  0.10572042217E+04  0.50400001928E-02 0. -1.
    10030    2    1    2    0    0  0.00000000000E+00  0.00000000000E+00  0.95241865087E+03  0.30668270942E+04  0.29151890401E+04 0.  0.
        1    1    3    3  502    0  0.90372078700E+03 -0.40822269003E+03  0.16000588379E+04  0.18824306921E+04  0.50400001928E-02 0.  1.
       -1    1    3    3    0  502 -0.90372078700E+03  0.40822269003E+03 -0.64764018706E+03  0.11843964022E+04  0.50400001928E-02 0. -1.
</event>
<event>
 5   0  0.1511126E-06  0.2901214E+04  0.7818609E-02  0.8272516E-01
       -1   -1    0    0    0  501  0.00000000000E+00  0.00000000000E+00  0.12053695360E+04  0.12053695360E+04  0.50400001928E-02 0.  1.
        1   -1    0    0  501    0  0.00000000000E+00  0.00000000000E+00 -0.17457385560E+04  0.17457385560E+04  0.50400001928E-02 0. -1.
    10030    2    1    2    0    0  0.00000000000E+00  0.00000000000E+00 -0.54036902002E+03  0.29511080920E+04  0.29012135897E+04 0.  0.
        5    1    3    3  502    0  0.17100634340E+03 -0.14223606706E+04 -0.38484496946E+02  0.14331281148E+04  0.46999998093E+01 0.  1.
       -5    1    3    3    0  502 -0.17100634340E+03  0.14223606706E+04 -0.50188452308E+03  0.15179799772E+04  0.46999998093E+01 0. -1.
</event>
<event>
 5   0  0.1543678E-06  0.2902742E+04  0.7818609E-02  0.8272062E-01
       -1   -1    0    0    0  501  0.00000000000E+00  0.00000000000E+00  0.15842153693E+04  0.15842153693E+04  0.50400001928E-02 0. -1.
        1   -1    0    0  501    0  0.00000000000E+00  0.00000000000E+00 -0.13296664205E+04  0.13296664205E+04  0.50400001928E-02 0.  1.
    10030    2    1    2    0    0  0.00000000000E+00  0.00000000000E+00  0.25454894883E+03  0.29138817899E+04  0.29027421377E+04 0.  0.
        3    1    3    3  502    0  0.82616670226E+03  0.10400643095E+04 -0.45994289592E+03  0.14056431502E+04  0.10100000352E+00 0.  1.
       -3    1    3    3    0  502 -0.82616670226E+03 -0.10400643095E+04  0.71449184475E+03  0.15082386397E+04  0.10100000352E+00 0. -1.
</event>
<event>
 5   0  0.4115143E-06  0.2923048E+04  0.7818609E-02  0.8266053E-01
        2   -1    0    0  501    0  0.00000000000E+00  0.00000000000E+00  0.17603238695E+04  0.17603238695E+04  0.25500000920E-02 0.  1.
       -2   -1    0    0    0  501  0.00000000000E+00  0.00000000000E+00 -0.12134424945E+04  0.12134424945E+04  0.25500000920E-02 0. -1.
    10030    2    1    2    0    0  0.00000000000E+00  0.00000000000E+00  0.54688137502E+03  0.29737663641E+04  0.29230475791E+04 0.  0.
        1    1    3    3  502    0 -0.32335632436E+03 -0.40017973133E+03  0.16651493016E+04  0.17428210828E+04  0.50400001928E-02 0.  1.
       -1    1    3    3    0  502  0.32335632436E+03  0.40017973133E+03 -0.11182679266E+04  0.12309452813E+04  0.50400001928E-02 0. -1.
</event>
<event>
 5   0  0.1511126E-06  0.2944210E+04  0.7818609E-02  0.8259844E-01
       -1   -1    0    0    0  501  0.00000000000E+00  0.00000000000E+00  0.15575353429E+04  0.15575353429E+04  0.50400001928E-02 0. -1.
        1   -1    0    0  501    0  0.00000000000E+00  0.00000000000E+00 -0.13913603965E+04  0.13913603966E+04  0.50400001928E-02 0.  1.
    10030    2    1    2    0    0  0.00000000000E+00  0.00000000000E+00  0.16617494631E+03  0.29488957394E+04  0.29442099058E+04 0.  0.
        5    1    3    3  502    0  0.50679744651E+03  0.13821097085E+04  0.83152987756E+02  0.14744515616E+04  0.46999998093E+01 0.  1.
       -5    1    3    3    0  502 -0.50679744651E+03 -0.13821097085E+04  0.83021958550E+02  0.14744441779E+04  0.46999998093E+01 0. -1.
</event>
<event>
 5   0  0.1602873E-06  0.2911749E+04  0.7818609E-02  0.8269390E-01
        1   -1    0    0  501    0  0.00000000000E+00  0.00000000000E+00  0.17901836771E+04  0.17901836771E+04  0.50400001928E-02 0.  1.
       -1   -1    0    0    0  501  0.00000000000E+00  0.00000000000E+00 -0.11839961703E+04  0.11839961703E+04  0.50400001928E-02 0. -1.
    10030    2    1    2    0    0  0.00000000000E+00  0.00000000000E+00  0.60618750679E+03  0.29741798474E+04  0.29117490399E+04 0.  0.
        1    1    3    3  502    0 -0.13070727763E+04  0.48762389355E+03 -0.12219178216E+03  0.14004096314E+04  0.50400001928E-02 0. -1.
       -1    1    3    3    0  502  0.13070727763E+04 -0.48762389355E+03  0.72837928895E+03  0.15737702160E+04  0.50400001928E-02 0.  1.
</event>
<event>
 5   0  0.1543678E-06  0.2919288E+04  0.7818609E-02  0.8267162E-01
       -1   -1    0    0    0  501  0.00000000000E+00  0.00000000000E+00  0.21906199954E+04  0.21906199954E+04  0.50400001928E-02 0. -1.
        1   -1    0    0  501    0  0.00000000000E+00  0.00000000000E+00 -0.97258368864E+03  0.97258368865E+03  0.50400001928E-02 0.  1.
    10030    2    1    2    0    0  0.00000000000E+00  0.00000000000E+00  0.12180363067E+04  0.31632036840E+04  0.29192884582E+04 0.  0.
        3    1    3    3  502    0 -0.70167163643E+03 -0.46257721293E+03  0.19021470405E+04  0.20795394051E+04  0.10100000352E+00 0. -1.
       -3    1    3    3    0  502  0.70167163643E+03  0.46257721293E+03 -0.68411073377E+03  0.10836642790E+04  0.10100000352E+00 0.  1.
</event>
<event>
 5   0  0.1580212E-06  0.2875888E+04  0.7818609E-02  0.8280088E-01
       -1   -1    0    0    0  501  0.00000000000E+00  0.00000000000E+00  0.19358543964E+04  0.19358543964E+04  0.50400001928E-02 0.  1.
        1   -1    0    0  501    0  0.00000000000E+00  0.00000000000E+00 -0.10680983010E+04  0.10680983010E+04  0.50400001928E-02 0. -1.
    10030    2    1    2    0    0  0.00000000000E+00  0.00000000000E+00  0.86775609546E+03  0.30039526974E+04  0.28758878920E+04 0.  0.
        4    1    3    3  502    0  0.13706212085E+04  0.11529249723E+03  0.87181710267E+03  0.16284844274E+04  0.12699999809E+01 0.  1.
       -4    1    3    3    0  502 -0.13706212085E+04 -0.11529249723E+03 -0.40610072076E+01  0.13754682700E+04  0.12699999809E+01 0. -1.
</event>
<event>
 5   0  0.1543678E-06  0.2900433E+04  0.7818609E-02  0.8272749E-01
       -1   -1    0    0    0  501  0.00000000000E+00  0.00000000000E+00  0.11747876383E+04  0.11747876384E+04  0.50400001928E-02 0.  1.
        1   -1    0    0  501    0  0.00000000000E+00  0.00000000000E+00 -0.17902191096E+04  0.17902191096E+04  0.50400001928E-02 0. -1.
    10030    2    1    2    0    0  0.00000000000E+00  0.00000000000E+00 -0.61543147121E+03  0.29650067479E+04  0.29004325745E+04 0.  0.
        3    1    3    3  502    0 -0.11084560829E+04  0.33527799618E+03  0.58466892129E+03  0.12972755991E+04  0.10100000352E+00 0.  1.
       -3    1    3    3    0  502  0.11084560829E+04 -0.33527799618E+03 -0.12001003925E+04  0.16677311488E+04  0.10100000352E+00 0. -1.
</event>
<event>
 5   0  0.4115143E-06  0.2895221E+04  0.7818609E-02  0.8274301E-01
        2   -1    0    0  501    0  0.00000000000E+00  0.00000000000E+00  0.21777351395E+04  0.21777351395E+04  0.25500000920E-02 0.  1.
       -2   -1    0    0    0  501  0.00000000000E+00  0.00000000000E+00 -0.96227316645E+03  0.96227316645E+03  0.25500000920E-02 0. -1.
    10030    2    1    2    0    0  0.00000000000E+00  0.00000000000E+00  0.12154619730E+04  0.31400083059E+04  0.28952209507E+04 0.  0.
        1    1    3    3  502    0 -0.87519572070E+03 -0.97820452187E+01  0.18582645539E+04  0.20540716614E+04  0.50400001928E-02 0.  1.
       -1    1    3    3    0  502  0.87519572070E+03  0.97820452187E+01 -0.64280258085E+03  0.10859366445E+04  0.50400001928E-02 0. -1.
</event>
<event>
 5   0  0.4187518E-06  0.2911748E+04  0.7818609E-02  0.8269391E-01
        2   -1    0    0  501    0  0.00000000000E+00  0.00000000000E+00  0.11783993966E+04  0.11783993966E+04  0.25500000920E-02 0.  1.
       -2   -1    0    0    0  501  0.00000000000E+00  0.00000000000E+00 -0.17986845814E+04  0.17986845814E+04  0.25500000920E-02 0. -1.
    10030    2    1    2    0    0  0.00000000000E+00  0.00000000000E+00 -0.62028518481E+03  0.29770839781E+04  0.29117478088E+04 0.  0.
        3    1    3    3  502    0 -0.26768618979E+03  0.46796462590E+03  0.10725795690E+04  0.12004473038E+04  0.10100000352E+00 0.  1.
       -3    1    3    3    0  502  0.26768618979E+03 -0.46796462590E+03 -0.16928647538E+04  0.17766366742E+04  0.10100000352E+00 0. -1.
</event>
<event>
 5   0  0.1543678E-06  0.2901802E+04  0.7818609E-02  0.8272341E-01
       -1   -1    0    0    0  501  0.00000000000E+00  0.00000000000E+00  0.17007455100E+04  0.17007455100E+04  0.50400001928E-02 0. -1.
        1   -1    0    0  501    0  0.00000000000E+00  0.00000000000E+00 -0.12377595335E+04  0.12377595335E+04  0.50400001928E-02 0.  1.
    10030    2    1    2    0    0  0.00000000000E+00  0.00000000000E+00  0.46298597653E+03  0.29385050435E+04  0.29018021773E+04 0.  0.
        3    1    3    3  502    0 -0.11188588766E+04 -0.76163423886E+03 -0.29778608801E+03  0.13858601891E+04  0.10100000352E+00 0.  1.
       -3    1    3    3    0  502  0.11188588766E+04  0.76163423886E+03  0.76077206454E+03  0.15526448544E+04  0.10100000352E+00 0. -1.
</event>
<event>
 5   0  0.1550278E-06  0.2864074E+04  0.7818609E-02  0.8283647E-01
        1   -1    0    0  501    0  0.00000000000E+00  0.00000000000E+00  0.18565702585E+04  0.18565702585E+04  0.50400001928E-02 0. -1.
       -1   -1    0    0    0  501  0.00000000000E+00  0.00000000000E+00 -0.11045798404E+04  0.11045798404E+04  0.50400001928E-02 0.  1.
    10030    2    1    2    0    0  0.00000000000E+00  0.00000000000E+00  0.75199041803E+03  0.29611500989E+04  0.28640740772E+04 0.  0.
        2    1    3    3  502    0  0.16412163256E+02  0.58219287152E+03 -0.97659479265E+03  0.11370819178E+04  0.25500000920E-02 0.  1.
       -2    1    3    3    0  502 -0.16412163256E+02 -0.58219287152E+03  0.17285852107E+04  0.18240681811E+04  0.25500000920E-02 0. -1.
</event>
<event>
 5   0  0.1580212E-06  0.2929403E+04  0.7818609E-02  0.8264183E-01
       -1   -1    0    0    0  501  0.00000000000E+00  0.00000000000E+00  0.18431695989E+04  0.18431695989E+04  0.50400001928E-02 0.  1.
        1   -1    0    0  501    0  0.00000000000E+00  0.00000000000E+00 -0.11639464860E+04  0.11639464860E+04  0.50400001928E-02 0. -1.
    10030    2    1    2    0    0  0.00000000000E+00  0.00000000000E+00  0.67922311298E+03  0.30071160849E+04  0.29294032005E+04 0.  0.
        4    1    3    3  502    0 -0.14128084578E+04  0.35987279495E+03  0.48410433341E+03  0.15361949048E+04  0.12699999809E+01 0. -1.
       -4    1    3    3    0  502  0.14128084578E+04 -0.35987279495E+03  0.19511877956E+03  0.14709211801E+04  0.12699999809E+01 0.  1.
</event>
<event>
 5   0  0.1550278E-06  0.2882694E+04  0.7818609E-02  0.8278045E-01
       -1   -1    0    0    0  501  0.00000000000E+00  0.00000000000E+00  0.13928095390E+04  0.13928095390E+04  0.50400001928E-02 0. -1.
        1   -1    0    0  501    0  0.00000000000E+00  0.00000000000E+00 -0.14915761020E+04  0.14915761020E+04  0.50400001928E-02 0.  1.
    10030    2    1    2    0    0  0.00000000000E+00  0.00000000000E+00 -0.98766563031E+02  0.28843856410E+04  0.28826941724E+04 0.  0.
        2    1    3    3  502    0 -0.11048772234E+04  0.15657784492E+03 -0.96217462490E+03  0.14734484413E+04  0.25500000920E-02 0.  1.
       -2    1    3    3    0  502  0.11048772234E+04 -0.15657784492E+03  0.86340806187E+03  0.14109371997E+04  0.25500000920E-02 0. -1.
</event>
<event>
 5   0  0.1602873E-06  0.2900020E+04  0.7818609E-02  0.8272872E-01
       -1   -1    0    0    0  501  0.00000000000E+00  0.00000000000E+00  0.13114825067E+04  0.13114825068E+04  0.50400001928E-02 0.  1.
        1   -1    0    0  501    0  0.00000000000E+00  0.00000000000E+00 -0.16031692388E+04  0.16031692388E+04  0.50400001928E-02 0. -1.
    10030    2    1    2    0    0  0.00000000000E+00  0.00000000000E+00 -0.29168673206E+03  0.29146517456E+04  0.29000195945E+04 0.  0.
        1    1    3    3  502    0 -0.28473359146E+03  0.13034357533E+04 -0.71660874408E+03  0.15144457974E+04  0.50400001928E-02 0. -1.
       -1    1    3    3    0  502  0.28473359146E+03 -0.13034357533E+04  0.42492201202E+03  0.14002059482E+04  0.50400001928E-02 0.  1.
</event>
<event>
 5   0  0.1511126E-06  0.2898123E+04  0.7818609E-02  0.8273436E-01
        1   -1    0    0  501    0  0.00000000000E+00  0.00000000000E+00  0.71397512498E+03  0.71397512500E+03  0.50400001928E-02 0. -1.
       -1   -1    0    0    0  501  0.00000000000E+00  0.00000000000E+00 -0.29409695150E+04  0.29409695150E+04  0.50400001928E-02 0.  1.
    10030    2    1    2    0    0  0.00000000000E+00  0.00000000000E+00 -0.22269943900E+04  0.36549446400E+04  0.28981228939E+04 0.  0.
        5    1    3    3  502    0  0.47665922048E+03 -0.14022568603E+03 -0.28301750029E+04  0.28734613087E+04  0.46999998093E+01 0.  1.
       -5    1    3    3    0  502 -0.47665922048E+03  0.14022568603E+03  0.60318061284E+03  0.78148333136E+03  0.46999998093E+01 0. -1.
</event>
<event>
 5   0  0.4148677E-06  0.2880739E+04  0.7818609E-02  0.8278631E-01
       -2   -1    0    0    0  501  0.00000000000E+00  0.00000000000E+00  0.12770427898E+04  0.12770427898E+04  0.25500000920E-02 0.  1.
        2   -1    0    0  501    0  0.00000000000E+00  0.00000000000E+00 -0.16245842530E+04  0.16245842530E+04  0.25500000920E-02 0. -1.
    10030    2    1    2    0    0  0.00000000000E+00  0.00000000000E+00 -0.34754146317E+03  0.29016270428E+04  0.28807385211E+04 0.  0.
        5    1    3    3  502    0  0.60934181894E+03 -0.11580781644E+04 -0.77996439368E+03  0.15234201760E+04  0.46999998093E+01 0. -1.
       -5    1    3    3    0  502 -0.60934181894E+03  0.11580781644E+04  0.43242293051E+03  0.13782068669E+04  0.46999998093E+01 0.  1.
</event>
<event>
 5   0  0.4224163E-06  0.2896692E+04  0.7818609E-02  0.8273862E-01
       -2   -1    0    0    0  501  0.00000000000E+00  0.00000000000E+00  0.10075732344E+04  0.10075732344E+04  0.25500000920E-02 0.  1.
        2   -1    0    0  501    0  0.00000000000E+00  0.00000000000E+00 -0.20819388821E+04  0.20819388821E+04  0.25500000920E-02 0. -1.
    10030    2    1    2    0    0  0.00000000000E+00  0.00000000000E+00 -0.10743656477E+04  0.30895121165E+04  0.28966918326E+04 0.  0.
        4    1    3    3  502    0  0.32940976782E+03 -0.79014162774E+03 -0.17832263214E+04  0.19780627678E+04  0.12699999809E+01 0. -1.
       -4    1    3    3    0  502 -0.32940976782E+03  0.79014162774E+03  0.70886067376E+03  0.11114493487E+04  0.12699999809E+01 0.  1.
</event>
<event>
 5   0  0.1511126E-06  0.2907002E+04  0.7818609E-02  0.8270797E-01
        1   -1    0    0  501    0  0.00000000000E+00  0.00000000000E+00  0.12768449569E+04  0.12768449569E+04  0.50400001928E-02 0. -1.
       -1   -1    0    0    0  501  0.00000000000E+00  0.00000000000E+00 -0.16545980483E+04  0.16545980483E+04  0.50400001928E-02 0.  1.
    10030    2    1    2    0    0  0.00000000000E+00  0.00000000000E+00 -0.37775309136E+03  0.29314430052E+04  0.29070020114E+04 0.  0.
        5    1    3    3  502    0 -0.13247904482E+04 -0.12403624453E+03  0.40101033858E+03  0.13897072005E+04  0.46999998093E+01 0. -1.
       -5    1    3    3    0  502  0.13247904482E+04  0.12403624453E+03 -0.77876342993E+03  0.15417358047E+04  0.46999998093E+01 0.  1.
</event>
<event>
 5   0  0.4187518E-06  0.2929511E+04  0.7818609E-02  0.8264151E-01
       -2   -1    0    0    0  501  0.00000000000E+00  0.00000000000E+00  0.91455342742E+03  0.91455342742E+03  0.25500000920E-02 0. -1.
        2   -1    0    0  501    0  0.00000000000E+00  0.00000000000E+00 -0.23459627965E+04  0.23459627965E+04  0.25500000920E-02 0.  1.
    10030    2    1    2    0    0  0.00000000000E+00  0.00000000000E+00 -0.14314093690E+04  0.32605162239E+04  0.29295107551E+04 0.  0.
        3    1    3    3  502    0 -0.91606188324E+02  0.87103543269E+03  0.59101095405E+03  0.10565928150E+04  0.10100000352E+00 0. -1.
       -3    1    3    3    0  502  0.91606188324E+02 -0.87103543269E+03 -0.20224203231E+04  0.22039234089E+04  0.10100000352E+00 0.  1.
</event>
<event>
 5   0  0.4224163E-06  0.2933488E+04  0.7818609E-02  0.8262983E-01
        2   -1    0    0  501    0  0.00000000000E+00  0.00000000000E+00  0.22312112580E+04  0.22312112580E+04  0.25500000920E-02 0.  1.
       -2   -1    0    0    0  501  0.00000000000E+00  0.00000000000E+00 -0.96420189213E+03  0.96420189214E+03  0.25500000920E-02 0. -1.
    10030    2    1    2    0    0  0.00000000000E+00  0.00000000000E+00  0.12670093659E+04  0.31954131502E+04  0.29334881058E+04 0.  0.
        4    1    3    3  502    0  0.89946635405E+03  0.54839730829E+03  0.17451960772E+04  0.20385019722E+04  0.12699999809E+01 0.  1.
       -4    1    3    3    0  502 -0.89946635405E+03 -0.54839730829E+03 -0.47818671136E+03  0.11569111779E+04  0.12699999809E+01 0. -1.
</event>
<event>
 5   0  0.4224163E-06  0.2907189E+04  0.7818609E-02  0.8270742E-01
        2   -1    0    0  501    0  0.00000000000E+00  0.00000000000E+00  0.32411565526E+04  0.32411565526E+04  0.25500000920E-02 0.  1.
       -2   -1    0    0    0  501  0.00000000000E+00  0.00000000000E+00 -0.65190818179E+03  0.65190818180E+03  0.25500000920E-02 0. -1.
    10030    2    1    2    0    0  0.00000000000E+00  0.00000000000E+00  0.25892483708E+04  0.38930647344E+04  0.29071886593E+04 0.  0.
        4    1    3    3  502    0 -0.95175249425E+03  0.99699232854E+03  0.67643893120E+03  0.15353819570E+04  0.12699999809E+01 0. -1.
       -4    1    3    3    0  502  0.95175249425E+03 -0.99699232854E+03  0.19128094396E+04  0.23576827774E+04  0.12699999809E+01 0.  1.
</event>
<event>
 5   0  0.1602873E-06  0.2892062E+04  0.7818609E-02  0.8275243E-01
       -1   -1    0    0    0  501  0.00000000000E+00  0.00000000000E+00  0.13568879347E+04  0.13568879347E+04  0.50400001928E-02 0.  1.
        1   -1    0    0  501    0  0.00000000000E+00  0.00000000000E+00 -0.15410307718E+04  0.15410307718E+04  0.50400001928E-02 0. -1.
    10030    2    1    2    0    0  0.00000000000E+00  0.00000000000E+00 -0.18414283707E+03  0.28979187066E+04  0.28920622824E+04 0.  0.
        1    1    3    3  502    0  0.65410024744E+03 -0.12879197030E+04 -0.25440401311E+02  0.14447254096E+04  0.50400001928E-02 0.  1.
       -1    1    3    3    0  502 -0.65410024744E+03  0.12879197030E+04 -0.15870243576E+03  0.14531932969E+04  0.50400001928E-02 0. -1.
</event>
<event>
 5   0  0.1511126E-06  0.2643636E+04  0.7818609E-02  0.8353528E-01
        1   -1    0    0  501    0  0.00000000000E+00  0.00000000000E+00  0.22318618252E+04  0.22318618252E+04  0.50400001928E-02 0. -1.
       -1   -1    0    0    0  501  0.00000000000E+00  0.00000000000E+00 -0.78284571497E+03  0.78284571499E+03  0.50400001928E-02 0.  1.
    10030    2    1    2    0    0  0.00000000000E+00  0.00000000000E+00  0.14490161102E+04  0.30147075402E+04  0.26436364851E+04 0.  0.
        5    1    3    3  502    0  0.62676823149E+03  0.11145335766E+03 -0.59650449183E+03  0.87241043420E+03  0.46999998093E+01 0.  1.
       -5    1    3    3    0  502 -0.62676823149E+03 -0.11145335766E+03  0.20455206020E+04  0.21422971060E+04  0.46999998093E+01 0. -1.
</event>
<event>
 5   0  0.1543678E-06  0.2908841E+04  0.7818609E-02  0.8270252E-01
        1   -1    0    0  501    0  0.00000000000E+00  0.00000000000E+00  0.21249385507E+04  0.21249385507E+04  0.50400001928E-02 0. -1.
       -1   -1    0    0    0  501  0.00000000000E+00  0.00000000000E+00 -0.99548255912E+03  0.99548255913E+03  0.50400001928E-02 0.  1.
    10030    2    1    2    0    0  0.00000000000E+00  0.00000000000E+00  0.11294559916E+04  0.31204211099E+04  0.29088411895E+04 0.  0.
        3    1    3    3  502    0  0.11763069698E+03 -0.81928418458E+03 -0.71820234500E+03  0.10958458717E+04  0.10100000352E+00 0.  1.
       -3    1    3    3    0  502 -0.11763069698E+03  0.81928418458E+03  0.18476583366E+04  0.20245752382E+04  0.10100000352E+00 0. -1.
</event>
<event>
 5   0  0.4115143E-06  0.2893912E+04  0.7818609E-02  0.8274691E-01
        2   -1    0    0  501    0  0.00000000000E+00  0.00000000000E+00  0.19019675066E+04  0.19019675066E+04  0.25500000920E-02 0.  1.
       -2   -1    0    0    0  501  0.00000000000E+00  0.00000000000E+00 -0.11007981670E+04  0.11007981670E+04  0.25500000920E-02 0. -1.
    10030    2    1    2    0    0  0.00000000000E+00  0.00000000000E+00  0.80116933957E+03  0.30027656736E+04  0.28939124693E+04 0.  0.
        1    1    3    3  502    0 -0.35383826756E+03 -0.26974116717E+03 -0.10280566536E+04  0.11202063648E+04  0.50400001928E-02 0. -1.
       -1    1    3    3    0  502  0.35383826756E+03  0.26974116717E+03  0.18292259931E+04  0.18825593087E+04  0.50400001928E-02 0.  1.
</event>
<event>
 5   0  0.1580212E-06  0.2918077E+04  0.7818609E-02  0.8267519E-01
       -1   -1    0    0    0  501  0.00000000000E+00  0.00000000000E+00  0.90956733641E+03  0.90956733642E+03  0.50400001928E-02 0. -1.
        1   -1    0    0  501    0  0.00000000000E+00  0.00000000000E+00 -0.23404464731E+04  0.23404464731E+04  0.50400001928E-02 0.  1.
    10030    2    1    2    0    0  0.00000000000E+00  0.00000000000E+00 -0.14308791367E+04  0.32500138095E+04  0.29180772194E+04 0.  0.
        4    1    3    3  502    0  0.13839997518E+04  0.45997058027E+03 -0.76221454541E+03  0.16456004600E+04  0.12699999809E+01 0.  1.
       -4    1    3    3    0  502 -0.13839997518E+04 -0.45997058027E+03 -0.66866459128E+03  0.16044133496E+04  0.12699999809E+01 0. -1.
</event>
<event>
 5   0  0.4187518E-06  0.2826681E+04  0.7818609E-02  0.8295032E-01
        2   -1    0    0  501    0  0.00000000000E+00  0.00000000000E+00  0.19635872693E+04  0.19635872693E+04  0.25500000920E-02 0. -1.
       -2   -1    0    0    0  501  0.00000000000E+00  0.00000000000E+00 -0.10172870295E+04  0.10172870295E+04  0.25500000920E-02 0.  1.
    10030    2    1    2    0    0  0.00000000000E+00  0.00000000000E+00  0.94630023977E+03  0.29808742988E+04  0.28266813477E+04 0.  0.
        3    1    3    3  502    0 -0.46454670547E+03 -0.47923384606E+03 -0.84062641394E+03  0.10733692276E+04  0.10100000352E+00 0.  1.
       -3    1    3    3    0  502  0.46454670547E+03  0.47923384606E+03  0.17869266537E+04  0.19075050712E+04  0.10100000352E+00 0. -1.
</event>
<event>
 5   0  0.1511126E-06  0.2909983E+04  0.7818609E-02  0.8269913E-01
        1   -1    0    0  501    0  0.00000000000E+00  0.00000000000E+00  0.21428572185E+04  0.21428572186E+04  0.50400001928E-02 0.  1.
       -1   -1    0    0    0  501  0.00000000000E+00  0.00000000000E+00 -0.98793362918E+03  0.98793362920E+03  0.50400001928E-02 0. -1.
    10030    2    1    2    0    0  0.00000000000E+00  0.00000000000E+00  0.11549235894E+04  0.31307908477E+04  0.29099833050E+04 0.  0.
        5    1    3    3  502    0 -0.98152280120E+03 -0.10470357453E+04  0.83501696104E+03  0.16604054554E+04  0.46999998093E+01 0. -1.
       -5    1    3    3    0  502  0.98152280120E+03  0.10470357453E+04  0.31990662832E+03  0.14703853923E+04  0.46999998093E+01 0.  1.
</event>
<event>
 5   0  0.4187518E-06  0.2895887E+04  0.7818609E-02  0.8274102E-01
       -2   -1    0    0    0  501  0.00000000000E+00  0.00000000000E+00  0.76958504140E+03  0.76958504140E+03  0.25500000920E-02 0.  1.
        2   -1    0    0  501    0  0.00000000000E+00  0.00000000000E+00 -0.27242483200E+04  0.27242483200E+04  0.25500000920E-02 0. -1.
    10030    2    1    2    0    0  0.00000000000E+00  0.00000000000E+00 -0.19546632787E+04  0.34938333614E+04  0.28958872604E+04 0.  0.
        3    1    3    3  502    0 -0.34605274658E+03  0.98499420490E+03 -0.21877723821E+04  0.24241109903E+04  0.10100000352E+00 0. -1.
       -3    1    3    3    0  502  0.34605274658E+03 -0.98499420490E+03  0.23310910343E+03  0.10697223712E+04  0.10100000352E+00 0.  1.
</event>
<event>
 5   0  0.4115143E-06  0.2911991E+04  0.7818609E-02  0.8269319E-01
       -2   -1    0    0    0  501  0.00000000000E+00  0.00000000000E+00  0.11273072165E+04  0.11273072165E+04  0.25500000920E-02 0.  1.
        2   -1    0    0  501    0  0.00000000000E+00  0.00000000000E+00 -0.18805193532E+04  0.18805193532E+04  0.25500000920E-02 0. -1.
    10030    2    1    2    0    0  0.00000000000E+00  0.00000000000E+00 -0.75321213668E+03  0.30078265697E+04  0.29119910973E+04 0.  0.
        1    1    3    3  502    0 -0.93577409503E+03  0.71260357492E+03  0.50980099866E+03  0.12819415237E+04  0.50400001928E-02 0.  1.
       -1    1    3    3    0  502  0.93577409503E+03 -0.71260357492E+03 -0.12630131353E+04  0.17258850460E+04  0.50400001928E-02 0. -1.
</event>
<event>
 5   0  0.1511126E-06  0.2915999E+04  0.7818609E-02  0.8268133E-01
       -1   -1    0    0    0  501  0.00000000000E+00  0.00000000000E+00  0.96777476304E+03  0.96777476305E+03  0.50400001928E-02 0.  1.
        1   -1    0    0  501    0  0.00000000000E+00  0.00000000000E+00 -0.21965474712E+04  0.21965474712E+04  0.50400001928E-02 0. -1.
    10030    2    1    2    0    0  0.00000000000E+00  0.00000000000E+00 -0.12287727082E+04  0.31643222343E+04  0.29159994571E+04 0.  0.
        5    1    3    3  502    0 -0.12927589437E+03  0.82433438274E+03  0.68304861830E+03  0.10783398984E+04  0.46999998093E+01 0.  1.
       -5    1    3    3    0  502  0.12927589437E+03 -0.82433438274E+03 -0.19118213265E+04  0.20859823359E+04  0.46999998093E+01 0. -1.
</event>
<event>
 5   0  0.1550278E-06  0.2887498E+04  0.7818609E-02  0.8276607E-01
       -1   -1    0    0    0  501  0.00000000000E+00  0.00000000000E+00  0.15934371822E+04  0.15934371822E+04  0.50400001928E-02 0. -1.
        1   -1    0    0  501    0  0.00000000000E+00  0.00000000000E+00 -0.13081223032E+04  0.13081223032E+04  0.50400001928E-02 0.  1.
    10030    2    1    2    0    0  0.00000000000E+00  0.00000000000E+00  0.28531487897E+03  0.29015594854E+04  0.28874976826E+04 0.  0.
        2    1    3    3  502    0 -0.52871268223E+03  0.89057575891E+03  0.11534129195E+04  0.15501689087E+04  0.25500000920E-02 0. -1.
       -2    1    3    3    0  502  0.52871268223E+03 -0.89057575891E+03 -0.86809804050E+03  0.13513905766E+04  0.25500000920E-02 0.  1.
</event>
<event>
 5   0  0.4162450E-06  0.2916095E+04  0.7818609E-02  0.8268105E-01
        2   -1    0    0  501    0  0.00000000000E+00  0.00000000000E+00  0.16444527441E+04  0.16444527441E+04  0.25500000920E-02 0. -1.
       -2   -1    0    0    0  501  0.00000000000E+00  0.00000000000E+00 -0.12927717321E+04  0.12927717321E+04  0.25500000920E-02 0.  1.
    10030    2    1    2    0    0  0.00000000000E+00  0.00000000000E+00  0.35168101193E+03  0.29372244762E+04  0.29160946640E+04 0.  0.
        2    1    3    3  502    0 -0.12877301054E+04 -0.61789189559E+03  0.47098728800E+03  0.15039508783E+04  0.25500000920E-02 0.  1.
       -2    1    3    3    0  502  0.12877301054E+04  0.61789189559E+03 -0.11930627607E+03  0.14332735979E+04  0.25500000920E-02 0. -1.
</event>
<event>
 5   0  0.4162450E-06  0.2843178E+04  0.7818609E-02  0.8289987E-01
       -2   -1    0    0    0  501  0.00000000000E+00  0.00000000000E+00  0.96989655856E+03  0.96989655856E+03  0.25500000920E-02 0.  1.
        2   -1    0    0  501    0  0.00000000000E+00  0.00000000000E+00 -0.20836399966E+04  0.20836399966E+04  0.25500000920E-02 0. -1.
    10030    2    1    2    0    0  0.00000000000E+00  0.00000000000E+00 -0.11137434380E+04  0.30535365551E+04  0.28431779838E+04 0.  0.
        2    1    3    3  502    0 -0.33047298990E+03 -0.97896732998E+03  0.49175219220E+03  0.11442943890E+04  0.25500000920E-02 0.  1.
       -2    1    3    3    0  502  0.33047298990E+03  0.97896732998E+03 -0.16054956302E+04  0.19092421661E+04  0.25500000920E-02 0. -1.
</event>
<event>
 5   0  0.1543678E-06  0.2565839E+04  0.7818609E-02  0.8379898E-01
        1   -1    0    0  501    0  0.00000000000E+00  0.00000000000E+00  0.22108554665E+04  0.22108554666E+04  0.50400001928E-02 0.  1.
       -1   -1    0    0    0  501  0.00000000000E+00  0.00000000000E+00 -0.74445516597E+03  0.74445516599E+03  0.50400001928E-02 0. -1.
    10030    2    1    2    0    0  0.00000000000E+00  0.00000000000E+00  0.14664003006E+04  0.29553106325E+04  0.25658392571E+04 0.  0.
        3    1    3    3  502    0 -0.70888895644E+03 -0.22870055150E+03  0.19362872392E+04  0.20746170195E+04  0.10100000352E+00 0.  1.
       -3    1    3    3    0  502  0.70888895644E+03  0.22870055150E+03 -0.46988693858E+03  0.88069361305E+03  0.10100000352E+00 0. -1.
</event>
<event>
 5   0  0.1550278E-06  0.2910957E+04  0.7818609E-02  0.8269625E-01
        1   -1    0    0  501    0  0.00000000000E+00  0.00000000000E+00  0.16883162285E+04  0.16883162285E+04  0.50400001928E-02 0.  1.
       -1   -1    0    0    0  501  0.00000000000E+00  0.00000000000E+00 -0.12547515290E+04  0.12547515290E+04  0.50400001928E-02 0. -1.
    10030    2    1    2    0    0  0.00000000000E+00  0.00000000000E+00  0.43356469944E+03  0.29430677575E+04  0.29109567974E+04 0.  0.
        2    1    3    3  502    0 -0.45148605737E+03 -0.37117113447E+02 -0.11816603956E+04  0.12655191151E+04  0.25500000920E-02 0. -1.
       -2    1    3    3    0  502  0.45148605737E+03  0.37117113447E+02  0.16152250950E+04  0.16775486424E+04  0.25500000920E-02 0.  1.
</event>
<event>
 5   0  0.4115143E-06  0.2795287E+04  0.7818609E-02  0.8304733E-01
        2   -1    0    0  501    0  0.00000000000E+00  0.00000000000E+00  0.15038578433E+04  0.15038578433E+04  0.25500000920E-02 0.  1.
       -2   -1    0    0    0  501  0.00000000000E+00  0.00000000000E+00 -0.12989304783E+04  0.12989304783E+04  0.25500000920E-02 0. -1.
    10030    2    1    2    0    0  0.00000000000E+00  0.00000000000E+00  0.20492736495E+03  0.28027883216E+04  0.27952865955E+04 0.  0.
        1    1    3    3  502    0  0.67887800302E+02 -0.13237646087E+03  0.14958962645E+04  0.15032757282E+04  0.50400001928E-02 0.  1.
       -1    1    3    3    0  502 -0.67887800302E+02  0.13237646087E+03 -0.12909688995E+04  0.12995125934E+04  0.50400001928E-02 0. -1.
</event>
<event>
 5   0  0.1580212E-06  0.2890781E+04  0.7818609E-02  0.8275626E-01
       -1   -1    0    0    0  501  0.00000000000E+00  0.00000000000E+00  0.18568220185E+04  0.18568220185E+04  0.50400001928E-02 0. -1.
        1   -1    0    0  501    0  0.00000000000E+00  0.00000000000E+00 -0.11251231199E+04  0.11251231200E+04  0.50400001928E-02 0.  1.
    10030    2    1    2    0    0  0.00000000000E+00  0.00000000000E+00  0.73169889857E+03  0.29819451385E+04  0.28907807822E+04 0.  0.
        4    1    3    3  502    0  0.63056796005E+03 -0.12201945151E+04  0.83022543742E+03  0.16049194674E+04  0.12699999809E+01 0. -1.
       -4    1    3    3    0  502 -0.63056796005E+03  0.12201945151E+04 -0.98526538853E+02  0.13770256711E+04  0.12699999809E+01 0.  1.
</event>
<event>
 5   0  0.4115143E-06  0.2885092E+04  0.7818609E-02  0.8277327E-01
        2   -1    0    0  501    0  0.00000000000E+00  0.00000000000E+00  0.18267574989E+04  0.18267574989E+04  0.25500000920E-02 0.  1.
       -2   -1    0    0    0  501  0.00000000000E+00  0.00000000000E+00 -0.11391432256E+04  0.11391432256E+04  0.25500000920E-02 0. -1.
    10030    2    1    2    0    0  0.00000000000E+00  0.00000000000E+00  0.68761427329E+03  0.29659007246E+04  0.28850916310E+04 0.  0.
        1    1    3    3  502    0  0.22514376669E+03 -0.47761598431E+03 -0.10362283701E+04  0.11630030005E+04  0.50400001928E-02 0. -1.
       -1    1    3    3    0  502 -0.22514376669E+03  0.47761598431E+03  0.17238426434E+04  0.18028977240E+04  0.50400001928E-02 0.  1.
</event>
<event>
 5   0  0.1602873E-06  0.2888268E+04  0.7818609E-02  0.8276377E-01
        1   -1    0    0  501    0  0.00000000000E+00  0.00000000000E+00  0.22013403156E+04  0.22013403156E+04  0.50400001928E-02 0. -1.
       -1   -1    0    0    0  501  0.00000000000E+00  0.00000000000E+00 -0.94738812626E+03  0.94738812627E+03  0.50400001928E-02 0.  1.
    10030    2    1    2    0    0  0.00000000000E+00  0.00000000000E+00  0.12539521893E+04  0.31487284418E+04  0.28882684618E+04 0.  0.
        1    1    3    3  502    0 -0.29111729288E+03 -0.39418040181E+03 -0.85398094727E+03  0.98458667761E+03  0.50400001928E-02 0.  1.
       -1    1    3    3    0  502  0.29111729288E+03  0.39418040181E+03  0.21079331366E+04  0.21641417642E+04  0.50400001928E-02 0. -1.
</event>
<event>
 5   0  0.4224163E-06  0.2892232E+04  0.7818609E-02  0.8275193E-01
        2   -1    0    0  501    0  0.00000000000E+00  0.00000000000E+00  0.20824650156E+04  0.20824650156E+04  0.25500000920E-02 0. -1.
       -2   -1    0    0    0  501  0.00000000000E+00  0.00000000000E+00 -0.10042190857E+04  0.10042190857E+04  0.25500000920E-02 0.  1.
    10030    2    1    2    0    0  0.00000000000E+00  0.00000000000E+00  0.10782459299E+04  0.30866841013E+04  0.28922317431E+04 0.  0.
        4    1    3    3  502    0 -0.30556405482E+03 -0.34347233309E+02  0.20471722902E+04  0.20701364985E+04  0.12699999809E+01 0. -1.
       -4    1    3    3    0  502  0.30556405482E+03  0.34347233309E+02 -0.96892636028E+03  0.10165476027E+04  0.12699999809E+01 0.  1.
</event>
<event>
 5   0  0.4187518E-06  0.2849215E+04  0.7818609E-02  0.8288150E-01
       -2   -1    0    0    0  501  0.00000000000E+00  0.00000000000E+00  0.18316031525E+04  0.18316031525E+04  0.25500000920E-02 0.  1.
        2   -1    0    0  501    0  0.00000000000E+00  0.00000000000E+00 -0.11080490894E+04  0.11080490894E+04  0.25500000920E-02 0. -1.
    10030    2    1    2    0    0  0.00000000000E+00  0.00000000000E+00  0.72355406305E+03  0.29396522419E+04  0.28492147727E+04 0.  0.
        3    1    3    3  502    0 -0.38470335060E+03 -0.32992215951E+03 -0.10118967260E+04  0.11317156416E+04  0.10100000352E+00 0. -1.
       -3    1    3    3    0  502  0.38470335060E+03  0.32992215951E+03  0.17354507890E+04  0.18079366003E+04  0.10100000352E+00 0.  1.
</event>
<event>
 5   0  0.4162450E-06  0.2903349E+04  0.7818609E-02  0.8271882E-01
        2   -1    0    0  501    0  0.00000000000E+00  0.00000000000E+00  0.21137292815E+04  0.21137292815E+04  0.25500000920E-02 0.  1.
       -2   -1    0    0    0  501  0.00000000000E+00  0.00000000000E+00 -0.99698622017E+03  0.99698622018E+03  0.25500000920E-02 0. -1.
    10030    2    1    2    0    0  0.00000000000E+00  0.00000000000E+00  0.11167430614E+04  0.31107155017E+04  0.29033490778E+04 0.  0.
        2    1    3    3  502    0 -0.14042333962E+04  0.15677339798E+03  0.20155441258E+03  0.14272608418E+04  0.25500000920E-02 0. -1.
       -2    1    3    3    0  502  0.14042333962E+04 -0.15677339798E+03  0.91518864878E+03  0.16834546599E+04  0.25500000920E-02 0.  1.
</event>
<event>
 5   0  0.4115143E-06  0.2921464E+04  0.7818609E-02  0.8266520E-01
       -2   -1    0    0    0  501  0.00000000000E+00  0.00000000000E+00  0.13906326510E+04  0.13906326510E+04  0.25500000920E-02 0. -1.
        2   -1    0    0  501    0  0.00000000000E+00  0.00000000000E+00 -0.15343649627E+04  0.15343649627E+04  0.25500000920E-02 0.  1.
    10030    2    1    2    0    0  0.00000000000E+00  0.00000000000E+00 -0.14373231166E+03  0.29249976136E+04  0.29214640272E+04 0.  0.
        1    1    3    3  502    0 -0.13700445608E+03  0.99018847071E+02  0.13808067739E+04  0.13911154876E+04  0.50400001928E-02 0. -1.
       -1    1    3    3    0  502  0.13700445608E+03 -0.99018847071E+02 -0.15245390856E+04  0.15338821260E+04  0.50400001928E-02 0.  1.
</event>
<event>
 5   0  0.1580212E-06  0.2877384E+04  0.7818609E-02  0.8279638E-01
        1   -1    0    0  501    0  0.00000000000E+00  0.00000000000E+00  0.83822101785E+03  0.83822101787E+03  0.50400001928E-02 0. -1.
       -1   -1    0    0    0  501  0.00000000000E+00  0.00000000000E+00 -0.24693181878E+04  0.24693181878E+04  0.50400001928E-02 0.  1.
    10030    2    1    2    0    0  0.00000000000E+00  0.00000000000E+00 -0.16310971700E+04  0.33075392057E+04  0.28773838151E+04 0.  0.
        4    1    3    3  502    0 -0.14349616819E+02 -0.32137810423E+03 -0.24274439333E+04  0.24486680991E+04  0.12699999809E+01 0.  1.
       -4    1    3    3    0  502  0.14349616819E+02  0.32137810423E+03  0.79634676332E+03  0.85887110659E+03  0.12699999809E+01 0. -1.
</event>
<event>
 5   0  0.4162450E-06  0.2897486E+04  0.7818609E-02  0.8273626E-01
        2   -1    0    0  501    0  0.00000000000E+00  0.00000000000E+00  0.11130809852E+04  0.11130809852E+04  0.25500000920E-02 0.  1.
       -2   -1    0    0    0  501  0.00000000000E+00  0.00000000000E+00 -0.18856270553E+04  0.18856270554E+04  0.25500000920E-02 0. -1.
    10030    2    1    2    0    0  0.00000000000E+00  0.00000000000E+00 -0.77254607020E+03  0.29987080405E+04  0.28974855447E+04 0.  0.
        2    1    3    3  502    0  0.12573675340E+04  0.66714773540E+03 -0.66550675980E+03  0.15712919728E+04  0.25500000920E-02 0. -1.
       -2    1    3    3    0  502 -0.12573675340E+04 -0.66714773540E+03 -0.10703931039E+03  0.14274160677E+04  0.25500000920E-02 0.  1.
</event>
<event>
 5   0  0.1511126E-06  0.2908646E+04  0.7818609E-02  0.8270310E-01
        1   -1    0    0  501    0  0.00000000000E+00  0.00000000000E+00  0.13680987623E+04  0.13680987624E+04  0.50400001928E-02 0. -1.
       -1   -1    0    0    0  501  0.00000000000E+00  0.00000000000E+00 -0.15459817223E+04  0.15459817223E+04  0.50400001928E-02 0.  1.
    10030    2    1    2    0    0  0.00000000000E+00  0.00000000000E+00 -0.17788295991E+03  0.29140804846E+04  0.29086462011E+04 0.  0.
        5    1    3    3  502    0  0.14172743494E+03 -0.11591439797E+04 -0.95735511445E+03  0.15100504418E+04  0.46999998093E+01 0.  1.
       -5    1    3    3    0  502 -0.14172743494E+03  0.11591439797E+04  0.77947215454E+03  0.14040300429E+04  0.46999998093E+01 0. -1.
</event>
<event>
 5   0  0.1580212E-06  0.2888075E+04  0.7818609E-02  0.8276434E-01
       -1   -1    0    0    0  501  0.00000000000E+00  0.00000000000E+00  0.18532855245E+04  0.18532855246E+04  0.50400001928E-02 0.  1.
        1   -1    0    0  501    0  0.00000000000E+00  0.00000000000E+00 -0.11251611737E+04  0.11251611737E+04  0.50400001928E-02 0. -1.
    10030    2    1    2    0    0  0.00000000000E+00  0.00000000000E+00  0.72812435084E+03  0.29784466983E+04  0.28880754256E+04 0.  0.
        4    1    3    3  502    0 -0.40813334256E+03 -0.10124519322E+04  0.13389523449E+04  0.17275493437E+04  0.12699999809E+01 0.  1.
       -4    1    3    3    0  502  0.40813334256E+03  0.10124519322E+04 -0.61082799402E+03  0.12508973545E+04  0.12699999809E+01 0. -1.
</event>
<event>
 5   0  0.1550278E-06  0.2902448E+04  0.7818609E-02  0.8272150E-01
       -1   -1    0    0    0  501  0.00000000000E+00  0.00000000000E+00  0.10875210173E+04  0.10875210173E+04  0.50400001928E-02 0. -1.
        1   -1    0    0  501    0  0.00000000000E+00  0.00000000000E+00 -0.19365612134E+04  0.19365612134E+04  0.50400001928E-02 0.  1.
    10030    2    1    2    0    0  0.00000000000E+00  0.00000000000E+00 -0.84904019606E+03  0.30240822307E+04  0.29024479468E+04 0.  0.
        2    1    3    3  502    0  0.12406316611E+04 -0.74043646772E+03 -0.56676218205E+03  0.15519769497E+04  0.25500000920E-02 0. -1.
       -2    1    3    3    0  502 -0.12406316611E+04  0.74043646772E+03 -0.28227801401E+03  0.14721052811E+04  0.25500000920E-02 0.  1.
</event>
<event>
 5   0  0.1511126E-06  0.2937186E+04  0.7818609E-02  0.8261899E-01
        1   -1    0    0  501    0  0.00000000000E+00  0.00000000000E+00  0.10778694224E+04  0.10778694224E+04  0.50400001928E-02 0. -1.
       -1   -1    0    0    0  501  0.00000000000E+00  0.00000000000E+00 -0.20009521366E+04  0.20009521366E+04  0.50400001928E-02 0.  1.
    10030    2    1    2    0    0  0.00000000000E+00  0.00000000000E+00 -0.92308271425E+03  0.30788215590E+04  0.29371858121E+04 0.  0.
        5    1    3    3  502    0 -0.11122155808E+04  0.21047149743E+03  0.51921616571E+03  0.12453631061E+04  0.46999998093E+01 0. -1.
       -5    1    3    3    0  502  0.11122155808E+04 -0.21047149743E+03 -0.14422988800E+04  0.18334584529E+04  0.46999998093E+01 0.  1.
</event>
<event>
 5   0  0.4187518E-06  0.2908897E+04  0.7818609E-02  0.8270235E-01
        2   -1    0    0  501    0  0.00000000000E+00  0.00000000000E+00  0.25394886993E+04  0.25394886993E+04  0.25500000920E-02 0.  1.
       -2   -1    0    0    0  501  0.00000000000E+00  0.00000000000E+00 -0.83301042543E+03  0.83301042544E+03  0.25500000920E-02 0. -1.
    10030    2    1    2    0    0  0.00000000000E+00  0.00000000000E+00  0.17064782739E+04  0.33724991247E+04  0.29088970843E+04 0.  0.
        3    1    3    3  502    0  0.32013469113E+03 -0.13797349199E+04  0.12364746769E+04  0.18801660316E+04  0.10100000352E+00 0.  1.
       -3    1    3    3    0  502 -0.32013469113E+03  0.13797349199E+04  0.47000359696E+03  0.14923330931E+04  0.10100000352E+00 0. -1.
</event>
<event>
 5   0  0.4224163E-06  0.2905851E+04  0.7818609E-02  0.8271139E-01
       -2   -1    0    0    0  501  0.00000000000E+00  0.00000000000E+00  0.19166390952E+04  0.19166390952E+04  0.25500000920E-02 0.  1.
        2   -1    0    0  501    0  0.00000000000E+00  0.00000000000E+00 -0.11014033664E+04  0.11014033664E+04  0.25500000920E-02 0. -1.
    10030    2    1    2    0    0  0.00000000000E+00  0.00000000000E+00  0.81523572877E+03  0.30180424616E+04  0.29058511673E+04 0.  0.
        4    1    3    3  502    0 -0.37493134295E+03  0.21744348031E+03 -0.10326954430E+04  0.11199627985E+04  0.12699999809E+01 0. -1.
       -4    1    3    3    0  502  0.37493134295E+03 -0.21744348031E+03  0.18479311718E+04  0.18980796631E+04  0.12699999809E+01 0.  1.
</event>
<event>
 5   0  0.4148677E-06  0.2904721E+04  0.7818609E-02  0.8271474E-01
       -2   -1    0    0    0  501  0.00000000000E+00  0.00000000000E+00  0.89684500094E+03  0.89684500094E+03  0.25500000920E-02 0. -1.
        2   -1    0    0  501    0  0.00000000000E+00  0.00000000000E+00 -0.23519681454E+04  0.23519681455E+04  0.25500000920E-02 0.  1.
    10030    2    1    2    0    0  0.00000000000E+00  0.00000000000E+00 -0.14551231445E+04  0.32488131464E+04  0.29047208979E+04 0.  0.
        5    1    3    3  502    0 -0.84844497720E+02 -0.90564453060E+03 -0.19939118957E+04  0.21915969845E+04  0.46999998093E+01 0.  1.
       -5    1    3    3    0  502  0.84844497720E+02  0.90564453060E+03  0.53878875118E+03  0.10572161619E+04  0.46999998093E+01 0. -1.
</event>
<event>
 5   0  0.1550278E-06  0.2900562E+04  0.7818609E-02  0.8272710E-01
        1   -1    0    0  501    0  0.00000000000E+00  0.00000000000E+00  0.15469021720E+04  0.15469021720E+04  0.50400001928E-02 0.  1.
       -1   -1    0    0    0  501  0.00000000000E+00  0.00000000000E+00 -0.13596950283E+04  0.13596950284E+04  0.50400001928E-02 0. -1.
    10030    2    1    2    0    0  0.00000000000E+00  0.00000000000E+00  0.18720714363E+03  0.29065972003E+04  0.29005621473E+04 0.  0.
        2    1    3    3  502    0  0.56284852799E+03 -0.52150246139E+03 -0.11396283487E+04  0.13738690097E+04  0.25500000920E-02 0. -1.
       -2    1    3    3    0  502 -0.56284852799E+03  0.52150246139E+03  0.13268354923E+04  0.15327281906E+04  0.25500000920E-02 0.  1.
</event>
<event>
 5   0  0.1550278E-06  0.2954303E+04  0.7818609E-02  0.8256902E-01
       -1   -1    0    0    0  501  0.00000000000E+00  0.00000000000E+00  0.10512768317E+04  0.10512768317E+04  0.50400001928E-02 0.  1.
        1   -1    0    0  501    0  0.00000000000E+00  0.00000000000E+00 -0.20755492866E+04  0.20755492866E+04  0.50400001928E-02 0. -1.
    10030    2    1    2    0    0  0.00000000000E+00  0.00000000000E+00 -0.10242724549E+04  0.31268261183E+04  0.29543032194E+04 0.  0.
        2    1    3    3  502    0  0.43878357105E+03  0.98107426236E+03 -0.15846947992E+04  0.19147572528E+04  0.25500000920E-02 0. -1.
       -2    1    3    3    0  502 -0.43878357105E+03 -0.98107426236E+03  0.56042234436E+03  0.12120688654E+04  0.25500000920E-02 0.  1.
</event>
<event>
 5   0  0.1580212E-06  0.2902728E+04  0.7818609E-02  0.8272066E-01
       -1   -1    0    0    0  501  0.00000000000E+00  0.00000000000E+00  0.97022146885E+03  0.97022146886E+03  0.50400001928E-02 0. -1.
        1   -1    0    0  501    0  0.00000000000E+00  0.00000000000E+00 -0.21711094218E+04  0.21711094218E+04  0.50400001928E-02 0.  1.
    10030    2    1    2    0    0  0.00000000000E+00  0.00000000000E+00 -0.12008879529E+04  0.31413308906E+04  0.29027276636E+04 0.  0.
        4    1    3    3  502    0  0.38400950092E+03 -0.11885261115E+04  0.19950418073E+03  0.12648561758E+04  0.12699999809E+01 0. -1.
       -4    1    3    3    0  502 -0.38400950092E+03  0.11885261115E+04 -0.14003921336E+04  0.18764747148E+04  0.12699999809E+01 0.  1.
</event>
<event>
 5   0  0.1543678E-06  0.2877112E+04  0.7818609E-02  0.8279720E-01
        1   -1    0    0  501    0  0.00000000000E+00  0.00000000000E+00  0.22123262291E+04  0.22123262291E+04  0.50400001928E-02 0.  1.
       -1   -1    0    0    0  501  0.00000000000E+00  0.00000000000E+00 -0.93541512543E+03  0.93541512545E+03  0.50400001928E-02 0. -1.
    10030    2    1    2    0    0  0.00000000000E+00  0.00000000000E+00  0.12769111037E+04  0.31477413546E+04  0.28771120361E+04 0.  0.
        3    1    3    3  502    0 -0.88422392755E+03 -0.10493281043E+04  0.16597493997E+03  0.13822044406E+04  0.10100000352E+00 0. -1.
       -3    1    3    3    0  502  0.88422392755E+03  0.10493281043E+04  0.11109361637E+04  0.17655369140E+04  0.10100000352E+00 0.  1.
</event>
<event>
 5   0  0.4224163E-06  0.2894302E+04  0.7818609E-02  0.8274575E-01
        2   -1    0    0  501    0  0.00000000000E+00  0.00000000000E+00  0.13020204386E+04  0.13020204386E+04  0.25500000920E-02 0.  1.
       -2   -1    0    0    0  501  0.00000000000E+00  0.00000000000E+00 -0.16084583563E+04  0.16084583563E+04  0.25500000920E-02 0. -1.
    10030    2    1    2    0    0  0.00000000000E+00  0.00000000000E+00 -0.30643791769E+03  0.29104787949E+04  0.28943017497E+04 0.  0.
        4    1    3    3  502    0  0.89810227706E+02 -0.64347382302E+03 -0.14535511124E+04  0.15921485129E+04  0.12699999809E+01 0. -1.
       -4    1    3    3    0  502 -0.89810227706E+02  0.64347382302E+03  0.11471131947E+04  0.13183302820E+04  0.12699999809E+01 0.  1.
</event>
<event>
 5   0  0.4148677E-06  0.2899963E+04  0.7818609E-02  0.8272888E-01
        2   -1    0    0  501    0  0.00000000000E+00  0.00000000000E+00  0.28447292226E+04  0.28447292226E+04  0.25500000920E-02 0. -1.
       -2   -1    0    0    0  501  0.00000000000E+00  0.00000000000E+00 -0.73906736889E+03  0.73906736889E+03  0.25500000920E-02 0.  1.
    10030    2    1    2    0    0  0.00000000000E+00  0.00000000000E+00  0.21056618537E+04  0.35837965915E+04  0.28999631320E+04 0.  0.
        5    1    3    3  502    0  0.13319871863E+04 -0.28640566645E+02  0.34570021358E+03  0.13764232177E+04  0.46999998093E+01 0.  1.
       -5    1    3    3    0  502 -0.13319871863E+04  0.28640566645E+02  0.17599616401E+04  0.22073733738E+04  0.46999998093E+01 0. -1.
</event>
<event>
 5   0  0.1511126E-06  0.2874649E+04  0.7818609E-02  0.8280460E-01
       -1   -1    0    0    0  501  0.00000000000E+00  0.00000000000E+00  0.12801957534E+04  0.12801957534E+04  0.50400001928E-02 0. -1.
        1   -1    0    0  501    0  0.00000000000E+00  0.00000000000E+00 -0.16137384383E+04  0.16137384383E+04  0.50400001928E-02 0.  1.
    10030    2    1    2    0    0  0.00000000000E+00  0.00000000000E+00 -0.33354268487E+03  0.28939341917E+04  0.28746485669E+04 0.  0.
        5    1    3    3  502    0 -0.32909897555E+03 -0.30245661152E+02 -0.15749616850E+04  0.16092691928E+04  0.46999998093E+01 0.  1.
       -5    1    3    3    0  502  0.32909897555E+03  0.30245661152E+02  0.12414190001E+04  0.12846649989E+04  0.46999998093E+01 0. -1.
</event>
<event>
 5   0  0.4115143E-06  0.2902518E+04  0.7818609E-02  0.8272129E-01
       -2   -1    0    0    0  501  0.00000000000E+00  0.00000000000E+00  0.15251909417E+04  0.15251909417E+04  0.25500000920E-02 0.  1.
        2   -1    0    0  501    0  0.00000000000E+00  0.00000000000E+00 -0.13809111981E+04  0.13809111981E+04  0.25500000920E-02 0. -1.
    10030    2    1    2    0    0  0.00000000000E+00  0.00000000000E+00  0.14427974366E+03  0.29061021398E+04  0.29025183897E+04 0.  0.
        1    1    3    3  502    0 -0.62163853464E+03  0.71079569211E+03  0.11755387955E+04  0.15078317026E+04  0.50400001928E-02 0.  1.
       -1    1    3    3    0  502  0.62163853464E+03 -0.71079569211E+03 -0.10312590518E+04  0.13982704372E+04  0.50400001928E-02 0. -1.
</event>
<event>
 5   0  0.4162450E-06  0.2904864E+04  0.7818609E-02  0.8271432E-01
       -2   -1    0    0    0  501  0.00000000000E+00  0.00000000000E+00  0.12748412625E+04  0.12748412625E+04  0.25500000920E-02 0.  1.
        2   -1    0    0  501    0  0.00000000000E+00  0.00000000000E+00 -0.16547621906E+04  0.16547621906E+04  0.25500000920E-02 0. -1.
    10030    2    1    2    0    0  0.00000000000E+00  0.00000000000E+00 -0.37992092810E+03  0.29296034531E+04  0.29048642792E+04 0.  0.
        2    1    3    3  502    0 -0.82824123927E+03  0.29116942782E+03  0.97695712241E+03  0.13134718897E+04  0.25500000920E-02 0.  1.
       -2    1    3    3    0  502  0.82824123927E+03 -0.29116942782E+03 -0.13568780505E+04  0.16161315634E+04  0.25500000920E-02 0. -1.
</event>
<event>
 5   0  0.4162450E-06  0.2894928E+04  0.7818609E-02  0.8274388E-01
        2   -1    0    0  501    0  0.00000000000E+00  0.00000000000E+00  0.13246322502E+04  0.13246322502E+04  0.25500000920E-02 0.  1.
       -2   -1    0    0    0  501  0.00000000000E+00  0.00000000000E+00 -0.15816859922E+04  0.15816859922E+04  0.25500000920E-02 0. -1.
    10030    2    1    2    0    0  0.00000000000E+00  0.00000000000E+00 -0.25705374200E+03  0.29063182425E+04  0.28949281684E+04 0.  0.
        2    1    3    3  502    0  0.24316018993E+03 -0.11413046022E+04  0.73125918218E+03  0.13771140347E+04  0.25500000920E-02 0.  1.
       -2    1    3    3    0  502 -0.24316018993E+03  0.11413046022E+04 -0.98831292418E+03  0.15292042078E+04  0.25500000920E-02 0. -1.
</event>
<event>
 5   0  0.1580212E-06  0.2898837E+04  0.7818609E-02  0.8273224E-01
       -1   -1    0    0    0  501  0.00000000000E+00  0.00000000000E+00  0.13201636424E+04  0.13201636425E+04  0.50400001928E-02 0.  1.
        1   -1    0    0  501    0  0.00000000000E+00  0.00000000000E+00 -0.15913285225E+04  0.15913285225E+04  0.50400001928E-02 0. -1.
    10030    2    1    2    0    0  0.00000000000E+00  0.00000000000E+00 -0.27116488003E+03  0.29114921649E+04  0.28988370486E+04 0.  0.
        4    1    3    3  502    0 -0.38008819115E+02  0.27426413793E+03  0.12933537732E+04  0.13226606078E+04  0.12699999809E+01 0.  1.
       -4    1    3    3    0  502  0.38008819115E+02 -0.27426413793E+03 -0.15645186533E+04  0.15888315572E+04  0.12699999809E+01 0. -1.
</event>
<event>
 5   0  0.1602873E-06  0.2887667E+04  0.7818609E-02  0.8276556E-01
        1   -1    0    0  501    0  0.00000000000E+00  0.00000000000E+00  0.67492926906E+03  0.67492926908E+03  0.50400001928E-02 0.  1.
       -1   -1    0    0    0  501  0.00000000000E+00  0.00000000000E+00 -0.30887020229E+04  0.30887020229E+04  0.50400001928E-02 0. -1.
    10030    2    1    2    0    0  0.00000000000E+00  0.00000000000E+00 -0.24137727538E+04  0.37636312919E+04  0.28876671544E+04 0.  0.
        1    1    3    3  502    0 -0.67771095589E+03  0.12624139445E+04 -0.14388465338E+04  0.20305813096E+04  0.50400001928E-02 0.  1.
       -1    1    3    3    0  502  0.67771095589E+03 -0.12624139445E+04 -0.97492621997E+03  0.17330499824E+04  0.50400001928E-02 0. -1.
</event>
<event>
 5   0  0.4148677E-06  0.2568003E+04  0.7818609E-02  0.8379152E-01
        2   -1    0    0  501    0  0.00000000000E+00  0.00000000000E+00  0.91216872227E+03  0.91216872228E+03  0.25500000920E-02 0. -1.
       -2   -1    0    0    0  501  0.00000000000E+00  0.00000000000E+00 -0.18074066996E+04  0.18074066996E+04  0.25500000920E-02 0.  1.
    10030    2    1    2    0    0  0.00000000000E+00  0.00000000000E+00 -0.89523797731E+03  0.27195754219E+04  0.25680030061E+04 0.  0.
        5    1    3    3  502    0  0.42880674450E+03  0.66058439198E+03  0.62633252049E+03  0.10062611387E+04  0.46999998093E+01 0. -1.
       -5    1    3    3    0  502 -0.42880674450E+03 -0.66058439198E+03 -0.15215704978E+04  0.17133142832E+04  0.46999998093E+01 0.  1.
</event>
<event>
 5   0  0.1511126E-06  0.2887747E+04  0.7818609E-02  0.8276532E-01
        1   -1    0    0  501    0  0.00000000000E+00  0.00000000000E+00  0.24556034966E+04  0.24556034966E+04  0.50400001928E-02 0.  1.
       -1   -1    0    0    0  501  0.00000000000E+00  0.00000000000E+00 -0.84898526239E+03  0.84898526241E+03  0.50400001928E-02 0. -1.
    10030    2    1    2    0    0  0.00000000000E+00  0.00000000000E+00  0.16066182342E+04  0.33045887590E+04  0.28877473428E+04 0.  0.
        5    1    3    3  502    0  0.51274357384E+02 -0.13750442374E+04  0.30269973380E+03  0.14089091289E+04  0.46999998093E+01 0.  1.
       -5    1    3    3    0  502 -0.51274357384E+02  0.13750442374E+04  0.13039185004E+04  0.18956796302E+04  0.46999998093E+01 0. -1.
</event>
<event>
 5   0  0.4162450E-06  0.2924897E+04  0.7818609E-02  0.8265508E-01
       -2   -1    0    0    0  501  0.00000000000E+00  0.00000000000E+00  0.15558729987E+04  0.15558729987E+04  0.25500000920E-02 0. -1.
        2   -1    0    0  501    0  0.00000000000E+00  0.00000000000E+00 -0.13746338158E+04  0.13746338158E+04  0.25500000920E-02 0.  1.
    10030    2    1    2    0    0  0.00000000000E+00  0.00000000000E+00  0.18123918289E+03  0.29305068146E+04  0.29248970151E+04 0.  0.
        2    1    3    3  502    0 -0.12779281397E+04  0.63513970585E+03  0.41100290643E+03  0.14850677308E+04  0.25500000920E-02 0. -1.
       -2    1    3    3    0  502  0.12779281397E+04 -0.63513970585E+03 -0.22976372353E+03  0.14454390837E+04  0.25500000920E-02 0.  1.
</event>
<event>
 5   0  0.4224163E-06  0.2899058E+04  0.7818609E-02  0.8273158E-01
        2   -1    0    0  501    0  0.00000000000E+00  0.00000000000E+00  0.13730345193E+04  0.13730345193E+04  0.25500000920E-02 0.  1.
       -2   -1    0    0    0  501  0.00000000000E+00  0.00000000000E+00 -0.15302855547E+04  0.15302855547E+04  0.25500000920E-02 0. -1.
    10030    2    1    2    0    0  0.00000000000E+00  0.00000000000E+00 -0.15725103536E+03  0.29033200740E+04  0.28990583926E+04 0.  0.
        4    1    3    3  502    0 -0.83897158131E+02  0.14329811664E+04  0.12331296431E+03  0.14407225466E+04  0.12699999809E+01 0. -1.
       -4    1    3    3    0  502  0.83897158131E+02 -0.14329811664E+04 -0.28056399967E+03  0.14625975274E+04  0.12699999809E+01 0.  1.
</event>
<event>
 5   0  0.1580212E-06  0.2898970E+04  0.7818609E-02  0.8273184E-01
        1   -1    0    0  501    0  0.00000000000E+00  0.00000000000E+00  0.19289499306E+04  0.19289499306E+04  0.50400001928E-02 0. -1.
       -1   -1    0    0    0  501  0.00000000000E+00  0.00000000000E+00 -0.10891969741E+04  0.10891969741E+04  0.50400001928E-02 0.  1.
    10030    2    1    2    0    0  0.00000000000E+00  0.00000000000E+00  0.83975295652E+03  0.30181469048E+04  0.28989697672E+04 0.  0.
        4    1    3    3  502    0 -0.21100281674E+03 -0.51531537918E+03 -0.97339683889E+03  0.11214165807E+04  0.12699999809E+01 0.  1.
       -4    1    3    3    0  502  0.21100281674E+03  0.51531537918E+03  0.18131497954E+04  0.18967303240E+04  0.12699999809E+01 0. -1.
</event>
<event>
 5   0  0.4148677E-06  0.2885549E+04  0.7818609E-02  0.8277190E-01
        2   -1    0    0  501    0  0.00000000000E+00  0.00000000000E+00  0.13378773324E+04  0.13378773324E+04  0.25500000920E-02 0. -1.
       -2   -1    0    0    0  501  0.00000000000E+00  0.00000000000E+00 -0.15558962399E+04  0.15558962399E+04  0.25500000920E-02 0.  1.
    10030    2    1    2    0    0  0.00000000000E+00  0.00000000000E+00 -0.21801890741E+03  0.28937735723E+04  0.28855490368E+04 0.  0.
        5    1    3    3  502    0  0.73685971442E+03  0.11423145102E+04 -0.59384533049E+03  0.14834146573E+04  0.46999998093E+01 0.  1.
       -5    1    3    3    0  502 -0.73685971442E+03 -0.11423145102E+04  0.37582642308E+03  0.14103589150E+04  0.46999998093E+01 0. -1.
</event>
<event>
 5   0  0.4187518E-06  0.2930138E+04  0.7818609E-02  0.8263967E-01
        2   -1    0    0  501    0  0.00000000000E+00  0.00000000000E+00  0.14150168218E+04  0.14150168218E+04  0.25500000920E-02 0. -1.
       -2   -1    0    0    0  501  0.00000000000E+00  0.00000000000E+00 -0.15168917286E+04  0.15168917286E+04  0.25500000920E-02 0.  1.
    10030    2    1    2    0    0  0.00000000000E+00  0.00000000000E+00 -0.10187490685E+03  0.29319085504E+04  0.29301380942E+04 0.  0.
        3    1    3    3  502    0  0.93884368320E+03 -0.17362854282E+03  0.10609733675E+04  0.14273187552E+04  0.10100000352E+00 0. -1.
       -3    1    3    3    0  502 -0.93884368320E+03  0.17362854282E+03 -0.11628482743E+04  0.15045897951E+04  0.10100000352E+00 0.  1.
</event>
<event>
 5   0  0.4224163E-06  0.2907834E+04  0.7818609E-02  0.8270550E-01
       -2   -1    0    0    0  501  0.00000000000E+00  0.00000000000E+00  0.13286507914E+04  0.13286507914E+04  0.25500000920E-02 0.  1.
        2   -1    0    0  501    0  0.00000000000E+00  0.00000000000E+00 -0.15909933866E+04  0.15909933866E+04  0.25500000920E-02 0. -1.
    10030    2    1    2    0    0  0.00000000000E+00  0.00000000000E+00 -0.26234259514E+03  0.29196441780E+04  0.29078339858E+04 0.  0.
        4    1    3    3  502    0  0.72782407474E+03  0.19788887813E+03 -0.13791939510E+04  0.15719622957E+04  0.12699999809E+01 0. -1.
       -4    1    3    3    0  502 -0.72782407474E+03 -0.19788887813E+03  0.11168513558E+04  0.13476818823E+04  0.12699999809E+01 0.  1.
</event>
<event>
 5   0  0.1550278E-06  0.2901428E+04  0.7818609E-02  0.8272453E-01
       -1   -1    0    0    0  501  0.00000000000E+00  0.00000000000E+00  0.80204160984E+03  0.80204160986E+03  0.50400001928E-02 0. -1.
        1   -1    0    0  501    0  0.00000000000E+00  0.00000000000E+00 -0.26240165778E+04  0.26240165779E+04  0.50400001928E-02 0.  1.
    10030    2    1    2    0    0  0.00000000000E+00  0.00000000000E+00 -0.18219749680E+04  0.34260581877E+04  0.29014275661E+04 0.  0.
        2    1    3    3  502    0  0.63466446848E+03  0.13045195679E+04 -0.91150204375E+03  0.17133027363E+04  0.25500000920E-02 0. -1.
       -2    1    3    3    0  502 -0.63466446848E+03 -0.13045195679E+04 -0.91047292425E+03  0.17127554514E+04  0.25500000920E-02 0.  1.
</event>
<event>
 5   0  0.4148677E-06  0.2896264E+04  0.7818609E-02  0.8273990E-01
        2   -1    0    0  501    0  0.00000000000E+00  0.00000000000E+00  0.17831423527E+04  0.17831423527E+04  0.25500000920E-02 0.  1.
       -2   -1    0    0    0  501  0.00000000000E+00  0.00000000000E+00 -0.11760618574E+04  0.11760618574E+04  0.25500000920E-02 0. -1.
    10030    2    1    2    0    0  0.00000000000E+00  0.00000000000E+00  0.60708049532E+03  0.29592042101E+04  0.28962635980E+04 0.  0.
        5    1    3    3  502    0 -0.34175085073E+03 -0.57479689985E+03 -0.10088495077E+04  0.12103654569E+04  0.46999998093E+01 0. -1.
       -5    1    3    3    0  502  0.34175085073E+03  0.57479689985E+03  0.16159300030E+04  0.17488387532E+04  0.46999998093E+01 0.  1.
</event>
<event>
 5   0  0.1511126E-06  0.2919200E+04  0.7818609E-02  0.8267188E-01
       -1   -1    0    0    0  501  0.00000000000E+00  0.00000000000E+00  0.21236459220E+04  0.21236459220E+04  0.50400001928E-02 0. -1.
        1   -1    0    0  501    0  0.00000000000E+00  0.00000000000E+00 -0.10031958632E+04  0.10031958632E+04  0.50400001928E-02 0.  1.
    10030    2    1    2    0    0  0.00000000000E+00  0.00000000000E+00  0.11204500588E+04  0.31268417851E+04  0.29192004411E+04 0.  0.
        5    1    3    3  502    0  0.78516557734E+03 -0.58578730635E+03  0.17192143811E+04  0.19787248243E+04  0.46999998093E+01 0. -1.
       -5    1    3    3    0  502 -0.78516557734E+03  0.58578730635E+03 -0.59876432230E+03  0.11481169608E+04  0.46999998093E+01 0.  1.
</event>
<event>
 5   0  0.4224163E-06  0.2890672E+04  0.7818609E-02  0.8275658E-01
       -2   -1    0    0    0  501  0.00000000000E+00  0.00000000000E+00  0.11350974567E+04  0.11350974567E+04  0.25500000920E-02 0.  1.
        2   -1    0    0  501    0  0.00000000000E+00  0.00000000000E+00 -0.18403677498E+04  0.18403677498E+04  0.25500000920E-02 0. -1.
    10030    2    1    2    0    0  0.00000000000E+00  0.00000000000E+00 -0.70527029308E+03  0.29754652066E+04  0.28906724147E+04 0.  0.
        4    1    3    3  502    0 -0.97389298744E+03 -0.68708612446E+03 -0.11941994259E+04  0.16872073895E+04  0.12699999809E+01 0. -1.
       -4    1    3    3    0  502  0.97389298744E+03  0.68708612446E+03  0.48892913284E+03  0.12882578171E+04  0.12699999809E+01 0.  1.
</event>
<event>
 5   0  0.1602873E-06  0.2910773E+04  0.7818609E-02  0.8269680E-01
       -1   -1    0    0    0  501  0.00000000000E+00  0.00000000000E+00  0.13836460140E+04  0.13836460140E+04  0.50400001928E-02 0.  1.
        1   -1    0    0  501    0  0.00000000000E+00  0.00000000000E+00 -0.15308461471E+04  0.15308461471E+04  0.50400001928E-02 0. -1.
    10030    2    1    2    0    0  0.00000000000E+00  0.00000000000E+00 -0.14720013314E+03  0.29144921611E+04  0.29107725225E+04 0.  0.
        1    1    3    3  502    0  0.12711050214E+04 -0.70402456232E+03 -0.15611052729E+03  0.14614133763E+04  0.50400001928E-02 0. -1.
       -1    1    3    3    0  502 -0.12711050214E+04  0.70402456232E+03  0.89103941401E+01  0.14530787848E+04  0.50400001928E-02 0.  1.
</event>
<event>
 5   0  0.4148677E-06  0.2908520E+04  0.7818609E-02  0.8270347E-01
       -2   -1    0    0    0  501  0.00000000000E+00  0.00000000000E+00  0.11500341151E+04  0.11500341151E+04  0.25500000920E-02 0.  1.
        2   -1    0    0  501    0  0.00000000000E+00  0.00000000000E+00 -0.18389648548E+04  0.18389648548E+04  0.25500000920E-02 0. -1.
    10030    2    1    2    0    0  0.00000000000E+00  0.00000000000E+00 -0.68893073973E+03  0.29889989699E+04  0.29085201181E+04 0.  0.
        5    1    3    3  502    0  0.77937431909E+03  0.12110998705E+04 -0.13723499066E+03  0.14467352067E+04  0.46999998093E+01 0. -1.
       -5    1    3    3    0  502 -0.77937431909E+03 -0.12110998705E+04 -0.55169574907E+03  0.15422637632E+04  0.46999998093E+01 0.  1.
</event>
<event>
 5   0  0.1511126E-06  0.2843723E+04  0.7818609E-02  0.8289821E-01
       -1   -1    0    0    0  501  0.00000000000E+00  0.00000000000E+00  0.12449615158E+04  0.12449615158E+04  0.50400001928E-02 0.  1.
        1   -1    0    0  501    0  0.00000000000E+00  0.00000000000E+00 -0.16238974126E+04  0.16238974126E+04  0.50400001928E-02 0. -1.
    10030    2    1    2    0    0  0.00000000000E+00  0.00000000000E+00 -0.37893589676E+03  0.28688589284E+04  0.28437227603E+04 0.  0.
        5    1    3    3  502    0  0.28661784228E+03 -0.29177266671E+03  0.11843275259E+04  0.12529704127E+04  0.46999998093E+01 0.  1.
       -5    1    3    3    0  502 -0.28661784228E+03  0.29177266671E+03 -0.15632634227E+04  0.16158885157E+04  0.46999998093E+01 0. -1.
</event>
<event>
 5   0  0.1511126E-06  0.2782066E+04  0.7818609E-02  0.8308858E-01
        1   -1    0    0  501    0  0.00000000000E+00  0.00000000000E+00  0.18480854794E+04  0.18480854794E+04  0.50400001928E-02 0.  1.
       -1   -1    0    0    0  501  0.00000000000E+00  0.00000000000E+00 -0.10470149002E+04  0.10470149003E+04  0.50400001928E-02 0. -1.
    10030    2    1    2    0    0  0.00000000000E+00  0.00000000000E+00  0.80107057917E+03  0.28951003797E+04  0.27820661630E+04 0.  0.
        5    1    3    3  502    0  0.37039501798E+03 -0.81256707220E+03  0.15104013783E+04  0.17546487197E+04  0.46999998093E+01 0.  1.
       -5    1    3    3    0  502 -0.37039501798E+03  0.81256707220E+03 -0.70933079909E+03  0.11404516600E+04  0.46999998093E+01 0. -1.
</event>
<event>
 5   0  0.4148677E-06  0.2884857E+04  0.7818609E-02  0.8277397E-01
       -2   -1    0    0    0  501  0.00000000000E+00  0.00000000000E+00  0.19747891914E+04  0.19747891914E+04  0.25500000920E-02 0. -1.
        2   -1    0    0  501    0  0.00000000000E+00  0.00000000000E+00 -0.10535805563E+04  0.10535805563E+04  0.25500000920E-02 0.  1.
    10030    2    1    2    0    0  0.00000000000E+00  0.00000000000E+00  0.92120863518E+03  0.30283697477E+04  0.28848566653E+04 0.  0.
        5    1    3    3  502    0  0.16435162076E+03 -0.12392255114E+03  0.19592847351E+04  0.19700728456E+04  0.46999998093E+01 0. -1.
       -5    1    3    3    0  502 -0.16435162076E+03  0.12392255114E+03 -0.10380760999E+04  0.10582969021E+04  0.46999998093E+01 0.  1.
</event>
<event>
 5   0  0.1602873E-06  0.2916629E+04  0.7818609E-02  0.8267947E-01
        1   -1    0    0  501    0  0.00000000000E+00  0.00000000000E+00  0.10468083613E+04  0.10468083613E+04  0.50400001928E-02 0. -1.
       -1   -1    0    0    0  501  0.00000000000E+00  0.00000000000E+00 -0.20315856501E+04  0.20315856501E+04  0.50400001928E-02 0.  1.
    10030    2    1    2    0    0  0.00000000000E+00  0.00000000000E+00 -0.98477728885E+03  0.30783940114E+04  0.29166287698E+04 0.  0.
        1    1    3    3  502    0  0.11002728837E+04  0.78701590789E+03  0.82510761910E+02  0.13552868640E+04  0.50400001928E-02 0.  1.
       -1    1    3    3    0  502 -0.11002728837E+04 -0.78701590789E+03 -0.10672880508E+04  0.17231071474E+04  0.50400001928E-02 0. -1.
</event>
<event>
 5   0  0.1580212E-06  0.2896442E+04  0.7818609E-02  0.8273937E-01
        1   -1    0    0  501    0  0.00000000000E+00  0.00000000000E+00  0.23889061573E+04  0.23889061574E+04  0.50400001928E-02 0. -1.
       -1   -1    0    0    0  501  0.00000000000E+00  0.00000000000E+00 -0.87795167538E+03  0.87795167539E+03  0.50400001928E-02 0.  1.
    10030    2    1    2    0    0  0.00000000000E+00  0.00000000000E+00  0.15109544820E+04  0.32668578327E+04  0.28964420679E+04 0.  0.
        4    1    3    3  502    0  0.22293707301E+03 -0.12830395426E+04  0.40846426850E+02  0.13029050041E+04  0.12699999809E+01 0.  1.
       -4    1    3    3    0  502 -0.22293707301E+03  0.12830395426E+04  0.14701080551E+04  0.19639528286E+04  0.12699999809E+01 0. -1.
</event>
<event>
 5   0  0.1511126E-06  0.2896274E+04  0.7818609E-02  0.8273987E-01
        1   -1    0    0  501    0  0.00000000000E+00  0.00000000000E+00  0.15962918215E+04  0.15962918215E+04  0.50400001928E-02 0. -1.
       -1   -1    0    0    0  501  0.00000000000E+00  0.00000000000E+00 -0.13137327063E+04  0.13137327064E+04  0.50400001928E-02 0.  1.
    10030    2    1    2    0    0  0.00000000000E+00  0.00000000000E+00  0.28255911512E+03  0.29100245278E+04  0.28962740028E+04 0.  0.
        5    1    3    3  502    0  0.10317026364E+04 -0.10085845851E+04  0.16490506497E+02  0.14428954300E+04  0.46999998093E+01 0. -1.
       -5    1    3    3    0  502 -0.10317026364E+04  0.10085845851E+04  0.26606860863E+03  0.14671290978E+04  0.46999998093E+01 0.  1.
</event>
<event>
 5   0  0.1580212E-06  0.2926692E+04  0.7818609E-02  0.8264980E-01
        1   -1    0    0  501    0  0.00000000000E+00  0.00000000000E+00  0.17323224380E+04  0.17323224380E+04  0.50400001928E-02 0.  1.
       -1   -1    0    0    0  501  0.00000000000E+00  0.00000000000E+00 -0.12361333225E+04  0.12361333225E+04  0.50400001928E-02 0. -1.
    10030    2    1    2    0    0  0.00000000000E+00  0.00000000000E+00  0.49618911553E+03  0.29684557605E+04  0.29266919830E+04 0.  0.
        4    1    3    3  502    0 -0.12242063152E+04 -0.45049930670E+03  0.92069332582E+03  0.15966554233E+04  0.12699999809E+01 0.  1.
       -4    1    3    3    0  502  0.12242063152E+04  0.45049930670E+03 -0.42450421029E+03  0.13718003372E+04  0.12699999809E+01 0. -1.
</event>
<event>
 5   0  0.1580212E-06  0.2903753E+04  0.7818609E-02  0.8271762E-01
        1   -1    0    0  501    0  0.00000000000E+00  0.00000000000E+00  0.21434891354E+04  0.21434891354E+04  0.50400001928E-02 0. -1.
       -1   -1    0    0    0  501  0.00000000000E+00  0.00000000000E+00 -0.98341763905E+03  0.98341763906E+03  0.50400001928E-02 0.  1.
    10030    2    1    2    0    0  0.00000000000E+00  0.00000000000E+00  0.11600714963E+04  0.31269067744E+04  0.29037527614E+04 0.  0.
        4    1    3    3  502    0 -0.12052416580E+03  0.79914116545E+03 -0.71880397027E+03  0.10815883863E+04  0.12699999809E+01 0.  1.
       -4    1    3    3    0  502  0.12052416580E+03 -0.79914116545E+03  0.18788754666E+04  0.20453183881E+04  0.12699999809E+01 0. -1.
</event>
<event>
 5   0  0.1580212E-06  0.2938131E+04  0.7818609E-02  0.8261622E-01
       -1   -1    0    0    0  501  0.00000000000E+00  0.00000000000E+00  0.11993827665E+04  0.11993827666E+04  0.50400001928E-02 0. -1.
        1   -1    0    0  501    0  0.00000000000E+00  0.00000000000E+00 -0.17993863609E+04  0.17993863609E+04  0.50400001928E-02 0.  1.
    10030    2    1    2    0    0  0.00000000000E+00  0.00000000000E+00 -0.60000359437E+03  0.29987691275E+04  0.29381306926E+04 0.  0.
        4    1    3    3  502    0 -0.10193887032E+04  0.33766489989E+03  0.72317511381E+03  0.12946639607E+04  0.12699999809E+01 0. -1.
       -4    1    3    3    0  502  0.10193887032E+04 -0.33766489989E+03 -0.13231787082E+04  0.17041051668E+04  0.12699999809E+01 0.  1.
</event>
<event>
 5   0  0.1543678E-06  0.2880232E+04  0.7818609E-02  0.8278784E-01
       -1   -1    0    0    0  501  0.00000000000E+00  0.00000000000E+00  0.12278918411E+04  0.12278918411E+04  0.50400001928E-02 0.  1.
        1   -1    0    0  501    0  0.00000000000E+00  0.00000000000E+00 -0.16890197792E+04  0.16890197792E+04  0.50400001928E-02 0. -1.
    10030    2    1    2    0    0  0.00000000000E+00  0.00000000000E+00 -0.46112793809E+03  0.29169116203E+04  0.28802316618E+04 0.  0.
        3    1    3    3  502    0  0.62295767086E+03  0.12468338562E+04  0.13635187865E+03  0.14004509165E+04  0.10100000352E+00 0.  1.
       -3    1    3    3    0  502 -0.62295767086E+03 -0.12468338562E+04 -0.59747981673E+03  0.15164607038E+04  0.10100000352E+00 0. -1.
</event>
<event>
 5   0  0.4162450E-06  0.2914204E+04  0.7818609E-02  0.8268664E-01
        2   -1    0    0  501    0  0.00000000000E+00  0.00000000000E+00  0.22522416286E+04  0.22522416286E+04  0.25500000920E-02 0.  1.
       -2   -1    0    0    0  501  0.00000000000E+00  0.00000000000E+00 -0.94268158185E+03  0.94268158185E+03  0.25500000920E-02 0. -1.
    10030    2    1    2    0    0  0.00000000000E+00  0.00000000000E+00  0.13095600467E+04  0.31949232105E+04  0.29142043176E+04 0.  0.
        2    1    3    3  502    0  0.11885636510E+04 -0.44382539373E+03  0.14403829821E+04  0.19194706739E+04  0.25500000920E-02 0.  1.
       -2    1    3    3    0  502 -0.11885636510E+04  0.44382539373E+03 -0.13082293533E+03  0.12754525366E+04  0.25500000920E-02 0. -1.
</event>
<event>
 5   0  0.1543678E-06  0.2897038E+04  0.7818609E-02  0.8273759E-01
        1   -1    0    0  501    0  0.00000000000E+00  0.00000000000E+00  0.19173107680E+04  0.19173107680E+04  0.50400001928E-02 0.  1.
       -1   -1    0    0    0  501  0.00000000000E+00  0.00000000000E+00 -0.10943489814E+04  0.10943489814E+04  0.50400001928E-02 0. -1.
    10030    2    1    2    0    0  0.00000000000E+00  0.00000000000E+00  0.82296178659E+03  0.30116597494E+04  0.28970378569E+04 0.  0.
        3    1    3    3  502    0  0.81949789755E+03  0.11909011504E+04  0.50667193103E+03  0.15318416400E+04  0.10100000352E+00 0.  1.
       -3    1    3    3    0  502 -0.81949789755E+03 -0.11909011504E+04  0.31628985556E+03  0.14798181094E+04  0.10100000352E+00 0. -1.
</event>
<event>
 5   0  0.1602873E-06  0.2877478E+04  0.7818609E-02  0.8279610E-01
        1   -1    0    0  501    0  0.00000000000E+00  0.00000000000E+00  0.16458243890E+04  0.16458243890E+04  0.50400001928E-02 0.  1.
       -1   -1    0    0    0  501  0.00000000000E+00  0.00000000000E+00 -0.12577099787E+04  0.12577099787E+04  0.50400001928E-02 0. -1.
    10030    2    1    2    0    0  0.00000000000E+00  0.00000000000E+00  0.38811441032E+03  0.29035343677E+04  0.28774778938E+04 0.  0.
        1    1    3    3  502    0 -0.12222973464E+04 -0.66103581732E+03  0.57024759232E+03  0.15020524197E+04  0.50400001928E-02 0.  1.
       -1    1    3    3    0  502  0.12222973464E+04  0.66103581732E+03 -0.18213318200E+03  0.14014819481E+04  0.50400001928E-02 0. -1.
</event>
<event>
 5   0  0.4148677E-06  0.2916912E+04  0.7818609E-02  0.8267863E-01
        2   -1    0    0  501    0  0.00000000000E+00  0.00000000000E+00  0.70810228799E+03  0.70810228799E+03  0.25500000920E-02 0.  1.
       -2   -1    0    0    0  501  0.00000000000E+00  0.00000000000E+00 -0.30039364518E+04  0.30039364518E+04  0.25500000920E-02 0. -1.
    10030    2    1    2    0    0  0.00000000000E+00  0.00000000000E+00 -0.22958341638E+04  0.37120387398E+04  0.29169122541E+04 0.  0.
        5    1    3    3  502    0 -0.70885689246E+03 -0.12034839907E+04 -0.61370070825E+03  0.15256154362E+04  0.46999998093E+01 0. -1.
       -5    1    3    3    0  502  0.70885689246E+03  0.12034839907E+04 -0.16821334555E+04  0.21864233035E+04  0.46999998093E+01 0.  1.
</event>
<event>
 5   0  0.1550278E-06  0.2859584E+04  0.7818609E-02  0.8285005E-01
       -1   -1    0    0    0  501  0.00000000000E+00  0.00000000000E+00  0.12034608628E+04  0.12034608628E+04  0.50400001928E-02 0.  1.
        1   -1    0    0  501    0  0.00000000000E+00  0.00000000000E+00 -0.16986881028E+04  0.16986881028E+04  0.50400001928E-02 0. -1.
    10030    2    1    2    0    0  0.00000000000E+00  0.00000000000E+00 -0.49522724000E+03  0.29021489656E+04  0.28595836409E+04 0.  0.
        2    1    3    3  502    0  0.11453749592E+04 -0.74673020149E+03  0.17671865812E+03  0.13786657590E+04  0.25500000920E-02 0.  1.
       -2    1    3    3    0  502 -0.11453749592E+04  0.74673020149E+03 -0.67194589812E+03  0.15234832066E+04  0.25500000920E-02 0. -1.
</event>
<event>
 5   0  0.1511126E-06  0.2877866E+04  0.7818609E-02  0.8279494E-01
       -1   -1    0    0    0  501  0.00000000000E+00  0.00000000000E+00  0.91844239860E+03  0.91844239861E+03  0.50400001928E-02 0. -1.
        1   -1    0    0  501    0  0.00000000000E+00  0.00000000000E+00 -0.22543906136E+04  0.22543906136E+04  0.50400001928E-02 0.  1.
    10030    2    1    2    0    0  0.00000000000E+00  0.00000000000E+00 -0.13359482150E+04  0.31728330123E+04  0.28778658222E+04 0.  0.
        5    1    3    3  502    0  0.95957390078E+03 -0.74962926606E+03  0.17727354786E+03  0.12305178212E+04  0.46999998093E+01 0. -1.
       -5    1    3    3    0  502 -0.95957390078E+03  0.74962926606E+03 -0.15132217629E+04  0.19423151910E+04  0.46999998093E+01 0.  1.
</event>
<event>
 5   0  0.1580212E-06  0.2897340E+04  0.7818609E-02  0.8273669E-01
       -1   -1    0    0    0  501  0.00000000000E+00  0.00000000000E+00  0.94967194848E+03  0.94967194849E+03  0.50400001928E-02 0.  1.
        1   -1    0    0  501    0  0.00000000000E+00  0.00000000000E+00 -0.22098629901E+04  0.22098629901E+04  0.50400001928E-02 0. -1.
    10030    2    1    2    0    0  0.00000000000E+00  0.00000000000E+00 -0.12601910416E+04  0.31595349386E+04  0.28973400848E+04 0.  0.
        4    1    3    3  502    0  0.93703477770E+03 -0.24261782231E+03  0.54528698773E+03  0.11109622380E+04  0.12699999809E+01 0.  1.
       -4    1    3    3    0  502 -0.93703477770E+03  0.24261782231E+03 -0.18054780293E+04  0.20485727006E+04  0.12699999809E+01 0. -1.
</event>
<event>
 5   0  0.1580212E-06  0.2899574E+04  0.7818609E-02  0.8273004E-01
        1   -1    0    0  501    0  0.00000000000E+00  0.00000000000E+00  0.19506198055E+04  0.19506198055E+04  0.50400001928E-02 0.  1.
       -1   -1    0    0    0  501  0.00000000000E+00  0.00000000000E+00 -0.10775461196E+04  0.10775461196E+04  0.50400001928E-02 0. -1.
    10030    2    1    2    0    0  0.00000000000E+00  0.00000000000E+00  0.87307368590E+03  0.30281659251E+04  0.28995743151E+04 0.  0.
        4    1    3    3  502    0 -0.10153908809E+04 -0.48143475588E+03  0.13931754802E+04  0.17898987671E+04  0.12699999809E+01 0.  1.
       -4    1    3    3    0  502  0.10153908809E+04  0.48143475588E+03 -0.52010179429E+03  0.12382671580E+04  0.12699999809E+01 0. -1.
</event>
<event>
 5   0  0.4224163E-06  0.2944140E+04  0.7818609E-02  0.8259864E-01
        2   -1    0    0  501    0  0.00000000000E+00  0.00000000000E+00  0.26606019302E+04  0.26606019302E+04  0.25500000920E-02 0.  1.
       -2   -1    0    0    0  501  0.00000000000E+00  0.00000000000E+00 -0.81447351029E+03  0.81447351030E+03  0.25500000920E-02 0. -1.
    10030    2    1    2    0    0  0.00000000000E+00  0.00000000000E+00  0.18461284199E+04  0.34750754405E+04  0.29441398021E+04 0.  0.
        4    1    3    3  502    0  0.91259686916E+03 -0.11538468302E+04  0.86068895793E+03  0.17044009647E+04  0.12699999809E+01 0.  1.
       -4    1    3    3    0  502 -0.91259686916E+03  0.11538468302E+04  0.98543946193E+03  0.17706744758E+04  0.12699999809E+01 0. -1.
</event>
<event>
 5   0  0.1543678E-06  0.2903329E+04  0.7818609E-02  0.8271888E-01
        1   -1    0    0  501    0  0.00000000000E+00  0.00000000000E+00  0.12160900190E+04  0.12160900190E+04  0.50400001928E-02 0. -1.
       -1   -1    0    0    0  501  0.00000000000E+00  0.00000000000E+00 -0.17328736469E+04  0.17328736469E+04  0.50400001928E-02 0.  1.
    10030    2    1    2    0    0  0.00000000000E+00  0.00000000000E+00 -0.51678362796E+03  0.29489636659E+04  0.29033293621E+04 0.  0.
        3    1    3    3  502    0 -0.17830535576E+03 -0.13742689037E+04 -0.69753275176E+03  0.15514379683E+04  0.10100000352E+00 0.  1.
       -3    1    3    3    0  502  0.17830535576E+03  0.13742689037E+04  0.18074912380E+03  0.13975256976E+04  0.10100000352E+00 0. -1.
</event>
<event>
 5   0  0.4162450E-06  0.2885762E+04  0.7818609E-02  0.8277126E-01
       -2   -1    0    0    0  501  0.00000000000E+00  0.00000000000E+00  0.91691576836E+03  0.91691576837E+03  0.25500000920E-02 0. -1.
        2   -1    0    0  501    0  0.00000000000E+00  0.00000000000E+00 -0.22705521373E+04  0.22705521373E+04  0.25500000920E-02 0.  1.
    10030    2    1    2    0    0  0.00000000000E+00  0.00000000000E+00 -0.13536363689E+04  0.31874679057E+04  0.28857616378E+04 0.  0.
        2    1    3    3  502    0 -0.41624327941E+03 -0.31504698735E+03  0.80895219520E+03  0.96276514583E+03  0.25500000920E-02 0. -1.
       -2    1    3    3    0  502  0.41624327941E+03  0.31504698735E+03 -0.21625885641E+04  0.22247027598E+04  0.25500000920E-02 0.  1.
</event>
<event>
 5   0  0.4148677E-06  0.2859801E+04  0.7818609E-02  0.8284939E-01
       -2   -1    0    0    0  501  0.00000000000E+00  0.00000000000E+00  0.10275734633E+04  0.10275734633E+04  0.25500000920E-02 0.  1.
        2   -1    0    0  501    0  0.00000000000E+00  0.00000000000E+00 -0.19897504601E+04  0.19897504601E+04  0.25500000920E-02 0. -1.
    10030    2    1    2    0    0  0.00000000000E+00  0.00000000000E+00 -0.96217699680E+03  0.30173239233E+04  0.28598005324E+04 0.  0.
        5    1    3    3  502    0  0.10549372598E+04 -0.71644928960E+03  0.20137947802E+03  0.12910336908E+04  0.46999998093E+01 0.  1.
       -5    1    3    3    0  502 -0.10549372598E+04  0.71644928960E+03 -0.11635564748E+04  0.17262902325E+04  0.46999998093E+01 0. -1.
</event>
<event>
 5   0  0.4187518E-06  0.2842108E+04  0.7818609E-02  0.8290313E-01
        2   -1    0    0  501    0  0.00000000000E+00  0.00000000000E+00  0.15625744785E+04  0.15625744785E+04  0.25500000920E-02 0. -1.
       -2   -1    0    0    0  501  0.00000000000E+00  0.00000000000E+00 -0.12923510750E+04  0.12923510750E+04  0.25500000920E-02 0.  1.
    10030    2    1    2    0    0  0.00000000000E+00  0.00000000000E+00  0.27022340355E+03  0.28549255535E+04  0.28421082366E+04 0.  0.
        3    1    3    3  502    0 -0.44953897267E+03 -0.12178990731E+04  0.71567261517E+03  0.14824138230E+04  0.10100000352E+00 0. -1.
       -3    1    3    3    0  502  0.44953897267E+03  0.12178990731E+04 -0.44544921162E+03  0.13725117306E+04  0.10100000352E+00 0.  1.
</event>
<event>
 5   0  0.1550278E-06  0.2637935E+04  0.7818609E-02  0.8355429E-01
        1   -1    0    0  501    0  0.00000000000E+00  0.00000000000E+00  0.20837789705E+04  0.20837789705E+04  0.50400001928E-02 0.  1.
       -1   -1    0    0    0  501  0.00000000000E+00  0.00000000000E+00 -0.83486548180E+03  0.83486548181E+03  0.50400001928E-02 0. -1.
    10030    2    1    2    0    0  0.00000000000E+00  0.00000000000E+00  0.12489134887E+04  0.29186444523E+04  0.26379349000E+04 0.  0.
        2    1    3    3  502    0  0.30296742111E+03 -0.70451500616E+03  0.18117485716E+04  0.19673747836E+04  0.25500000920E-02 0.  1.
       -2    1    3    3    0  502 -0.30296742111E+03  0.70451500616E+03 -0.56283508292E+03  0.95126966877E+03  0.25500000920E-02 0. -1.
</event>
<event>
 5   0  0.4187518E-06  0.2907788E+04  0.7818609E-02  0.8270564E-01
        2   -1    0    0  501    0  0.00000000000E+00  0.00000000000E+00  0.14541546894E+04  0.14541546894E+04  0.25500000920E-02 0.  1.
       -2   -1    0    0    0  501  0.00000000000E+00  0.00000000000E+00 -0.14536333540E+04  0.14536333540E+04  0.25500000920E-02 0. -1.
    10030    2    1    2    0    0  0.00000000000E+00  0.00000000000E+00  0.52133538512E+00  0.29077880433E+04  0.29077879966E+04 0.  0.
        3    1    3    3  502    0  0.90400126349E+03 -0.71164151825E+03 -0.88864643577E+03  0.14537346501E+04  0.10100000352E+00 0. -1.
       -3    1    3    3    0  502 -0.90400126349E+03  0.71164151825E+03  0.88916777116E+03  0.14540533932E+04  0.10100000352E+00 0.  1.
</event>
<event>
 5   0  0.1511126E-06  0.2888031E+04  0.7818609E-02  0.8276448E-01
        1   -1    0    0  501    0  0.00000000000E+00  0.00000000000E+00  0.28011787197E+04  0.28011787197E+04  0.50400001928E-02 0.  1.
       -1   -1    0    0    0  501  0.00000000000E+00  0.00000000000E+00 -0.74439404446E+03  0.74439404447E+03  0.50400001928E-02 0. -1.
    10030    2    1    2    0    0  0.00000000000E+00  0.00000000000E+00  0.20567846752E+04  0.35455727641E+04  0.28880309946E+04 0.  0.
        5    1    3    3  502    0 -0.39179492185E+03 -0.13762604138E+04  0.12663298037E+04  0.19108137662E+04  0.46999998093E+01 0. -1.
       -5    1    3    3    0  502  0.39179492185E+03  0.13762604138E+04  0.79045487146E+03  0.16347589979E+04  0.46999998093E+01 0.  1.
</event>
<event>
 5   0  0.1543678E-06  0.2881442E+04  0.7818609E-02  0.8278420E-01
        1   -1    0    0  501    0  0.00000000000E+00  0.00000000000E+00  0.10218040606E+04  0.10218040606E+04  0.50400001928E-02 0.  1.
       -1   -1    0    0    0  501  0.00000000000E+00  0.00000000000E+00 -0.20313847810E+04  0.20313847810E+04  0.50400001928E-02 0. -1.
    10030    2    1    2    0    0  0.00000000000E+00  0.00000000000E+00 -0.10095807204E+04  0.30531888416E+04  0.28814421514E+04 0.  0.
        3    1    3    3  502    0 -0.14232796447E+04 -0.12523325525E+03 -0.30863788370E+03  0.14617337886E+04  0.10100000352E+00 0.  1.
       -3    1    3    3    0  502  0.14232796447E+04  0.12523325525E+03 -0.70094283671E+03  0.15914550530E+04  0.10100000352E+00 0. -1.
</event>
<event>
 5   0  0.1602873E-06  0.2884421E+04  0.7818609E-02  0.8277528E-01
        1   -1    0    0  501    0  0.00000000000E+00  0.00000000000E+00  0.24294299315E+04  0.24294299315E+04  0.50400001928E-02 0.  1.
       -1   -1    0    0    0  501  0.00000000000E+00  0.00000000000E+00 -0.85615610602E+03  0.85615610604E+03  0.50400001928E-02 0. -1.
    10030    2    1    2    0    0  0.00000000000E+00  0.00000000000E+00  0.15732738255E+04  0.32855860375E+04  0.28844210997E+04 0.  0.
        1    1    3    3  502    0  0.36022310564E+02  0.87618879125E+03  0.20908544569E+04  0.22673060589E+04  0.50400001928E-02 0.  1.
       -1    1    3    3    0  502 -0.36022310564E+02 -0.87618879125E+03 -0.51758063146E+03  0.10182799786E+04  0.50400001928E-02 0. -1.
</event>
<event>
 5   0  0.4224163E-06  0.2871165E+04  0.7818609E-02  0.8281509E-01
        2   -1    0    0  501    0  0.00000000000E+00  0.00000000000E+00  0.18491766440E+04  0.18491766440E+04  0.25500000920E-02 0.  1.
       -2   -1    0    0    0  501  0.00000000000E+00  0.00000000000E+00 -0.11144943511E+04  0.11144943511E+04  0.25500000920E-02 0. -1.
    10030    2    1    2    0    0  0.00000000000E+00  0.00000000000E+00  0.73468229296E+03  0.29636709951E+04  0.28711648673E+04 0.  0.
        4    1    3    3  502    0  0.10925258793E+04 -0.48777005713E+02 -0.59262438638E+03  0.12438638468E+04  0.12699999809E+01 0. -1.
       -4    1    3    3    0  502 -0.10925258793E+04  0.48777005713E+02  0.13273066793E+04  0.17198071482E+04  0.12699999809E+01 0.  1.
</event>
<event>
 5   0  0.1602873E-06  0.2740451E+04  0.7818609E-02  0.8321998E-01
        1   -1    0    0  501    0  0.00000000000E+00  0.00000000000E+00  0.11265800477E+04  0.11265800477E+04  0.50400001928E-02 0.  1.
       -1   -1    0    0    0  501  0.00000000000E+00  0.00000000000E+00 -0.16665636965E+04  0.16665636965E+04  0.50400001928E-02 0. -1.
    10030    2    1    2    0    0  0.00000000000E+00  0.00000000000E+00 -0.53998364876E+03  0.27931437442E+04  0.27404506263E+04 0.  0.
        1    1    3    3  502    0 -0.12302460945E+04 -0.45930006474E+03  0.12875353495E+03  0.13194845491E+04  0.50400001928E-02 0.  1.
       -1    1    3    3    0  502  0.12302460945E+04  0.45930006474E+03 -0.66873718371E+03  0.14736591951E+04  0.50400001928E-02 0. -1.
</event>
<event>
 5   0  0.1360125E-06  0.2897384E+04  0.7818609E-02  0.8273656E-01
        4   -1    0    0  501    0  0.00000000000E+00  0.00000000000E+00  0.12828957029E+04  0.12828963315E+04  0.12699999809E+01 0.  1.
       -4   -1    0    0    0  501  0.00000000000E+00  0.00000000000E+00 -0.16359137750E+04  0.16359142679E+04  0.12699999809E+01 0. -1.
    10030    2    1    2    0    0  0.00000000000E+00  0.00000000000E+00 -0.35301807209E+03  0.29188105994E+04  0.28973839159E+04 0.  0.
        3    1    3    3  502    0 -0.97354194277E+03 -0.45404533502E+03 -0.11556884986E+04  0.15778330066E+04  0.10100000352E+00 0. -1.
       -3    1    3    3    0  502  0.97354194277E+03  0.45404533502E+03  0.80267042655E+03  0.13409775928E+04  0.10100000352E+00 0.  1.
</event>
<event>
 5   0  0.1511126E-06  0.2921028E+04  0.7818609E-02  0.8266649E-01
        1   -1    0    0  501    0  0.00000000000E+00  0.00000000000E+00  0.20774608450E+04  0.20774608450E+04  0.50400001928E-02 0. -1.
       -1   -1    0    0    0  501  0.00000000000E+00  0.00000000000E+00 -0.10267825896E+04  0.10267825896E+04  0.50400001928E-02 0.  1.
    10030    2    1    2    0    0  0.00000000000E+00  0.00000000000E+00  0.10506782554E+04  0.31042434346E+04  0.29210276454E+04 0.  0.
        5    1    3    3  502    0  0.94855043564E+03 -0.38332726317E+03 -0.58233789494E+03  0.11772116350E+04  0.46999998093E+01 0.  1.
       -5    1    3    3    0  502 -0.94855043564E+03  0.38332726317E+03  0.16330161503E+04  0.19270317997E+04  0.46999998093E+01 0. -1.
</event>
<event>
 5   0  0.4162450E-06  0.2894323E+04  0.7818609E-02  0.8274568E-01
       -2   -1    0    0    0  501  0.00000000000E+00  0.00000000000E+00  0.16656133120E+04  0.16656133120E+04  0.25500000920E-02 0.  1.
        2   -1    0    0  501    0  0.00000000000E+00  0.00000000000E+00 -0.12573607413E+04  0.12573607413E+04  0.25500000920E-02 0. -1.
    10030    2    1    2    0    0  0.00000000000E+00  0.00000000000E+00  0.40825257067E+03  0.29229740533E+04  0.28943232637E+04 0.  0.
        2    1    3    3  502    0  0.76077255835E+03  0.13748041338E+03 -0.10313401356E+04  0.12889291000E+04  0.25500000920E-02 0. -1.
       -2    1    3    3    0  502 -0.76077255835E+03 -0.13748041338E+03  0.14395927062E+04  0.16340449533E+04  0.25500000920E-02 0.  1.
</event>
<event>
 5   0  0.4224163E-06  0.2888862E+04  0.7818609E-02  0.8276199E-01
        2   -1    0    0  501    0  0.00000000000E+00  0.00000000000E+00  0.14784245478E+04  0.14784245478E+04  0.25500000920E-02 0. -1.
       -2   -1    0    0    0  501  0.00000000000E+00  0.00000000000E+00 -0.14112187867E+04  0.14112187867E+04  0.25500000920E-02 0.  1.
    10030    2    1    2    0    0  0.00000000000E+00  0.00000000000E+00  0.67205761139E+02  0.28896433345E+04  0.28888617112E+04 0.  0.
        4    1    3    3  502    0  0.81063127964E+03 -0.29509513889E+02  0.12290768643E+04  0.14726253543E+04  0.12699999809E+01 0. -1.
       -4    1    3    3    0  502 -0.81063127964E+03  0.29509513889E+02 -0.11618711032E+04  0.14170179802E+04  0.12699999809E+01 0.  1.
</event>
<event>
 5   0  0.4162450E-06  0.2932849E+04  0.7818609E-02  0.8263170E-01
        2   -1    0    0  501    0  0.00000000000E+00  0.00000000000E+00  0.13541513279E+04  0.13541513279E+04  0.25500000920E-02 0. -1.
       -2   -1    0    0    0  501  0.00000000000E+00  0.00000000000E+00 -0.15880063872E+04  0.15880063872E+04  0.25500000920E-02 0.  1.
    10030    2    1    2    0    0  0.00000000000E+00  0.00000000000E+00 -0.23385505924E+03  0.29421577151E+04  0.29328490981E+04 0.  0.
        2    1    3    3  502    0 -0.13004536967E+04 -0.65267588896E+03 -0.29981173294E+03  0.14856152626E+04  0.25500000920E-02 0.  1.
       -2    1    3    3    0  502  0.13004536967E+04  0.65267588896E+03  0.65956673705E+02  0.14565424525E+04  0.25500000920E-02 0. -1.
</event>
<event>
 5   0  0.1580212E-06  0.2803201E+04  0.7818609E-02  0.8302275E-01
        1   -1    0    0  501    0  0.00000000000E+00  0.00000000000E+00  0.19629443244E+04  0.19629443244E+04  0.50400001928E-02 0.  1.
       -1   -1    0    0    0  501  0.00000000000E+00  0.00000000000E+00 -0.10007844740E+04  0.10007844740E+04  0.50400001928E-02 0. -1.
    10030    2    1    2    0    0  0.00000000000E+00  0.00000000000E+00  0.96215985037E+03  0.29637287985E+04  0.28032011724E+04 0.  0.
        4    1    3    3  502    0  0.11759829084E+04 -0.16830082926E+03  0.12674622912E+04  0.17371595328E+04  0.12699999809E+01 0.  1.
       -4    1    3    3    0  502 -0.11759829084E+04  0.16830082926E+03 -0.30530244082E+03  0.12265692656E+04  0.12699999809E+01 0. -1.
</event>
<event>
 5   0  0.4148677E-06  0.2880583E+04  0.7818609E-02  0.8278678E-01
       -2   -1    0    0    0  501  0.00000000000E+00  0.00000000000E+00  0.14578825007E+04  0.14578825007E+04  0.25500000920E-02 0.  1.
        2   -1    0    0  501    0  0.00000000000E+00  0.00000000000E+00 -0.14229123872E+04  0.14229123872E+04  0.25500000920E-02 0. -1.
    10030    2    1    2    0    0  0.00000000000E+00  0.00000000000E+00  0.34970113543E+02  0.28807948879E+04  0.28805826281E+04 0.  0.
        5    1    3    3  502    0 -0.19219602648E+03 -0.86679728416E+03 -0.11166796950E+04  0.14266297612E+04  0.46999998093E+01 0. -1.
       -5    1    3    3    0  502  0.19219602648E+03  0.86679728416E+03  0.11516498085E+04  0.14541651267E+04  0.46999998093E+01 0.  1.
</event>
<event>
 5   0  0.1550278E-06  0.2951065E+04  0.7818609E-02  0.8257844E-01
       -1   -1    0    0    0  501  0.00000000000E+00  0.00000000000E+00  0.16819334404E+04  0.16819334404E+04  0.50400001928E-02 0.  1.
        1   -1    0    0  501    0  0.00000000000E+00  0.00000000000E+00 -0.12944607816E+04  0.12944607816E+04  0.50400001928E-02 0. -1.
    10030    2    1    2    0    0  0.00000000000E+00  0.00000000000E+00  0.38747265880E+03  0.29763942221E+04  0.29510654862E+04 0.  0.
        2    1    3    3  502    0 -0.29835397640E+02  0.59155076287E+03 -0.11692971202E+04  0.13107548251E+04  0.25500000920E-02 0. -1.
       -2    1    3    3    0  502  0.29835397640E+02 -0.59155076287E+03  0.15567697790E+04  0.16656393970E+04  0.25500000920E-02 0.  1.
</event>
<event>
 5   0  0.1602873E-06  0.2878460E+04  0.7818609E-02  0.8279315E-01
       -1   -1    0    0    0  501  0.00000000000E+00  0.00000000000E+00  0.12646673707E+04  0.12646673708E+04  0.50400001928E-02 0.  1.
        1   -1    0    0  501    0  0.00000000000E+00  0.00000000000E+00 -0.16378881345E+04  0.16378881345E+04  0.50400001928E-02 0. -1.
    10030    2    1    2    0    0  0.00000000000E+00  0.00000000000E+00 -0.37322076372E+03  0.29025555052E+04  0.28784604778E+04 0.  0.
        1    1    3    3  502    0  0.10232427188E+04  0.67353055938E+03 -0.94839071404E+03  0.15492301387E+04  0.50400001928E-02 0. -1.
       -1    1    3    3    0  502 -0.10232427188E+04 -0.67353055938E+03  0.57516995031E+03  0.13533253666E+04  0.50400001928E-02 0.  1.
</event>
<event>
 5   0  0.1511126E-06  0.2894918E+04  0.7818609E-02  0.8274391E-01
       -1   -1    0    0    0  501  0.00000000000E+00  0.00000000000E+00  0.13445909850E+04  0.13445909850E+04  0.50400001928E-02 0.  1.
        1   -1    0    0  501    0  0.00000000000E+00  0.00000000000E+00 -0.15581973700E+04  0.15581973700E+04  0.50400001928E-02 0. -1.
    10030    2    1    2    0    0  0.00000000000E+00  0.00000000000E+00 -0.21360638500E+03  0.29027883549E+04  0.28949184006E+04 0.  0.
        5    1    3    3  502    0  0.50964692869E+03 -0.12280447268E+04  0.46683788214E+03  0.14091818694E+04  0.46999998093E+01 0.  1.
       -5    1    3    3    0  502 -0.50964692869E+03  0.12280447268E+04 -0.68044426714E+03  0.14936064855E+04  0.46999998093E+01 0. -1.
</event>
<event>
 5   0  0.1580212E-06  0.2884849E+04  0.7818609E-02  0.8277400E-01
       -1   -1    0    0    0  501  0.00000000000E+00  0.00000000000E+00  0.14615260556E+04  0.14615260556E+04  0.50400001928E-02 0. -1.
        1   -1    0    0  501    0  0.00000000000E+00  0.00000000000E+00 -0.14235722537E+04  0.14235722537E+04  0.50400001928E-02 0.  1.
    10030    2    1    2    0    0  0.00000000000E+00  0.00000000000E+00  0.37953801892E+02  0.28850983093E+04  0.28848486551E+04 0.  0.
        4    1    3    3  502    0 -0.10894239983E+04  0.45063763551E+02 -0.92540929151E+03  0.14301256451E+04  0.12699999809E+01 0.  1.
       -4    1    3    3    0  502  0.10894239983E+04 -0.45063763551E+02  0.96336309340E+03  0.14549726642E+04  0.12699999809E+01 0. -1.
</event>
<event>
 5   0  0.4115143E-06  0.2888110E+04  0.7818609E-02  0.8276424E-01
        2   -1    0    0  501    0  0.00000000000E+00  0.00000000000E+00  0.18161761115E+04  0.18161761115E+04  0.25500000920E-02 0. -1.
       -2   -1    0    0    0  501  0.00000000000E+00  0.00000000000E+00 -0.11481790821E+04  0.11481790821E+04  0.25500000920E-02 0.  1.
    10030    2    1    2    0    0  0.00000000000E+00  0.00000000000E+00  0.66799702936E+03  0.29643551936E+04  0.28881104000E+04 0.  0.
        1    1    3    3  502    0 -0.56926076203E+02  0.72773909866E+03  0.16128654269E+04  0.17703614488E+04  0.50400001928E-02 0. -1.
       -1    1    3    3    0  502  0.56926076203E+02 -0.72773909866E+03 -0.94486839758E+03  0.11939937448E+04  0.50400001928E-02 0.  1.
</event>
<event>
 5   0  0.1602873E-06  0.2903856E+04  0.7818609E-02  0.8271731E-01
        1   -1    0    0  501    0  0.00000000000E+00  0.00000000000E+00  0.14615610040E+04  0.14615610040E+04  0.50400001928E-02 0.  1.
       -1   -1    0    0    0  501  0.00000000000E+00  0.00000000000E+00 -0.14423585291E+04  0.14423585291E+04  0.50400001928E-02 0. -1.
    10030    2    1    2    0    0  0.00000000000E+00  0.00000000000E+00  0.19202474919E+02  0.29039195330E+04  0.29038560432E+04 0.  0.
        1    1    3    3  502    0  0.96394773698E+02  0.32951962672E+02  0.14579827223E+04  0.14615373422E+04  0.50400001928E-02 0.  1.
       -1    1    3    3    0  502 -0.96394773698E+02 -0.32951962672E+02 -0.14387802473E+04  0.14423821908E+04  0.50400001928E-02 0. -1.
</event>
<event>
 5   0  0.4187518E-06  0.2908726E+04  0.7818609E-02  0.8270286E-01
       -2   -1    0    0    0  501  0.00000000000E+00  0.00000000000E+00  0.10773414119E+04  0.10773414119E+04  0.25500000920E-02 0.  1.
        2   -1    0    0  501    0  0.00000000000E+00  0.00000000000E+00 -0.19633260092E+04  0.19633260092E+04  0.25500000920E-02 0. -1.
    10030    2    1    2    0    0  0.00000000000E+00  0.00000000000E+00 -0.88598459734E+03  0.30406674211E+04  0.29087264669E+04 0.  0.
        3    1    3    3  502    0 -0.67577673344E+03  0.12316614688E+04 -0.83623158498E+03  0.16349151174E+04  0.10100000352E+00 0.  1.
       -3    1    3    3    0  502  0.67577673344E+03 -0.12316614688E+04 -0.49753012361E+02  0.14057523038E+04  0.10100000352E+00 0. -1.
</event>
<event>
 5   0  0.4115143E-06  0.2987108E+04  0.7818609E-02  0.8247422E-01
       -2   -1    0    0    0  501  0.00000000000E+00  0.00000000000E+00  0.15127321511E+04  0.15127321511E+04  0.25500000920E-02 0.  1.
        2   -1    0    0  501    0  0.00000000000E+00  0.00000000000E+00 -0.14746186480E+04  0.14746186480E+04  0.25500000920E-02 0. -1.
    10030    2    1    2    0    0  0.00000000000E+00  0.00000000000E+00  0.38113503084E+02  0.29873507990E+04  0.29871076575E+04 0.  0.
        1    1    3    3  502    0  0.11659251593E+04  0.71649582006E+03  0.61739910959E+03  0.15013092279E+04  0.50400001928E-02 0.  1.
       -1    1    3    3    0  502 -0.11659251593E+04 -0.71649582006E+03 -0.57928560650E+03  0.14860415711E+04  0.50400001928E-02 0. -1.
</event>
<event>
 5   0  0.4115143E-06  0.2897145E+04  0.7818609E-02  0.8273727E-01
       -2   -1    0    0    0  501  0.00000000000E+00  0.00000000000E+00  0.81339066595E+03  0.81339066595E+03  0.25500000920E-02 0.  1.
        2   -1    0    0  501    0  0.00000000000E+00  0.00000000000E+00 -0.25797717682E+04  0.25797717682E+04  0.25500000920E-02 0. -1.
    10030    2    1    2    0    0  0.00000000000E+00  0.00000000000E+00 -0.17663811023E+04  0.33931624342E+04  0.28971449923E+04 0.  0.
        1    1    3    3  502    0 -0.43520401576E+03  0.13066851421E+04 -0.35740549564E+03  0.14228728981E+04  0.50400001928E-02 0.  1.
       -1    1    3    3    0  502  0.43520401576E+03 -0.13066851421E+04 -0.14089756066E+04  0.19702895361E+04  0.50400001928E-02 0. -1.
</event>
<event>
 5   0  0.4148677E-06  0.2901617E+04  0.7818609E-02  0.8272396E-01
       -2   -1    0    0    0  501  0.00000000000E+00  0.00000000000E+00  0.75222529135E+03  0.75222529135E+03  0.25500000920E-02 0. -1.
        2   -1    0    0  501    0  0.00000000000E+00  0.00000000000E+00 -0.27981587422E+04  0.27981587422E+04  0.25500000920E-02 0.  1.
    10030    2    1    2    0    0  0.00000000000E+00  0.00000000000E+00 -0.20459334508E+04  0.35503840335E+04  0.29016173249E+04 0.  0.
        5    1    3    3  502    0 -0.13636193489E+04 -0.49422022536E+03 -0.10637752669E+04  0.17987082221E+04  0.46999998093E+01 0. -1.
       -5    1    3    3    0  502  0.13636193489E+04  0.49422022536E+03 -0.98215818396E+03  0.17516758114E+04  0.46999998093E+01 0.  1.
</event>
<event>
 5   0  0.1511126E-06  0.2906776E+04  0.7818609E-02  0.8270864E-01
       -1   -1    0    0    0  501  0.00000000000E+00  0.00000000000E+00  0.14798191016E+04  0.14798191016E+04  0.50400001928E-02 0. -1.
        1   -1    0    0  501    0  0.00000000000E+00  0.00000000000E+00 -0.14274285836E+04  0.14274285836E+04  0.50400001928E-02 0.  1.
    10030    2    1    2    0    0  0.00000000000E+00  0.00000000000E+00  0.52390518012E+02  0.29072476852E+04  0.29067755911E+04 0.  0.
        5    1    3    3  502    0 -0.12987507269E+04  0.46622392571E+03  0.48255413866E+03  0.14618477302E+04  0.46999998093E+01 0. -1.
       -5    1    3    3    0  502  0.12987507269E+04 -0.46622392571E+03 -0.43016362065E+03  0.14453999550E+04  0.46999998093E+01 0.  1.
</event>
<event>
 5   0  0.4187518E-06  0.2879068E+04  0.7818609E-02  0.8279133E-01
        2   -1    0    0  501    0  0.00000000000E+00  0.00000000000E+00  0.16985195405E+04  0.16985195405E+04  0.25500000920E-02 0.  1.
       -2   -1    0    0    0  501  0.00000000000E+00  0.00000000000E+00 -0.12200379848E+04  0.12200379848E+04  0.25500000920E-02 0. -1.
    10030    2    1    2    0    0  0.00000000000E+00  0.00000000000E+00  0.47848155573E+03  0.29185575253E+04  0.28790681529E+04 0.  0.
        3    1    3    3  502    0  0.80350243700E+03 -0.63521517573E+03  0.12646203561E+04  0.16273841406E+04  0.10100000352E+00 0.  1.
       -3    1    3    3    0  502 -0.80350243700E+03  0.63521517573E+03 -0.78613880035E+03  0.12911733847E+04  0.10100000352E+00 0. -1.
</event>
<event>
 5   0  0.1580212E-06  0.3128075E+04  0.7818609E-02  0.8208075E-01
        1   -1    0    0  501    0  0.00000000000E+00  0.00000000000E+00  0.11924694040E+04  0.11924694041E+04  0.50400001928E-02 0.  1.
       -1   -1    0    0    0  501  0.00000000000E+00  0.00000000000E+00 -0.20513841144E+04  0.20513841144E+04  0.50400001928E-02 0. -1.
    10030    2    1    2    0    0  0.00000000000E+00  0.00000000000E+00 -0.85891471036E+03  0.32438535185E+04  0.31280746745E+04 0.  0.
        4    1    3    3  502    0  0.73771815969E+03 -0.13555545679E+04 -0.16618083764E+03  0.15522158205E+04  0.12699999809E+01 0.  1.
       -4    1    3    3    0  502 -0.73771815969E+03  0.13555545679E+04 -0.69273387271E+03  0.16916376979E+04  0.12699999809E+01 0. -1.
</event>
<event>
 5   0  0.1602873E-06  0.2906279E+04  0.7818609E-02  0.8271012E-01
       -1   -1    0    0    0  501  0.00000000000E+00  0.00000000000E+00  0.86262303188E+03  0.86262303190E+03  0.50400001928E-02 0. -1.
        1   -1    0    0  501    0  0.00000000000E+00  0.00000000000E+00 -0.24478990532E+04  0.24478990532E+04  0.50400001928E-02 0.  1.
    10030    2    1    2    0    0  0.00000000000E+00  0.00000000000E+00 -0.15852760213E+04  0.33105220851E+04  0.29062787912E+04 0.  0.
        1    1    3    3  502    0  0.54794357530E+03 -0.87265880963E+03 -0.19597713461E+04  0.22141543056E+04  0.50400001928E-02 0.  1.
       -1    1    3    3    0  502 -0.54794357530E+03  0.87265880963E+03  0.37449532479E+03  0.10963677796E+04  0.50400001928E-02 0. -1.
</event>
<event>
 5   0  0.1543678E-06  0.2898359E+04  0.7818609E-02  0.8273366E-01
       -1   -1    0    0    0  501  0.00000000000E+00  0.00000000000E+00  0.85317526622E+03  0.85317526623E+03  0.50400001928E-02 0. -1.
        1   -1    0    0  501    0  0.00000000000E+00  0.00000000000E+00 -0.24615362557E+04  0.24615362557E+04  0.50400001928E-02 0.  1.
    10030    2    1    2    0    0  0.00000000000E+00  0.00000000000E+00 -0.16083609895E+04  0.33147115219E+04  0.28983594327E+04 0.  0.
        3    1    3    3  502    0 -0.13788682392E+04  0.51446406556E+02 -0.29760962186E+03  0.14115579517E+04  0.10100000352E+00 0. -1.
       -3    1    3    3    0  502  0.13788682392E+04 -0.51446406556E+02 -0.13107513676E+04  0.19031535702E+04  0.10100000352E+00 0.  1.
</event>
<event>
 5   0  0.1543678E-06  0.2860764E+04  0.7818609E-02  0.8284648E-01
       -1   -1    0    0    0  501  0.00000000000E+00  0.00000000000E+00  0.12931188099E+04  0.12931188099E+04  0.50400001928E-02 0.  1.
        1   -1    0    0  501    0  0.00000000000E+00  0.00000000000E+00 -0.15822149890E+04  0.15822149890E+04  0.50400001928E-02 0. -1.
    10030    2    1    2    0    0  0.00000000000E+00  0.00000000000E+00 -0.28909617913E+03  0.28753337989E+04  0.28607635090E+04 0.  0.
        3    1    3    3  502    0  0.31676873572E+03 -0.10490607444E+03 -0.15425471161E+04  0.15782266415E+04  0.10100000352E+00 0. -1.
       -3    1    3    3    0  502 -0.31676873572E+03  0.10490607444E+03  0.12534509369E+04  0.12971071574E+04  0.10100000352E+00 0.  1.
</event>
<event>
 5   0  0.4162450E-06  0.2880078E+04  0.7818609E-02  0.8278830E-01
        2   -1    0    0  501    0  0.00000000000E+00  0.00000000000E+00  0.17892967960E+04  0.17892967960E+04  0.25500000920E-02 0.  1.
       -2   -1    0    0    0  501  0.00000000000E+00  0.00000000000E+00 -0.11589538552E+04  0.11589538552E+04  0.25500000920E-02 0. -1.
    10030    2    1    2    0    0  0.00000000000E+00  0.00000000000E+00  0.63034294076E+03  0.29482506512E+04  0.28800780683E+04 0.  0.
        2    1    3    3  502    0  0.12020013523E+04 -0.79236860474E+03  0.34845513662E+03  0.14812414519E+04  0.25500000920E-02 0.  1.
       -2    1    3    3    0  502 -0.12020013523E+04  0.79236860474E+03  0.28188780413E+03  0.14670091993E+04  0.25500000920E-02 0. -1.
</event>
<event>
 5   0  0.1511126E-06  0.2892038E+04  0.7818609E-02  0.8275250E-01
       -1   -1    0    0    0  501  0.00000000000E+00  0.00000000000E+00  0.14143616566E+04  0.14143616566E+04  0.50400001928E-02 0.  1.
        1   -1    0    0  501    0  0.00000000000E+00  0.00000000000E+00 -0.14783853212E+04  0.14783853212E+04  0.50400001928E-02 0. -1.
    10030    2    1    2    0    0  0.00000000000E+00  0.00000000000E+00 -0.64023664608E+02  0.28927469779E+04  0.28920383898E+04 0.  0.
        5    1    3    3  502    0  0.83110664812E+03 -0.80467443201E+03 -0.89981314212E+03  0.14655800841E+04  0.46999998093E+01 0. -1.
       -5    1    3    3    0  502 -0.83110664812E+03  0.80467443201E+03  0.83578947751E+03  0.14271668938E+04  0.46999998093E+01 0.  1.
</event>
<event>
 5   0  0.4148677E-06  0.2928010E+04  0.7818609E-02  0.8264592E-01
       -2   -1    0    0    0  501  0.00000000000E+00  0.00000000000E+00  0.17298009861E+04  0.17298009861E+04  0.25500000920E-02 0.  1.
        2   -1    0    0  501    0  0.00000000000E+00  0.00000000000E+00 -0.12390506312E+04  0.12390506312E+04  0.25500000920E-02 0. -1.
    10030    2    1    2    0    0  0.00000000000E+00  0.00000000000E+00  0.49075035490E+03  0.29688516172E+04  0.29280102483E+04 0.  0.
        5    1    3    3  502    0  0.12529369568E+04  0.47512910718E+03  0.84325258356E+03  0.15832547792E+04  0.46999998093E+01 0. -1.
       -5    1    3    3    0  502 -0.12529369568E+04 -0.47512910718E+03 -0.35250222866E+03  0.13855968380E+04  0.46999998093E+01 0.  1.
</event>
<event>
 5   0  0.1550278E-06  0.2825931E+04  0.7818609E-02  0.8295263E-01
       -1   -1    0    0    0  501  0.00000000000E+00  0.00000000000E+00  0.94320494405E+03  0.94320494406E+03  0.50400001928E-02 0.  1.
        1   -1    0    0  501    0  0.00000000000E+00  0.00000000000E+00 -0.21166887541E+04  0.21166887541E+04  0.50400001928E-02 0. -1.
    10030    2    1    2    0    0  0.00000000000E+00  0.00000000000E+00 -0.11734838101E+04  0.30598936982E+04  0.28259308540E+04 0.  0.
        2    1    3    3  502    0 -0.88784682726E+03 -0.52733718762E+03 -0.16310125874E+04  0.19304296305E+04  0.25500000920E-02 0. -1.
       -2    1    3    3    0  502  0.88784682726E+03  0.52733718762E+03  0.45752877731E+03  0.11294640677E+04  0.25500000920E-02 0.  1.
</event>
<event>
 5   0  0.1550278E-06  0.2923383E+04  0.7818609E-02  0.8265954E-01
       -1   -1    0    0    0  501  0.00000000000E+00  0.00000000000E+00  0.10535747932E+04  0.10535747932E+04  0.50400001928E-02 0. -1.
        1   -1    0    0  501    0  0.00000000000E+00  0.00000000000E+00 -0.20278978588E+04  0.20278978589E+04  0.50400001928E-02 0.  1.
    10030    2    1    2    0    0  0.00000000000E+00  0.00000000000E+00 -0.97432306564E+03  0.30814726521E+04  0.29233830179E+04 0.  0.
        2    1    3    3  502    0  0.13107393987E+04  0.57555334010E+03 -0.17582002900E+03  0.14422940412E+04  0.25500000920E-02 0. -1.
       -2    1    3    3    0  502 -0.13107393987E+04 -0.57555334010E+03 -0.79850303664E+03  0.16391786108E+04  0.25500000920E-02 0.  1.
</event>
<event>
 5   0  0.1602873E-06  0.2882349E+04  0.7818609E-02  0.8278149E-01
       -1   -1    0    0    0  501  0.00000000000E+00  0.00000000000E+00  0.12494771167E+04  0.12494771167E+04  0.50400001928E-02 0.  1.
        1   -1    0    0  501    0  0.00000000000E+00  0.00000000000E+00 -0.16622822792E+04  0.16622822792E+04  0.50400001928E-02 0. -1.
    10030    2    1    2    0    0  0.00000000000E+00  0.00000000000E+00 -0.41280516253E+03  0.29117593959E+04  0.28823488126E+04 0.  0.
        1    1    3    3  502    0 -0.61336244655E+02  0.13738794390E+04 -0.64170170770E+03  0.15175928075E+04  0.50400001928E-02 0. -1.
       -1    1    3    3    0  502  0.61336244655E+02 -0.13738794390E+04  0.22889654517E+03  0.13941665884E+04  0.50400001928E-02 0.  1.
</event>
<event>
 5   0  0.1550278E-06  0.2837759E+04  0.7818609E-02  0.8291641E-01
       -1   -1    0    0    0  501  0.00000000000E+00  0.00000000000E+00  0.11995637095E+04  0.11995637096E+04  0.50400001928E-02 0. -1.
        1   -1    0    0  501    0  0.00000000000E+00  0.00000000000E+00 -0.16782924108E+04  0.16782924108E+04  0.50400001928E-02 0.  1.
    10030    2    1    2    0    0  0.00000000000E+00  0.00000000000E+00 -0.47872870121E+03  0.28778561203E+04  0.28377587424E+04 0.  0.
        2    1    3    3  502    0  0.10744663695E+04 -0.73496732386E+03  0.33302529207E+03  0.13437115730E+04  0.25500000920E-02 0. -1.
       -2    1    3    3    0  502 -0.10744663695E+04  0.73496732386E+03 -0.81175399328E+03  0.15341445473E+04  0.25500000920E-02 0.  1.
</event>
<event>
 5   0  0.4115143E-06  0.2893351E+04  0.7818609E-02  0.8274859E-01
       -2   -1    0    0    0  501  0.00000000000E+00  0.00000000000E+00  0.23418074915E+04  0.23418074915E+04  0.25500000920E-02 0. -1.
        2   -1    0    0  501    0  0.00000000000E+00  0.00000000000E+00 -0.89369830532E+03  0.89369830533E+03  0.25500000920E-02 0.  1.
    10030    2    1    2    0    0  0.00000000000E+00  0.00000000000E+00  0.14481091862E+04  0.32355057968E+04  0.28933505744E+04 0.  0.
        1    1    3    3  502    0  0.12376661548E+03  0.12400758114E+04  0.15456211591E+04  0.19854598865E+04  0.50400001928E-02 0. -1.
       -1    1    3    3    0  502 -0.12376661548E+03 -0.12400758114E+04 -0.97511972951E+02  0.12500459104E+04  0.50400001928E-02 0.  1.
</event>
<event>
 5   0  0.4115143E-06  0.2718594E+04  0.7818609E-02  0.8328997E-01
        2   -1    0    0  501    0  0.00000000000E+00  0.00000000000E+00  0.17396151200E+04  0.17396151200E+04  0.25500000920E-02 0. -1.
       -2   -1    0    0    0  501  0.00000000000E+00  0.00000000000E+00 -0.10621247977E+04  0.10621247977E+04  0.25500000920E-02 0.  1.
    10030    2    1    2    0    0  0.00000000000E+00  0.00000000000E+00  0.67749032232E+03  0.28017399177E+04  0.27185940171E+04 0.  0.
        1    1    3    3  502    0 -0.12227832019E+04  0.57082844418E+03  0.17052147966E+03  0.13601916948E+04  0.50400001928E-02 0.  1.
       -1    1    3    3    0  502  0.12227832019E+04 -0.57082844418E+03  0.50696884266E+03  0.14415482229E+04  0.50400001928E-02 0. -1.
</event>
<event>
 5   0  0.1580212E-06  0.2911167E+04  0.7818609E-02  0.8269563E-01
        1   -1    0    0  501    0  0.00000000000E+00  0.00000000000E+00  0.70860886242E+03  0.70860886243E+03  0.50400001928E-02 0.  1.
       -1   -1    0    0    0  501  0.00000000000E+00  0.00000000000E+00 -0.29899759736E+04  0.29899759736E+04  0.50400001928E-02 0. -1.
    10030    2    1    2    0    0  0.00000000000E+00  0.00000000000E+00 -0.22813671112E+04  0.36985848360E+04  0.29111671016E+04 0.  0.
        4    1    3    3  502    0 -0.62567742998E+03  0.13052230229E+04 -0.13360342304E+04  0.19697889388E+04  0.12699999809E+01 0. -1.
       -4    1    3    3    0  502  0.62567742998E+03 -0.13052230229E+04 -0.94533288077E+03  0.17287958972E+04  0.12699999809E+01 0.  1.
</event>
<event>
 5   0  0.4148677E-06  0.2909061E+04  0.7818609E-02  0.8270187E-01
       -2   -1    0    0    0  501  0.00000000000E+00  0.00000000000E+00  0.81252063813E+03  0.81252063814E+03  0.25500000920E-02 0.  1.
        2   -1    0    0  501    0  0.00000000000E+00  0.00000000000E+00 -0.26038211248E+04  0.26038211248E+04  0.25500000920E-02 0. -1.
    10030    2    1    2    0    0  0.00000000000E+00  0.00000000000E+00 -0.17913004867E+04  0.34163417630E+04  0.29090606057E+04 0.  0.
        5    1    3    3  502    0 -0.81493709299E+02  0.62948190264E+03 -0.24325842760E+04  0.25140360061E+04  0.46999998093E+01 0. -1.
       -5    1    3    3    0  502  0.81493709299E+02 -0.62948190264E+03  0.64128378929E+03  0.90230575683E+03  0.46999998093E+01 0.  1.
</event>
<event>
 5   0  0.1511126E-06  0.2888950E+04  0.7818609E-02  0.8276173E-01
       -1   -1    0    0    0  501  0.00000000000E+00  0.00000000000E+00  0.18817088766E+04  0.18817088766E+04  0.50400001928E-02 0. -1.
        1   -1    0    0  501    0  0.00000000000E+00  0.00000000000E+00 -0.11088371069E+04  0.11088371069E+04  0.50400001928E-02 0.  1.
    10030    2    1    2    0    0  0.00000000000E+00  0.00000000000E+00  0.77287176972E+03  0.29905459836E+04  0.28889504162E+04 0.  0.
        5    1    3    3  502    0 -0.11090755192E+04 -0.91283821201E+03  0.22888487585E+03  0.14545557690E+04  0.46999998093E+01 0. -1.
       -5    1    3    3    0  502  0.11090755192E+04  0.91283821201E+03  0.54398689387E+03  0.15359902146E+04  0.46999998093E+01 0.  1.
</event>
<event>
 5   0  0.1550278E-06  0.2907908E+04  0.7818609E-02  0.8270529E-01
       -1   -1    0    0    0  501  0.00000000000E+00  0.00000000000E+00  0.19506350706E+04  0.19506350706E+04  0.50400001928E-02 0. -1.
        1   -1    0    0  501    0  0.00000000000E+00  0.00000000000E+00 -0.10837401960E+04  0.10837401960E+04  0.50400001928E-02 0.  1.
    10030    2    1    2    0    0  0.00000000000E+00  0.00000000000E+00  0.86689487457E+03  0.30343752666E+04  0.29079075871E+04 0.  0.
        2    1    3    3  502    0  0.11906670419E+04  0.37909232138E+03 -0.34224098273E+03  0.12955801338E+04  0.25500000920E-02 0.  1.
       -2    1    3    3    0  502 -0.11906670419E+04 -0.37909232138E+03  0.12091358573E+04  0.17387951329E+04  0.25500000920E-02 0. -1.
</event>
<event>
 5   0  0.4148677E-06  0.2905494E+04  0.7818609E-02  0.8271245E-01
        2   -1    0    0  501    0  0.00000000000E+00  0.00000000000E+00  0.13320345219E+04  0.13320345219E+04  0.25500000920E-02 0.  1.
       -2   -1    0    0    0  501  0.00000000000E+00  0.00000000000E+00 -0.15843989919E+04  0.15843989919E+04  0.25500000920E-02 0. -1.
    10030    2    1    2    0    0  0.00000000000E+00  0.00000000000E+00 -0.25236447005E+03  0.29164335138E+04  0.29054942117E+04 0.  0.
        5    1    3    3  502    0 -0.70432752904E+03 -0.31594914181E+03  0.11091222192E+04  0.13513235421E+04  0.46999998093E+01 0.  1.
       -5    1    3    3    0  502  0.70432752904E+03  0.31594914181E+03 -0.13614866892E+04  0.15651099716E+04  0.46999998093E+01 0. -1.
</event>
<event>
 5   0  0.4115143E-06  0.2885159E+04  0.7818609E-02  0.8277307E-01
       -2   -1    0    0    0  501  0.00000000000E+00  0.00000000000E+00  0.18358393476E+04  0.18358393476E+04  0.25500000920E-02 0.  1.
        2   -1    0    0  501    0  0.00000000000E+00  0.00000000000E+00 -0.11335612208E+04  0.11335612208E+04  0.25500000920E-02 0. -1.
    10030    2    1    2    0    0  0.00000000000E+00  0.00000000000E+00  0.70227812676E+03  0.29694005684E+04  0.28851594702E+04 0.  0.
        1    1    3    3  502    0  0.12252514518E+04  0.72442652259E+03  0.10976768051E+03  0.14276147416E+04  0.50400001928E-02 0.  1.
       -1    1    3    3    0  502 -0.12252514518E+04 -0.72442652259E+03  0.59251044625E+03  0.15417858268E+04  0.50400001928E-02 0. -1.
</event>
<event>
 5   0  0.1580212E-06  0.2894764E+04  0.7818609E-02  0.8274437E-01
       -1   -1    0    0    0  501  0.00000000000E+00  0.00000000000E+00  0.15480278177E+04  0.15480278178E+04  0.50400001928E-02 0.  1.
        1   -1    0    0  501    0  0.00000000000E+00  0.00000000000E+00 -0.13532796771E+04  0.13532796771E+04  0.50400001928E-02 0. -1.
    10030    2    1    2    0    0  0.00000000000E+00  0.00000000000E+00  0.19474814064E+03  0.29013074949E+04  0.28947639526E+04 0.  0.
        4    1    3    3  502    0 -0.26256080659E+03  0.12850645745E+04 -0.51604195786E+03  0.14094786458E+04  0.12699999809E+01 0. -1.
       -4    1    3    3    0  502  0.26256080659E+03 -0.12850645745E+04  0.71079009850E+03  0.14918288490E+04  0.12699999809E+01 0.  1.
</event>
<event>
 5   0  0.1360125E-06  0.3054899E+04  0.7818609E-02  0.8228226E-01
        3   -1    0    0  501    0  0.00000000000E+00  0.00000000000E+00  0.19605565447E+04  0.19605565473E+04  0.10100000352E+00 0.  1.
       -3   -1    0    0    0  501  0.00000000000E+00  0.00000000000E+00 -0.11900199693E+04  0.11900199736E+04  0.10100000352E+00 0. -1.
    10030    2    1    2    0    0  0.00000000000E+00  0.00000000000E+00  0.77053657545E+03  0.31505765209E+04  0.30548986563E+04 0.  0.
        1    1    3    3  502    0 -0.76170397921E+03  0.11320407470E+04  0.10933517341E+04  0.17484642460E+04  0.50400001928E-02 0.  1.
       -1    1    3    3    0  502  0.76170397921E+03 -0.11320407470E+04 -0.32281515867E+03  0.14021122749E+04  0.50400001928E-02 0. -1.
</event>
<event>
 5   0  0.1511126E-06  0.2911948E+04  0.7818609E-02  0.8269331E-01
       -1   -1    0    0    0  501  0.00000000000E+00  0.00000000000E+00  0.11327711800E+04  0.11327711800E+04  0.50400001928E-02 0. -1.
        1   -1    0    0  501    0  0.00000000000E+00  0.00000000000E+00 -0.18713933364E+04  0.18713933364E+04  0.50400001928E-02 0.  1.
    10030    2    1    2    0    0  0.00000000000E+00  0.00000000000E+00 -0.73862215635E+03  0.30041645164E+04  0.29119481025E+04 0.  0.
        5    1    3    3  502    0  0.13879584266E+04  0.86569836573E+02  0.75522727408E+02  0.13927127137E+04  0.46999998093E+01 0.  1.
       -5    1    3    3    0  502 -0.13879584266E+04 -0.86569836573E+02 -0.81414488376E+03  0.16114518027E+04  0.46999998093E+01 0. -1.
</event>
<event>
 5   0  0.1543678E-06  0.2899003E+04  0.7818609E-02  0.8273174E-01
        1   -1    0    0  501    0  0.00000000000E+00  0.00000000000E+00  0.15618090793E+04  0.15618090793E+04  0.50400001928E-02 0. -1.
       -1   -1    0    0    0  501  0.00000000000E+00  0.00000000000E+00 -0.13452700105E+04  0.13452700105E+04  0.50400001928E-02 0.  1.
    10030    2    1    2    0    0  0.00000000000E+00  0.00000000000E+00  0.21653906881E+03  0.29070790898E+04  0.28990032194E+04 0.  0.
        3    1    3    3  502    0  0.13156906657E+04  0.18502563962E+03  0.68934773944E+03  0.14968222109E+04  0.10100000352E+00 0.  1.
       -3    1    3    3    0  502 -0.13156906657E+04 -0.18502563962E+03 -0.47280867063E+03  0.14102568788E+04  0.10100000352E+00 0. -1.
</event>
<event>
 5   0  0.1511126E-06  0.2945771E+04  0.7818609E-02  0.8259388E-01
       -1   -1    0    0    0  501  0.00000000000E+00  0.00000000000E+00  0.12424717659E+04  0.12424717659E+04  0.50400001928E-02 0. -1.
        1   -1    0    0  501    0  0.00000000000E+00  0.00000000000E+00 -0.17460293987E+04  0.17460293987E+04  0.50400001928E-02 0.  1.
    10030    2    1    2    0    0  0.00000000000E+00  0.00000000000E+00 -0.50355763282E+03  0.29885011647E+04  0.29457713628E+04 0.  0.
        5    1    3    3  502    0  0.63801950085E+03  0.11941690872E+04  0.33651317061E+03  0.13951243300E+04  0.46999998093E+01 0. -1.
       -5    1    3    3    0  502 -0.63801950085E+03 -0.11941690872E+04 -0.84007080344E+03  0.15933768346E+04  0.46999998093E+01 0.  1.
</event>
<event>
 5   0  0.1580212E-06  0.2878841E+04  0.7818609E-02  0.8279201E-01
        1   -1    0    0  501    0  0.00000000000E+00  0.00000000000E+00  0.16380111009E+04  0.16380111009E+04  0.50400001928E-02 0.  1.
       -1   -1    0    0    0  501  0.00000000000E+00  0.00000000000E+00 -0.12649068931E+04  0.12649068932E+04  0.50400001928E-02 0. -1.
    10030    2    1    2    0    0  0.00000000000E+00  0.00000000000E+00  0.37310420779E+03  0.29029179941E+04  0.28788411090E+04 0.  0.
        4    1    3    3  502    0 -0.60484137468E+02 -0.38253432062E+03  0.15844867899E+04  0.16311317658E+04  0.12699999809E+01 0.  1.
       -4    1    3    3    0  502  0.60484137468E+02  0.38253432062E+03 -0.12113825821E+04  0.12717862283E+04  0.12699999809E+01 0. -1.
</event>
<event>
 5   0  0.1511126E-06  0.2898930E+04  0.7818609E-02  0.8273196E-01
        1   -1    0    0  501    0  0.00000000000E+00  0.00000000000E+00  0.22430782073E+04  0.22430782073E+04  0.50400001928E-02 0. -1.
       -1   -1    0    0    0  501  0.00000000000E+00  0.00000000000E+00 -0.93663642777E+03  0.93663642778E+03  0.50400001928E-02 0.  1.
    10030    2    1    2    0    0  0.00000000000E+00  0.00000000000E+00  0.13064417795E+04  0.31797146351E+04  0.28989299814E+04 0.  0.
        5    1    3    3  502    0  0.27709260593E+03  0.13646647955E+04  0.21196708688E+03  0.14085604184E+04  0.46999998093E+01 0.  1.
       -5    1    3    3    0  502 -0.27709260593E+03 -0.13646647955E+04  0.10944746927E+04  0.17711542167E+04  0.46999998093E+01 0. -1.
</event>
<event>
 5   0  0.4224163E-06  0.2889297E+04  0.7818609E-02  0.8276069E-01
        2   -1    0    0  501    0  0.00000000000E+00  0.00000000000E+00  0.15849736498E+04  0.15849736498E+04  0.25500000920E-02 0.  1.
       -2   -1    0    0    0  501  0.00000000000E+00  0.00000000000E+00 -0.13167472238E+04  0.13167472238E+04  0.25500000920E-02 0. -1.
    10030    2    1    2    0    0  0.00000000000E+00  0.00000000000E+00  0.26822642608E+03  0.29017208736E+04  0.28892972524E+04 0.  0.
        4    1    3    3  502    0 -0.94754260584E+03  0.92796414050E+03 -0.44110922185E+03  0.13976885899E+04  0.12699999809E+01 0. -1.
       -4    1    3    3    0  502  0.94754260584E+03 -0.92796414050E+03  0.70933564794E+03  0.15040322837E+04  0.12699999809E+01 0.  1.
</event>
<event>
 5   0  0.1511126E-06  0.2907994E+04  0.7818609E-02  0.8270503E-01
        1   -1    0    0  501    0  0.00000000000E+00  0.00000000000E+00  0.14320055582E+04  0.14320055582E+04  0.50400001928E-02 0.  1.
       -1   -1    0    0    0  501  0.00000000000E+00  0.00000000000E+00 -0.14763266425E+04  0.14763266426E+04  0.50400001928E-02 0. -1.
    10030    2    1    2    0    0  0.00000000000E+00  0.00000000000E+00 -0.44321084340E+02  0.29083322008E+04  0.29079944690E+04 0.  0.
        5    1    3    3  502    0 -0.36027306958E+03  0.13960592523E+04  0.16576483921E+03  0.14513022402E+04  0.46999998093E+01 0.  1.
       -5    1    3    3    0  502  0.36027306958E+03 -0.13960592523E+04 -0.21008592355E+03  0.14570299605E+04  0.46999998093E+01 0. -1.
</event>
<event>
 5   0  0.4187518E-06  0.2916382E+04  0.7818609E-02  0.8268020E-01
        2   -1    0    0  501    0  0.00000000000E+00  0.00000000000E+00  0.31443072324E+04  0.31443072324E+04  0.25500000920E-02 0.  1.
       -2   -1    0    0    0  501  0.00000000000E+00  0.00000000000E+00 -0.67624449863E+03  0.67624449864E+03  0.25500000920E-02 0. -1.
    10030    2    1    2    0    0  0.00000000000E+00  0.00000000000E+00  0.24680627338E+04  0.38205517311E+04  0.29163816403E+04 0.  0.
        3    1    3    3  502    0  0.11803128062E+04  0.79544048979E+03  0.81881841703E+03  0.16420497871E+04  0.10100000352E+00 0. -1.
       -3    1    3    3    0  502 -0.11803128062E+04 -0.79544048979E+03  0.16492443168E+04  0.21785019439E+04  0.10100000352E+00 0.  1.
</event>
<event>
 5   0  0.4187518E-06  0.2887236E+04  0.7818609E-02  0.8276685E-01
        2   -1    0    0  501    0  0.00000000000E+00  0.00000000000E+00  0.21509866895E+04  0.21509866895E+04  0.25500000920E-02 0. -1.
       -2   -1    0    0    0  501  0.00000000000E+00  0.00000000000E+00 -0.96887326407E+03  0.96887326407E+03  0.25500000920E-02 0.  1.
    10030    2    1    2    0    0  0.00000000000E+00  0.00000000000E+00  0.11821134255E+04  0.31198599536E+04  0.28872363913E+04 0.  0.
        3    1    3    3  502    0  0.97209446888E+03  0.10603468728E+04  0.45990948726E+03  0.15102383566E+04  0.10100000352E+00 0.  1.
       -3    1    3    3    0  502 -0.97209446888E+03 -0.10603468728E+04  0.72220393822E+03  0.16096215970E+04  0.10100000352E+00 0. -1.
</event>
<event>
 5   0  0.1550278E-06  0.2878055E+04  0.7818609E-02  0.8279437E-01
       -1   -1    0    0    0  501  0.00000000000E+00  0.00000000000E+00  0.13373347679E+04  0.13373347679E+04  0.50400001928E-02 0. -1.
        1   -1    0    0  501    0  0.00000000000E+00  0.00000000000E+00 -0.15484532989E+04  0.15484532989E+04  0.50400001928E-02 0.  1.
    10030    2    1    2    0    0  0.00000000000E+00  0.00000000000E+00 -0.21111853099E+03  0.28857880669E+04  0.28780551997E+04 0.  0.
        2    1    3    3  502    0 -0.32428888135E+02  0.76886914997E+03 -0.13247988490E+04  0.15320911830E+04  0.25500000920E-02 0.  1.
       -2    1    3    3    0  502  0.32428888135E+02 -0.76886914997E+03  0.11136803181E+04  0.13536968839E+04  0.25500000920E-02 0. -1.
</event>
<event>
 5   0  0.4148677E-06  0.2968618E+04  0.7818609E-02  0.8252749E-01
       -2   -1    0    0    0  501  0.00000000000E+00  0.00000000000E+00  0.10881571384E+04  0.10881571384E+04  0.25500000920E-02 0.  1.
        2   -1    0    0  501    0  0.00000000000E+00  0.00000000000E+00 -0.20246835076E+04  0.20246835076E+04  0.25500000920E-02 0. -1.
    10030    2    1    2    0    0  0.00000000000E+00  0.00000000000E+00 -0.93652636920E+03  0.31128406461E+04  0.29686184072E+04 0.  0.
        5    1    3    3  502    0  0.23938815630E+03  0.60391040035E+03 -0.18676932729E+04  0.19774515702E+04  0.46999998093E+01 0. -1.
       -5    1    3    3    0  502 -0.23938815630E+03 -0.60391040035E+03  0.93116690369E+03  0.11353890758E+04  0.46999998093E+01 0.  1.
</event>
<event>
 5   0  0.1511126E-06  0.2899787E+04  0.7818609E-02  0.8272941E-01
       -1   -1    0    0    0  501  0.00000000000E+00  0.00000000000E+00  0.83923980473E+03  0.83923980474E+03  0.50400001928E-02 0. -1.
        1   -1    0    0  501    0  0.00000000000E+00  0.00000000000E+00 -0.25048752273E+04  0.25048752273E+04  0.50400001928E-02 0.  1.
    10030    2    1    2    0    0  0.00000000000E+00  0.00000000000E+00 -0.16656354225E+04  0.33441150320E+04  0.28997868864E+04 0.  0.
        5    1    3    3  502    0 -0.18049411014E+03 -0.10485205370E+04 -0.19687298666E+04  0.22378321693E+04  0.46999998093E+01 0.  1.
       -5    1    3    3    0  502  0.18049411014E+03  0.10485205370E+04  0.30309444410E+03  0.11062828627E+04  0.46999998093E+01 0. -1.
</event>
<event>
 5   0  0.1550278E-06  0.2917525E+04  0.7818609E-02  0.8267682E-01
        1   -1    0    0  501    0  0.00000000000E+00  0.00000000000E+00  0.92484391187E+03  0.92484391189E+03  0.50400001928E-02 0. -1.
       -1   -1    0    0    0  501  0.00000000000E+00  0.00000000000E+00 -0.23009163369E+04  0.23009163369E+04  0.50400001928E-02 0.  1.
    10030    2    1    2    0    0  0.00000000000E+00  0.00000000000E+00 -0.13760724250E+04  0.32257602488E+04  0.29175252979E+04 0.  0.
        2    1    3    3  502    0  0.11307642051E+04 -0.12215107454E+03 -0.16980213541E+04  0.20437282333E+04  0.25500000920E-02 0.  1.
       -2    1    3    3    0  502 -0.11307642051E+04  0.12215107454E+03  0.32194892910E+03  0.11820320155E+04  0.25500000920E-02 0. -1.
</event>
<event>
 5   0  0.4148677E-06  0.2949054E+04  0.7818609E-02  0.8258430E-01
       -2   -1    0    0    0  501  0.00000000000E+00  0.00000000000E+00  0.14145471243E+04  0.14145471243E+04  0.25500000920E-02 0.  1.
        2   -1    0    0  501    0  0.00000000000E+00  0.00000000000E+00 -0.15370498266E+04  0.15370498266E+04  0.25500000920E-02 0. -1.
    10030    2    1    2    0    0  0.00000000000E+00  0.00000000000E+00 -0.12250270226E+03  0.29515969509E+04  0.29490536869E+04 0.  0.
        5    1    3    3  502    0  0.12361737184E+04 -0.70311335040E+03  0.32858869922E+03  0.14596186039E+04  0.46999998093E+01 0.  1.
       -5    1    3    3    0  502 -0.12361737184E+04  0.70311335040E+03 -0.45109140148E+03  0.14919783470E+04  0.46999998093E+01 0. -1.
</event>
<event>
 5   0  0.4115143E-06  0.2944235E+04  0.7818609E-02  0.8259837E-01
       -2   -1    0    0    0  501  0.00000000000E+00  0.00000000000E+00  0.76019570384E+03  0.76019570385E+03  0.25500000920E-02 0.  1.
        2   -1    0    0  501    0  0.00000000000E+00  0.00000000000E+00 -0.28507525509E+04  0.28507525509E+04  0.25500000920E-02 0. -1.
    10030    2    1    2    0    0  0.00000000000E+00  0.00000000000E+00 -0.20905568471E+04  0.36109482547E+04  0.29442349376E+04 0.  0.
        1    1    3    3  502    0  0.14671142181E+04  0.10006839258E+03 -0.11292880744E+04  0.18541114765E+04  0.50400001928E-02 0. -1.
       -1    1    3    3    0  502 -0.14671142181E+04 -0.10006839258E+03 -0.96126877269E+03  0.17568367783E+04  0.50400001928E-02 0.  1.
</event>
<event>
 5   0  0.1550278E-06  0.2919727E+04  0.7818609E-02  0.8267032E-01
        1   -1    0    0  501    0  0.00000000000E+00  0.00000000000E+00  0.18135350058E+04  0.18135350058E+04  0.50400001928E-02 0. -1.
       -1   -1    0    0    0  501  0.00000000000E+00  0.00000000000E+00 -0.11751638358E+04  0.11751638358E+04  0.50400001928E-02 0.  1.
    10030    2    1    2    0    0  0.00000000000E+00  0.00000000000E+00  0.63837116999E+03  0.29886988416E+04  0.29197265309E+04 0.  0.
        2    1    3    3  502    0 -0.71885638988E+03  0.12332964335E+04  0.63081742704E+01  0.14275203660E+04  0.25500000920E-02 0. -1.
       -2    1    3    3    0  502  0.71885638988E+03 -0.12332964335E+04  0.63206299572E+03  0.15611784756E+04  0.25500000920E-02 0.  1.
</event>
<event>
 5   0  0.4115143E-06  0.2910256E+04  0.7818609E-02  0.8269833E-01
        2   -1    0    0  501    0  0.00000000000E+00  0.00000000000E+00  0.19469570501E+04  0.19469570501E+04  0.25500000920E-02 0. -1.
       -2   -1    0    0    0  501  0.00000000000E+00  0.00000000000E+00 -0.10875419052E+04  0.10875419052E+04  0.25500000920E-02 0.  1.
    10030    2    1    2    0    0  0.00000000000E+00  0.00000000000E+00  0.85941514492E+03  0.30344989553E+04  0.29102559198E+04 0.  0.
        1    1    3    3  502    0  0.14461325242E+04 -0.13099748696E+03  0.52828334004E+03  0.15451675982E+04  0.50400001928E-02 0. -1.
       -1    1    3    3    0  502 -0.14461325242E+04  0.13099748696E+03  0.33113180489E+03  0.14893313571E+04  0.50400001928E-02 0.  1.
</event>
<event>
 5   0  0.1580212E-06  0.2900408E+04  0.7818609E-02  0.8272756E-01
       -1   -1    0    0    0  501  0.00000000000E+00  0.00000000000E+00  0.14420308337E+04  0.14420308337E+04  0.50400001928E-02 0.  1.
        1   -1    0    0  501    0  0.00000000000E+00  0.00000000000E+00 -0.14584233862E+04  0.14584233862E+04  0.50400001928E-02 0. -1.
    10030    2    1    2    0    0  0.00000000000E+00  0.00000000000E+00 -0.16392552509E+02  0.29004542199E+04  0.29004078965E+04 0.  0.
        4    1    3    3  502    0 -0.12694067607E+04 -0.69266033611E+03  0.10097512170E+03  0.14496101039E+04  0.12699999809E+01 0.  1.
       -4    1    3    3    0  502  0.12694067607E+04  0.69266033611E+03 -0.11736767421E+03  0.14508441160E+04  0.12699999809E+01 0. -1.
</event>
<event>
 5   0  0.4187518E-06  0.2917353E+04  0.7818609E-02  0.8267733E-01
        2   -1    0    0  501    0  0.00000000000E+00  0.00000000000E+00  0.23057128672E+04  0.23057128672E+04  0.25500000920E-02 0. -1.
       -2   -1    0    0    0  501  0.00000000000E+00  0.00000000000E+00 -0.92281075687E+03  0.92281075687E+03  0.25500000920E-02 0.  1.
    10030    2    1    2    0    0  0.00000000000E+00  0.00000000000E+00  0.13829021103E+04  0.32285236241E+04  0.29173526603E+04 0.  0.
        3    1    3    3  502    0 -0.11810117368E+04 -0.30464751626E+03  0.15768760380E+04  0.19935237348E+04  0.10100000352E+00 0. -1.
       -3    1    3    3    0  502  0.11810117368E+04  0.30464751626E+03 -0.19397392767E+03  0.12349998893E+04  0.10100000352E+00 0.  1.
</event>
<event>
 5   0  0.1580212E-06  0.2920289E+04  0.7818609E-02  0.8266867E-01
        1   -1    0    0  501    0  0.00000000000E+00  0.00000000000E+00  0.10582979153E+04  0.10582979153E+04  0.50400001928E-02 0.  1.
       -1   -1    0    0    0  501  0.00000000000E+00  0.00000000000E+00 -0.20145756763E+04  0.20145756763E+04  0.50400001928E-02 0. -1.
    10030    2    1    2    0    0  0.00000000000E+00  0.00000000000E+00 -0.95627776095E+03  0.30728735916E+04  0.29202885052E+04 0.  0.
        4    1    3    3  502    0  0.10335832151E+04  0.85030335777E+03 -0.10923406986E+04  0.17275763015E+04  0.12699999809E+01 0. -1.
       -4    1    3    3    0  502 -0.10335832151E+04 -0.85030335777E+03  0.13606293768E+03  0.13452972901E+04  0.12699999809E+01 0.  1.
</event>
<event>
 5   0  0.4187518E-06  0.2887588E+04  0.7818609E-02  0.8276580E-01
       -2   -1    0    0    0  501  0.00000000000E+00  0.00000000000E+00  0.79831126744E+03  0.79831126745E+03  0.25500000920E-02 0. -1.
        2   -1    0    0  501    0  0.00000000000E+00  0.00000000000E+00 -0.26111879389E+04  0.26111879389E+04  0.25500000920E-02 0.  1.
    10030    2    1    2    0    0  0.00000000000E+00  0.00000000000E+00 -0.18128766715E+04  0.34094992064E+04  0.28875877497E+04 0.  0.
        3    1    3    3  502    0  0.22889771767E+03 -0.11649431806E+04  0.63679856563E+02  0.11889246879E+04  0.10100000352E+00 0. -1.
       -3    1    3    3    0  502 -0.22889771767E+03  0.11649431806E+04 -0.18765565280E+04  0.22205745185E+04  0.10100000352E+00 0.  1.
</event>
<event>
 5   0  0.4224163E-06  0.2812341E+04  0.7818609E-02  0.8299447E-01
        2   -1    0    0  501    0  0.00000000000E+00  0.00000000000E+00  0.14591996163E+04  0.14591996163E+04  0.25500000920E-02 0. -1.
       -2   -1    0    0    0  501  0.00000000000E+00  0.00000000000E+00 -0.13550685209E+04  0.13550685209E+04  0.25500000920E-02 0.  1.
    10030    2    1    2    0    0  0.00000000000E+00  0.00000000000E+00  0.10413109540E+03  0.28142681373E+04  0.28123409935E+04 0.  0.
        4    1    3    3  502    0  0.45055363950E+03  0.10306747394E+04  0.89645941929E+03  0.14383775943E+04  0.12699999809E+01 0. -1.
       -4    1    3    3    0  502 -0.45055363950E+03 -0.10306747394E+04 -0.79232832389E+03  0.13758905430E+04  0.12699999809E+01 0.  1.
</event>
<event>
 5   0  0.4162450E-06  0.2901372E+04  0.7818609E-02  0.8272469E-01
       -2   -1    0    0    0  501  0.00000000000E+00  0.00000000000E+00  0.15422562271E+04  0.15422562271E+04  0.25500000920E-02 0. -1.
        2   -1    0    0  501    0  0.00000000000E+00  0.00000000000E+00 -0.13645526297E+04  0.13645526297E+04  0.25500000920E-02 0.  1.
    10030    2    1    2    0    0  0.00000000000E+00  0.00000000000E+00  0.17770359739E+03  0.29068088567E+04  0.29013719446E+04 0.  0.
        2    1    3    3  502    0 -0.14358199462E+04 -0.71230177173E+02  0.28373400419E+03  0.14653182730E+04  0.25500000920E-02 0.  1.
       -2    1    3    3    0  502  0.14358199462E+04  0.71230177173E+02 -0.10603040681E+03  0.14414905838E+04  0.25500000920E-02 0. -1.
</event>
<event>
 5   0  0.4162450E-06  0.2906597E+04  0.7818609E-02  0.8270917E-01
        2   -1    0    0  501    0  0.00000000000E+00  0.00000000000E+00  0.20921261212E+04  0.20921261212E+04  0.25500000920E-02 0.  1.
       -2   -1    0    0    0  501  0.00000000000E+00  0.00000000000E+00 -0.10095362201E+04  0.10095362201E+04  0.25500000920E-02 0. -1.
    10030    2    1    2    0    0  0.00000000000E+00  0.00000000000E+00  0.10825899011E+04  0.31016623413E+04  0.29065973896E+04 0.  0.
        2    1    3    3  502    0 -0.31881247157E+03  0.85380271179E+03  0.17492800986E+04  0.19724607286E+04  0.25500000920E-02 0.  1.
       -2    1    3    3    0  502  0.31881247157E+03 -0.85380271179E+03 -0.66669019744E+03  0.11292016127E+04  0.25500000920E-02 0. -1.
</event>
<event>
 5   0  0.1580212E-06  0.2908402E+04  0.7818609E-02  0.8270382E-01
        1   -1    0    0  501    0  0.00000000000E+00  0.00000000000E+00  0.15046452574E+04  0.15046452574E+04  0.50400001928E-02 0. -1.
       -1   -1    0    0    0  501  0.00000000000E+00  0.00000000000E+00 -0.14054478755E+04  0.14054478755E+04  0.50400001928E-02 0.  1.
    10030    2    1    2    0    0  0.00000000000E+00  0.00000000000E+00  0.99197381914E+02  0.29100931330E+04  0.29084019533E+04 0.  0.
        4    1    3    3  502    0  0.12866258463E+04 -0.44805459198E+03 -0.45916514544E+03  0.14377041522E+04  0.12699999809E+01 0.  1.
       -4    1    3    3    0  502 -0.12866258463E+04  0.44805459198E+03  0.55836252735E+03  0.14723889807E+04  0.12699999809E+01 0. -1.
</event>
<event>
 5   0  0.4162450E-06  0.2910243E+04  0.7818609E-02  0.8269836E-01
       -2   -1    0    0    0  501  0.00000000000E+00  0.00000000000E+00  0.12240315476E+04  0.12240315476E+04  0.25500000920E-02 0.  1.
        2   -1    0    0  501    0  0.00000000000E+00  0.00000000000E+00 -0.17298404494E+04  0.17298404494E+04  0.25500000920E-02 0. -1.
    10030    2    1    2    0    0  0.00000000000E+00  0.00000000000E+00 -0.50580890171E+03  0.29538719970E+04  0.29102434829E+04 0.  0.
        2    1    3    3  502    0 -0.30323111707E+03  0.62443035680E+03  0.10451408957E+04  0.12546640477E+04  0.25500000920E-02 0.  1.
       -2    1    3    3    0  502  0.30323111707E+03 -0.62443035680E+03 -0.15509497974E+04  0.16992079493E+04  0.25500000920E-02 0. -1.
</event>
<event>
 5   0  0.4148677E-06  0.2907486E+04  0.7818609E-02  0.8270654E-01
        2   -1    0    0  501    0  0.00000000000E+00  0.00000000000E+00  0.15107534663E+04  0.15107534663E+04  0.25500000920E-02 0.  1.
       -2   -1    0    0    0  501  0.00000000000E+00  0.00000000000E+00 -0.13988835889E+04  0.13988835889E+04  0.25500000920E-02 0. -1.
    10030    2    1    2    0    0  0.00000000000E+00  0.00000000000E+00  0.11186987734E+03  0.29096370552E+04  0.29074856704E+04 0.  0.
        5    1    3    3  502    0 -0.14440396984E+04 -0.44096707514E+02 -0.10589733813E+03  0.14485963918E+04  0.46999998093E+01 0. -1.
       -5    1    3    3    0  502  0.14440396984E+04  0.44096707514E+02  0.21776721546E+03  0.14610406634E+04  0.46999998093E+01 0.  1.
</event>
<event>
 5   0  0.4148677E-06  0.2821483E+04  0.7818609E-02  0.8296630E-01
        2   -1    0    0  501    0  0.00000000000E+00  0.00000000000E+00  0.23613841466E+04  0.23613841466E+04  0.25500000920E-02 0.  1.
       -2   -1    0    0    0  501  0.00000000000E+00  0.00000000000E+00 -0.84280734246E+03  0.84280734246E+03  0.25500000920E-02 0. -1.
    10030    2    1    2    0    0  0.00000000000E+00  0.00000000000E+00  0.15185768041E+04  0.32041914890E+04  0.28214832249E+04 0.  0.
        5    1    3    3  502    0  0.13058504147E+04  0.14357108489E+03  0.17544106576E+03  0.13253903650E+04  0.46999998093E+01 0.  1.
       -5    1    3    3    0  502 -0.13058504147E+04 -0.14357108489E+03  0.13431357383E+04  0.18788011240E+04  0.46999998093E+01 0. -1.
</event>
<event>
 5   0  0.4187518E-06  0.2907841E+04  0.7818609E-02  0.8270548E-01
       -2   -1    0    0    0  501  0.00000000000E+00  0.00000000000E+00  0.11441032479E+04  0.11441032479E+04  0.25500000920E-02 0.  1.
        2   -1    0    0  501    0  0.00000000000E+00  0.00000000000E+00 -0.18476351958E+04  0.18476351958E+04  0.25500000920E-02 0. -1.
    10030    2    1    2    0    0  0.00000000000E+00  0.00000000000E+00 -0.70353194796E+03  0.29917384437E+04  0.29078414182E+04 0.  0.
        3    1    3    3  502    0 -0.60284443414E+03  0.99348381797E+03  0.54720219789E+03  0.12844694484E+04  0.10100000352E+00 0.  1.
       -3    1    3    3    0  502  0.60284443414E+03 -0.99348381797E+03 -0.12507341459E+04  0.17072689953E+04  0.10100000352E+00 0. -1.
</event>
<event>
 5   0  0.1511126E-06  0.2974690E+04  0.7818609E-02  0.8250995E-01
       -1   -1    0    0    0  501  0.00000000000E+00  0.00000000000E+00  0.10599522095E+04  0.10599522095E+04  0.50400001928E-02 0.  1.
        1   -1    0    0  501    0  0.00000000000E+00  0.00000000000E+00 -0.20870705815E+04  0.20870705815E+04  0.50400001928E-02 0. -1.
    10030    2    1    2    0    0  0.00000000000E+00  0.00000000000E+00 -0.10271183720E+04  0.31470227910E+04  0.29746899498E+04 0.  0.
        5    1    3    3  502    0 -0.12002680380E+04  0.64887233317E+03  0.11276426350E+03  0.13690933266E+04  0.46999998093E+01 0.  1.
       -5    1    3    3    0  502  0.12002680380E+04 -0.64887233317E+03 -0.11398826355E+04  0.17779294644E+04  0.46999998093E+01 0. -1.
</event>
<event>
 5   0  0.1602873E-06  0.2905200E+04  0.7818609E-02  0.8271332E-01
        1   -1    0    0  501    0  0.00000000000E+00  0.00000000000E+00  0.24715146776E+04  0.24715146776E+04  0.50400001928E-02 0. -1.
       -1   -1    0    0    0  501  0.00000000000E+00  0.00000000000E+00 -0.85374648980E+03  0.85374648982E+03  0.50400001928E-02 0.  1.
    10030    2    1    2    0    0  0.00000000000E+00  0.00000000000E+00  0.16177681878E+04  0.33252611675E+04  0.29052001518E+04 0.  0.
        1    1    3    3  502    0  0.76080219486E+02  0.51095639010E+03  0.23628226904E+04  0.24186350901E+04  0.50400001928E-02 0. -1.
       -1    1    3    3    0  502 -0.76080219486E+02 -0.51095639010E+03 -0.74505450260E+03  0.90662607741E+03  0.50400001928E-02 0.  1.
</event>
<event>
 5   0  0.4187518E-06  0.3058847E+04  0.7818609E-02  0.8227124E-01
        2   -1    0    0  501    0  0.00000000000E+00  0.00000000000E+00  0.17482241174E+04  0.17482241174E+04  0.25500000920E-02 0.  1.
       -2   -1    0    0    0  501  0.00000000000E+00  0.00000000000E+00 -0.13380067958E+04  0.13380067958E+04  0.25500000920E-02 0. -1.
    10030    2    1    2    0    0  0.00000000000E+00  0.00000000000E+00  0.41021732164E+03  0.30862309132E+04  0.30588466779E+04 0.  0.
        3    1    3    3  502    0  0.13508730554E+04 -0.37735530488E+03  0.82038827911E+03  0.16248975281E+04  0.10100000352E+00 0.  1.
       -3    1    3    3    0  502 -0.13508730554E+04  0.37735530488E+03 -0.41017095747E+03  0.14613333852E+04  0.10100000352E+00 0. -1.
</event>
<event>
 5   0  0.1550278E-06  0.2911718E+04  0.7818609E-02  0.8269399E-01
       -1   -1    0    0    0  501  0.00000000000E+00  0.00000000000E+00  0.93753361540E+03  0.93753361542E+03  0.50400001928E-02 0.  1.
        1   -1    0    0  501    0  0.00000000000E+00  0.00000000000E+00 -0.22607468080E+04  0.22607468080E+04  0.50400001928E-02 0. -1.
    10030    2    1    2    0    0  0.00000000000E+00  0.00000000000E+00 -0.13232131926E+04  0.31982804234E+04  0.29117184812E+04 0.  0.
        2    1    3    3  502    0 -0.72437130631E+03  0.12137185919E+04 -0.10447943202E+04  0.17576751069E+04  0.25500000920E-02 0. -1.
       -2    1    3    3    0  502  0.72437130631E+03 -0.12137185919E+04 -0.27841887237E+03  0.14406053166E+04  0.25500000920E-02 0.  1.
</event>
<event>
 5   0  0.4224163E-06  0.2881459E+04  0.7818609E-02  0.8278416E-01
       -2   -1    0    0    0  501  0.00000000000E+00  0.00000000000E+00  0.79278348062E+03  0.79278348062E+03  0.25500000920E-02 0.  1.
        2   -1    0    0  501    0  0.00000000000E+00  0.00000000000E+00 -0.26182442729E+04  0.26182442729E+04  0.25500000920E-02 0. -1.
    10030    2    1    2    0    0  0.00000000000E+00  0.00000000000E+00 -0.18254607923E+04  0.34110277535E+04  0.28814585250E+04 0.  0.
        4    1    3    3  502    0 -0.72645722323E+03 -0.12283636378E+04 -0.67870631239E+03  0.15802725066E+04  0.12699999809E+01 0. -1.
       -4    1    3    3    0  502  0.72645722323E+03  0.12283636378E+04 -0.11467544799E+04  0.18307552469E+04  0.12699999809E+01 0.  1.
</event>
<event>
 5   0  0.1580212E-06  0.2918984E+04  0.7818609E-02  0.8267251E-01
        1   -1    0    0  501    0  0.00000000000E+00  0.00000000000E+00  0.90038083034E+03  0.90038083035E+03  0.50400001928E-02 0. -1.
       -1   -1    0    0    0  501  0.00000000000E+00  0.00000000000E+00 -0.23657956185E+04  0.23657956185E+04  0.50400001928E-02 0.  1.
    10030    2    1    2    0    0  0.00000000000E+00  0.00000000000E+00 -0.14654147881E+04  0.32661764488E+04  0.29189840859E+04 0.  0.
        4    1    3    3  502    0 -0.98106451119E+03 -0.85347462461E+02  0.47260946147E+03  0.10923063125E+04  0.12699999809E+01 0. -1.
       -4    1    3    3    0  502  0.98106451119E+03  0.85347462461E+02 -0.19380242496E+04  0.21738701363E+04  0.12699999809E+01 0.  1.
</event>
<event>
 5   0  0.4224163E-06  0.2913638E+04  0.7818609E-02  0.8268831E-01
        2   -1    0    0  501    0  0.00000000000E+00  0.00000000000E+00  0.10267494735E+04  0.10267494735E+04  0.25500000920E-02 0.  1.
       -2   -1    0    0    0  501  0.00000000000E+00  0.00000000000E+00 -0.20670291176E+04  0.20670291176E+04  0.25500000920E-02 0. -1.
    10030    2    1    2    0    0  0.00000000000E+00  0.00000000000E+00 -0.10402796441E+04  0.30937785911E+04  0.29136376289E+04 0.  0.
        4    1    3    3  502    0 -0.36884653228E+03 -0.21260288856E+03 -0.19995018960E+04  0.20443231637E+04  0.12699999809E+01 0. -1.
       -4    1    3    3    0  502  0.36884653228E+03  0.21260288856E+03  0.95922225190E+03  0.10494554274E+04  0.12699999809E+01 0.  1.
</event>
<event>
 5   0  0.4115143E-06  0.2999652E+04  0.7818609E-02  0.8243830E-01
       -2   -1    0    0    0  501  0.00000000000E+00  0.00000000000E+00  0.11115909659E+04  0.11115909659E+04  0.25500000920E-02 0.  1.
        2   -1    0    0  501    0  0.00000000000E+00  0.00000000000E+00 -0.20236559819E+04  0.20236559819E+04  0.25500000920E-02 0. -1.
    10030    2    1    2    0    0  0.00000000000E+00  0.00000000000E+00 -0.91206501603E+03  0.31352469478E+04  0.29996517848E+04 0.  0.
        1    1    3    3  502    0 -0.54147040653E+03  0.71404123378E+03 -0.17130751648E+04  0.19333058747E+04  0.50400001928E-02 0. -1.
       -1    1    3    3    0  502  0.54147040653E+03 -0.71404123378E+03  0.80101014881E+03  0.12019410731E+04  0.50400001928E-02 0.  1.
</event>
<event>
 5   0  0.4162450E-06  0.2898457E+04  0.7818609E-02  0.8273337E-01
       -2   -1    0    0    0  501  0.00000000000E+00  0.00000000000E+00  0.10276393390E+04  0.10276393390E+04  0.25500000920E-02 0.  1.
        2   -1    0    0  501    0  0.00000000000E+00  0.00000000000E+00 -0.20437741602E+04  0.20437741602E+04  0.25500000920E-02 0. -1.
    10030    2    1    2    0    0  0.00000000000E+00  0.00000000000E+00 -0.10161348212E+04  0.30714134992E+04  0.28984566424E+04 0.  0.
        2    1    3    3  502    0 -0.42970949799E+03 -0.59103639912E+03  0.81812748825E+03  0.10969534470E+04  0.25500000920E-02 0.  1.
       -2    1    3    3    0  502  0.42970949799E+03  0.59103639912E+03 -0.18342623095E+04  0.19744600522E+04  0.25500000920E-02 0. -1.
</event>
<event>
 5   0  0.1543678E-06  0.2906229E+04  0.7818609E-02  0.8271026E-01
        1   -1    0    0  501    0  0.00000000000E+00  0.00000000000E+00  0.25913859202E+04  0.25913859202E+04  0.50400001928E-02 0. -1.
       -1   -1    0    0    0  501  0.00000000000E+00  0.00000000000E+00 -0.81483133470E+03  0.81483133472E+03  0.50400001928E-02 0.  1.
    10030    2    1    2    0    0  0.00000000000E+00  0.00000000000E+00  0.17765545855E+04  0.34062172550E+04  0.29062294804E+04 0.  0.
        3    1    3    3  502    0 -0.77471826325E+03 -0.87494450046E+03 -0.12391086117E+03  0.11751894222E+04  0.10100000352E+00 0.  1.
       -3    1    3    3    0  502  0.77471826325E+03  0.87494450046E+03  0.19004654467E+04  0.22310278328E+04  0.10100000352E+00 0. -1.
</event>
<event>
 5   0  0.1602873E-06  0.2887876E+04  0.7818609E-02  0.8276494E-01
        1   -1    0    0  501    0  0.00000000000E+00  0.00000000000E+00  0.18314845599E+04  0.18314845599E+04  0.50400001928E-02 0.  1.
       -1   -1    0    0    0  501  0.00000000000E+00  0.00000000000E+00 -0.11383975584E+04  0.11383975584E+04  0.50400001928E-02 0. -1.
    10030    2    1    2    0    0  0.00000000000E+00  0.00000000000E+00  0.69308700153E+03  0.29698821183E+04  0.28878764178E+04 0.  0.
        1    1    3    3  502    0  0.53644571459E+03  0.52889960272E+03  0.16133714145E+04  0.17805830830E+04  0.50400001928E-02 0.  1.
       -1    1    3    3    0  502 -0.53644571459E+03 -0.52889960272E+03 -0.92028441296E+03  0.11892990352E+04  0.50400001928E-02 0. -1.
</event>
<event>
 5   0  0.1550278E-06  0.2878937E+04  0.7818609E-02  0.8279172E-01
       -1   -1    0    0    0  501  0.00000000000E+00  0.00000000000E+00  0.15831816376E+04  0.15831816376E+04  0.50400001928E-02 0. -1.
        1   -1    0    0  501    0  0.00000000000E+00  0.00000000000E+00 -0.13088005427E+04  0.13088005427E+04  0.50400001928E-02 0.  1.
    10030    2    1    2    0    0  0.00000000000E+00  0.00000000000E+00  0.27438109486E+03  0.28919821803E+04  0.28789365999E+04 0.  0.
        2    1    3    3  502    0 -0.68565498208E+03 -0.12432395654E+04  0.37554536748E+03  0.14686053569E+04  0.25500000920E-02 0.  1.
       -2    1    3    3    0  502  0.68565498208E+03  0.12432395654E+04 -0.10116427262E+03  0.14233768234E+04  0.25500000920E-02 0. -1.
</event>
<event>
 5   0  0.4162450E-06  0.2900847E+04  0.7818609E-02  0.8272625E-01
       -2   -1    0    0    0  501  0.00000000000E+00  0.00000000000E+00  0.21938335908E+04  0.21938335908E+04  0.25500000920E-02 0.  1.
        2   -1    0    0  501    0  0.00000000000E+00  0.00000000000E+00 -0.95892797437E+03  0.95892797438E+03  0.25500000920E-02 0. -1.
    10030    2    1    2    0    0  0.00000000000E+00  0.00000000000E+00  0.12349056164E+04  0.31527615652E+04  0.29008470496E+04 0.  0.
        2    1    3    3  502    0 -0.10302454739E+04 -0.88064062894E+03  0.11788302205E+04  0.17962667794E+04  0.25500000920E-02 0.  1.
       -2    1    3    3    0  502  0.10302454739E+04  0.88064062894E+03  0.56075395886E+02  0.13564947858E+04  0.25500000920E-02 0. -1.
</event>
<event>
 5   0  0.4148677E-06  0.2900761E+04  0.7818609E-02  0.8272651E-01
        2   -1    0    0  501    0  0.00000000000E+00  0.00000000000E+00  0.21084431912E+04  0.21084431912E+04  0.25500000920E-02 0.  1.
       -2   -1    0    0    0  501  0.00000000000E+00  0.00000000000E+00 -0.99770451630E+03  0.99770451630E+03  0.25500000920E-02 0. -1.
    10030    2    1    2    0    0  0.00000000000E+00  0.00000000000E+00  0.11107386749E+04  0.31061477075E+04  0.29007607928E+04 0.  0.
        5    1    3    3  502    0 -0.67836713396E+03 -0.10497333302E+04  0.13433091491E+04  0.18348361216E+04  0.46999998093E+01 0.  1.
       -5    1    3    3    0  502  0.67836713396E+03  0.10497333302E+04 -0.23257047418E+03  0.12713115859E+04  0.46999998093E+01 0. -1.
</event>
<event>
 5   0  0.1602873E-06  0.2896216E+04  0.7818609E-02  0.8274004E-01
       -1   -1    0    0    0  501  0.00000000000E+00  0.00000000000E+00  0.11469512005E+04  0.11469512005E+04  0.50400001928E-02 0.  1.
        1   -1    0    0  501    0  0.00000000000E+00  0.00000000000E+00 -0.18283396435E+04  0.18283396435E+04  0.50400001928E-02 0. -1.
    10030    2    1    2    0    0  0.00000000000E+00  0.00000000000E+00 -0.68138844300E+03  0.29752908439E+04  0.28962157026E+04 0.  0.
        1    1    3    3  502    0 -0.44826155575E+03  0.11703700296E+04 -0.10859753511E+04  0.16583265335E+04  0.50400001928E-02 0. -1.
       -1    1    3    3    0  502  0.44826155575E+03 -0.11703700296E+04  0.40458690813E+03  0.13169643104E+04  0.50400001928E-02 0.  1.
</event>
<event>
 5   0  0.4115143E-06  0.2912944E+04  0.7818609E-02  0.8269037E-01
        2   -1    0    0  501    0  0.00000000000E+00  0.00000000000E+00  0.15532653933E+04  0.15532653933E+04  0.25500000920E-02 0.  1.
       -2   -1    0    0    0  501  0.00000000000E+00  0.00000000000E+00 -0.13657104290E+04  0.13657104290E+04  0.25500000920E-02 0. -1.
    10030    2    1    2    0    0  0.00000000000E+00  0.00000000000E+00  0.18755496428E+03  0.29189758224E+04  0.29129440412E+04 0.  0.
        1    1    3    3  502    0  0.10807216383E+04  0.28518281514E+03 -0.84197748046E+03  0.13993622030E+04  0.50400001928E-02 0. -1.
       -1    1    3    3    0  502 -0.10807216383E+04 -0.28518281514E+03  0.10295324447E+04  0.15196136194E+04  0.50400001928E-02 0.  1.
</event>
<event>
 5   0  0.1602873E-06  0.2911993E+04  0.7818609E-02  0.8269318E-01
        1   -1    0    0  501    0  0.00000000000E+00  0.00000000000E+00  0.19490720780E+04  0.19490720780E+04  0.50400001928E-02 0. -1.
       -1   -1    0    0    0  501  0.00000000000E+00  0.00000000000E+00 -0.10876593665E+04  0.10876593665E+04  0.50400001928E-02 0.  1.
    10030    2    1    2    0    0  0.00000000000E+00  0.00000000000E+00  0.86141271149E+03  0.30367314445E+04  0.29119934764E+04 0.  0.
        1    1    3    3  502    0 -0.73192900758E+03  0.10107122026E+04 -0.35153688028E+03  0.12964711361E+04  0.50400001928E-02 0.  1.
       -1    1    3    3    0  502  0.73192900758E+03 -0.10107122026E+04  0.12129495918E+04  0.17402603083E+04  0.50400001928E-02 0. -1.
</event>
<event>
 5   0  0.4148677E-06  0.2908424E+04  0.7818609E-02  0.8270375E-01
        2   -1    0    0  501    0  0.00000000000E+00  0.00000000000E+00  0.18773426386E+04  0.18773426386E+04  0.25500000920E-02 0.  1.
       -2   -1    0    0    0  501  0.00000000000E+00  0.00000000000E+00 -0.11264501018E+04  0.11264501018E+04  0.25500000920E-02 0. -1.
    10030    2    1    2    0    0  0.00000000000E+00  0.00000000000E+00  0.75089253678E+03  0.30037927404E+04  0.29084241826E+04 0.  0.
        5    1    3    3  502    0  0.11618542082E+04  0.32794831459E+03 -0.46185028578E+03  0.12925877434E+04  0.46999998093E+01 0. -1.
       -5    1    3    3    0  502 -0.11618542082E+04 -0.32794831459E+03  0.12127428226E+04  0.17112049970E+04  0.46999998093E+01 0.  1.
</event>
<event>
 5   0  0.4115143E-06  0.2880958E+04  0.7818609E-02  0.8278566E-01
        2   -1    0    0  501    0  0.00000000000E+00  0.00000000000E+00  0.19628852346E+04  0.19628852346E+04  0.25500000920E-02 0.  1.
       -2   -1    0    0    0  501  0.00000000000E+00  0.00000000000E+00 -0.10571072560E+04  0.10571072560E+04  0.25500000920E-02 0. -1.
    10030    2    1    2    0    0  0.00000000000E+00  0.00000000000E+00  0.90577797857E+03  0.30199924907E+04  0.28809583296E+04 0.  0.
        1    1    3    3  502    0 -0.12410791158E+04 -0.18053340852E+03  0.11956832779E+04  0.17327804778E+04  0.50400001928E-02 0.  1.
       -1    1    3    3    0  502  0.12410791158E+04  0.18053340852E+03 -0.28990529933E+03  0.12872120128E+04  0.50400001928E-02 0. -1.
</event>
<event>
 5   0  0.4148677E-06  0.2900471E+04  0.7818609E-02  0.8272737E-01
       -2   -1    0    0    0  501  0.00000000000E+00  0.00000000000E+00  0.14239076184E+04  0.14239076184E+04  0.25500000920E-02 0. -1.
        2   -1    0    0  501    0  0.00000000000E+00  0.00000000000E+00 -0.14770505563E+04  0.14770505563E+04  0.25500000920E-02 0.  1.
    10030    2    1    2    0    0  0.00000000000E+00  0.00000000000E+00 -0.53142937897E+02  0.29009581747E+04  0.29004713685E+04 0.  0.
        5    1    3    3  502    0  0.82837043805E+03 -0.11811414986E+04 -0.17447673920E+03  0.14531885785E+04  0.46999998093E+01 0.  1.
       -5    1    3    3    0  502 -0.82837043805E+03  0.11811414986E+04  0.12133380130E+03  0.14477695962E+04  0.46999998093E+01 0. -1.
</event>
<event>
 5   0  0.4148677E-06  0.2887050E+04  0.7818609E-02  0.8276741E-01
        2   -1    0    0  501    0  0.00000000000E+00  0.00000000000E+00  0.23009281149E+04  0.23009281149E+04  0.25500000920E-02 0.  1.
       -2   -1    0    0    0  501  0.00000000000E+00  0.00000000000E+00 -0.90561921978E+03  0.90561921978E+03  0.25500000920E-02 0. -1.
    10030    2    1    2    0    0  0.00000000000E+00  0.00000000000E+00  0.13953088951E+04  0.32065473347E+04  0.28870502068E+04 0.  0.
        5    1    3    3  502    0  0.88037716177E+03  0.49744483736E+03  0.18418164742E+04  0.21011485735E+04  0.46999998093E+01 0.  1.
       -5    1    3    3    0  502 -0.88037716177E+03 -0.49744483736E+03 -0.44650757905E+03  0.11053987612E+04  0.46999998093E+01 0. -1.
</event>
<event>
 5   0  0.1550278E-06  0.2905082E+04  0.7818609E-02  0.8271367E-01
       -1   -1    0    0    0  501  0.00000000000E+00  0.00000000000E+00  0.86310075256E+03  0.86310075257E+03  0.50400001928E-02 0. -1.
        1   -1    0    0  501    0  0.00000000000E+00  0.00000000000E+00 -0.24445299804E+04  0.24445299804E+04  0.50400001928E-02 0.  1.
    10030    2    1    2    0    0  0.00000000000E+00  0.00000000000E+00 -0.15814292278E+04  0.33076307329E+04  0.29050822128E+04 0.  0.
        2    1    3    3  502    0  0.17354720871E+01 -0.13675179346E+04 -0.13482258378E+04  0.19203700745E+04  0.25500000920E-02 0.  1.
       -2    1    3    3    0  502 -0.17354720871E+01  0.13675179346E+04 -0.23320339004E+03  0.13872606584E+04  0.25500000920E-02 0. -1.
</event>
<event>
 5   0  0.4187518E-06  0.2887385E+04  0.7818609E-02  0.8276641E-01
       -2   -1    0    0    0  501  0.00000000000E+00  0.00000000000E+00  0.80721912396E+03  0.80721912397E+03  0.25500000920E-02 0. -1.
        2   -1    0    0  501    0  0.00000000000E+00  0.00000000000E+00 -0.25820099188E+04  0.25820099188E+04  0.25500000920E-02 0.  1.
    10030    2    1    2    0    0  0.00000000000E+00  0.00000000000E+00 -0.17747907948E+04  0.33892290427E+04  0.28873848269E+04 0.  0.
        3    1    3    3  502    0  0.93597917058E+03 -0.18996272935E+03  0.38341130098E+03  0.10291487173E+04  0.10100000352E+00 0. -1.
       -3    1    3    3    0  502 -0.93597917058E+03  0.18996272935E+03 -0.21582020958E+04  0.23600803255E+04  0.10100000352E+00 0.  1.
</event>
<event>
 5   0  0.1550278E-06  0.2628169E+04  0.7818609E-02  0.8358695E-01
        1   -1    0    0  501    0  0.00000000000E+00  0.00000000000E+00  0.80963388149E+03  0.80963388151E+03  0.50400001928E-02 0.  1.
       -1   -1    0    0    0  501  0.00000000000E+00  0.00000000000E+00 -0.21328383028E+04  0.21328383028E+04  0.50400001928E-02 0. -1.
    10030    2    1    2    0    0  0.00000000000E+00  0.00000000000E+00 -0.13232044213E+04  0.29424721843E+04  0.26281690613E+04 0.  0.
        2    1    3    3  502    0  0.13033346766E+04  0.42964794636E+02 -0.48006661178E+03  0.13896010955E+04  0.25500000920E-02 0. -1.
       -2    1    3    3    0  502 -0.13033346766E+04 -0.42964794636E+02 -0.84313780953E+03  0.15528710889E+04  0.25500000920E-02 0.  1.
</event>
<event>
 5   0  0.4224163E-06  0.2898796E+04  0.7818609E-02  0.8273236E-01
       -2   -1    0    0    0  501  0.00000000000E+00  0.00000000000E+00  0.14645837816E+04  0.14645837816E+04  0.25500000920E-02 0. -1.
        2   -1    0    0  501    0  0.00000000000E+00  0.00000000000E+00 -0.14343695323E+04  0.14343695323E+04  0.25500000920E-02 0.  1.
    10030    2    1    2    0    0  0.00000000000E+00  0.00000000000E+00  0.30214249306E+02  0.28989533140E+04  0.28987958562E+04 0.  0.
        4    1    3    3  502    0 -0.31576155357E+03 -0.13033410328E+04 -0.53478593927E+03  0.14437454139E+04  0.12699999809E+01 0.  1.
       -4    1    3    3    0  502  0.31576155357E+03  0.13033410328E+04  0.56500018857E+03  0.14552079001E+04  0.12699999809E+01 0. -1.
</event>
<event>
 5   0  0.1543678E-06  0.2866557E+04  0.7818609E-02  0.8282898E-01
        1   -1    0    0  501    0  0.00000000000E+00  0.00000000000E+00  0.23928390096E+04  0.23928390097E+04  0.50400001928E-02 0. -1.
       -1   -1    0    0    0  501  0.00000000000E+00  0.00000000000E+00 -0.85851488024E+03  0.85851488026E+03  0.50400001928E-02 0.  1.
    10030    2    1    2    0    0  0.00000000000E+00  0.00000000000E+00  0.15343241294E+04  0.32513538899E+04  0.28665574446E+04 0.  0.
        3    1    3    3  502    0  0.43118234117E+03 -0.24030704713E+03 -0.75905924565E+03  0.90544830711E+03  0.10100000352E+00 0.  1.
       -3    1    3    3    0  502 -0.43118234117E+03  0.24030704713E+03  0.22933833751E+04  0.23459055828E+04  0.10100000352E+00 0. -1.
</event>
<event>
 5   0  0.4187518E-06  0.2913706E+04  0.7818609E-02  0.8268811E-01
        2   -1    0    0  501    0  0.00000000000E+00  0.00000000000E+00  0.14302206714E+04  0.14302206714E+04  0.25500000920E-02 0. -1.
       -2   -1    0    0    0  501  0.00000000000E+00  0.00000000000E+00 -0.14839816282E+04  0.14839816282E+04  0.25500000920E-02 0.  1.
    10030    2    1    2    0    0  0.00000000000E+00  0.00000000000E+00 -0.53760956855E+02  0.29142022996E+04  0.29137063686E+04 0.  0.
        3    1    3    3  502    0  0.42976890084E+03  0.13183263931E+03 -0.14128796851E+04  0.14826699456E+04  0.10100000352E+00 0.  1.
       -3    1    3    3    0  502 -0.42976890084E+03 -0.13183263931E+03  0.13591187282E+04  0.14315323540E+04  0.10100000352E+00 0. -1.
</event>
<event>
 5   0  0.1580212E-06  0.2888694E+04  0.7818609E-02  0.8276249E-01
       -1   -1    0    0    0  501  0.00000000000E+00  0.00000000000E+00  0.90235223608E+03  0.90235223609E+03  0.50400001928E-02 0. -1.
        1   -1    0    0  501    0  0.00000000000E+00  0.00000000000E+00 -0.23118898164E+04  0.23118898164E+04  0.50400001928E-02 0.  1.
    10030    2    1    2    0    0  0.00000000000E+00  0.00000000000E+00 -0.14095375804E+04  0.32142420525E+04  0.28886944771E+04 0.  0.
        4    1    3    3  502    0  0.50348409688E+03  0.11229887102E+03  0.79635410253E+03  0.94883546612E+03  0.12699999809E+01 0. -1.
       -4    1    3    3    0  502 -0.50348409688E+03 -0.11229887102E+03 -0.22058916829E+04  0.22654065864E+04  0.12699999809E+01 0.  1.
</event>
<event>
 5   0  0.4115143E-06  0.2935399E+04  0.7818609E-02  0.8262423E-01
        2   -1    0    0  501    0  0.00000000000E+00  0.00000000000E+00  0.17056834854E+04  0.17056834854E+04  0.25500000920E-02 0. -1.
       -2   -1    0    0    0  501  0.00000000000E+00  0.00000000000E+00 -0.12629196254E+04  0.12629196254E+04  0.25500000920E-02 0.  1.
    10030    2    1    2    0    0  0.00000000000E+00  0.00000000000E+00  0.44276386005E+03  0.29686031108E+04  0.29353985408E+04 0.  0.
        1    1    3    3  502    0 -0.79807121135E+03  0.60977768043E+02 -0.10227803291E+04  0.12987361349E+04  0.50400001928E-02 0.  1.
       -1    1    3    3    0  502  0.79807121135E+03 -0.60977768043E+02  0.14655441891E+04  0.16698669758E+04  0.50400001928E-02 0. -1.
</event>
<event>
 5   0  0.1511126E-06  0.2911408E+04  0.7818609E-02  0.8269491E-01
       -1   -1    0    0    0  501  0.00000000000E+00  0.00000000000E+00  0.19605589844E+04  0.19605589844E+04  0.50400001928E-02 0.  1.
        1   -1    0    0  501    0  0.00000000000E+00  0.00000000000E+00 -0.10808517803E+04  0.10808517803E+04  0.50400001928E-02 0. -1.
    10030    2    1    2    0    0  0.00000000000E+00  0.00000000000E+00  0.87970720409E+03  0.30414107647E+04  0.29114076793E+04 0.  0.
        5    1    3    3  502    0  0.69195139442E+03 -0.12662696762E+04  0.23941097637E+03  0.14627287276E+04  0.46999998093E+01 0. -1.
       -5    1    3    3    0  502 -0.69195139442E+03  0.12662696762E+04  0.64029622772E+03  0.15786820371E+04  0.46999998093E+01 0.  1.
</event>
<event>
 5   0  0.1580212E-06  0.2901448E+04  0.7818609E-02  0.8272447E-01
       -1   -1    0    0    0  501  0.00000000000E+00  0.00000000000E+00  0.10791726124E+04  0.10791726124E+04  0.50400001928E-02 0. -1.
        1   -1    0    0  501    0  0.00000000000E+00  0.00000000000E+00 -0.19501982772E+04  0.19501982772E+04  0.50400001928E-02 0.  1.
    10030    2    1    2    0    0  0.00000000000E+00  0.00000000000E+00 -0.87102566480E+03  0.30293708896E+04  0.29014483069E+04 0.  0.
        4    1    3    3  502    0  0.89541506667E+03 -0.11389795886E+04 -0.35768572061E+03  0.14923080555E+04  0.12699999809E+01 0. -1.
       -4    1    3    3    0  502 -0.89541506667E+03  0.11389795886E+04 -0.51333994419E+03  0.15370628341E+04  0.12699999809E+01 0.  1.
</event>
<event>
 5   0  0.4187518E-06  0.2891833E+04  0.7818609E-02  0.8275311E-01
       -2   -1    0    0    0  501  0.00000000000E+00  0.00000000000E+00  0.82144617162E+03  0.82144617162E+03  0.25500000920E-02 0. -1.
        2   -1    0    0  501    0  0.00000000000E+00  0.00000000000E+00 -0.25451149989E+04  0.25451149989E+04  0.25500000920E-02 0.  1.
    10030    2    1    2    0    0  0.00000000000E+00  0.00000000000E+00 -0.17236688273E+04  0.33665611705E+04  0.28918333093E+04 0.  0.
        3    1    3    3  502    0  0.14738897242E+03 -0.13992647791E+04 -0.47395798536E+03  0.14846890628E+04  0.10100000352E+00 0.  1.
       -3    1    3    3    0  502 -0.14738897242E+03  0.13992647791E+04 -0.12497108419E+04  0.18818721077E+04  0.10100000352E+00 0. -1.
</event>
<event>
 5   0  0.1360125E-06  0.2911173E+04  0.7818609E-02  0.8269561E-01
       -3   -1    0    0    0  501  0.00000000000E+00  0.00000000000E+00  0.10499121509E+04  0.10499121558E+04  0.10100000352E+00 0.  1.
        3   -1    0    0  501    0  0.00000000000E+00  0.00000000000E+00 -0.20180095584E+04  0.20180095609E+04  0.10100000352E+00 0. -1.
    10030    2    1    2    0    0  0.00000000000E+00  0.00000000000E+00 -0.96809740741E+03  0.30679217167E+04  0.29111734867E+04 0.  0.
        2    1    3    3  502    0 -0.10857824059E+04  0.81798870599E+03 -0.10323551749E+04  0.17069815943E+04  0.25500000920E-02 0. -1.
       -2    1    3    3    0  502  0.10857824059E+04 -0.81798870599E+03  0.64257767530E+02  0.13609401224E+04  0.25500000920E-02 0.  1.
</event>
<event>
 5   0  0.1543678E-06  0.2888997E+04  0.7818609E-02  0.8276159E-01
       -1   -1    0    0    0  501  0.00000000000E+00  0.00000000000E+00  0.22018895788E+04  0.22018895788E+04  0.50400001928E-02 0. -1.
        1   -1    0    0  501    0  0.00000000000E+00  0.00000000000E+00 -0.94762981066E+03  0.94762981067E+03  0.50400001928E-02 0.  1.
    10030    2    1    2    0    0  0.00000000000E+00  0.00000000000E+00  0.12542597682E+04  0.31495193895E+04  0.28889971995E+04 0.  0.
        3    1    3    3  502    0 -0.43576721959E+03  0.13723744434E+04  0.75272055121E+03  0.16247747293E+04  0.10100000352E+00 0.  1.
       -3    1    3    3    0  502  0.43576721959E+03 -0.13723744434E+04  0.50153921694E+03  0.15247446602E+04  0.10100000352E+00 0. -1.
</event>
<event>
 5   0  0.1550278E-06  0.2903367E+04  0.7818609E-02  0.8271877E-01
        1   -1    0    0  501    0  0.00000000000E+00  0.00000000000E+00  0.20453214414E+04  0.20453214414E+04  0.50400001928E-02 0. -1.
       -1   -1    0    0    0  501  0.00000000000E+00  0.00000000000E+00 -0.10303437997E+04  0.10303437997E+04  0.50400001928E-02 0.  1.
    10030    2    1    2    0    0  0.00000000000E+00  0.00000000000E+00  0.10149776417E+04  0.30756652411E+04  0.29033665049E+04 0.  0.
        2    1    3    3  502    0 -0.12015705640E+02  0.10060298523E+04 -0.60110583747E+03  0.11719934593E+04  0.25500000920E-02 0. -1.
       -2    1    3    3    0  502  0.12015705640E+02 -0.10060298523E+04  0.16160834792E+04  0.19036717817E+04  0.25500000920E-02 0.  1.
</event>
<event>
 5   0  0.4162450E-06  0.2876384E+04  0.7818609E-02  0.8279939E-01
        2   -1    0    0  501    0  0.00000000000E+00  0.00000000000E+00  0.19614533582E+04  0.19614533582E+04  0.25500000920E-02 0.  1.
       -2   -1    0    0    0  501  0.00000000000E+00  0.00000000000E+00 -0.10545221003E+04  0.10545221003E+04  0.25500000920E-02 0. -1.
    10030    2    1    2    0    0  0.00000000000E+00  0.00000000000E+00  0.90693125790E+03  0.30159754586E+04  0.28763837818E+04 0.  0.
        2    1    3    3  502    0  0.98530077405E+03 -0.80700098765E+03 -0.24703397668E+03  0.12973411252E+04  0.25500000920E-02 0. -1.
       -2    1    3    3    0  502 -0.98530077405E+03  0.80700098765E+03  0.11539652346E+04  0.17186343334E+04  0.25500000920E-02 0.  1.
</event>
<event>
 5   0  0.1580212E-06  0.2917384E+04  0.7818609E-02  0.8267724E-01
       -1   -1    0    0    0  501  0.00000000000E+00  0.00000000000E+00  0.10347610018E+04  0.10347610018E+04  0.50400001928E-02 0. -1.
        1   -1    0    0  501    0  0.00000000000E+00  0.00000000000E+00 -0.20563028007E+04  0.20563028007E+04  0.50400001928E-02 0.  1.
    10030    2    1    2    0    0  0.00000000000E+00  0.00000000000E+00 -0.10215417989E+04  0.30910638025E+04  0.29173837225E+04 0.  0.
        4    1    3    3  502    0  0.19009646060E+02 -0.92558185393E+03  0.68359904975E+03  0.11508138028E+04  0.12699999809E+01 0. -1.
       -4    1    3    3    0  502 -0.19009646060E+02  0.92558185393E+03 -0.17051408486E+04  0.19402499997E+04  0.12699999809E+01 0.  1.
</event>
<event>
 5   0  0.1550278E-06  0.2903056E+04  0.7818609E-02  0.8271969E-01
        1   -1    0    0  501    0  0.00000000000E+00  0.00000000000E+00  0.15742768552E+04  0.15742768552E+04  0.50400001928E-02 0.  1.
       -1   -1    0    0    0  501  0.00000000000E+00  0.00000000000E+00 -0.13383499743E+04  0.13383499743E+04  0.50400001928E-02 0. -1.
    10030    2    1    2    0    0  0.00000000000E+00  0.00000000000E+00  0.23592688085E+03  0.29126268295E+04  0.29030558994E+04 0.  0.
        2    1    3    3  502    0 -0.11879217019E+04  0.52011700382E+03  0.77222816968E+03  0.15093097805E+04  0.25500000920E-02 0. -1.
       -2    1    3    3    0  502  0.11879217019E+04 -0.52011700382E+03 -0.53630128883E+03  0.14033170490E+04  0.25500000920E-02 0.  1.
</event>
<event>
 5   0  0.1543678E-06  0.2873232E+04  0.7818609E-02  0.8280887E-01
        1   -1    0    0  501    0  0.00000000000E+00  0.00000000000E+00  0.22603230820E+04  0.22603230820E+04  0.50400001928E-02 0.  1.
       -1   -1    0    0    0  501  0.00000000000E+00  0.00000000000E+00 -0.91308429409E+03  0.91308429410E+03  0.50400001928E-02 0. -1.
    10030    2    1    2    0    0  0.00000000000E+00  0.00000000000E+00  0.13472387879E+04  0.31734073761E+04  0.28732319821E+04 0.  0.
        3    1    3    3  502    0  0.12114413367E+04  0.76296278669E+03  0.54217703043E+03  0.15309011296E+04  0.10100000352E+00 0. -1.
       -3    1    3    3    0  502 -0.12114413367E+04 -0.76296278669E+03  0.80506175746E+03  0.16425062465E+04  0.10100000352E+00 0.  1.
</event>
<event>
 5   0  0.4115143E-06  0.2896826E+04  0.7818609E-02  0.8273823E-01
       -2   -1    0    0    0  501  0.00000000000E+00  0.00000000000E+00  0.17777448938E+04  0.17777448938E+04  0.25500000920E-02 0. -1.
        2   -1    0    0  501    0  0.00000000000E+00  0.00000000000E+00 -0.11800905222E+04  0.11800905222E+04  0.25500000920E-02 0.  1.
    10030    2    1    2    0    0  0.00000000000E+00  0.00000000000E+00  0.59765437167E+03  0.29578354160E+04  0.28968257801E+04 0.  0.
        1    1    3    3  502    0 -0.36587748428E+03 -0.13161524847E+04  0.79039795551E+03  0.15782435251E+04  0.50400001928E-02 0. -1.
       -1    1    3    3    0  502  0.36587748428E+03  0.13161524847E+04 -0.19274358383E+03  0.13795918909E+04  0.50400001928E-02 0.  1.
</event>
<event>
 5   0  0.4224163E-06  0.2909520E+04  0.7818609E-02  0.8270051E-01
       -2   -1    0    0    0  501  0.00000000000E+00  0.00000000000E+00  0.69955091617E+03  0.69955091618E+03  0.25500000920E-02 0. -1.
        2   -1    0    0  501    0  0.00000000000E+00  0.00000000000E+00 -0.30252652139E+04  0.30252652139E+04  0.25500000920E-02 0.  1.
    10030    2    1    2    0    0  0.00000000000E+00  0.00000000000E+00 -0.23257142977E+04  0.37248161300E+04  0.29095202711E+04 0.  0.
        4    1    3    3  502    0 -0.13768670462E+04  0.40332573514E+02 -0.56383634931E+03  0.14883892707E+04  0.12699999809E+01 0. -1.
       -4    1    3    3    0  502  0.13768670462E+04 -0.40332573514E+02 -0.17618779484E+04  0.22364268594E+04  0.12699999809E+01 0.  1.
</event>
<event>
 5   0  0.1543678E-06  0.2893136E+04  0.7818609E-02  0.8274923E-01
        1   -1    0    0  501    0  0.00000000000E+00  0.00000000000E+00  0.12920746868E+04  0.12920746868E+04  0.50400001928E-02 0. -1.
       -1   -1    0    0    0  501  0.00000000000E+00  0.00000000000E+00 -0.16195338777E+04  0.16195338777E+04  0.50400001928E-02 0.  1.
    10030    2    1    2    0    0  0.00000000000E+00  0.00000000000E+00 -0.32745919083E+03  0.29116085645E+04  0.28931358266E+04 0.  0.
        3    1    3    3  502    0  0.78055460263E+03 -0.96695137572E+03  0.58146998453E+03  0.13719940976E+04  0.10100000352E+00 0. -1.
       -3    1    3    3    0  502 -0.78055460263E+03  0.96695137572E+03 -0.90892917537E+03  0.15396144669E+04  0.10100000352E+00 0.  1.
</event>
<event>
 5   0  0.4115143E-06  0.2897289E+04  0.7818609E-02  0.8273684E-01
       -2   -1    0    0    0  501  0.00000000000E+00  0.00000000000E+00  0.19984405653E+04  0.19984405653E+04  0.25500000920E-02 0. -1.
        2   -1    0    0  501    0  0.00000000000E+00  0.00000000000E+00 -0.10501043855E+04  0.10501043855E+04  0.25500000920E-02 0.  1.
    10030    2    1    2    0    0  0.00000000000E+00  0.00000000000E+00  0.94833617979E+03  0.30485449508E+04  0.28972892171E+04 0.  0.
        1    1    3    3  502    0  0.17874328220E+03 -0.12807931559E+04 -0.21274668194E+03  0.13105881962E+04  0.50400001928E-02 0.  1.
       -1    1    3    3    0  502 -0.17874328220E+03  0.12807931559E+04  0.11610828617E+04  0.17379567547E+04  0.50400001928E-02 0. -1.
</event>
<event>
 5   0  0.4224163E-06  0.2911855E+04  0.7818609E-02  0.8269359E-01
        2   -1    0    0  501    0  0.00000000000E+00  0.00000000000E+00  0.10493571520E+04  0.10493571520E+04  0.25500000920E-02 0. -1.
       -2   -1    0    0    0  501  0.00000000000E+00  0.00000000000E+00 -0.20200218563E+04  0.20200218563E+04  0.25500000920E-02 0.  1.
    10030    2    1    2    0    0  0.00000000000E+00  0.00000000000E+00 -0.97066470424E+03  0.30693790083E+04  0.29118546545E+04 0.  0.
        4    1    3    3  502    0 -0.54905651849E+03  0.99250481073E+03  0.47684220499E+03  0.12304100785E+04  0.12699999809E+01 0. -1.
       -4    1    3    3    0  502  0.54905651849E+03 -0.99250481073E+03 -0.14475069092E+04  0.18389689299E+04  0.12699999809E+01 0.  1.
</event>
<event>
 5   0  0.4148677E-06  0.2871614E+04  0.7818609E-02  0.8281374E-01
       -2   -1    0    0    0  501  0.00000000000E+00  0.00000000000E+00  0.81589321361E+03  0.81589321361E+03  0.25500000920E-02 0.  1.
        2   -1    0    0  501    0  0.00000000000E+00  0.00000000000E+00 -0.25267297895E+04  0.25267297895E+04  0.25500000920E-02 0. -1.
    10030    2    1    2    0    0  0.00000000000E+00  0.00000000000E+00 -0.17108365759E+04  0.33426230031E+04  0.28716139628E+04 0.  0.
        5    1    3    3  502    0 -0.70668127925E+03  0.28468042895E+03  0.56119182898E+03  0.94625563987E+03  0.46999998093E+01 0.  1.
       -5    1    3    3    0  502  0.70668127925E+03 -0.28468042895E+03 -0.22720284049E+04  0.23963673633E+04  0.46999998093E+01 0. -1.
</event>
<event>
 5   0  0.4115143E-06  0.2895148E+04  0.7818609E-02  0.8274323E-01
        2   -1    0    0  501    0  0.00000000000E+00  0.00000000000E+00  0.14503540521E+04  0.14503540521E+04  0.25500000920E-02 0. -1.
       -2   -1    0    0    0  501  0.00000000000E+00  0.00000000000E+00 -0.14447991514E+04  0.14447991514E+04  0.25500000920E-02 0.  1.
    10030    2    1    2    0    0  0.00000000000E+00  0.00000000000E+00  0.55549007197E+01  0.28951532035E+04  0.28951478745E+04 0.  0.
        1    1    3    3  502    0  0.71663937880E+02  0.60426804521E+03  0.13162465457E+04  0.14500967414E+04  0.50400001928E-02 0. -1.
       -1    1    3    3    0  502 -0.71663937880E+02 -0.60426804521E+03 -0.13106916450E+04  0.14450564621E+04  0.50400001928E-02 0.  1.
</event>
<event>
 5   0  0.4148677E-06  0.2892444E+04  0.7818609E-02  0.8275129E-01
        2   -1    0    0  501    0  0.00000000000E+00  0.00000000000E+00  0.15863851364E+04  0.15863851364E+04  0.25500000920E-02 0. -1.
       -2   -1    0    0    0  501  0.00000000000E+00  0.00000000000E+00 -0.13184429075E+04  0.13184429075E+04  0.25500000920E-02 0.  1.
    10030    2    1    2    0    0  0.00000000000E+00  0.00000000000E+00  0.26794222888E+03  0.29048280439E+04  0.28924441095E+04 0.  0.
        5    1    3    3  502    0  0.52411099270E+03 -0.13102084327E+03 -0.12132931112E+04  0.13281419569E+04  0.46999998093E+01 0.  1.
       -5    1    3    3    0  502 -0.52411099270E+03  0.13102084327E+03  0.14812353401E+04  0.15766860870E+04  0.46999998093E+01 0. -1.
</event>
<event>
 5   0  0.4115143E-06  0.2904838E+04  0.7818609E-02  0.8271440E-01
        2   -1    0    0  501    0  0.00000000000E+00  0.00000000000E+00  0.17408633303E+04  0.17408633303E+04  0.25500000920E-02 0.  1.
       -2   -1    0    0    0  501  0.00000000000E+00  0.00000000000E+00 -0.12117669769E+04  0.12117669769E+04  0.25500000920E-02 0. -1.
    10030    2    1    2    0    0  0.00000000000E+00  0.00000000000E+00  0.52909635337E+03  0.29526303072E+04  0.29048378233E+04 0.  0.
        1    1    3    3  502    0  0.86205710146E+03  0.85948447786E+03 -0.54073945370E+03  0.13320117006E+04  0.50400001928E-02 0. -1.
       -1    1    3    3    0  502 -0.86205710146E+03 -0.85948447786E+03  0.10698358071E+04  0.16206186066E+04  0.50400001928E-02 0.  1.
</event>
<event>
 5   0  0.1580212E-06  0.2939532E+04  0.7818609E-02  0.8261212E-01
       -1   -1    0    0    0  501  0.00000000000E+00  0.00000000000E+00  0.76099464866E+03  0.76099464868E+03  0.50400001928E-02 0. -1.
        1   -1    0    0  501    0  0.00000000000E+00  0.00000000000E+00 -0.28386694627E+04  0.28386694627E+04  0.50400001928E-02 0.  1.
    10030    2    1    2    0    0  0.00000000000E+00  0.00000000000E+00 -0.20776748140E+04  0.35996641114E+04  0.29395321196E+04 0.  0.
        4    1    3    3  502    0  0.14631511678E+04  0.13158716673E+03 -0.98293291446E+03  0.17675647795E+04  0.12699999809E+01 0. -1.
       -4    1    3    3    0  502 -0.14631511678E+04 -0.13158716673E+03 -0.10947418996E+04  0.18320993319E+04  0.12699999809E+01 0.  1.
</event>
<event>
 5   0  0.1543678E-06  0.2905032E+04  0.7818609E-02  0.8271382E-01
        1   -1    0    0  501    0  0.00000000000E+00  0.00000000000E+00  0.20764642850E+04  0.20764642850E+04  0.50400001928E-02 0.  1.
       -1   -1    0    0    0  501  0.00000000000E+00  0.00000000000E+00 -0.10160551368E+04  0.10160551368E+04  0.50400001928E-02 0. -1.
    10030    2    1    2    0    0  0.00000000000E+00  0.00000000000E+00  0.10604091482E+04  0.30925194219E+04  0.29050316372E+04 0.  0.
        3    1    3    3  502    0 -0.22579893954E+03  0.81026368060E+03 -0.73040458112E+03  0.11140032565E+04  0.10100000352E+00 0. -1.
       -3    1    3    3    0  502  0.22579893954E+03 -0.81026368060E+03  0.17908137293E+04  0.19785161654E+04  0.10100000352E+00 0.  1.
</event>
<event>
 5   0  0.4115143E-06  0.2898169E+04  0.7818609E-02  0.8273422E-01
       -2   -1    0    0    0  501  0.00000000000E+00  0.00000000000E+00  0.13900027459E+04  0.13900027459E+04  0.25500000920E-02 0. -1.
        2   -1    0    0  501    0  0.00000000000E+00  0.00000000000E+00 -0.15106775947E+04  0.15106775947E+04  0.25500000920E-02 0.  1.
    10030    2    1    2    0    0  0.00000000000E+00  0.00000000000E+00 -0.12067484880E+03  0.29006803406E+04  0.28981690805E+04 0.  0.
        1    1    3    3  502    0  0.93466955935E+03 -0.10107374425E+04 -0.51311049255E+03  0.14691765518E+04  0.50400001928E-02 0. -1.
       -1    1    3    3    0  502 -0.93466955935E+03  0.10107374425E+04  0.39243564375E+03  0.14315037888E+04  0.50400001928E-02 0.  1.
</event>
<event>
 5   0  0.1550278E-06  0.2892561E+04  0.7818609E-02  0.8275094E-01
        1   -1    0    0  501    0  0.00000000000E+00  0.00000000000E+00  0.92782319809E+03  0.92782319810E+03  0.50400001928E-02 0. -1.
       -1   -1    0    0    0  501  0.00000000000E+00  0.00000000000E+00 -0.22544454809E+04  0.22544454809E+04  0.50400001928E-02 0.  1.
    10030    2    1    2    0    0  0.00000000000E+00  0.00000000000E+00 -0.13266222828E+04  0.31822686790E+04  0.28925606760E+04 0.  0.
        2    1    3    3  502    0 -0.18704124985E+03  0.11101090688E+04  0.33559209900E+03  0.11747121481E+04  0.25500000920E-02 0. -1.
       -2    1    3    3    0  502  0.18704124985E+03 -0.11101090688E+04 -0.16622143818E+04  0.20075565310E+04  0.25500000920E-02 0.  1.
</event>
<event>
 5   0  0.4162450E-06  0.2884385E+04  0.7818609E-02  0.8277539E-01
       -2   -1    0    0    0  501  0.00000000000E+00  0.00000000000E+00  0.73939555375E+03  0.73939555375E+03  0.25500000920E-02 0.  1.
        2   -1    0    0  501    0  0.00000000000E+00  0.00000000000E+00 -0.28129986564E+04  0.28129986564E+04  0.25500000920E-02 0. -1.
    10030    2    1    2    0    0  0.00000000000E+00  0.00000000000E+00 -0.20736031027E+04  0.35523942102E+04  0.28843846479E+04 0.  0.
        2    1    3    3  502    0 -0.93276888021E+03 -0.62140914673E+03  0.80976470147E+02  0.11237278586E+04  0.25500000920E-02 0.  1.
       -2    1    3    3    0  502  0.93276888021E+03  0.62140914673E+03 -0.21545795728E+04  0.24286663515E+04  0.25500000920E-02 0. -1.
</event>
<event>
 5   0  0.1580212E-06  0.2868267E+04  0.7818609E-02  0.8282382E-01
       -1   -1    0    0    0  501  0.00000000000E+00  0.00000000000E+00  0.10805780219E+04  0.10805780219E+04  0.50400001928E-02 0. -1.
        1   -1    0    0  501    0  0.00000000000E+00  0.00000000000E+00 -0.19033691939E+04  0.19033691939E+04  0.50400001928E-02 0.  1.
    10030    2    1    2    0    0  0.00000000000E+00  0.00000000000E+00 -0.82279117198E+03  0.29839472158E+04  0.28682670158E+04 0.  0.
        4    1    3    3  502    0  0.41758547028E+03 -0.85800766691E+03 -0.15251731085E+04  0.17990857137E+04  0.12699999809E+01 0.  1.
       -4    1    3    3    0  502 -0.41758547028E+03  0.85800766691E+03  0.70238193653E+03  0.11848615021E+04  0.12699999809E+01 0. -1.
</event>
<event>
 5   0  0.4148677E-06  0.3009895E+04  0.7818609E-02  0.8240911E-01
       -2   -1    0    0    0  501  0.00000000000E+00  0.00000000000E+00  0.14087555176E+04  0.14087555176E+04  0.25500000920E-02 0.  1.
        2   -1    0    0  501    0  0.00000000000E+00  0.00000000000E+00 -0.16077075756E+04  0.16077075756E+04  0.25500000920E-02 0. -1.
    10030    2    1    2    0    0  0.00000000000E+00  0.00000000000E+00 -0.19895205798E+03  0.30164630931E+04  0.30098949601E+04 0.  0.
        5    1    3    3  502    0 -0.62122744644E+03 -0.10938487714E+04 -0.92736352881E+03  0.15628352055E+04  0.46999998093E+01 0. -1.
       -5    1    3    3    0  502  0.62122744644E+03  0.10938487714E+04  0.72841147082E+03  0.14536278877E+04  0.46999998093E+01 0.  1.
</event>
<event>
 5   0  0.1602873E-06  0.2899448E+04  0.7818609E-02  0.8273042E-01
       -1   -1    0    0    0  501  0.00000000000E+00  0.00000000000E+00  0.10455507482E+04  0.10455507483E+04  0.50400001928E-02 0.  1.
        1   -1    0    0  501    0  0.00000000000E+00  0.00000000000E+00 -0.20101362284E+04  0.20101362284E+04  0.50400001928E-02 0. -1.
    10030    2    1    2    0    0  0.00000000000E+00  0.00000000000E+00 -0.96458548011E+03  0.30556869766E+04  0.28994478355E+04 0.  0.
        1    1    3    3  502    0  0.99848737879E+03  0.10411657659E+04 -0.63390673390E+03  0.15757033176E+04  0.50400001928E-02 0. -1.
       -1    1    3    3    0  502 -0.99848737879E+03 -0.10411657659E+04 -0.33067874621E+03  0.14799836590E+04  0.50400001928E-02 0.  1.
</event>
<event>
 5   0  0.4115143E-06  0.2896339E+04  0.7818609E-02  0.8273968E-01
       -2   -1    0    0    0  501  0.00000000000E+00  0.00000000000E+00  0.10770816415E+04  0.10770816415E+04  0.25500000920E-02 0.  1.
        2   -1    0    0  501    0  0.00000000000E+00  0.00000000000E+00 -0.19471082170E+04  0.19471082170E+04  0.25500000920E-02 0. -1.
    10030    2    1    2    0    0  0.00000000000E+00  0.00000000000E+00 -0.87002657550E+03  0.30241898584E+04  0.28963387333E+04 0.  0.
        1    1    3    3  502    0  0.77674412443E+03  0.76136260817E+03  0.56332550635E+03  0.12248837015E+04  0.50400001928E-02 0.  1.
       -1    1    3    3    0  502 -0.77674412443E+03 -0.76136260817E+03 -0.14333520818E+04  0.17993061570E+04  0.50400001928E-02 0. -1.
</event>
<event>
 5   0  0.1550278E-06  0.2905293E+04  0.7818609E-02  0.8271304E-01
        1   -1    0    0  501    0  0.00000000000E+00  0.00000000000E+00  0.17281398913E+04  0.17281398913E+04  0.50400001928E-02 0.  1.
       -1   -1    0    0    0  501  0.00000000000E+00  0.00000000000E+00 -0.12210713207E+04  0.12210713207E+04  0.50400001928E-02 0. -1.
    10030    2    1    2    0    0  0.00000000000E+00  0.00000000000E+00  0.50706857058E+03  0.29492112120E+04  0.29052931414E+04 0.  0.
        2    1    3    3  502    0  0.11667332446E+04  0.73648889680E+03 -0.20775740370E+03  0.13952940543E+04  0.25500000920E-02 0.  1.
       -2    1    3    3    0  502 -0.11667332446E+04 -0.73648889680E+03  0.71482597427E+03  0.15539171576E+04  0.25500000920E-02 0. -1.
</event>
<event>
 5   0  0.1550278E-06  0.2885079E+04  0.7818609E-02  0.8277331E-01
       -1   -1    0    0    0  501  0.00000000000E+00  0.00000000000E+00  0.12449468772E+04  0.12449468772E+04  0.50400001928E-02 0. -1.
        1   -1    0    0  501    0  0.00000000000E+00  0.00000000000E+00 -0.16714936194E+04  0.16714936194E+04  0.50400001928E-02 0.  1.
    10030    2    1    2    0    0  0.00000000000E+00  0.00000000000E+00 -0.42654674218E+03  0.29164404966E+04  0.28850793831E+04 0.  0.
        2    1    3    3  502    0  0.78603297517E+03 -0.22985298540E+03 -0.14137174908E+04  0.16337923297E+04  0.25500000920E-02 0.  1.
       -2    1    3    3    0  502 -0.78603297517E+03  0.22985298540E+03  0.98717074862E+03  0.12826481668E+04  0.25500000920E-02 0. -1.
</event>
<event>
 5   0  0.1511126E-06  0.2877269E+04  0.7818609E-02  0.8279673E-01
        1   -1    0    0  501    0  0.00000000000E+00  0.00000000000E+00  0.15239349834E+04  0.15239349835E+04  0.50400001928E-02 0.  1.
       -1   -1    0    0    0  501  0.00000000000E+00  0.00000000000E+00 -0.13581089191E+04  0.13581089191E+04  0.50400001928E-02 0. -1.
    10030    2    1    2    0    0  0.00000000000E+00  0.00000000000E+00  0.16582606436E+03  0.28820439025E+04  0.28772693257E+04 0.  0.
        5    1    3    3  502    0 -0.90381594638E+03 -0.99273947011E+03  0.60071638973E+03  0.14708151452E+04  0.46999998093E+01 0.  1.
       -5    1    3    3    0  502  0.90381594638E+03  0.99273947011E+03 -0.43489032536E+03  0.14112287573E+04  0.46999998093E+01 0. -1.
</event>
<event>
 5   0  0.1511126E-06  0.2892272E+04  0.7818609E-02  0.8275180E-01
       -1   -1    0    0    0  501  0.00000000000E+00  0.00000000000E+00  0.11187643285E+04  0.11187643285E+04  0.50400001928E-02 0.  1.
        1   -1    0    0  501    0  0.00000000000E+00  0.00000000000E+00 -0.18693032748E+04  0.18693032748E+04  0.50400001928E-02 0. -1.
    10030    2    1    2    0    0  0.00000000000E+00  0.00000000000E+00 -0.75053894632E+03  0.29880676033E+04  0.28922723406E+04 0.  0.
        5    1    3    3  502    0 -0.41892807473E+03  0.13157898006E+04 -0.81901176847E+03  0.16054924161E+04  0.46999998093E+01 0.  1.
       -5    1    3    3    0  502  0.41892807473E+03 -0.13157898006E+04  0.68472822150E+02  0.13825751873E+04  0.46999998093E+01 0. -1.
</event>
<event>
 5   0  0.1580212E-06  0.2886835E+04  0.7818609E-02  0.8276805E-01
       -1   -1    0    0    0  501  0.00000000000E+00  0.00000000000E+00  0.16637895453E+04  0.16637895453E+04  0.50400001928E-02 0. -1.
        1   -1    0    0  501    0  0.00000000000E+00  0.00000000000E+00 -0.12522344215E+04  0.12522344215E+04  0.50400001928E-02 0.  1.
    10030    2    1    2    0    0  0.00000000000E+00  0.00000000000E+00  0.41155512376E+03  0.29160239668E+04  0.28868353183E+04 0.  0.
        4    1    3    3  502    0  0.61160988072E+03 -0.24112354882E+03 -0.10922231506E+04  0.12748177264E+04  0.12699999809E+01 0.  1.
       -4    1    3    3    0  502 -0.61160988072E+03  0.24112354882E+03  0.15037782744E+04  0.16412062404E+04  0.12699999809E+01 0. -1.
</event>
<event>
 5   0  0.4224163E-06  0.2896399E+04  0.7818609E-02  0.8273950E-01
        2   -1    0    0  501    0  0.00000000000E+00  0.00000000000E+00  0.14623268347E+04  0.14623268347E+04  0.25500000920E-02 0.  1.
       -2   -1    0    0    0  501  0.00000000000E+00  0.00000000000E+00 -0.14342084567E+04  0.14342084567E+04  0.25500000920E-02 0. -1.
    10030    2    1    2    0    0  0.00000000000E+00  0.00000000000E+00  0.28118377950E+02  0.28965352914E+04  0.28963988074E+04 0.  0.
        4    1    3    3  502    0 -0.36763711849E+03 -0.20536471817E+03  0.13997464298E+04  0.14617193297E+04  0.12699999809E+01 0.  1.
       -4    1    3    3    0  502  0.36763711849E+03  0.20536471817E+03 -0.13716280518E+04  0.14348159617E+04  0.12699999809E+01 0. -1.
</event>
<event>
 5   0  0.4115143E-06  0.2889695E+04  0.7818609E-02  0.8275950E-01
       -2   -1    0    0    0  501  0.00000000000E+00  0.00000000000E+00  0.12465504621E+04  0.12465504621E+04  0.25500000920E-02 0.  1.
        2   -1    0    0  501    0  0.00000000000E+00  0.00000000000E+00 -0.16746889895E+04  0.16746889895E+04  0.25500000920E-02 0. -1.
    10030    2    1    2    0    0  0.00000000000E+00  0.00000000000E+00 -0.42813852739E+03  0.29212394516E+04  0.28896950245E+04 0.  0.
        1    1    3    3  502    0  0.10745276131E+04 -0.56948270871E+03 -0.10027550637E+04  0.15762099684E+04  0.50400001928E-02 0. -1.
       -1    1    3    3    0  502 -0.10745276131E+04  0.56948270871E+03  0.57461653633E+03  0.13450294832E+04  0.50400001928E-02 0.  1.
</event>
<event>
 5   0  0.4148677E-06  0.2868161E+04  0.7818609E-02  0.8282414E-01
       -2   -1    0    0    0  501  0.00000000000E+00  0.00000000000E+00  0.15065162735E+04  0.15065162735E+04  0.25500000920E-02 0. -1.
        2   -1    0    0  501    0  0.00000000000E+00  0.00000000000E+00 -0.13651275221E+04  0.13651275221E+04  0.25500000920E-02 0.  1.
    10030    2    1    2    0    0  0.00000000000E+00  0.00000000000E+00  0.14138875145E+03  0.28716437956E+04  0.28681609630E+04 0.  0.
        5    1    3    3  502    0  0.44843644244E+02 -0.80619033993E+03  0.12572963538E+04  0.14942456384E+04  0.46999998093E+01 0. -1.
       -5    1    3    3    0  502 -0.44843644244E+02  0.80619033993E+03 -0.11159076023E+04  0.13773981572E+04  0.46999998093E+01 0.  1.
</event>
<event>
 5   0  0.4162450E-06  0.2874317E+04  0.7818609E-02  0.8280560E-01
        2   -1    0    0  501    0  0.00000000000E+00  0.00000000000E+00  0.22701312502E+04  0.22701312502E+04  0.25500000920E-02 0.  1.
       -2   -1    0    0    0  501  0.00000000000E+00  0.00000000000E+00 -0.90982610046E+03  0.90982610047E+03  0.25500000920E-02 0. -1.
    10030    2    1    2    0    0  0.00000000000E+00  0.00000000000E+00  0.13603051497E+04  0.31799573507E+04  0.28743170757E+04 0.  0.
        2    1    3    3  502    0 -0.87657822238E+03 -0.11194442133E+04  0.91190250650E+03  0.16891154217E+04  0.25500000920E-02 0.  1.
       -2    1    3    3    0  502  0.87657822238E+03  0.11194442133E+04  0.44840264324E+03  0.14908419289E+04  0.25500000920E-02 0. -1.
</event>
<event>
 5   0  0.1550278E-06  0.2889661E+04  0.7818609E-02  0.8275960E-01
       -1   -1    0    0    0  501  0.00000000000E+00  0.00000000000E+00  0.80988190690E+03  0.80988190691E+03  0.50400001928E-02 0.  1.
        1   -1    0    0  501    0  0.00000000000E+00  0.00000000000E+00 -0.25775796128E+04  0.25775796128E+04  0.50400001928E-02 0. -1.
    10030    2    1    2    0    0  0.00000000000E+00  0.00000000000E+00 -0.17676977059E+04  0.33874615197E+04  0.28896609435E+04 0.  0.
        2    1    3    3  502    0  0.99961389996E+03 -0.89326855582E+03 -0.15155470815E+04  0.20233733264E+04  0.25500000920E-02 0. -1.
       -2    1    3    3    0  502 -0.99961389996E+03  0.89326855582E+03 -0.25215062446E+03  0.13640881933E+04  0.25500000920E-02 0.  1.
</event>
<event>
 5   0  0.1602873E-06  0.2870401E+04  0.7818609E-02  0.8281739E-01
        1   -1    0    0  501    0  0.00000000000E+00  0.00000000000E+00  0.15043575213E+04  0.15043575213E+04  0.50400001928E-02 0.  1.
       -1   -1    0    0    0  501  0.00000000000E+00  0.00000000000E+00 -0.13692224778E+04  0.13692224778E+04  0.50400001928E-02 0. -1.
    10030    2    1    2    0    0  0.00000000000E+00  0.00000000000E+00  0.13513504350E+03  0.28735799991E+04  0.28704007614E+04 0.  0.
        1    1    3    3  502    0 -0.11317002515E+04  0.43039013349E+02 -0.81499971025E+03  0.13952857570E+04  0.50400001928E-02 0. -1.
       -1    1    3    3    0  502  0.11317002515E+04 -0.43039013349E+02  0.95013475374E+03  0.14782942421E+04  0.50400001928E-02 0.  1.
</event>
<event>
 5   0  0.4148677E-06  0.2911713E+04  0.7818609E-02  0.8269401E-01
        2   -1    0    0  501    0  0.00000000000E+00  0.00000000000E+00  0.20147010775E+04  0.20147010775E+04  0.25500000920E-02 0. -1.
       -2   -1    0    0    0  501  0.00000000000E+00  0.00000000000E+00 -0.10520257852E+04  0.10520257852E+04  0.25500000920E-02 0.  1.
    10030    2    1    2    0    0  0.00000000000E+00  0.00000000000E+00  0.96267529226E+03  0.30667268627E+04  0.29117125428E+04 0.  0.
        5    1    3    3  502    0  0.12626484036E+03  0.67981625700E+03 -0.86804194527E+03  0.11097800962E+04  0.46999998093E+01 0.  1.
       -5    1    3    3    0  502 -0.12626484036E+03 -0.67981625700E+03  0.18307172375E+04  0.19569467665E+04  0.46999998093E+01 0. -1.
</event>
<event>
 5   0  0.4115143E-06  0.2906800E+04  0.7818609E-02  0.8270857E-01
        2   -1    0    0  501    0  0.00000000000E+00  0.00000000000E+00  0.19618762159E+04  0.19618762159E+04  0.25500000920E-02 0.  1.
       -2   -1    0    0    0  501  0.00000000000E+00  0.00000000000E+00 -0.10767099493E+04  0.10767099493E+04  0.25500000920E-02 0. -1.
    10030    2    1    2    0    0  0.00000000000E+00  0.00000000000E+00  0.88516626660E+03  0.30385861651E+04  0.29068000556E+04 0.  0.
        1    1    3    3  502    0 -0.42363257539E+02 -0.88329047300E+01 -0.10760363559E+04  0.10769061728E+04  0.50400001928E-02 0. -1.
       -1    1    3    3    0  502  0.42363257539E+02  0.88329047300E+01  0.19612026225E+04  0.19616799923E+04  0.50400001928E-02 0.  1.
</event>
<event>
 5   0  0.1360125E-06  0.2842405E+04  0.7818609E-02  0.8290223E-01
       -3   -1    0    0    0  501  0.00000000000E+00  0.00000000000E+00  0.79514866028E+03  0.79514866669E+03  0.10100000352E+00 0. -1.
        3   -1    0    0  501    0  0.00000000000E+00  0.00000000000E+00 -0.25401746985E+04  0.25401747005E+04  0.10100000352E+00 0.  1.
    10030    2    1    2    0    0  0.00000000000E+00  0.00000000000E+00 -0.17450260383E+04  0.33353233672E+04  0.28424049834E+04 0.  0.
        4    1    3    3  502    0 -0.93487568177E+03 -0.43538776123E+03 -0.20199793594E+04  0.22680108616E+04  0.12699999809E+01 0.  1.
       -4    1    3    3    0  502  0.93487568177E+03  0.43538776123E+03  0.27495332115E+03  0.10673125056E+04  0.12699999809E+01 0. -1.
</event>
<event>
 5   0  0.1543678E-06  0.2900279E+04  0.7818609E-02  0.8272794E-01
       -1   -1    0    0    0  501  0.00000000000E+00  0.00000000000E+00  0.91629261849E+03  0.91629261850E+03  0.50400001928E-02 0.  1.
        1   -1    0    0  501    0  0.00000000000E+00  0.00000000000E+00 -0.22950149240E+04  0.22950149240E+04  0.50400001928E-02 0. -1.
    10030    2    1    2    0    0  0.00000000000E+00  0.00000000000E+00 -0.13787223055E+04  0.32113075425E+04  0.29002794584E+04 0.  0.
        3    1    3    3  502    0 -0.22887658985E+03 -0.11581290295E+04 -0.16218510559E+04  0.20060030409E+04  0.10100000352E+00 0. -1.
       -3    1    3    3    0  502  0.22887658985E+03  0.11581290295E+04  0.24312875035E+03  0.12053045017E+04  0.10100000352E+00 0.  1.
</event>
<event>
 5   0  0.4148677E-06  0.2880924E+04  0.7818609E-02  0.8278576E-01
       -2   -1    0    0    0  501  0.00000000000E+00  0.00000000000E+00  0.10299083071E+04  0.10299083071E+04  0.25500000920E-02 0. -1.
        2   -1    0    0  501    0  0.00000000000E+00  0.00000000000E+00 -0.20146756032E+04  0.20146756032E+04  0.25500000920E-02 0.  1.
    10030    2    1    2    0    0  0.00000000000E+00  0.00000000000E+00 -0.98476729613E+03  0.30445839102E+04  0.28809242543E+04 0.  0.
        5    1    3    3  502    0  0.84782142338E+03  0.19563728223E+03 -0.17055670274E+04  0.19146947764E+04  0.46999998093E+01 0.  1.
       -5    1    3    3    0  502 -0.84782142338E+03 -0.19563728223E+03  0.72079973122E+03  0.11298891338E+04  0.46999998093E+01 0. -1.
</event>
<event>
 5   0  0.1543678E-06  0.2894582E+04  0.7818609E-02  0.8274491E-01
        1   -1    0    0  501    0  0.00000000000E+00  0.00000000000E+00  0.14207266757E+04  0.14207266757E+04  0.50400001928E-02 0. -1.
       -1   -1    0    0    0  501  0.00000000000E+00  0.00000000000E+00 -0.14743515072E+04  0.14743515072E+04  0.50400001928E-02 0.  1.
    10030    2    1    2    0    0  0.00000000000E+00  0.00000000000E+00 -0.53624831478E+02  0.28950781829E+04  0.28945815004E+04 0.  0.
        3    1    3    3  502    0  0.12622047171E+04  0.33741340764E+03  0.59590340437E+03  0.14360046773E+04  0.10100000352E+00 0. -1.
       -3    1    3    3    0  502 -0.12622047171E+04 -0.33741340764E+03 -0.64952823584E+03  0.14590735057E+04  0.10100000352E+00 0.  1.
</event>
<event>
 5   0  0.4148677E-06  0.2865344E+04  0.7818609E-02  0.8283264E-01
       -2   -1    0    0    0  501  0.00000000000E+00  0.00000000000E+00  0.99665990708E+03  0.99665990708E+03  0.25500000920E-02 0. -1.
        2   -1    0    0  501    0  0.00000000000E+00  0.00000000000E+00 -0.20594282971E+04  0.20594282971E+04  0.25500000920E-02 0.  1.
    10030    2    1    2    0    0  0.00000000000E+00  0.00000000000E+00 -0.10627683900E+04  0.30560882042E+04  0.28653443878E+04 0.  0.
        5    1    3    3  502    0  0.85464980154E+03  0.71805374334E+02 -0.17553602279E+04  0.19536872613E+04  0.46999998093E+01 0.  1.
       -5    1    3    3    0  502 -0.85464980154E+03 -0.71805374334E+02  0.69259183789E+03  0.11024009429E+04  0.46999998093E+01 0. -1.
</event>
<event>
 5   0  0.1550278E-06  0.2898331E+04  0.7818609E-02  0.8273374E-01
       -1   -1    0    0    0  501  0.00000000000E+00  0.00000000000E+00  0.17175537678E+04  0.17175537678E+04  0.50400001928E-02 0.  1.
        1   -1    0    0  501    0  0.00000000000E+00  0.00000000000E+00 -0.12227164181E+04  0.12227164182E+04  0.50400001928E-02 0. -1.
    10030    2    1    2    0    0  0.00000000000E+00  0.00000000000E+00  0.49483734962E+03  0.29402701859E+04  0.28983313758E+04 0.  0.
        2    1    3    3  502    0 -0.22470207729E+03  0.99011621864E+03  0.12964316755E+04  0.16466803695E+04  0.25500000920E-02 0.  1.
       -2    1    3    3    0  502  0.22470207729E+03 -0.99011621864E+03 -0.80159432588E+03  0.12935898165E+04  0.25500000920E-02 0. -1.
</event>
<event>
 5   0  0.4115143E-06  0.2911638E+04  0.7818609E-02  0.8269423E-01
        2   -1    0    0  501    0  0.00000000000E+00  0.00000000000E+00  0.10338758342E+04  0.10338758342E+04  0.25500000920E-02 0. -1.
       -2   -1    0    0    0  501  0.00000000000E+00  0.00000000000E+00 -0.20499644228E+04  0.20499644228E+04  0.25500000920E-02 0.  1.
    10030    2    1    2    0    0  0.00000000000E+00  0.00000000000E+00 -0.10160885886E+04  0.30838402569E+04  0.29116378055E+04 0.  0.
        1    1    3    3  502    0 -0.90355849584E+03 -0.14889712347E+03  0.69062294689E+03  0.11469735671E+04  0.50400001928E-02 0. -1.
       -1    1    3    3    0  502  0.90355849584E+03  0.14889712347E+03 -0.17067115355E+04  0.19368666899E+04  0.50400001928E-02 0.  1.
</event>
<event>
 5   0  0.1550278E-06  0.2841356E+04  0.7818609E-02  0.8290543E-01
       -1   -1    0    0    0  501  0.00000000000E+00  0.00000000000E+00  0.14841173955E+04  0.14841173955E+04  0.50400001928E-02 0.  1.
        1   -1    0    0  501    0  0.00000000000E+00  0.00000000000E+00 -0.13599503186E+04  0.13599503186E+04  0.50400001928E-02 0. -1.
    10030    2    1    2    0    0  0.00000000000E+00  0.00000000000E+00  0.12416707690E+03  0.28440677140E+04  0.28413559613E+04 0.  0.
        2    1    3    3  502    0 -0.51521899483E+03  0.34278299157E+03  0.13421218907E+04  0.14779181173E+04  0.25500000920E-02 0.  1.
       -2    1    3    3    0  502  0.51521899483E+03 -0.34278299157E+03 -0.12179548139E+04  0.13661495967E+04  0.25500000920E-02 0. -1.
</event>
<event>
 5   0  0.4224163E-06  0.2912635E+04  0.7818609E-02  0.8269128E-01
        2   -1    0    0  501    0  0.00000000000E+00  0.00000000000E+00  0.21934463217E+04  0.21934463218E+04  0.25500000920E-02 0.  1.
       -2   -1    0    0    0  501  0.00000000000E+00  0.00000000000E+00 -0.96690823039E+03  0.96690823039E+03  0.25500000920E-02 0. -1.
    10030    2    1    2    0    0  0.00000000000E+00  0.00000000000E+00  0.12265380914E+04  0.31603545521E+04  0.29126354399E+04 0.  0.
        4    1    3    3  502    0  0.33643764377E+03 -0.75705607990E+03 -0.68631786063E+03  0.10758057515E+04  0.12699999809E+01 0. -1.
       -4    1    3    3    0  502 -0.33643764377E+03  0.75705607990E+03  0.19128559520E+04  0.20845488006E+04  0.12699999809E+01 0.  1.
</event>
<event>
 5   0  0.1580212E-06  0.2904727E+04  0.7818609E-02  0.8271473E-01
        1   -1    0    0  501    0  0.00000000000E+00  0.00000000000E+00  0.22121067635E+04  0.22121067636E+04  0.50400001928E-02 0. -1.
       -1   -1    0    0    0  501  0.00000000000E+00  0.00000000000E+00 -0.95355222841E+03  0.95355222842E+03  0.50400001928E-02 0.  1.
    10030    2    1    2    0    0  0.00000000000E+00  0.00000000000E+00  0.12585545351E+04  0.31656589920E+04  0.29047267230E+04 0.  0.
        4    1    3    3  502    0  0.82726175519E+03  0.62225232340E+03 -0.48095849797E+03  0.11414388530E+04  0.12699999809E+01 0.  1.
       -4    1    3    3    0  502 -0.82726175519E+03 -0.62225232340E+03  0.17395130331E+04  0.20242201389E+04  0.12699999809E+01 0. -1.
</event>
<event>
 5   0  0.1550278E-06  0.2879852E+04  0.7818609E-02  0.8278897E-01
        1   -1    0    0  501    0  0.00000000000E+00  0.00000000000E+00  0.14620229692E+04  0.14620229692E+04  0.50400001928E-02 0.  1.
       -1   -1    0    0    0  501  0.00000000000E+00  0.00000000000E+00 -0.14181633398E+04  0.14181633398E+04  0.50400001928E-02 0. -1.
    10030    2    1    2    0    0  0.00000000000E+00  0.00000000000E+00  0.43859629341E+02  0.28801863090E+04  0.28798523413E+04 0.  0.
        2    1    3    3  502    0 -0.12221344513E+04 -0.13829806896E+03 -0.72692160237E+03  0.14286896056E+04  0.25500000920E-02 0. -1.
       -2    1    3    3    0  502  0.12221344513E+04  0.13829806896E+03  0.77078123171E+03  0.14514967035E+04  0.25500000920E-02 0.  1.
</event>
<event>
 5   0  0.1511126E-06  0.2902232E+04  0.7818609E-02  0.8272214E-01
       -1   -1    0    0    0  501  0.00000000000E+00  0.00000000000E+00  0.10873203381E+04  0.10873203381E+04  0.50400001928E-02 0.  1.
        1   -1    0    0  501    0  0.00000000000E+00  0.00000000000E+00 -0.19366298015E+04  0.19366298015E+04  0.50400001928E-02 0. -1.
    10030    2    1    2    0    0  0.00000000000E+00  0.00000000000E+00 -0.84930946342E+03  0.30239501397E+04  0.29022315350E+04 0.  0.
        5    1    3    3  502    0  0.14103854994E+04 -0.33751730194E+03 -0.37142706794E+03  0.14970254984E+04  0.46999998093E+01 0.  1.
       -5    1    3    3    0  502 -0.14103854994E+04  0.33751730194E+03 -0.47788239548E+03  0.15269246412E+04  0.46999998093E+01 0. -1.
</event>
<event>
 5   0  0.1550278E-06  0.2905169E+04  0.7818609E-02  0.8271341E-01
       -1   -1    0    0    0  501  0.00000000000E+00  0.00000000000E+00  0.88102590478E+03  0.88102590479E+03  0.50400001928E-02 0.  1.
        1   -1    0    0  501    0  0.00000000000E+00  0.00000000000E+00 -0.23949371650E+04  0.23949371651E+04  0.50400001928E-02 0. -1.
    10030    2    1    2    0    0  0.00000000000E+00  0.00000000000E+00 -0.15139112603E+04  0.32759630698E+04  0.29051689677E+04 0.  0.
        2    1    3    3  502    0  0.93897151133E+02  0.69172229131E+03  0.67948415523E+03  0.97416380578E+03  0.25500000920E-02 0.  1.
       -2    1    3    3    0  502 -0.93897151133E+02 -0.69172229131E+03 -0.21933954155E+04  0.23017992641E+04  0.25500000920E-02 0. -1.
</event>
<event>
 5   0  0.1543678E-06  0.2876526E+04  0.7818609E-02  0.8279896E-01
       -1   -1    0    0    0  501  0.00000000000E+00  0.00000000000E+00  0.85852945616E+03  0.85852945617E+03  0.50400001928E-02 0.  1.
        1   -1    0    0  501    0  0.00000000000E+00  0.00000000000E+00 -0.24094687968E+04  0.24094687968E+04  0.50400001928E-02 0. -1.
    10030    2    1    2    0    0  0.00000000000E+00  0.00000000000E+00 -0.15509393406E+04  0.32679982530E+04  0.28765256375E+04 0.  0.
        3    1    3    3  502    0 -0.83165430194E+03  0.94828479793E+03 -0.15606951156E+04  0.20066544769E+04  0.10100000352E+00 0. -1.
       -3    1    3    3    0  502  0.83165430194E+03 -0.94828479793E+03  0.97557749336E+01  0.12613437760E+04  0.10100000352E+00 0.  1.
</event>
<event>
 5   0  0.1511126E-06  0.3010802E+04  0.7818609E-02  0.8240653E-01
        1   -1    0    0  501    0  0.00000000000E+00  0.00000000000E+00  0.16745498988E+04  0.16745498988E+04  0.50400001928E-02 0.  1.
       -1   -1    0    0    0  501  0.00000000000E+00  0.00000000000E+00 -0.13533382069E+04  0.13533382070E+04  0.50400001928E-02 0. -1.
    10030    2    1    2    0    0  0.00000000000E+00  0.00000000000E+00  0.32121169188E+03  0.30278881058E+04  0.30108021240E+04 0.  0.
        5    1    3    3  502    0  0.11433561707E+04 -0.95208571542E+03 -0.69778721136E+02  0.14895038444E+04  0.46999998093E+01 0. -1.
       -5    1    3    3    0  502 -0.11433561707E+04  0.95208571542E+03  0.39099041302E+03  0.15383842614E+04  0.46999998093E+01 0.  1.
</event>
<event>
 5   0  0.1511126E-06  0.2920949E+04  0.7818609E-02  0.8266672E-01
        1   -1    0    0  501    0  0.00000000000E+00  0.00000000000E+00  0.14754763632E+04  0.14754763632E+04  0.50400001928E-02 0.  1.
       -1   -1    0    0    0  501  0.00000000000E+00  0.00000000000E+00 -0.14456249009E+04  0.14456249009E+04  0.50400001928E-02 0. -1.
    10030    2    1    2    0    0  0.00000000000E+00  0.00000000000E+00  0.29851462270E+02  0.29211012642E+04  0.29209487304E+04 0.  0.
        5    1    3    3  502    0 -0.67224808817E+03  0.12663606881E+04  0.29310638931E+03  0.14633934296E+04  0.46999998093E+01 0.  1.
       -5    1    3    3    0  502  0.67224808817E+03 -0.12663606881E+04 -0.26325492704E+03  0.14577078346E+04  0.46999998093E+01 0. -1.
</event>
<event>
 5   0  0.1511126E-06  0.2922270E+04  0.7818609E-02  0.8266282E-01
       -1   -1    0    0    0  501  0.00000000000E+00  0.00000000000E+00  0.18749242097E+04  0.18749242098E+04  0.50400001928E-02 0.  1.
        1   -1    0    0  501    0  0.00000000000E+00  0.00000000000E+00 -0.11386678742E+04  0.11386678742E+04  0.50400001928E-02 0. -1.
    10030    2    1    2    0    0  0.00000000000E+00  0.00000000000E+00  0.73625633559E+03  0.30135920839E+04  0.29222703257E+04 0.  0.
        5    1    3    3  502    0  0.87204361423E+02 -0.39383930403E+03  0.18163575017E+04  0.18606156674E+04  0.46999998093E+01 0.  1.
       -5    1    3    3    0  502 -0.87204361423E+02  0.39383930403E+03 -0.10801011661E+04  0.11529764165E+04  0.46999998093E+01 0. -1.
</event>
<event>
 5   0  0.4224163E-06  0.2897577E+04  0.7818609E-02  0.8273599E-01
        2   -1    0    0  501    0  0.00000000000E+00  0.00000000000E+00  0.23318226201E+04  0.23318226201E+04  0.25500000920E-02 0. -1.
       -2   -1    0    0    0  501  0.00000000000E+00  0.00000000000E+00 -0.90014905573E+03  0.90014905573E+03  0.25500000920E-02 0.  1.
    10030    2    1    2    0    0  0.00000000000E+00  0.00000000000E+00  0.14316735644E+04  0.32319716759E+04  0.28975768702E+04 0.  0.
        4    1    3    3  502    0 -0.12841390252E+04 -0.13277418937E+03 -0.17574263330E+02  0.12911051425E+04  0.12699999809E+01 0.  1.
       -4    1    3    3    0  502  0.12841390252E+04  0.13277418937E+03  0.14492478277E+04  0.19408665334E+04  0.12699999809E+01 0. -1.
</event>
<event>
 5   0  0.1580212E-06  0.2899588E+04  0.7818609E-02  0.8273000E-01
       -1   -1    0    0    0  501  0.00000000000E+00  0.00000000000E+00  0.93375985797E+03  0.93375985798E+03  0.50400001928E-02 0.  1.
        1   -1    0    0  501    0  0.00000000000E+00  0.00000000000E+00 -0.22510091108E+04  0.22510091108E+04  0.50400001928E-02 0. -1.
    10030    2    1    2    0    0  0.00000000000E+00  0.00000000000E+00 -0.13172492528E+04  0.31847689688E+04  0.28995875207E+04 0.  0.
        4    1    3    3  502    0 -0.13071472624E+04 -0.62423872216E+03 -0.59279320149E+03  0.15651560116E+04  0.12699999809E+01 0.  1.
       -4    1    3    3    0  502  0.13071472624E+04  0.62423872216E+03 -0.72445605134E+03  0.16196129572E+04  0.12699999809E+01 0. -1.
</event>
<event>
 5   0  0.4187518E-06  0.2900142E+04  0.7818609E-02  0.8272835E-01
       -2   -1    0    0    0  501  0.00000000000E+00  0.00000000000E+00  0.10026626200E+04  0.10026626200E+04  0.25500000920E-02 0. -1.
        2   -1    0    0  501    0  0.00000000000E+00  0.00000000000E+00 -0.20971224568E+04  0.20971224568E+04  0.25500000920E-02 0.  1.
    10030    2    1    2    0    0  0.00000000000E+00  0.00000000000E+00 -0.10944598368E+04  0.30997850768E+04  0.29001422703E+04 0.  0.
        3    1    3    3  502    0  0.55705763882E+03  0.76465100393E+03  0.62737592616E+03  0.11351673593E+04  0.10100000352E+00 0. -1.
       -3    1    3    3    0  502 -0.55705763882E+03 -0.76465100393E+03 -0.17218357630E+04  0.19646177175E+04  0.10100000352E+00 0.  1.
</event>
<event>
 5   0  0.4115143E-06  0.2897792E+04  0.7818609E-02  0.8273535E-01
       -2   -1    0    0    0  501  0.00000000000E+00  0.00000000000E+00  0.13798030157E+04  0.13798030157E+04  0.25500000920E-02 0.  1.
        2   -1    0    0  501    0  0.00000000000E+00  0.00000000000E+00 -0.15214483337E+04  0.15214483337E+04  0.25500000920E-02 0. -1.
    10030    2    1    2    0    0  0.00000000000E+00  0.00000000000E+00 -0.14164531806E+03  0.29012513494E+04  0.28977915723E+04 0.  0.
        1    1    3    3  502    0 -0.56629067627E+02  0.27547205842E+03 -0.14938596115E+04  0.15201013931E+04  0.50400001928E-02 0. -1.
       -1    1    3    3    0  502  0.56629067627E+02 -0.27547205842E+03  0.13522142935E+04  0.13811499563E+04  0.50400001928E-02 0.  1.
</event>
<event>
 5   0  0.1580212E-06  0.2859329E+04  0.7818609E-02  0.8285082E-01
        1   -1    0    0  501    0  0.00000000000E+00  0.00000000000E+00  0.21841479987E+04  0.21841479987E+04  0.50400001928E-02 0.  1.
       -1   -1    0    0    0  501  0.00000000000E+00  0.00000000000E+00 -0.93580685370E+03  0.93580685371E+03  0.50400001928E-02 0. -1.
    10030    2    1    2    0    0  0.00000000000E+00  0.00000000000E+00  0.12483411450E+04  0.31199548524E+04  0.28593290589E+04 0.  0.
        4    1    3    3  502    0 -0.75402723987E+02  0.41780303582E+03 -0.86543568332E+03  0.96396342378E+03  0.12699999809E+01 0. -1.
       -4    1    3    3    0  502  0.75402723987E+02 -0.41780303582E+03  0.21137768283E+04  0.21559914287E+04  0.12699999809E+01 0.  1.
</event>
<event>
 5   0  0.4115143E-06  0.2891203E+04  0.7818609E-02  0.8275500E-01
       -2   -1    0    0    0  501  0.00000000000E+00  0.00000000000E+00  0.19864976791E+04  0.19864976791E+04  0.25500000920E-02 0.  1.
        2   -1    0    0  501    0  0.00000000000E+00  0.00000000000E+00 -0.10519839388E+04  0.10519839388E+04  0.25500000920E-02 0. -1.
    10030    2    1    2    0    0  0.00000000000E+00  0.00000000000E+00  0.93451374025E+03  0.30384816179E+04  0.28912029696E+04 0.  0.
        1    1    3    3  502    0 -0.46031275986E+03  0.64499692913E+03  0.17379191787E+04  0.19100450118E+04  0.50400001928E-02 0.  1.
       -1    1    3    3    0  502  0.46031275986E+03 -0.64499692913E+03 -0.80340543844E+03  0.11284366061E+04  0.50400001928E-02 0. -1.
</event>
<event>
 5   0  0.4187518E-06  0.2895441E+04  0.7818609E-02  0.8274235E-01
        2   -1    0    0  501    0  0.00000000000E+00  0.00000000000E+00  0.26473832907E+04  0.26473832907E+04  0.25500000920E-02 0. -1.
       -2   -1    0    0    0  501  0.00000000000E+00  0.00000000000E+00 -0.79168515595E+03  0.79168515595E+03  0.25500000920E-02 0.  1.
    10030    2    1    2    0    0  0.00000000000E+00  0.00000000000E+00  0.18556981347E+04  0.34390684466E+04  0.28954405905E+04 0.  0.
        3    1    3    3  502    0  0.76698699708E+03  0.96787508711E+03  0.30452452495E+02  0.12353050635E+04  0.10100000352E+00 0.  1.
       -3    1    3    3    0  502 -0.76698699708E+03 -0.96787508711E+03  0.18252456822E+04  0.22037633831E+04  0.10100000352E+00 0. -1.
</event>
<event>
 5   0  0.1550278E-06  0.2888272E+04  0.7818609E-02  0.8276376E-01
       -1   -1    0    0    0  501  0.00000000000E+00  0.00000000000E+00  0.14586628063E+04  0.14586628063E+04  0.50400001928E-02 0. -1.
        1   -1    0    0  501    0  0.00000000000E+00  0.00000000000E+00 -0.14297536695E+04  0.14297536696E+04  0.50400001928E-02 0.  1.
    10030    2    1    2    0    0  0.00000000000E+00  0.00000000000E+00  0.28909136787E+02  0.28884164759E+04  0.28882718016E+04 0.  0.
        2    1    3    3  502    0  0.96300578873E+03 -0.36628869459E+03  0.10264246908E+04  0.14543366882E+04  0.25500000920E-02 0. -1.
       -2    1    3    3    0  502 -0.96300578873E+03  0.36628869459E+03 -0.99751555399E+03  0.14340797877E+04  0.25500000920E-02 0.  1.
</event>
<event>
 5   0  0.4187518E-06  0.2917428E+04  0.7818609E-02  0.8267711E-01
       -2   -1    0    0    0  501  0.00000000000E+00  0.00000000000E+00  0.86506337035E+03  0.86506337035E+03  0.25500000920E-02 0. -1.
        2   -1    0    0  501    0  0.00000000000E+00  0.00000000000E+00 -0.24597584943E+04  0.24597584943E+04  0.25500000920E-02 0.  1.
    10030    2    1    2    0    0  0.00000000000E+00  0.00000000000E+00 -0.15946951240E+04  0.33248218647E+04  0.29174283013E+04 0.  0.
        3    1    3    3  502    0  0.56266035606E+03 -0.13246390921E+04 -0.10684566232E+04  0.17924438530E+04  0.10100000352E+00 0. -1.
       -3    1    3    3    0  502 -0.56266035606E+03  0.13246390921E+04 -0.52623850080E+03  0.15323780116E+04  0.10100000352E+00 0.  1.
</event>
<event>
 5   0  0.1602873E-06  0.2931238E+04  0.7818609E-02  0.8263643E-01
       -1   -1    0    0    0  501  0.00000000000E+00  0.00000000000E+00  0.72582121985E+03  0.72582121986E+03  0.50400001928E-02 0.  1.
        1   -1    0    0  501    0  0.00000000000E+00  0.00000000000E+00 -0.29594607343E+04  0.29594607343E+04  0.50400001928E-02 0. -1.
    10030    2    1    2    0    0  0.00000000000E+00  0.00000000000E+00 -0.22336395144E+04  0.36852819542E+04  0.29312382368E+04 0.  0.
        1    1    3    3  502    0 -0.19716827049E+03  0.13672111613E+04 -0.50102972064E+03  0.14694122865E+04  0.50400001928E-02 0.  1.
       -1    1    3    3    0  502  0.19716827049E+03 -0.13672111613E+04 -0.17326097938E+04  0.22158696677E+04  0.50400001928E-02 0. -1.
</event>
<event>
 5   0  0.1550278E-06  0.2898447E+04  0.7818609E-02  0.8273340E-01
       -1   -1    0    0    0  501  0.00000000000E+00  0.00000000000E+00  0.89366120658E+03  0.89366120659E+03  0.50400001928E-02 0. -1.
        1   -1    0    0  501    0  0.00000000000E+00  0.00000000000E+00 -0.23501619020E+04  0.23501619020E+04  0.50400001928E-02 0.  1.
    10030    2    1    2    0    0  0.00000000000E+00  0.00000000000E+00 -0.14565006955E+04  0.32438231086E+04  0.28984468400E+04 0.  0.
        2    1    3    3  502    0  0.38874745256E+03  0.12330281646E+04  0.45771090447E+01  0.12928665772E+04  0.25500000920E-02 0.  1.
       -2    1    3    3    0  502 -0.38874745256E+03 -0.12330281646E+04 -0.14610778045E+04  0.19509565314E+04  0.25500000920E-02 0. -1.
</event>
<event>
 5   0  0.1602873E-06  0.2912491E+04  0.7818609E-02  0.8269171E-01
        1   -1    0    0  501    0  0.00000000000E+00  0.00000000000E+00  0.22034239485E+04  0.22034239485E+04  0.50400001928E-02 0.  1.
       -1   -1    0    0    0  501  0.00000000000E+00  0.00000000000E+00 -0.96243441527E+03  0.96243441529E+03  0.50400001928E-02 0. -1.
    10030    2    1    2    0    0  0.00000000000E+00  0.00000000000E+00  0.12409895332E+04  0.31658583638E+04  0.29124910571E+04 0.  0.
        1    1    3    3  502    0  0.10744305947E+04 -0.37532372465E+03  0.16080340660E+04  0.19700361820E+04  0.50400001928E-02 0.  1.
       -1    1    3    3    0  502 -0.10744305947E+04  0.37532372465E+03 -0.36704453279E+03  0.11958221817E+04  0.50400001928E-02 0. -1.
</event>
<event>
 5   0  0.4115143E-06  0.2901277E+04  0.7818609E-02  0.8272498E-01
       -2   -1    0    0    0  501  0.00000000000E+00  0.00000000000E+00  0.98926693083E+03  0.98926693084E+03  0.25500000920E-02 0.  1.
        2   -1    0    0  501    0  0.00000000000E+00  0.00000000000E+00 -0.21271829410E+04  0.21271829410E+04  0.25500000920E-02 0. -1.
    10030    2    1    2    0    0  0.00000000000E+00  0.00000000000E+00 -0.11379160102E+04  0.31164498719E+04  0.29012767806E+04 0.  0.
        1    1    3    3  502    0 -0.66808559763E+03 -0.12230976263E+04 -0.10013618678E+04  0.17161094836E+04  0.50400001928E-02 0. -1.
       -1    1    3    3    0  502  0.66808559763E+03  0.12230976263E+04 -0.13655414241E+03  0.14003403883E+04  0.50400001928E-02 0.  1.
</event>
<event>
 5   0  0.1602873E-06  0.2914371E+04  0.7818609E-02  0.8268614E-01
       -1   -1    0    0    0  501  0.00000000000E+00  0.00000000000E+00  0.13801011303E+04  0.13801011303E+04  0.50400001928E-02 0.  1.
        1   -1    0    0  501    0  0.00000000000E+00  0.00000000000E+00 -0.15385758384E+04  0.15385758384E+04  0.50400001928E-02 0. -1.
    10030    2    1    2    0    0  0.00000000000E+00  0.00000000000E+00 -0.15847470815E+03  0.29186769687E+04  0.29143714613E+04 0.  0.
        1    1    3    3  502    0 -0.12299761898E+04 -0.83200100043E+02 -0.85731923023E+03  0.15015858107E+04  0.50400001928E-02 0. -1.
       -1    1    3    3    0  502  0.12299761898E+04  0.83200100043E+02  0.69884452208E+03  0.14170911581E+04  0.50400001928E-02 0.  1.
</event>
<event>
 5   0  0.1580212E-06  0.2948496E+04  0.7818609E-02  0.8258593E-01
       -1   -1    0    0    0  501  0.00000000000E+00  0.00000000000E+00  0.12176553359E+04  0.12176553359E+04  0.50400001928E-02 0. -1.
        1   -1    0    0  501    0  0.00000000000E+00  0.00000000000E+00 -0.17849113649E+04  0.17849113649E+04  0.50400001928E-02 0.  1.
    10030    2    1    2    0    0  0.00000000000E+00  0.00000000000E+00 -0.56725602905E+03  0.30025667008E+04  0.29484957843E+04 0.  0.
        4    1    3    3  502    0  0.12717902878E+04 -0.31548036608E+03  0.40435503586E+03  0.13713070428E+04  0.12699999809E+01 0. -1.
       -4    1    3    3    0  502 -0.12717902878E+04  0.31548036608E+03 -0.97161106491E+03  0.16312596580E+04  0.12699999809E+01 0.  1.
</event>
<event>
 5   0  0.4162450E-06  0.2922794E+04  0.7818609E-02  0.8266128E-01
       -2   -1    0    0    0  501  0.00000000000E+00  0.00000000000E+00  0.10015711087E+04  0.10015711088E+04  0.25500000920E-02 0.  1.
        2   -1    0    0  501    0  0.00000000000E+00  0.00000000000E+00 -0.21323305457E+04  0.21323305457E+04  0.25500000920E-02 0. -1.
    10030    2    1    2    0    0  0.00000000000E+00  0.00000000000E+00 -0.11307594370E+04  0.31339016545E+04  0.29227936423E+04 0.  0.
        2    1    3    3  502    0 -0.79684027624E+03 -0.36658233690E+03  0.68795531237E+03  0.11147284635E+04  0.25500000920E-02 0.  1.
       -2    1    3    3    0  502  0.79684027624E+03  0.36658233690E+03 -0.18187147494E+04  0.20191731910E+04  0.25500000920E-02 0. -1.
</event>
<event>
 5   0  0.4162450E-06  0.2902128E+04  0.7818609E-02  0.8272245E-01
        2   -1    0    0  501    0  0.00000000000E+00  0.00000000000E+00  0.20072815907E+04  0.20072815907E+04  0.25500000920E-02 0. -1.
       -2   -1    0    0    0  501  0.00000000000E+00  0.00000000000E+00 -0.10489744983E+04  0.10489744983E+04  0.25500000920E-02 0.  1.
    10030    2    1    2    0    0  0.00000000000E+00  0.00000000000E+00  0.95830709245E+03  0.30562560890E+04  0.29021283221E+04 0.  0.
        2    1    3    3  502    0 -0.79380240967E+03 -0.83119788202E+03  0.14119574760E+04  0.18206142092E+04  0.25500000920E-02 0. -1.
       -2    1    3    3    0  502  0.79380240967E+03  0.83119788202E+03 -0.45365038353E+03  0.12356418798E+04  0.25500000920E-02 0.  1.
</event>
<event>
 5   0  0.1360125E-06  0.2900217E+04  0.7818609E-02  0.8272813E-01
       -4   -1    0    0    0  501  0.00000000000E+00  0.00000000000E+00  0.14018473354E+04  0.14018479107E+04  0.12699999809E+01 0. -1.
        4   -1    0    0  501    0  0.00000000000E+00  0.00000000000E+00 -0.15000295571E+04  0.15000300947E+04  0.12699999809E+01 0.  1.
    10030    2    1    2    0    0  0.00000000000E+00  0.00000000000E+00 -0.98182221705E+02  0.29018780054E+04  0.29002165798E+04 0.  0.
        5    1    3    3  502    0  0.46596422655E+03 -0.56462589095E+03 -0.13015537324E+04  0.14933148581E+04  0.46999998093E+01 0.  1.
       -5    1    3    3    0  502 -0.46596422655E+03  0.56462589095E+03  0.12033715107E+04  0.14085631473E+04  0.46999998093E+01 0. -1.
</event>
<event>
 5   0  0.4115143E-06  0.2795610E+04  0.7818609E-02  0.8304632E-01
        2   -1    0    0  501    0  0.00000000000E+00  0.00000000000E+00  0.16714190005E+04  0.16714190005E+04  0.25500000920E-02 0. -1.
       -2   -1    0    0    0  501  0.00000000000E+00  0.00000000000E+00 -0.11689824104E+04  0.11689824104E+04  0.25500000920E-02 0.  1.
    10030    2    1    2    0    0  0.00000000000E+00  0.00000000000E+00  0.50243659017E+03  0.28404014109E+04  0.27956104249E+04 0.  0.
        1    1    3    3  502    0 -0.12428723148E+04 -0.63522228432E+03  0.32738925075E+03  0.14336745317E+04  0.50400001928E-02 0.  1.
       -1    1    3    3    0  502  0.12428723148E+04  0.63522228432E+03  0.17504733943E+03  0.14067268791E+04  0.50400001928E-02 0. -1.
</event>
<event>
 5   0  0.1543678E-06  0.2830963E+04  0.7818609E-02  0.8293720E-01
        1   -1    0    0  501    0  0.00000000000E+00  0.00000000000E+00  0.16020808040E+04  0.16020808040E+04  0.50400001928E-02 0. -1.
       -1   -1    0    0    0  501  0.00000000000E+00  0.00000000000E+00 -0.12506159504E+04  0.12506159505E+04  0.50400001928E-02 0.  1.
    10030    2    1    2    0    0  0.00000000000E+00  0.00000000000E+00  0.35146485352E+03  0.28526967544E+04  0.28309629509E+04 0.  0.
        3    1    3    3  502    0 -0.25866626518E+02  0.11566676370E+03 -0.12456068276E+04  0.12512330965E+04  0.10100000352E+00 0.  1.
       -3    1    3    3    0  502  0.25866626518E+02 -0.11566676370E+03  0.15970716812E+04  0.16014636579E+04  0.10100000352E+00 0. -1.
</event>
<event>
 5   0  0.4224163E-06  0.2894600E+04  0.7818609E-02  0.8274486E-01
        2   -1    0    0  501    0  0.00000000000E+00  0.00000000000E+00  0.25731540094E+04  0.25731540094E+04  0.25500000920E-02 0.  1.
       -2   -1    0    0    0  501  0.00000000000E+00  0.00000000000E+00 -0.81405031566E+03  0.81405031566E+03  0.25500000920E-02 0. -1.
    10030    2    1    2    0    0  0.00000000000E+00  0.00000000000E+00  0.17591036937E+04  0.33872043250E+04  0.28945996846E+04 0.  0.
        4    1    3    3  502    0  0.12807868183E+04 -0.57331093533E+03  0.46488020469E+03  0.14782474489E+04  0.12699999809E+01 0. -1.
       -4    1    3    3    0  502 -0.12807868183E+04  0.57331093533E+03  0.12942234890E+04  0.19089568762E+04  0.12699999809E+01 0.  1.
</event>
<event>
 5   0  0.4148677E-06  0.2899147E+04  0.7818609E-02  0.8273131E-01
       -2   -1    0    0    0  501  0.00000000000E+00  0.00000000000E+00  0.10538958132E+04  0.10538958132E+04  0.25500000920E-02 0. -1.
        2   -1    0    0  501    0  0.00000000000E+00  0.00000000000E+00 -0.19938053982E+04  0.19938053982E+04  0.25500000920E-02 0.  1.
    10030    2    1    2    0    0  0.00000000000E+00  0.00000000000E+00 -0.93990958499E+03  0.30477012114E+04  0.28991468825E+04 0.  0.
        5    1    3    3  502    0 -0.13261883030E+04  0.28470373643E+03  0.67525817202E+02  0.13580918447E+04  0.46999998093E+01 0. -1.
       -5    1    3    3    0  502  0.13261883030E+04 -0.28470373643E+03 -0.10074354022E+04  0.16896093667E+04  0.46999998093E+01 0.  1.
</event>
<event>
 5   0  0.4187518E-06  0.2897227E+04  0.7818609E-02  0.8273703E-01
       -2   -1    0    0    0  501  0.00000000000E+00  0.00000000000E+00  0.11130072157E+04  0.11130072157E+04  0.25500000920E-02 0. -1.
        2   -1    0    0  501    0  0.00000000000E+00  0.00000000000E+00 -0.18854150517E+04  0.18854150517E+04  0.25500000920E-02 0.  1.
    10030    2    1    2    0    0  0.00000000000E+00  0.00000000000E+00 -0.77240783600E+03  0.29984222674E+04  0.28972266443E+04 0.  0.
        3    1    3    3  502    0  0.11024267494E+04 -0.88074279242E+03 -0.46993678612E+02  0.14118289628E+04  0.10100000352E+00 0. -1.
       -3    1    3    3    0  502 -0.11024267494E+04  0.88074279242E+03 -0.72541415738E+03  0.15865933046E+04  0.10100000352E+00 0.  1.
</event>
<event>
 5   0  0.1602873E-06  0.2900454E+04  0.7818609E-02  0.8272743E-01
        1   -1    0    0  501    0  0.00000000000E+00  0.00000000000E+00  0.15316540205E+04  0.15316540205E+04  0.50400001928E-02 0. -1.
       -1   -1    0    0    0  501  0.00000000000E+00  0.00000000000E+00 -0.13731284182E+04  0.13731284182E+04  0.50400001928E-02 0.  1.
    10030    2    1    2    0    0  0.00000000000E+00  0.00000000000E+00  0.15852560233E+03  0.29047824387E+04  0.29004535248E+04 0.  0.
        1    1    3    3  502    0 -0.80807864638E+03 -0.24670541967E+03  0.12597089673E+04  0.15168128907E+04  0.50400001928E-02 0. -1.
       -1    1    3    3    0  502  0.80807864638E+03  0.24670541967E+03 -0.11011833650E+04  0.13879695480E+04  0.50400001928E-02 0.  1.
</event>
<event>
 5   0  0.1550278E-06  0.2835292E+04  0.7818609E-02  0.8292395E-01
        1   -1    0    0  501    0  0.00000000000E+00  0.00000000000E+00  0.16262867268E+04  0.16262867268E+04  0.50400001928E-02 0. -1.
       -1   -1    0    0    0  501  0.00000000000E+00  0.00000000000E+00 -0.12357724131E+04  0.12357724131E+04  0.50400001928E-02 0.  1.
    10030    2    1    2    0    0  0.00000000000E+00  0.00000000000E+00  0.39051431375E+03  0.28620591399E+04  0.28352920645E+04 0.  0.
        2    1    3    3  502    0 -0.12115684337E+04 -0.13999912889E+03 -0.53421474616E+03  0.13314966093E+04  0.25500000920E-02 0.  1.
       -2    1    3    3    0  502  0.12115684337E+04  0.13999912889E+03  0.92472905991E+03  0.15305625305E+04  0.25500000920E-02 0. -1.
</event>
<event>
 5   0  0.1550278E-06  0.2899036E+04  0.7818609E-02  0.8273164E-01
        1   -1    0    0  501    0  0.00000000000E+00  0.00000000000E+00  0.19325149148E+04  0.19325149148E+04  0.50400001928E-02 0. -1.
       -1   -1    0    0    0  501  0.00000000000E+00  0.00000000000E+00 -0.10872376062E+04  0.10872376062E+04  0.50400001928E-02 0.  1.
    10030    2    1    2    0    0  0.00000000000E+00  0.00000000000E+00  0.84527730861E+03  0.30197525211E+04  0.28990363158E+04 0.  0.
        2    1    3    3  502    0 -0.34493408676E+03  0.11864981325E+04  0.12120517488E+04  0.17308456848E+04  0.25500000920E-02 0. -1.
       -2    1    3    3    0  502  0.34493408676E+03 -0.11864981325E+04 -0.36677444023E+03  0.12889068363E+04  0.25500000920E-02 0.  1.
</event>
<event>
 5   0  0.4162450E-06  0.2857661E+04  0.7818609E-02  0.8285587E-01
       -2   -1    0    0    0  501  0.00000000000E+00  0.00000000000E+00  0.18170225012E+04  0.18170225012E+04  0.25500000920E-02 0.  1.
        2   -1    0    0  501    0  0.00000000000E+00  0.00000000000E+00 -0.11235727002E+04  0.11235727002E+04  0.25500000920E-02 0. -1.
    10030    2    1    2    0    0  0.00000000000E+00  0.00000000000E+00  0.69344980096E+03  0.29405952014E+04  0.28576611962E+04 0.  0.
        2    1    3    3  502    0  0.12054069314E+04  0.40038450872E+03 -0.32666991935E+03  0.13114979456E+04  0.25500000920E-02 0. -1.
       -2    1    3    3    0  502 -0.12054069314E+04 -0.40038450872E+03  0.10201197203E+04  0.16290972558E+04  0.25500000920E-02 0.  1.
</event>
<event>
 5   0  0.4224163E-06  0.2899876E+04  0.7818609E-02  0.8272914E-01
        2   -1    0    0  501    0  0.00000000000E+00  0.00000000000E+00  0.25438431813E+04  0.25438431813E+04  0.25500000920E-02 0. -1.
       -2   -1    0    0    0  501  0.00000000000E+00  0.00000000000E+00 -0.82643481565E+03  0.82643481566E+03  0.25500000920E-02 0.  1.
    10030    2    1    2    0    0  0.00000000000E+00  0.00000000000E+00  0.17174083656E+04  0.33702779969E+04  0.28998762529E+04 0.  0.
        4    1    3    3  502    0  0.14394453731E+04  0.17343960056E+03  0.84089988397E+03  0.16760663784E+04  0.12699999809E+01 0.  1.
       -4    1    3    3    0  502 -0.14394453731E+04 -0.17343960056E+03  0.87650848167E+03  0.16942116185E+04  0.12699999809E+01 0. -1.
</event>
<event>
 5   0  0.4148677E-06  0.2891868E+04  0.7818609E-02  0.8275301E-01
       -2   -1    0    0    0  501  0.00000000000E+00  0.00000000000E+00  0.93560245097E+03  0.93560245097E+03  0.25500000920E-02 0. -1.
        2   -1    0    0  501    0  0.00000000000E+00  0.00000000000E+00 -0.22346303154E+04  0.22346303154E+04  0.25500000920E-02 0.  1.
    10030    2    1    2    0    0  0.00000000000E+00  0.00000000000E+00 -0.12990278645E+04  0.31702327664E+04  0.28918683235E+04 0.  0.
        5    1    3    3  502    0 -0.66592361237E+03  0.93858940835E+03  0.31013374229E+03  0.11918931844E+04  0.46999998093E+01 0. -1.
       -5    1    3    3    0  502  0.66592361237E+03 -0.93858940835E+03 -0.16091616067E+04  0.19783395820E+04  0.46999998093E+01 0.  1.
</event>
<event>
 5   0  0.1602873E-06  0.2917107E+04  0.7818609E-02  0.8267806E-01
        1   -1    0    0  501    0  0.00000000000E+00  0.00000000000E+00  0.16958716066E+04  0.16958716066E+04  0.50400001928E-02 0. -1.
       -1   -1    0    0    0  501  0.00000000000E+00  0.00000000000E+00 -0.12544452959E+04  0.12544452959E+04  0.50400001928E-02 0.  1.
    10030    2    1    2    0    0  0.00000000000E+00  0.00000000000E+00  0.44142631069E+03  0.29503169025E+04  0.29171068951E+04 0.  0.
        1    1    3    3  502    0 -0.35071652002E+03  0.80902253099E+03  0.13957743023E+04  0.16509710585E+04  0.50400001928E-02 0. -1.
       -1    1    3    3    0  502  0.35071652002E+03 -0.80902253099E+03 -0.95434799163E+03  0.12993458440E+04  0.50400001928E-02 0.  1.
</event>
<event>
 5   0  0.1580212E-06  0.2906196E+04  0.7818609E-02  0.8271036E-01
        1   -1    0    0  501    0  0.00000000000E+00  0.00000000000E+00  0.80085992654E+03  0.80085992656E+03  0.50400001928E-02 0.  1.
       -1   -1    0    0    0  501  0.00000000000E+00  0.00000000000E+00 -0.26365325189E+04  0.26365325189E+04  0.50400001928E-02 0. -1.
    10030    2    1    2    0    0  0.00000000000E+00  0.00000000000E+00 -0.18356725924E+04  0.34373924455E+04  0.29061956159E+04 0.  0.
        4    1    3    3  502    0 -0.48800012000E+03  0.53872050208E+02 -0.25354573184E+04  0.25825552736E+04  0.12699999809E+01 0. -1.
       -4    1    3    3    0  502  0.48800012000E+03 -0.53872050208E+02  0.69978472597E+03  0.85483717193E+03  0.12699999809E+01 0.  1.
</event>
<event>
 5   0  0.4162450E-06  0.2915203E+04  0.7818609E-02  0.8268368E-01
       -2   -1    0    0    0  501  0.00000000000E+00  0.00000000000E+00  0.12864075760E+04  0.12864075760E+04  0.25500000920E-02 0.  1.
        2   -1    0    0  501    0  0.00000000000E+00  0.00000000000E+00 -0.16515782050E+04  0.16515782050E+04  0.25500000920E-02 0. -1.
    10030    2    1    2    0    0  0.00000000000E+00  0.00000000000E+00 -0.36517062902E+03  0.29379857810E+04  0.29152033996E+04 0.  0.
        2    1    3    3  502    0 -0.65301893143E+02  0.14548037799E+04 -0.24539685615E+03  0.14767999161E+04  0.25500000920E-02 0.  1.
       -2    1    3    3    0  502  0.65301893143E+02 -0.14548037799E+04 -0.11977377287E+03  0.14611858649E+04  0.25500000920E-02 0. -1.
</event>
<event>
 5   0  0.4115143E-06  0.2940535E+04  0.7818609E-02  0.8260918E-01
       -2   -1    0    0    0  501  0.00000000000E+00  0.00000000000E+00  0.14715282238E+04  0.14715282238E+04  0.25500000920E-02 0. -1.
        2   -1    0    0  501    0  0.00000000000E+00  0.00000000000E+00 -0.14690078865E+04  0.14690078865E+04  0.25500000920E-02 0.  1.
    10030    2    1    2    0    0  0.00000000000E+00  0.00000000000E+00  0.25203373445E+01  0.29405361103E+04  0.29405350302E+04 0.  0.
        1    1    3    3  502    0  0.80194634405E+03  0.14539476518E+03 -0.12224350914E+04  0.14692192243E+04  0.50400001928E-02 0.  1.
       -1    1    3    3    0  502 -0.80194634405E+03 -0.14539476518E+03  0.12249554287E+04  0.14713168860E+04  0.50400001928E-02 0. -1.
</event>
<event>
 5   0  0.4115143E-06  0.2894975E+04  0.7818609E-02  0.8274374E-01
       -2   -1    0    0    0  501  0.00000000000E+00  0.00000000000E+00  0.67986015116E+03  0.67986015116E+03  0.25500000920E-02 0. -1.
        2   -1    0    0  501    0  0.00000000000E+00  0.00000000000E+00 -0.30818392175E+04  0.30818392175E+04  0.25500000920E-02 0.  1.
    10030    2    1    2    0    0  0.00000000000E+00  0.00000000000E+00 -0.24019790664E+04  0.37616993687E+04  0.28949747331E+04 0.  0.
        1    1    3    3  502    0  0.95311899581E+03 -0.59832547704E+03 -0.18052349284E+02  0.11255021475E+04  0.50400001928E-02 0. -1.
       -1    1    3    3    0  502 -0.95311899581E+03  0.59832547704E+03 -0.23839267171E+04  0.26361972212E+04  0.50400001928E-02 0.  1.
</event>
<event>
 5   0  0.1550278E-06  0.2901001E+04  0.7818609E-02  0.8272580E-01
       -1   -1    0    0    0  501  0.00000000000E+00  0.00000000000E+00  0.13260282956E+04  0.13260282956E+04  0.50400001928E-02 0. -1.
        1   -1    0    0  501    0  0.00000000000E+00  0.00000000000E+00 -0.15866567601E+04  0.15866567601E+04  0.50400001928E-02 0.  1.
    10030    2    1    2    0    0  0.00000000000E+00  0.00000000000E+00 -0.26062846446E+03  0.29126850557E+04  0.29010010405E+04 0.  0.
        2    1    3    3  502    0  0.50052687010E+03 -0.73326266047E+03  0.10213673243E+04  0.13532895063E+04  0.25500000920E-02 0. -1.
       -2    1    3    3    0  502 -0.50052687010E+03  0.73326266047E+03 -0.12819957887E+04  0.15593955493E+04  0.25500000920E-02 0.  1.
</event>
<event>
 5   0  0.4148677E-06  0.2894050E+04  0.7818609E-02  0.8274650E-01
       -2   -1    0    0    0  501  0.00000000000E+00  0.00000000000E+00  0.15697105977E+04  0.15697105977E+04  0.25500000920E-02 0. -1.
        2   -1    0    0  501    0  0.00000000000E+00  0.00000000000E+00 -0.13339281419E+04  0.13339281419E+04  0.25500000920E-02 0.  1.
    10030    2    1    2    0    0  0.00000000000E+00  0.00000000000E+00  0.23578245582E+03  0.29036387396E+04  0.28940498551E+04 0.  0.
        5    1    3    3  502    0 -0.90205896963E+03 -0.10528484640E+04 -0.29779877699E+03  0.14180643407E+04  0.46999998093E+01 0.  1.
       -5    1    3    3    0  502  0.90205896963E+03  0.10528484640E+04  0.53358123281E+03  0.14855743989E+04  0.46999998093E+01 0. -1.
</event>
<event>
 5   0  0.1580212E-06  0.2934047E+04  0.7818609E-02  0.8262819E-01
        1   -1    0    0  501    0  0.00000000000E+00  0.00000000000E+00  0.17430296490E+04  0.17430296490E+04  0.50400001928E-02 0.  1.
       -1   -1    0    0    0  501  0.00000000000E+00  0.00000000000E+00 -0.12347221801E+04  0.12347221801E+04  0.50400001928E-02 0. -1.
    10030    2    1    2    0    0  0.00000000000E+00  0.00000000000E+00  0.50830746889E+03  0.29777518291E+04  0.29340466038E+04 0.  0.
        4    1    3    3  502    0  0.12720153894E+03 -0.88757890550E+03  0.14325607115E+04  0.16900320559E+04  0.12699999809E+01 0.  1.
       -4    1    3    3    0  502 -0.12720153894E+03  0.88757890550E+03 -0.92425324260E+03  0.12877197732E+04  0.12699999809E+01 0. -1.
</event>
<event>
 5   0  0.1602873E-06  0.2897682E+04  0.7818609E-02  0.8273567E-01
        1   -1    0    0  501    0  0.00000000000E+00  0.00000000000E+00  0.12085587781E+04  0.12085587781E+04  0.50400001928E-02 0. -1.
       -1   -1    0    0    0  501  0.00000000000E+00  0.00000000000E+00 -0.17368958475E+04  0.17368958475E+04  0.50400001928E-02 0.  1.
    10030    2    1    2    0    0  0.00000000000E+00  0.00000000000E+00 -0.52833706948E+03  0.29454546256E+04  0.28976823312E+04 0.  0.
        1    1    3    3  502    0  0.10440038144E+04 -0.17562395715E+02 -0.12851623504E+04  0.16558667426E+04  0.50400001928E-02 0. -1.
       -1    1    3    3    0  502 -0.10440038144E+04  0.17562395715E+02  0.75682528096E+03  0.12895878830E+04  0.50400001928E-02 0.  1.
</event>
<event>
 5   0  0.1602873E-06  0.2930808E+04  0.7818609E-02  0.8263770E-01
       -1   -1    0    0    0  501  0.00000000000E+00  0.00000000000E+00  0.76000035528E+03  0.76000035529E+03  0.50400001928E-02 0.  1.
        1   -1    0    0  501    0  0.00000000000E+00  0.00000000000E+00 -0.28255364910E+04  0.28255364910E+04  0.50400001928E-02 0. -1.
    10030    2    1    2    0    0  0.00000000000E+00  0.00000000000E+00 -0.20655361357E+04  0.35855368462E+04  0.29308079002E+04 0.  0.
        1    1    3    3  502    0 -0.91773876552E+03  0.85492172922E+03 -0.10566912631E+03  0.12586904183E+04  0.50400001928E-02 0.  1.
       -1    1    3    3    0  502  0.91773876552E+03 -0.85492172922E+03 -0.19598670094E+04  0.23268464280E+04  0.50400001928E-02 0. -1.
</event>
<event>
 5   0  0.1550278E-06  0.2898994E+04  0.7818609E-02  0.8273177E-01
        1   -1    0    0  501    0  0.00000000000E+00  0.00000000000E+00  0.15709505687E+04  0.15709505687E+04  0.50400001928E-02 0. -1.
       -1   -1    0    0    0  501  0.00000000000E+00  0.00000000000E+00 -0.13374331248E+04  0.13374331248E+04  0.50400001928E-02 0.  1.
    10030    2    1    2    0    0  0.00000000000E+00  0.00000000000E+00  0.23351744390E+03  0.29083836935E+04  0.28989938448E+04 0.  0.
        2    1    3    3  502    0  0.24007223613E+03 -0.87669584822E+03  0.12494911025E+04  0.15451402215E+04  0.25500000920E-02 0. -1.
       -2    1    3    3    0  502 -0.24007223613E+03  0.87669584822E+03 -0.10159736586E+04  0.13632434720E+04  0.25500000920E-02 0.  1.
</event>
<event>
 5   0  0.1543678E-06  0.2914262E+04  0.7818609E-02  0.8268647E-01
       -1   -1    0    0    0  501  0.00000000000E+00  0.00000000000E+00  0.11275588090E+04  0.11275588090E+04  0.50400001928E-02 0. -1.
        1   -1    0    0  501    0  0.00000000000E+00  0.00000000000E+00 -0.18830331409E+04  0.18830331409E+04  0.50400001928E-02 0.  1.
    10030    2    1    2    0    0  0.00000000000E+00  0.00000000000E+00 -0.75547433195E+03  0.30105919499E+04  0.29142619001E+04 0.  0.
        3    1    3    3  502    0 -0.45092750521E+03 -0.36331258201E+03  0.10035844305E+04  0.11586687907E+04  0.10100000352E+00 0. -1.
       -3    1    3    3    0  502  0.45092750521E+03  0.36331258201E+03 -0.17590587625E+04  0.18519231591E+04  0.10100000352E+00 0.  1.
</event>
<event>
 5   0  0.4187518E-06  0.2864080E+04  0.7818609E-02  0.8283646E-01
        2   -1    0    0  501    0  0.00000000000E+00  0.00000000000E+00  0.23612391981E+04  0.23612391981E+04  0.25500000920E-02 0. -1.
       -2   -1    0    0    0  501  0.00000000000E+00  0.00000000000E+00 -0.86850085218E+03  0.86850085219E+03  0.25500000920E-02 0.  1.
    10030    2    1    2    0    0  0.00000000000E+00  0.00000000000E+00  0.14927383459E+04  0.32297400502E+04  0.28640797864E+04 0.  0.
        3    1    3    3  502    0 -0.21076434104E+03  0.13853048209E+04  0.10794565572E+04  0.17688181148E+04  0.10100000352E+00 0.  1.
       -3    1    3    3    0  502  0.21076434104E+03 -0.13853048209E+04  0.41328178869E+03  0.14609219354E+04  0.10100000352E+00 0. -1.
</event>
<event>
 5   0  0.1543678E-06  0.2899429E+04  0.7818609E-02  0.8273047E-01
       -1   -1    0    0    0  501  0.00000000000E+00  0.00000000000E+00  0.30272292585E+04  0.30272292585E+04  0.50400001928E-02 0. -1.
        1   -1    0    0  501    0  0.00000000000E+00  0.00000000000E+00 -0.69425612461E+03  0.69425612463E+03  0.50400001928E-02 0.  1.
    10030    2    1    2    0    0  0.00000000000E+00  0.00000000000E+00  0.23329731339E+04  0.37214853831E+04  0.28994292220E+04 0.  0.
        3    1    3    3  502    0  0.29505632424E+03 -0.12870064599E+04  0.19347035823E+04  0.23423325605E+04  0.10100000352E+00 0. -1.
       -3    1    3    3    0  502 -0.29505632424E+03  0.12870064599E+04  0.39826955154E+03  0.13791528226E+04  0.10100000352E+00 0.  1.
</event>
<event>
 5   0  0.4224163E-06  0.2898061E+04  0.7818609E-02  0.8273455E-01
        2   -1    0    0  501    0  0.00000000000E+00  0.00000000000E+00  0.11782228143E+04  0.11782228143E+04  0.25500000920E-02 0. -1.
       -2   -1    0    0    0  501  0.00000000000E+00  0.00000000000E+00 -0.17820813428E+04  0.17820813428E+04  0.25500000920E-02 0.  1.
    10030    2    1    2    0    0  0.00000000000E+00  0.00000000000E+00 -0.60385852850E+03  0.29603041571E+04  0.28980606584E+04 0.  0.
        4    1    3    3  502    0 -0.60910650768E+03  0.11345732220E+04 -0.98059346326E+03  0.16185895981E+04  0.12699999809E+01 0.  1.
       -4    1    3    3    0  502  0.60910650768E+03 -0.11345732220E+04  0.37673493476E+03  0.13417145590E+04  0.12699999809E+01 0. -1.
</event>
<event>
 5   0  0.4187518E-06  0.2783831E+04  0.7818609E-02  0.8308306E-01
        2   -1    0    0  501    0  0.00000000000E+00  0.00000000000E+00  0.10976834035E+04  0.10976834035E+04  0.25500000920E-02 0. -1.
       -2   -1    0    0    0  501  0.00000000000E+00  0.00000000000E+00 -0.17650162324E+04  0.17650162324E+04  0.25500000920E-02 0.  1.
    10030    2    1    2    0    0  0.00000000000E+00  0.00000000000E+00 -0.66733282885E+03  0.28626996359E+04  0.27838311912E+04 0.  0.
        3    1    3    3  502    0 -0.52517128184E+03 -0.11558798253E+04  0.25308262531E+03  0.12945709217E+04  0.10100000352E+00 0. -1.
       -3    1    3    3    0  502  0.52517128184E+03  0.11558798253E+04 -0.92041545416E+03  0.15681287142E+04  0.10100000352E+00 0.  1.
</event>
<event>
 5   0  0.4162450E-06  0.2891759E+04  0.7818609E-02  0.8275334E-01
       -2   -1    0    0    0  501  0.00000000000E+00  0.00000000000E+00  0.15815404304E+04  0.15815404304E+04  0.25500000920E-02 0. -1.
        2   -1    0    0  501    0  0.00000000000E+00  0.00000000000E+00 -0.13218555348E+04  0.13218555348E+04  0.25500000920E-02 0.  1.
    10030    2    1    2    0    0  0.00000000000E+00  0.00000000000E+00  0.25968489566E+03  0.29033959652E+04  0.28917593064E+04 0.  0.
        2    1    3    3  502    0  0.76821154688E+03 -0.63428178520E+03 -0.92227974569E+03  0.13575943036E+04  0.25500000920E-02 0.  1.
       -2    1    3    3    0  502 -0.76821154688E+03  0.63428178520E+03  0.11819646413E+04  0.15458016617E+04  0.25500000920E-02 0. -1.
</event>
<event>
 5   0  0.1511126E-06  0.2893272E+04  0.7818609E-02  0.8274882E-01
       -1   -1    0    0    0  501  0.00000000000E+00  0.00000000000E+00  0.10670735660E+04  0.10670735661E+04  0.50400001928E-02 0. -1.
        1   -1    0    0  501    0  0.00000000000E+00  0.00000000000E+00 -0.19612108282E+04  0.19612108282E+04  0.50400001928E-02 0.  1.
    10030    2    1    2    0    0  0.00000000000E+00  0.00000000000E+00 -0.89413726219E+03  0.30282843943E+04  0.28932723565E+04 0.  0.
        5    1    3    3  502    0 -0.60360561557E+03 -0.87271284056E+03  0.58205649711E+03  0.12102806687E+04  0.46999998093E+01 0. -1.
       -5    1    3    3    0  502  0.60360561557E+03  0.87271284056E+03 -0.14761937593E+04  0.18180037256E+04  0.46999998093E+01 0.  1.
</event>
<event>
 5   0  0.1602873E-06  0.2887062E+04  0.7818609E-02  0.8276737E-01
        1   -1    0    0  501    0  0.00000000000E+00  0.00000000000E+00  0.22165691428E+04  0.22165691428E+04  0.50400001928E-02 0.  1.
       -1   -1    0    0    0  501  0.00000000000E+00  0.00000000000E+00 -0.94009295515E+03  0.94009295517E+03  0.50400001928E-02 0. -1.
    10030    2    1    2    0    0  0.00000000000E+00  0.00000000000E+00  0.12764761876E+04  0.31566620979E+04  0.28870615066E+04 0.  0.
        1    1    3    3  502    0  0.22000754247E+03  0.13483406250E+04  0.12848818970E+03  0.13722007778E+04  0.50400001928E-02 0. -1.
       -1    1    3    3    0  502 -0.22000754247E+03 -0.13483406250E+04  0.11479879979E+04  0.17844613201E+04  0.50400001928E-02 0.  1.
</event>
<event>
 5   0  0.4115143E-06  0.2904266E+04  0.7818609E-02  0.8271609E-01
       -2   -1    0    0    0  501  0.00000000000E+00  0.00000000000E+00  0.84589997239E+03  0.84589997239E+03  0.25500000920E-02 0.  1.
        2   -1    0    0  501    0  0.00000000000E+00  0.00000000000E+00 -0.24928358611E+04  0.24928358611E+04  0.25500000920E-02 0. -1.
    10030    2    1    2    0    0  0.00000000000E+00  0.00000000000E+00 -0.16469358887E+04  0.33387358334E+04  0.29042656807E+04 0.  0.
        1    1    3    3  502    0  0.14228634059E+03  0.13290667449E+04 -0.14758337132E+04  0.19911677389E+04  0.50400001928E-02 0.  1.
       -1    1    3    3    0  502 -0.14228634059E+03 -0.13290667449E+04 -0.17110217544E+03  0.13475680946E+04  0.50400001928E-02 0. -1.
</event>
<event>
 5   0  0.4224163E-06  0.2906958E+04  0.7818609E-02  0.8270810E-01
        2   -1    0    0  501    0  0.00000000000E+00  0.00000000000E+00  0.17726519936E+04  0.17726519936E+04  0.25500000920E-02 0.  1.
       -2   -1    0    0    0  501  0.00000000000E+00  0.00000000000E+00 -0.11917742462E+04  0.11917742462E+04  0.25500000920E-02 0. -1.
    10030    2    1    2    0    0  0.00000000000E+00  0.00000000000E+00  0.58087774746E+03  0.29644262398E+04  0.29069578555E+04 0.  0.
        4    1    3    3  502    0 -0.10542451242E+04 -0.98225116831E+03  0.96015002016E+02  0.14441158655E+04  0.12699999809E+01 0. -1.
       -4    1    3    3    0  502  0.10542451242E+04  0.98225116831E+03  0.48486274544E+03  0.15203103743E+04  0.12699999809E+01 0.  1.
</event>
<event>
 5   0  0.1360125E-06  0.2910512E+04  0.7818609E-02  0.8269757E-01
        4   -1    0    0  501    0  0.00000000000E+00  0.00000000000E+00  0.12442671103E+04  0.12442677584E+04  0.12699999809E+01 0.  1.
       -4   -1    0    0    0  501  0.00000000000E+00  0.00000000000E+00 -0.17020201648E+04  0.17020206386E+04  0.12699999809E+01 0. -1.
    10030    2    1    2    0    0  0.00000000000E+00  0.00000000000E+00 -0.45775305457E+03  0.29462883970E+04  0.29105115460E+04 0.  0.
        4    1    3    3  502    0 -0.12688142578E+04  0.68451662789E+03 -0.42959424837E+03  0.15043289087E+04  0.12699999809E+01 0.  1.
       -4    1    3    3    0  502  0.12688142578E+04 -0.68451662789E+03 -0.28158806196E+02  0.14419594883E+04  0.12699999809E+01 0. -1.
</event>
<event>
 5   0  0.4187518E-06  0.2875430E+04  0.7818609E-02  0.8280225E-01
       -2   -1    0    0    0  501  0.00000000000E+00  0.00000000000E+00  0.11357286574E+04  0.11357286574E+04  0.25500000920E-02 0. -1.
        2   -1    0    0  501    0  0.00000000000E+00  0.00000000000E+00 -0.18199985760E+04  0.18199985760E+04  0.25500000920E-02 0.  1.
    10030    2    1    2    0    0  0.00000000000E+00  0.00000000000E+00 -0.68426991863E+03  0.29557272334E+04  0.28754300821E+04 0.  0.
        3    1    3    3  502    0  0.13093285352E+04 -0.70582228718E+02  0.26399367538E+03  0.13375409283E+04  0.10100000352E+00 0. -1.
       -3    1    3    3    0  502 -0.13093285352E+04  0.70582228718E+02 -0.94826359401E+03  0.16181863051E+04  0.10100000352E+00 0.  1.
</event>
<event>
 5   0  0.4224163E-06  0.2902552E+04  0.7818609E-02  0.8272119E-01
        2   -1    0    0  501    0  0.00000000000E+00  0.00000000000E+00  0.11207496765E+04  0.11207496765E+04  0.25500000920E-02 0.  1.
       -2   -1    0    0    0  501  0.00000000000E+00  0.00000000000E+00 -0.18792795461E+04  0.18792795461E+04  0.25500000920E-02 0. -1.
    10030    2    1    2    0    0  0.00000000000E+00  0.00000000000E+00 -0.75852986963E+03  0.30000292226E+04  0.29025519416E+04 0.  0.
        4    1    3    3  502    0 -0.29956641571E+02  0.43051021656E+03 -0.18114265003E+04  0.18621235259E+04  0.12699999809E+01 0. -1.
       -4    1    3    3    0  502  0.29956641571E+02 -0.43051021656E+03  0.10528966306E+04  0.11379056967E+04  0.12699999809E+01 0.  1.
</event>
<event>
 5   0  0.1511126E-06  0.2898897E+04  0.7818609E-02  0.8273206E-01
       -1   -1    0    0    0  501  0.00000000000E+00  0.00000000000E+00  0.11594810569E+04  0.11594810569E+04  0.50400001928E-02 0. -1.
        1   -1    0    0  501    0  0.00000000000E+00  0.00000000000E+00 -0.18119322124E+04  0.18119322124E+04  0.50400001928E-02 0.  1.
    10030    2    1    2    0    0  0.00000000000E+00  0.00000000000E+00 -0.65245115550E+03  0.29714132694E+04  0.28988970846E+04 0.  0.
        5    1    3    3  502    0  0.17204829176E+03 -0.83463076050E+03  0.87556686090E+03  0.12218218115E+04  0.46999998093E+01 0. -1.
       -5    1    3    3    0  502 -0.17204829176E+03  0.83463076050E+03 -0.15280180164E+04  0.17495914579E+04  0.46999998093E+01 0.  1.
</event>
<event>
 5   0  0.1550278E-06  0.2924875E+04  0.7818609E-02  0.8265515E-01
        1   -1    0    0  501    0  0.00000000000E+00  0.00000000000E+00  0.11712283170E+04  0.11712283171E+04  0.50400001928E-02 0. -1.
       -1   -1    0    0    0  501  0.00000000000E+00  0.00000000000E+00 -0.18260517601E+04  0.18260517602E+04  0.50400001928E-02 0.  1.
    10030    2    1    2    0    0  0.00000000000E+00  0.00000000000E+00 -0.65482344310E+03  0.29972800772E+04  0.29248750605E+04 0.  0.
        2    1    3    3  502    0 -0.64077699579E+02  0.13900174714E+04 -0.78851614085E+03  0.15993787002E+04  0.25500000920E-02 0.  1.
       -2    1    3    3    0  502  0.64077699579E+02 -0.13900174714E+04  0.13369269775E+03  0.13979013770E+04  0.25500000920E-02 0. -1.
</event>
<event>
 5   0  0.4224163E-06  0.2887974E+04  0.7818609E-02  0.8276465E-01
        2   -1    0    0  501    0  0.00000000000E+00  0.00000000000E+00  0.21894040763E+04  0.21894040763E+04  0.25500000920E-02 0.  1.
       -2   -1    0    0    0  501  0.00000000000E+00  0.00000000000E+00 -0.95235880882E+03  0.95235880882E+03  0.25500000920E-02 0. -1.
    10030    2    1    2    0    0  0.00000000000E+00  0.00000000000E+00  0.12370452675E+04  0.31417628851E+04  0.28879738628E+04 0.  0.
        4    1    3    3  502    0 -0.15283901993E+03  0.13939154635E+04  0.24365980562E+03  0.14232820519E+04  0.12699999809E+01 0. -1.
       -4    1    3    3    0  502  0.15283901993E+03 -0.13939154635E+04  0.99338546184E+03  0.17184808332E+04  0.12699999809E+01 0.  1.
</event>
<event>
 5   0  0.4187518E-06  0.2890116E+04  0.7818609E-02  0.8275824E-01
        2   -1    0    0  501    0  0.00000000000E+00  0.00000000000E+00  0.29862299911E+04  0.29862299911E+04  0.25500000920E-02 0. -1.
       -2   -1    0    0    0  501  0.00000000000E+00  0.00000000000E+00 -0.69927390309E+03  0.69927390310E+03  0.25500000920E-02 0.  1.
    10030    2    1    2    0    0  0.00000000000E+00  0.00000000000E+00  0.22869560880E+04  0.36855038942E+04  0.28901160540E+04 0.  0.
        3    1    3    3  502    0 -0.24225383349E+03 -0.13506312003E+04  0.56567840768E+03  0.14842114506E+04  0.10100000352E+00 0. -1.
       -3    1    3    3    0  502  0.24225383349E+03  0.13506312003E+04  0.17212776803E+04  0.22012924435E+04  0.10100000352E+00 0.  1.
</event>
<event>
 5   0  0.4162450E-06  0.2893824E+04  0.7818609E-02  0.8274717E-01
       -2   -1    0    0    0  501  0.00000000000E+00  0.00000000000E+00  0.11001842550E+04  0.11001842550E+04  0.25500000920E-02 0.  1.
        2   -1    0    0  501    0  0.00000000000E+00  0.00000000000E+00 -0.19029130935E+04  0.19029130935E+04  0.25500000920E-02 0. -1.
    10030    2    1    2    0    0  0.00000000000E+00  0.00000000000E+00 -0.80272883851E+03  0.30030973485E+04  0.28938244757E+04 0.  0.
        2    1    3    3  502    0  0.14271789281E+04  0.23813247482E+03 -0.40434619738E+03  0.15023457044E+04  0.25500000920E-02 0. -1.
       -2    1    3    3    0  502 -0.14271789281E+04 -0.23813247482E+03 -0.39838264113E+03  0.15007516440E+04  0.25500000920E-02 0.  1.
</event>
<event>
 5   0  0.4224163E-06  0.2879558E+04  0.7818609E-02  0.8278986E-01
        2   -1    0    0  501    0  0.00000000000E+00  0.00000000000E+00  0.17913397347E+04  0.17913397347E+04  0.25500000920E-02 0. -1.
       -2   -1    0    0    0  501  0.00000000000E+00  0.00000000000E+00 -0.11572143858E+04  0.11572143858E+04  0.25500000920E-02 0.  1.
    10030    2    1    2    0    0  0.00000000000E+00  0.00000000000E+00  0.63412534896E+03  0.29485541205E+04  0.28795583764E+04 0.  0.
        4    1    3    3  502    0 -0.30113080230E+03 -0.11221468475E+04 -0.55364654865E+03  0.12870195885E+04  0.12699999809E+01 0.  1.
       -4    1    3    3    0  502  0.30113080230E+03  0.11221468475E+04  0.11877718976E+04  0.16615345320E+04  0.12699999809E+01 0. -1.
</event>
<event>
 5   0  0.1602873E-06  0.2845899E+04  0.7818609E-02  0.8289158E-01
       -1   -1    0    0    0  501  0.00000000000E+00  0.00000000000E+00  0.78839151797E+03  0.78839151798E+03  0.50400001928E-02 0. -1.
        1   -1    0    0  501    0  0.00000000000E+00  0.00000000000E+00 -0.25682488230E+04  0.25682488230E+04  0.50400001928E-02 0.  1.
    10030    2    1    2    0    0  0.00000000000E+00  0.00000000000E+00 -0.17798573050E+04  0.33566403410E+04  0.28458992168E+04 0.  0.
        1    1    3    3  502    0  0.56656874766E+03  0.55693985074E+03 -0.22822994277E+04  0.24166242614E+04  0.50400001928E-02 0.  1.
       -1    1    3    3    0  502 -0.56656874766E+03 -0.55693985074E+03  0.50244212268E+03  0.94001607956E+03  0.50400001928E-02 0. -1.
</event>
<event>
 5   0  0.4162450E-06  0.2910133E+04  0.7818609E-02  0.8269869E-01
       -2   -1    0    0    0  501  0.00000000000E+00  0.00000000000E+00  0.16045766459E+04  0.16045766459E+04  0.25500000920E-02 0. -1.
        2   -1    0    0  501    0  0.00000000000E+00  0.00000000000E+00 -0.13194874672E+04  0.13194874672E+04  0.25500000920E-02 0.  1.
    10030    2    1    2    0    0  0.00000000000E+00  0.00000000000E+00  0.28508917876E+03  0.29240641131E+04  0.29101331753E+04 0.  0.
        2    1    3    3  502    0 -0.74740756998E+03  0.12185187114E+04  0.41553036022E+03  0.14886475090E+04  0.25500000920E-02 0. -1.
       -2    1    3    3    0  502  0.74740756998E+03 -0.12185187114E+04 -0.13044118146E+03  0.14354166042E+04  0.25500000920E-02 0.  1.
</event>
<event>
 5   0  0.1511126E-06  0.2866788E+04  0.7818609E-02  0.8282828E-01
        1   -1    0    0  501    0  0.00000000000E+00  0.00000000000E+00  0.15622451825E+04  0.15622451825E+04  0.50400001928E-02 0.  1.
       -1   -1    0    0    0  501  0.00000000000E+00  0.00000000000E+00 -0.13151701777E+04  0.13151701777E+04  0.50400001928E-02 0. -1.
    10030    2    1    2    0    0  0.00000000000E+00  0.00000000000E+00  0.24707500482E+03  0.28774153602E+04  0.28667879407E+04 0.  0.
        5    1    3    3  502    0 -0.47106966136E+03 -0.35540741216E+02  0.14818563457E+04  0.15553424348E+04  0.46999998093E+01 0.  1.
       -5    1    3    3    0  502  0.47106966136E+03  0.35540741216E+02 -0.12347813409E+04  0.13220729254E+04  0.46999998093E+01 0. -1.
</event>
<event>
 5   0  0.1543678E-06  0.2919941E+04  0.7818609E-02  0.8266969E-01
        1   -1    0    0  501    0  0.00000000000E+00  0.00000000000E+00  0.23751019469E+04  0.23751019469E+04  0.50400001928E-02 0.  1.
       -1   -1    0    0    0  501  0.00000000000E+00  0.00000000000E+00 -0.89744100991E+03  0.89744100993E+03  0.50400001928E-02 0. -1.
    10030    2    1    2    0    0  0.00000000000E+00  0.00000000000E+00  0.14776609370E+04  0.32725429568E+04  0.29199410199E+04 0.  0.
        3    1    3    3  502    0 -0.85337746785E+03  0.52964966733E+03 -0.44871248949E+03  0.11000567173E+04  0.10100000352E+00 0. -1.
       -3    1    3    3    0  502  0.85337746785E+03 -0.52964966733E+03  0.19263734265E+04  0.21724862396E+04  0.10100000352E+00 0.  1.
</event>
<event>
 5   0  0.4148677E-06  0.2893636E+04  0.7818609E-02  0.8274773E-01
       -2   -1    0    0    0  501  0.00000000000E+00  0.00000000000E+00  0.22667820351E+04  0.22667820351E+04  0.25500000920E-02 0.  1.
        2   -1    0    0  501    0  0.00000000000E+00  0.00000000000E+00 -0.92345993163E+03  0.92345993163E+03  0.25500000920E-02 0. -1.
    10030    2    1    2    0    0  0.00000000000E+00  0.00000000000E+00  0.13433221035E+04  0.31902419667E+04  0.28936360401E+04 0.  0.
        5    1    3    3  502    0  0.10214296863E+04  0.34847807121E+03 -0.39069911262E+03  0.11477906851E+04  0.46999998093E+01 0. -1.
       -5    1    3    3    0  502 -0.10214296863E+04 -0.34847807121E+03  0.17340212161E+04  0.20424512817E+04  0.46999998093E+01 0.  1.
</event>
<event>
 5   0  0.1511126E-06  0.2953526E+04  0.7818609E-02  0.8257128E-01
        1   -1    0    0  501    0  0.00000000000E+00  0.00000000000E+00  0.23387571023E+04  0.23387571023E+04  0.50400001928E-02 0. -1.
       -1   -1    0    0    0  501  0.00000000000E+00  0.00000000000E+00 -0.93247324328E+03  0.93247324329E+03  0.50400001928E-02 0.  1.
    10030    2    1    2    0    0  0.00000000000E+00  0.00000000000E+00  0.14062838590E+04  0.32712303456E+04  0.29535256359E+04 0.  0.
        5    1    3    3  502    0 -0.20327478601E+03 -0.93882372183E+03  0.19454440383E+04  0.21696739883E+04  0.46999998093E+01 0. -1.
       -5    1    3    3    0  502  0.20327478601E+03  0.93882372183E+03 -0.53916017932E+03  0.11015563573E+04  0.46999998093E+01 0.  1.
</event>
<event>
 5   0  0.4187518E-06  0.2889040E+04  0.7818609E-02  0.8276146E-01
        2   -1    0    0  501    0  0.00000000000E+00  0.00000000000E+00  0.25360721303E+04  0.25360721303E+04  0.25500000920E-02 0. -1.
       -2   -1    0    0    0  501  0.00000000000E+00  0.00000000000E+00 -0.82278350180E+03  0.82278350180E+03  0.25500000920E-02 0.  1.
    10030    2    1    2    0    0  0.00000000000E+00  0.00000000000E+00  0.17132886285E+04  0.33588556321E+04  0.28890401923E+04 0.  0.
        3    1    3    3  502    0  0.10456288438E+03  0.12923332362E+04  0.11622819861E+03  0.13017555817E+04  0.10100000352E+00 0.  1.
       -3    1    3    3    0  502 -0.10456288438E+03 -0.12923332362E+04  0.15970604299E+04  0.20571000504E+04  0.10100000352E+00 0. -1.
</event>
<event>
 5   0  0.1602873E-06  0.2660850E+04  0.7818609E-02  0.8347821E-01
        1   -1    0    0  501    0  0.00000000000E+00  0.00000000000E+00  0.14437281253E+04  0.14437281253E+04  0.50400001928E-02 0. -1.
       -1   -1    0    0    0  501  0.00000000000E+00  0.00000000000E+00 -0.12260142809E+04  0.12260142809E+04  0.50400001928E-02 0.  1.
    10030    2    1    2    0    0  0.00000000000E+00  0.00000000000E+00  0.21771384443E+03  0.26697424062E+04  0.26608504651E+04 0.  0.
        1    1    3    3  502    0 -0.11020041801E+04  0.72340285755E+03 -0.71483516271E+02  0.13201646868E+04  0.50400001928E-02 0.  1.
       -1    1    3    3    0  502  0.11020041801E+04 -0.72340285755E+03  0.28919736070E+03  0.13495777194E+04  0.50400001928E-02 0. -1.
</event>
<event>
 5   0  0.1511126E-06  0.2882476E+04  0.7818609E-02  0.8278111E-01
       -1   -1    0    0    0  501  0.00000000000E+00  0.00000000000E+00  0.27327207065E+04  0.27327207065E+04  0.50400001928E-02 0.  1.
        1   -1    0    0  501    0  0.00000000000E+00  0.00000000000E+00 -0.76010952007E+03  0.76010952008E+03  0.50400001928E-02 0. -1.
    10030    2    1    2    0    0  0.00000000000E+00  0.00000000000E+00  0.19726111865E+04  0.34928302266E+04  0.28824760362E+04 0.  0.
        5    1    3    3  502    0  0.45548717321E+03 -0.77481145198E+02 -0.66792722644E+03  0.81217040246E+03  0.46999998093E+01 0. -1.
       -5    1    3    3    0  502 -0.45548717321E+03  0.77481145198E+02  0.26405384129E+04  0.26806598241E+04  0.46999998093E+01 0.  1.
</event>
<event>
 5   0  0.4187518E-06  0.2914717E+04  0.7818609E-02  0.8268512E-01
        2   -1    0    0  501    0  0.00000000000E+00  0.00000000000E+00  0.33108286162E+04  0.33108286162E+04  0.25500000920E-02 0. -1.
       -2   -1    0    0    0  501  0.00000000000E+00  0.00000000000E+00 -0.64149911888E+03  0.64149911889E+03  0.25500000920E-02 0.  1.
    10030    2    1    2    0    0  0.00000000000E+00  0.00000000000E+00  0.26693294973E+04  0.39523277351E+04  0.29147168920E+04 0.  0.
        3    1    3    3  502    0 -0.12077010950E+04 -0.57276997559E+03  0.21221744101E+04  0.25080334162E+04  0.10100000352E+00 0. -1.
       -3    1    3    3    0  502  0.12077010950E+04  0.57276997559E+03  0.54715508716E+03  0.14442943188E+04  0.10100000352E+00 0.  1.
</event>
<event>
 5   0  0.4148677E-06  0.2905225E+04  0.7818609E-02  0.8271325E-01
        2   -1    0    0  501    0  0.00000000000E+00  0.00000000000E+00  0.15155107657E+04  0.15155107657E+04  0.25500000920E-02 0.  1.
       -2   -1    0    0    0  501  0.00000000000E+00  0.00000000000E+00 -0.13923244031E+04  0.13923244031E+04  0.25500000920E-02 0. -1.
    10030    2    1    2    0    0  0.00000000000E+00  0.00000000000E+00  0.12318636262E+03  0.29078351688E+04  0.29052246882E+04 0.  0.
        5    1    3    3  502    0  0.69849704875E+03 -0.36746849747E+03 -0.11589816914E+04  0.14022096401E+04  0.46999998093E+01 0. -1.
       -5    1    3    3    0  502 -0.69849704875E+03  0.36746849747E+03  0.12821680541E+04  0.15056255287E+04  0.46999998093E+01 0.  1.
</event>
<event>
 5   0  0.4148677E-06  0.2901991E+04  0.7818609E-02  0.8272285E-01
        2   -1    0    0  501    0  0.00000000000E+00  0.00000000000E+00  0.13343553613E+04  0.13343553613E+04  0.25500000920E-02 0. -1.
       -2   -1    0    0    0  501  0.00000000000E+00  0.00000000000E+00 -0.15778314629E+04  0.15778314629E+04  0.25500000920E-02 0.  1.
    10030    2    1    2    0    0  0.00000000000E+00  0.00000000000E+00 -0.24347610159E+03  0.29121868242E+04  0.29019909523E+04 0.  0.
        5    1    3    3  502    0 -0.85471744924E+02 -0.93997368015E+03 -0.12276580150E+04  0.15485548845E+04  0.46999998093E+01 0.  1.
       -5    1    3    3    0  502  0.85471744924E+02  0.93997368015E+03  0.98418191337E+03  0.13636319398E+04  0.46999998093E+01 0. -1.
</event>
<event>
 5   0  0.1580212E-06  0.2911737E+04  0.7818609E-02  0.8269394E-01
       -1   -1    0    0    0  501  0.00000000000E+00  0.00000000000E+00  0.15874804818E+04  0.15874804819E+04  0.50400001928E-02 0. -1.
        1   -1    0    0  501    0  0.00000000000E+00  0.00000000000E+00 -0.13351680221E+04  0.13351680221E+04  0.50400001928E-02 0.  1.
    10030    2    1    2    0    0  0.00000000000E+00  0.00000000000E+00  0.25231245977E+03  0.29226485039E+04  0.29117370589E+04 0.  0.
        4    1    3    3  502    0 -0.62064737867E+03 -0.12725189146E+04 -0.21429619417E+03  0.14319329692E+04  0.12699999809E+01 0.  1.
       -4    1    3    3    0  502  0.62064737867E+03  0.12725189146E+04  0.46660865394E+03  0.14907155347E+04  0.12699999809E+01 0. -1.
</event>
<event>
 5   0  0.1360125E-06  0.2722509E+04  0.7818609E-02  0.8327738E-01
        3   -1    0    0  501    0  0.00000000000E+00  0.00000000000E+00  0.14306317470E+04  0.14306317505E+04  0.10100000352E+00 0. -1.
       -3   -1    0    0    0  501  0.00000000000E+00  0.00000000000E+00 -0.12952413857E+04  0.12952413896E+04  0.10100000352E+00 0.  1.
    10030    2    1    2    0    0  0.00000000000E+00  0.00000000000E+00  0.13539036128E+03  0.27258731401E+04  0.27225087376E+04 0.  0.
        5    1    3    3  502    0  0.12465221329E+03  0.66644340354E+03 -0.11141475037E+04  0.13042360731E+04  0.46999998093E+01 0.  1.
       -5    1    3    3    0  502 -0.12465221329E+03 -0.66644340354E+03  0.12495378650E+04  0.14216370670E+04  0.46999998093E+01 0. -1.
</event>
<event>
 5   0  0.1580212E-06  0.2894480E+04  0.7818609E-02  0.8274522E-01
       -1   -1    0    0    0  501  0.00000000000E+00  0.00000000000E+00  0.10277848211E+04  0.10277848211E+04  0.50400001928E-02 0.  1.
        1   -1    0    0  501    0  0.00000000000E+00  0.00000000000E+00 -0.20378819318E+04  0.20378819318E+04  0.50400001928E-02 0. -1.
    10030    2    1    2    0    0  0.00000000000E+00  0.00000000000E+00 -0.10100971107E+04  0.30656667529E+04  0.28944803449E+04 0.  0.
        4    1    3    3  502    0 -0.43997213790E+03  0.11660379903E+04 -0.12842797013E+04  0.17895798504E+04  0.12699999809E+01 0. -1.
       -4    1    3    3    0  502  0.43997213790E+03 -0.11660379903E+04  0.27418259054E+03  0.12760869025E+04  0.12699999809E+01 0.  1.
</event>
<event>
 5   0  0.1543678E-06  0.2943742E+04  0.7818609E-02  0.8259981E-01
        1   -1    0    0  501    0  0.00000000000E+00  0.00000000000E+00  0.20007645635E+04  0.20007645635E+04  0.50400001928E-02 0. -1.
       -1   -1    0    0    0  501  0.00000000000E+00  0.00000000000E+00 -0.10827882200E+04  0.10827882200E+04  0.50400001928E-02 0.  1.
    10030    2    1    2    0    0  0.00000000000E+00  0.00000000000E+00  0.91797634358E+03  0.30835527835E+04  0.29437420406E+04 0.  0.
        3    1    3    3  502    0  0.96513909496E+03  0.82423254440E+03  0.12397414400E+04  0.17742073183E+04  0.10100000352E+00 0. -1.
       -3    1    3    3    0  502 -0.96513909496E+03 -0.82423254440E+03 -0.32176509644E+03  0.13093454652E+04  0.10100000352E+00 0.  1.
</event>
<event>
 5   0  0.1602873E-06  0.2913062E+04  0.7818609E-02  0.8269002E-01
        1   -1    0    0  501    0  0.00000000000E+00  0.00000000000E+00  0.21855472429E+04  0.21855472429E+04  0.50400001928E-02 0.  1.
       -1   -1    0    0    0  501  0.00000000000E+00  0.00000000000E+00 -0.97068699174E+03  0.97068699175E+03  0.50400001928E-02 0. -1.
    10030    2    1    2    0    0  0.00000000000E+00  0.00000000000E+00  0.12148602512E+04  0.31562342347E+04  0.29130618109E+04 0.  0.
        1    1    3    3  502    0  0.35091526077E+03  0.14031071024E+04  0.79393675570E+03  0.16499050376E+04  0.50400001928E-02 0. -1.
       -1    1    3    3    0  502 -0.35091526077E+03 -0.14031071024E+04  0.42092349551E+03  0.15063291971E+04  0.50400001928E-02 0.  1.
</event>
<event>
 5   0  0.4187518E-06  0.2907406E+04  0.7818609E-02  0.8270677E-01
        2   -1    0    0  501    0  0.00000000000E+00  0.00000000000E+00  0.24636833696E+04  0.24636833696E+04  0.25500000920E-02 0.  1.
       -2   -1    0    0    0  501  0.00000000000E+00  0.00000000000E+00 -0.85776135436E+03  0.85776135436E+03  0.25500000920E-02 0. -1.
    10030    2    1    2    0    0  0.00000000000E+00  0.00000000000E+00  0.16059220152E+04  0.33214447240E+04  0.29074059805E+04 0.  0.
        3    1    3    3  502    0 -0.36316477946E+03  0.82005427236E+03 -0.50402334288E+03  0.10287940547E+04  0.10100000352E+00 0. -1.
       -3    1    3    3    0  502  0.36316477946E+03 -0.82005427236E+03  0.21099453581E+04  0.22926506692E+04  0.10100000352E+00 0.  1.
</event>
<event>
 5   0  0.4148677E-06  0.2931366E+04  0.7818609E-02  0.8263606E-01
       -2   -1    0    0    0  501  0.00000000000E+00  0.00000000000E+00  0.11734048281E+04  0.11734048281E+04  0.25500000920E-02 0. -1.
        2   -1    0    0  501    0  0.00000000000E+00  0.00000000000E+00 -0.18307631072E+04  0.18307631072E+04  0.25500000920E-02 0.  1.
    10030    2    1    2    0    0  0.00000000000E+00  0.00000000000E+00 -0.65735827907E+03  0.30041679353E+04  0.29313657357E+04 0.  0.
        5    1    3    3  502    0  0.21032845325E+01 -0.72602896391E+03  0.97615902511E+03  0.12165652521E+04  0.46999998093E+01 0. -1.
       -5    1    3    3    0  502 -0.21032845325E+01  0.72602896391E+03 -0.16335173042E+04  0.17876026833E+04  0.46999998093E+01 0.  1.
</event>
<event>
 5   0  0.4148677E-06  0.2894999E+04  0.7818609E-02  0.8274367E-01
       -2   -1    0    0    0  501  0.00000000000E+00  0.00000000000E+00  0.19842077542E+04  0.19842077542E+04  0.25500000920E-02 0.  1.
        2   -1    0    0  501    0  0.00000000000E+00  0.00000000000E+00 -0.10559652014E+04  0.10559652014E+04  0.25500000920E-02 0. -1.
    10030    2    1    2    0    0  0.00000000000E+00  0.00000000000E+00  0.92824255284E+03  0.30401729556E+04  0.28949986810E+04 0.  0.
        5    1    3    3  502    0  0.90868544893E+02  0.45699464959E+03 -0.97505127491E+03  0.10806702924E+04  0.46999998093E+01 0. -1.
       -5    1    3    3    0  502 -0.90868544893E+02 -0.45699464959E+03  0.19032938277E+04  0.19595026632E+04  0.46999998093E+01 0.  1.
</event>
<event>
 5   0  0.1602873E-06  0.2663222E+04  0.7818609E-02  0.8347038E-01
       -1   -1    0    0    0  501  0.00000000000E+00  0.00000000000E+00  0.15747683854E+04  0.15747683854E+04  0.50400001928E-02 0.  1.
        1   -1    0    0  501    0  0.00000000000E+00  0.00000000000E+00 -0.11259988013E+04  0.11259988013E+04  0.50400001928E-02 0. -1.
    10030    2    1    2    0    0  0.00000000000E+00  0.00000000000E+00  0.44876958411E+03  0.27007671867E+04  0.26632215937E+04 0.  0.
        1    1    3    3  502    0  0.28077665117E+03 -0.12081096152E+04  0.71580171630E+03  0.14320392688E+04  0.50400001928E-02 0.  1.
       -1    1    3    3    0  502 -0.28077665117E+03  0.12081096152E+04 -0.26703213219E+03  0.12687279180E+04  0.50400001928E-02 0. -1.
</event>
<event>
 5   0  0.4115143E-06  0.2925139E+04  0.7818609E-02  0.8265437E-01
       -2   -1    0    0    0  501  0.00000000000E+00  0.00000000000E+00  0.16172776564E+04  0.16172776564E+04  0.25500000920E-02 0. -1.
        2   -1    0    0  501    0  0.00000000000E+00  0.00000000000E+00 -0.13226604045E+04  0.13226604045E+04  0.25500000920E-02 0.  1.
    10030    2    1    2    0    0  0.00000000000E+00  0.00000000000E+00  0.29461725192E+03  0.29399380608E+04  0.29251387106E+04 0.  0.
        1    1    3    3  502    0 -0.25440601413E+02  0.10041403888E+04  0.12157789026E+04  0.15770426388E+04  0.50400001928E-02 0. -1.
       -1    1    3    3    0  502  0.25440601413E+02 -0.10041403888E+04 -0.92116165065E+03  0.13628954220E+04  0.50400001928E-02 0.  1.
</event>
<event>
 5   0  0.4115143E-06  0.2904857E+04  0.7818609E-02  0.8271434E-01
        2   -1    0    0  501    0  0.00000000000E+00  0.00000000000E+00  0.28912452436E+04  0.28912452436E+04  0.25500000920E-02 0. -1.
       -2   -1    0    0    0  501  0.00000000000E+00  0.00000000000E+00 -0.72963301816E+03  0.72963301817E+03  0.25500000920E-02 0.  1.
    10030    2    1    2    0    0  0.00000000000E+00  0.00000000000E+00  0.21616122254E+04  0.36208782617E+04  0.29048566184E+04 0.  0.
        1    1    3    3  502    0  0.14036140878E+04 -0.54058203871E+02  0.62029011156E+03  0.15355177041E+04  0.50400001928E-02 0. -1.
       -1    1    3    3    0  502 -0.14036140878E+04  0.54058203871E+02  0.15413221138E+04  0.20853605577E+04  0.50400001928E-02 0.  1.
</event>
<event>
 5   0  0.1543678E-06  0.2903564E+04  0.7818609E-02  0.8271818E-01
       -1   -1    0    0    0  501  0.00000000000E+00  0.00000000000E+00  0.11593131803E+04  0.11593131803E+04  0.50400001928E-02 0.  1.
        1   -1    0    0  501    0  0.00000000000E+00  0.00000000000E+00 -0.18180344535E+04  0.18180344535E+04  0.50400001928E-02 0. -1.
    10030    2    1    2    0    0  0.00000000000E+00  0.00000000000E+00 -0.65872127317E+03  0.29773476338E+04  0.29035642264E+04 0.  0.
        3    1    3    3  502    0 -0.11400376489E+03  0.82647954688E+03  0.88894107843E+03  0.12191314740E+04  0.10100000352E+00 0.  1.
       -3    1    3    3    0  502  0.11400376489E+03 -0.82647954688E+03 -0.15476623516E+04  0.17582161598E+04  0.10100000352E+00 0. -1.
</event>
<event>
 5   0  0.4224163E-06  0.2826995E+04  0.7818609E-02  0.8294936E-01
        2   -1    0    0  501    0  0.00000000000E+00  0.00000000000E+00  0.17661643157E+04  0.17661643157E+04  0.25500000920E-02 0.  1.
       -2   -1    0    0    0  501  0.00000000000E+00  0.00000000000E+00 -0.11312513085E+04  0.11312513085E+04  0.25500000920E-02 0. -1.
    10030    2    1    2    0    0  0.00000000000E+00  0.00000000000E+00  0.63491300720E+03  0.28974156241E+04  0.28269953612E+04 0.  0.
        4    1    3    3  502    0 -0.74286330831E+03  0.66335146511E+03 -0.71057108474E+03  0.12234353029E+04  0.12699999809E+01 0. -1.
       -4    1    3    3    0  502  0.74286330831E+03 -0.66335146511E+03  0.13454840919E+04  0.16739803212E+04  0.12699999809E+01 0.  1.
</event>
<event>
 5   0  0.1550278E-06  0.2941599E+04  0.7818609E-02  0.8260607E-01
        1   -1    0    0  501    0  0.00000000000E+00  0.00000000000E+00  0.96370890130E+03  0.96370890132E+03  0.50400001928E-02 0. -1.
       -1   -1    0    0    0  501  0.00000000000E+00  0.00000000000E+00 -0.22447138230E+04  0.22447138230E+04  0.50400001928E-02 0.  1.
    10030    2    1    2    0    0  0.00000000000E+00  0.00000000000E+00 -0.12810049217E+04  0.32084227243E+04  0.29415986756E+04 0.  0.
        2    1    3    3  502    0  0.69892673190E+03 -0.12940398821E+04 -0.62458788326E+03  0.15978572580E+04  0.25500000920E-02 0. -1.
       -2    1    3    3    0  502 -0.69892673190E+03  0.12940398821E+04 -0.65641703844E+03  0.16105654663E+04  0.25500000920E-02 0.  1.
</event>
<event>
 5   0  0.4162450E-06  0.2792847E+04  0.7818609E-02  0.8305493E-01
        2   -1    0    0  501    0  0.00000000000E+00  0.00000000000E+00  0.13133266861E+04  0.13133266861E+04  0.25500000920E-02 0. -1.
       -2   -1    0    0    0  501  0.00000000000E+00  0.00000000000E+00 -0.14847780247E+04  0.14847780248E+04  0.25500000920E-02 0.  1.
    10030    2    1    2    0    0  0.00000000000E+00  0.00000000000E+00 -0.17145133861E+03  0.27981047109E+04  0.27928470083E+04 0.  0.
        2    1    3    3  502    0  0.39473631244E+03 -0.10087115361E+04 -0.96868090068E+03  0.14531546397E+04  0.25500000920E-02 0.  1.
       -2    1    3    3    0  502 -0.39473631244E+03  0.10087115361E+04  0.79722956207E+03  0.13449500712E+04  0.25500000920E-02 0. -1.
</event>
<event>
 5   0  0.1543678E-06  0.2878924E+04  0.7818609E-02  0.8279176E-01
        1   -1    0    0  501    0  0.00000000000E+00  0.00000000000E+00  0.12962261353E+04  0.12962261353E+04  0.50400001928E-02 0. -1.
       -1   -1    0    0    0  501  0.00000000000E+00  0.00000000000E+00 -0.15985258765E+04  0.15985258765E+04  0.50400001928E-02 0.  1.
    10030    2    1    2    0    0  0.00000000000E+00  0.00000000000E+00 -0.30229974115E+03  0.28947520118E+04  0.28789241179E+04 0.  0.
        3    1    3    3  502    0 -0.50168648570E+03  0.79370426223E+03  0.94590091857E+03  0.13328106931E+04  0.10100000352E+00 0. -1.
       -3    1    3    3    0  502  0.50168648570E+03 -0.79370426223E+03 -0.12482006597E+04  0.15619413187E+04  0.10100000352E+00 0.  1.
</event>
<event>
 5   0  0.4162450E-06  0.2912244E+04  0.7818609E-02  0.8269244E-01
       -2   -1    0    0    0  501  0.00000000000E+00  0.00000000000E+00  0.84878992889E+03  0.84878992890E+03  0.25500000920E-02 0.  1.
        2   -1    0    0  501    0  0.00000000000E+00  0.00000000000E+00 -0.24980161668E+04  0.24980161668E+04  0.25500000920E-02 0. -1.
    10030    2    1    2    0    0  0.00000000000E+00  0.00000000000E+00 -0.16492262379E+04  0.33468060957E+04  0.29122437842E+04 0.  0.
        2    1    3    3  502    0 -0.30802597501E+03  0.13479290323E+04 -0.29986115810E+03  0.14148177945E+04  0.25500000920E-02 0.  1.
       -2    1    3    3    0  502  0.30802597501E+03 -0.13479290323E+04 -0.13493650798E+04  0.19319883012E+04  0.25500000920E-02 0. -1.
</event>
<event>
 5   0  0.4148677E-06  0.2936083E+04  0.7818609E-02  0.8262222E-01
       -2   -1    0    0    0  501  0.00000000000E+00  0.00000000000E+00  0.12620052051E+04  0.12620052051E+04  0.25500000920E-02 0.  1.
        2   -1    0    0  501    0  0.00000000000E+00  0.00000000000E+00 -0.17077160359E+04  0.17077160359E+04  0.25500000920E-02 0. -1.
    10030    2    1    2    0    0  0.00000000000E+00  0.00000000000E+00 -0.44571083081E+03  0.29697212409E+04  0.29360834634E+04 0.  0.
        5    1    3    3  502    0 -0.28613249538E+03 -0.80195405289E+03 -0.14324334228E+04  0.16664002246E+04  0.46999998093E+01 0. -1.
       -5    1    3    3    0  502  0.28613249538E+03  0.80195405289E+03  0.98672259202E+03  0.13033210163E+04  0.46999998093E+01 0.  1.
</event>
<event>
 5   0  0.4148677E-06  0.2911510E+04  0.7818609E-02  0.8269461E-01
       -2   -1    0    0    0  501  0.00000000000E+00  0.00000000000E+00  0.18580444356E+04  0.18580444356E+04  0.25500000920E-02 0.  1.
        2   -1    0    0  501    0  0.00000000000E+00  0.00000000000E+00 -0.11405662173E+04  0.11405662173E+04  0.25500000920E-02 0. -1.
    10030    2    1    2    0    0  0.00000000000E+00  0.00000000000E+00  0.71747821833E+03  0.29986106529E+04  0.29115100642E+04 0.  0.
        5    1    3    3  502    0 -0.97117577300E+03 -0.10841526015E+04  0.38461805096E+03  0.15054973865E+04  0.46999998093E+01 0. -1.
       -5    1    3    3    0  502  0.97117577300E+03  0.10841526015E+04  0.33286016737E+03  0.14931132665E+04  0.46999998093E+01 0.  1.
</event>
<event>
 5   0  0.1360125E-06  0.2883734E+04  0.7818609E-02  0.8277734E-01
        4   -1    0    0  501    0  0.00000000000E+00  0.00000000000E+00  0.23194413405E+04  0.23194416882E+04  0.12699999809E+01 0.  1.
       -4   -1    0    0    0  501  0.00000000000E+00  0.00000000000E+00 -0.89632711759E+03  0.89632801732E+03  0.12699999809E+01 0. -1.
    10030    2    1    2    0    0  0.00000000000E+00  0.00000000000E+00  0.14231142229E+04  0.32157697055E+04  0.28837338136E+04 0.  0.
        5    1    3    3  502    0  0.42700716210E+03  0.10160236368E+04 -0.32517555900E+03  0.11490867597E+04  0.46999998093E+01 0. -1.
       -5    1    3    3    0  502 -0.42700716210E+03 -0.10160236368E+04  0.17482897819E+04  0.20666829459E+04  0.46999998093E+01 0.  1.
</event>
<event>
 5   0  0.1543678E-06  0.2898749E+04  0.7818609E-02  0.8273250E-01
       -1   -1    0    0    0  501  0.00000000000E+00  0.00000000000E+00  0.10926590481E+04  0.10926590481E+04  0.50400001928E-02 0.  1.
        1   -1    0    0  501    0  0.00000000000E+00  0.00000000000E+00 -0.19225447800E+04  0.19225447800E+04  0.50400001928E-02 0. -1.
    10030    2    1    2    0    0  0.00000000000E+00  0.00000000000E+00 -0.82988573187E+03  0.30152038280E+04  0.28987486605E+04 0.  0.
        3    1    3    3  502    0 -0.50368005924E+03  0.65623006602E+03 -0.16528614667E+04  0.18483188415E+04  0.10100000352E+00 0. -1.
       -3    1    3    3    0  502  0.50368005924E+03 -0.65623006602E+03  0.82297573479E+03  0.11668849866E+04  0.10100000352E+00 0.  1.
</event>
<event>
 5   0  0.1543678E-06  0.2912309E+04  0.7818609E-02  0.8269224E-01
       -1   -1    0    0    0  501  0.00000000000E+00  0.00000000000E+00  0.15258372189E+04  0.15258372189E+04  0.50400001928E-02 0.  1.
        1   -1    0    0  501    0  0.00000000000E+00  0.00000000000E+00 -0.13896545269E+04  0.13896545270E+04  0.50400001928E-02 0. -1.
    10030    2    1    2    0    0  0.00000000000E+00  0.00000000000E+00  0.13618269199E+03  0.29154917459E+04  0.29123094607E+04 0.  0.
        3    1    3    3  502    0  0.55893877835E+03  0.61983315345E+03 -0.11264353920E+04  0.14019494993E+04  0.10100000352E+00 0. -1.
       -3    1    3    3    0  502 -0.55893877835E+03 -0.61983315345E+03  0.12626180840E+04  0.15135422466E+04  0.10100000352E+00 0.  1.
</event>
<event>
 5   0  0.1511126E-06  0.2910443E+04  0.7818609E-02  0.8269777E-01
        1   -1    0    0  501    0  0.00000000000E+00  0.00000000000E+00  0.24785898195E+04  0.24785898195E+04  0.50400001928E-02 0. -1.
       -1   -1    0    0    0  501  0.00000000000E+00  0.00000000000E+00 -0.85438472072E+03  0.85438472073E+03  0.50400001928E-02 0.  1.
    10030    2    1    2    0    0  0.00000000000E+00  0.00000000000E+00  0.16242050988E+04  0.33329745402E+04  0.29104427641E+04 0.  0.
        5    1    3    3  502    0  0.11252521336E+04 -0.72579649952E+03  0.14646271080E+04  0.19844716118E+04  0.46999998093E+01 0. -1.
       -5    1    3    3    0  502 -0.11252521336E+04  0.72579649952E+03  0.15957799084E+03  0.13485029284E+04  0.46999998093E+01 0.  1.
</event>
<event>
 5   0  0.4115143E-06  0.2855507E+04  0.7818609E-02  0.8286240E-01
       -2   -1    0    0    0  501  0.00000000000E+00  0.00000000000E+00  0.78184435198E+03  0.78184435198E+03  0.25500000920E-02 0.  1.
        2   -1    0    0  501    0  0.00000000000E+00  0.00000000000E+00 -0.26072715380E+04  0.26072715380E+04  0.25500000920E-02 0. -1.
    10030    2    1    2    0    0  0.00000000000E+00  0.00000000000E+00 -0.18254271860E+04  0.33891158899E+04  0.28555073287E+04 0.  0.
        1    1    3    3  502    0  0.11237889158E+04  0.54879450929E+03 -0.95233620204E+02  0.12542513238E+04  0.50400001928E-02 0.  1.
       -1    1    3    3    0  502 -0.11237889158E+04 -0.54879450929E+03 -0.17301935658E+04  0.21348645662E+04  0.50400001928E-02 0. -1.
</event>
<event>
 5   0  0.1511126E-06  0.2892430E+04  0.7818609E-02  0.8275133E-01
       -1   -1    0    0    0  501  0.00000000000E+00  0.00000000000E+00  0.15439105758E+04  0.15439105759E+04  0.50400001928E-02 0. -1.
        1   -1    0    0  501    0  0.00000000000E+00  0.00000000000E+00 -0.13547011163E+04  0.13547011163E+04  0.50400001928E-02 0.  1.
    10030    2    1    2    0    0  0.00000000000E+00  0.00000000000E+00  0.18920945956E+03  0.28986116921E+04  0.28924296918E+04 0.  0.
        5    1    3    3  502    0  0.75229033863E+03  0.11767131988E+04 -0.28159150694E+03  0.14247493017E+04  0.46999998093E+01 0.  1.
       -5    1    3    3    0  502 -0.75229033863E+03 -0.11767131988E+04  0.47080096650E+03  0.14738623904E+04  0.46999998093E+01 0. -1.
</event>
<event>
 5   0  0.4115143E-06  0.2888599E+04  0.7818609E-02  0.8276278E-01
       -2   -1    0    0    0  501  0.00000000000E+00  0.00000000000E+00  0.19938589134E+04  0.19938589134E+04  0.25500000920E-02 0.  1.
        2   -1    0    0  501    0  0.00000000000E+00  0.00000000000E+00 -0.10462132983E+04  0.10462132983E+04  0.25500000920E-02 0. -1.
    10030    2    1    2    0    0  0.00000000000E+00  0.00000000000E+00  0.94764561506E+03  0.30400722117E+04  0.28885994601E+04 0.  0.
        1    1    3    3  502    0  0.12389858270E+04 -0.77607186393E+02 -0.30305402505E+03  0.12778695149E+04  0.50400001928E-02 0. -1.
       -1    1    3    3    0  502 -0.12389858270E+04  0.77607186393E+02  0.12506996401E+04  0.17622026968E+04  0.50400001928E-02 0.  1.
</event>
<event>
 5   0  0.4187518E-06  0.2900967E+04  0.7818609E-02  0.8272590E-01
       -2   -1    0    0    0  501  0.00000000000E+00  0.00000000000E+00  0.87203119424E+03  0.87203119424E+03  0.25500000920E-02 0. -1.
        2   -1    0    0  501    0  0.00000000000E+00  0.00000000000E+00 -0.24126458543E+04  0.24126458543E+04  0.25500000920E-02 0.  1.
    10030    2    1    2    0    0  0.00000000000E+00  0.00000000000E+00 -0.15406146600E+04  0.32846770485E+04  0.29009670426E+04 0.  0.
        3    1    3    3  502    0 -0.41195394234E+03 -0.20310866623E+03 -0.23281323639E+04  0.23730064254E+04  0.10100000352E+00 0.  1.
       -3    1    3    3    0  502  0.41195394234E+03  0.20310866623E+03  0.78751770388E+03  0.91167062311E+03  0.10100000352E+00 0. -1.
</event>
<event>
 5   0  0.4162450E-06  0.2910566E+04  0.7818609E-02  0.8269741E-01
        2   -1    0    0  501    0  0.00000000000E+00  0.00000000000E+00  0.17017279336E+04  0.17017279336E+04  0.25500000920E-02 0.  1.
       -2   -1    0    0    0  501  0.00000000000E+00  0.00000000000E+00 -0.12445282574E+04  0.12445282574E+04  0.25500000920E-02 0. -1.
    10030    2    1    2    0    0  0.00000000000E+00  0.00000000000E+00  0.45719967626E+03  0.29462561910E+04  0.29105659242E+04 0.  0.
        2    1    3    3  502    0 -0.69999977169E+03 -0.10881660431E+04 -0.44570932469E+03  0.13684888819E+04  0.25500000920E-02 0. -1.
       -2    1    3    3    0  502  0.69999977169E+03  0.10881660431E+04  0.90290900095E+03  0.15777673091E+04  0.25500000920E-02 0.  1.
</event>
<event>
 5   0  0.1550278E-06  0.2905993E+04  0.7818609E-02  0.8271097E-01
        1   -1    0    0  501    0  0.00000000000E+00  0.00000000000E+00  0.16525045809E+04  0.16525045809E+04  0.50400001928E-02 0. -1.
       -1   -1    0    0    0  501  0.00000000000E+00  0.00000000000E+00 -0.12775748798E+04  0.12775748798E+04  0.50400001928E-02 0.  1.
    10030    2    1    2    0    0  0.00000000000E+00  0.00000000000E+00  0.37492970112E+03  0.29300794607E+04  0.29059926643E+04 0.  0.
        2    1    3    3  502    0 -0.73111552747E+03 -0.19527873101E+03  0.14381227323E+04  0.16250725186E+04  0.25500000920E-02 0. -1.
       -2    1    3    3    0  502  0.73111552747E+03  0.19527873101E+03 -0.10631930312E+04  0.13050069421E+04  0.25500000920E-02 0.  1.
</event>
<event>
 5   0  0.4148677E-06  0.2980340E+04  0.7818609E-02  0.8249367E-01
       -2   -1    0    0    0  501  0.00000000000E+00  0.00000000000E+00  0.15319171687E+04  0.15319171687E+04  0.25500000920E-02 0. -1.
        2   -1    0    0  501    0  0.00000000000E+00  0.00000000000E+00 -0.14495601400E+04  0.14495601400E+04  0.25500000920E-02 0.  1.
    10030    2    1    2    0    0  0.00000000000E+00  0.00000000000E+00  0.82357028728E+02  0.29814773087E+04  0.29803396219E+04 0.  0.
        5    1    3    3  502    0 -0.59396607771E+03 -0.13586295051E+04  0.18926928286E+03  0.14948293498E+04  0.46999998093E+01 0. -1.
       -5    1    3    3    0  502  0.59396607771E+03  0.13586295051E+04 -0.10691225413E+03  0.14866479589E+04  0.46999998093E+01 0.  1.
</event>
<event>
 5   0  0.4148677E-06  0.2950468E+04  0.7818609E-02  0.8258018E-01
       -2   -1    0    0    0  501  0.00000000000E+00  0.00000000000E+00  0.93983345429E+03  0.93983345429E+03  0.25500000920E-02 0. -1.
        2   -1    0    0  501    0  0.00000000000E+00  0.00000000000E+00 -0.23156393932E+04  0.23156393932E+04  0.25500000920E-02 0.  1.
    10030    2    1    2    0    0  0.00000000000E+00  0.00000000000E+00 -0.13758059389E+04  0.32554728475E+04  0.29504680102E+04 0.  0.
        5    1    3    3  502    0 -0.79086166278E+03 -0.79525091364E+03  0.36950062438E+03  0.11808636614E+04  0.46999998093E+01 0. -1.
       -5    1    3    3    0  502  0.79086166278E+03  0.79525091364E+03 -0.17453065633E+04  0.20746091861E+04  0.46999998093E+01 0.  1.
</event>
<event>
 5   0  0.4115143E-06  0.2931260E+04  0.7818609E-02  0.8263637E-01
       -2   -1    0    0    0  501  0.00000000000E+00  0.00000000000E+00  0.13380211714E+04  0.13380211714E+04  0.25500000920E-02 0.  1.
        2   -1    0    0  501    0  0.00000000000E+00  0.00000000000E+00 -0.16054087409E+04  0.16054087409E+04  0.25500000920E-02 0. -1.
    10030    2    1    2    0    0  0.00000000000E+00  0.00000000000E+00 -0.26738756953E+03  0.29434299123E+04  0.29312597183E+04 0.  0.
        1    1    3    3  502    0  0.40179789595E+03  0.22747881618E+02  0.12814522293E+04  0.13431600170E+04  0.50400001928E-02 0.  1.
       -1    1    3    3    0  502 -0.40179789595E+03 -0.22747881618E+02 -0.15488397988E+04  0.16002698953E+04  0.50400001928E-02 0. -1.
</event>
<event>
 5   0  0.4224163E-06  0.2844516E+04  0.7818609E-02  0.8289580E-01
        2   -1    0    0  501    0  0.00000000000E+00  0.00000000000E+00  0.29744668157E+04  0.29744668157E+04  0.25500000920E-02 0. -1.
       -2   -1    0    0    0  501  0.00000000000E+00  0.00000000000E+00 -0.68006067202E+03  0.68006067202E+03  0.25500000920E-02 0.  1.
    10030    2    1    2    0    0  0.00000000000E+00  0.00000000000E+00  0.22944061437E+04  0.36545274878E+04  0.28445160584E+04 0.  0.
        4    1    3    3  502    0 -0.92455966954E+03 -0.76815767887E+03  0.21239094569E+04  0.24404650778E+04  0.12699999809E+01 0. -1.
       -4    1    3    3    0  502  0.92455966954E+03  0.76815767887E+03  0.17049668687E+03  0.12140624100E+04  0.12699999809E+01 0.  1.
</event>
<event>
 5   0  0.1550278E-06  0.2917837E+04  0.7818609E-02  0.8267590E-01
        1   -1    0    0  501    0  0.00000000000E+00  0.00000000000E+00  0.16277897942E+04  0.16277897943E+04  0.50400001928E-02 0.  1.
       -1   -1    0    0    0  501  0.00000000000E+00  0.00000000000E+00 -0.13075665062E+04  0.13075665062E+04  0.50400001928E-02 0. -1.
    10030    2    1    2    0    0  0.00000000000E+00  0.00000000000E+00  0.32022328808E+03  0.29353563004E+04  0.29178371538E+04 0.  0.
        2    1    3    3  502    0 -0.13161438791E+03 -0.56978066625E+03  0.15047260720E+04  0.16143645519E+04  0.25500000920E-02 0.  1.
       -2    1    3    3    0  502  0.13161438791E+03  0.56978066625E+03 -0.11845027839E+04  0.13209917486E+04  0.25500000920E-02 0. -1.
</event>
<event>
 5   0  0.1550278E-06  0.2900606E+04  0.7818609E-02  0.8272697E-01
        1   -1    0    0  501    0  0.00000000000E+00  0.00000000000E+00  0.22910892252E+04  0.22910892252E+04  0.50400001928E-02 0.  1.
       -1   -1    0    0    0  501  0.00000000000E+00  0.00000000000E+00 -0.91806908845E+03  0.91806908846E+03  0.50400001928E-02 0. -1.
    10030    2    1    2    0    0  0.00000000000E+00  0.00000000000E+00  0.13730201367E+04  0.32091583136E+04  0.29006055896E+04 0.  0.
        2    1    3    3  502    0 -0.90406285200E+03  0.10560174335E+04  0.22916640917E+03  0.14089072728E+04  0.25500000920E-02 0.  1.
       -2    1    3    3    0  502  0.90406285200E+03 -0.10560174335E+04  0.11438537276E+04  0.18002510409E+04  0.25500000920E-02 0. -1.
</event>
<event>
 5   0  0.4148677E-06  0.2908419E+04  0.7818609E-02  0.8270377E-01
        2   -1    0    0  501    0  0.00000000000E+00  0.00000000000E+00  0.22300357504E+04  0.22300357504E+04  0.25500000920E-02 0.  1.
       -2   -1    0    0    0  501  0.00000000000E+00  0.00000000000E+00 -0.94829190962E+03  0.94829190962E+03  0.25500000920E-02 0. -1.
    10030    2    1    2    0    0  0.00000000000E+00  0.00000000000E+00  0.12817438408E+04  0.31783276600E+04  0.29084187183E+04 0.  0.
        5    1    3    3  502    0 -0.81857202401E+03  0.34822321122E+02  0.19537959673E+04  0.21186348256E+04  0.46999998093E+01 0.  1.
       -5    1    3    3    0  502  0.81857202401E+03 -0.34822321122E+02 -0.67205212651E+03  0.10596928344E+04  0.46999998093E+01 0. -1.
</event>
<event>
 5   0  0.4187518E-06  0.3263154E+04  0.7818609E-02  0.8172335E-01
       -2   -1    0    0    0  501  0.00000000000E+00  0.00000000000E+00  0.10740451454E+04  0.10740451454E+04  0.25500000920E-02 0.  1.
        2   -1    0    0  501    0  0.00000000000E+00  0.00000000000E+00 -0.24785207577E+04  0.24785207577E+04  0.25500000920E-02 0. -1.
    10030    2    1    2    0    0  0.00000000000E+00  0.00000000000E+00 -0.14044756123E+04  0.35525659031E+04  0.32631538043E+04 0.  0.
        3    1    3    3  502    0  0.80592422532E+03 -0.71197999216E+03  0.63362357241E+03  0.12481619318E+04  0.10100000352E+00 0.  1.
       -3    1    3    3    0  502 -0.80592422532E+03  0.71197999216E+03 -0.20380991847E+04  0.23044039713E+04  0.10100000352E+00 0. -1.
</event>
<event>
 5   0  0.1550278E-06  0.2849289E+04  0.7818609E-02  0.8288127E-01
        1   -1    0    0  501    0  0.00000000000E+00  0.00000000000E+00  0.18740212529E+04  0.18740212529E+04  0.50400001928E-02 0.  1.
       -1   -1    0    0    0  501  0.00000000000E+00  0.00000000000E+00 -0.10830252434E+04  0.10830252434E+04  0.50400001928E-02 0. -1.
    10030    2    1    2    0    0  0.00000000000E+00  0.00000000000E+00  0.79099600954E+03  0.29570464963E+04  0.28492892613E+04 0.  0.
        2    1    3    3  502    0 -0.99141256394E+03 -0.93630963429E+03  0.82344920533E+03  0.15929981786E+04  0.25500000920E-02 0.  1.
       -2    1    3    3    0  502  0.99141256394E+03  0.93630963429E+03 -0.32453195796E+02  0.13640483177E+04  0.25500000920E-02 0. -1.
</event>
<event>
 5   0  0.4224163E-06  0.2928936E+04  0.7818609E-02  0.8264320E-01
        2   -1    0    0  501    0  0.00000000000E+00  0.00000000000E+00  0.12745436463E+04  0.12745436463E+04  0.25500000920E-02 0.  1.
       -2   -1    0    0    0  501  0.00000000000E+00  0.00000000000E+00 -0.16826933998E+04  0.16826933998E+04  0.25500000920E-02 0. -1.
    10030    2    1    2    0    0  0.00000000000E+00  0.00000000000E+00 -0.40814975348E+03  0.29572370461E+04  0.29289357667E+04 0.  0.
        4    1    3    3  502    0 -0.13524360580E+04 -0.36570059368E+03 -0.63462746117E+03  0.15380422109E+04  0.12699999809E+01 0. -1.
       -4    1    3    3    0  502  0.13524360580E+04  0.36570059368E+03  0.22647770768E+03  0.14191948352E+04  0.12699999809E+01 0.  1.
</event>
<event>
 5   0  0.1580212E-06  0.2899501E+04  0.7818609E-02  0.8273026E-01
        1   -1    0    0  501    0  0.00000000000E+00  0.00000000000E+00  0.94097879858E+03  0.94097879859E+03  0.50400001928E-02 0. -1.
       -1   -1    0    0    0  501  0.00000000000E+00  0.00000000000E+00 -0.22336061196E+04  0.22336061196E+04  0.50400001928E-02 0.  1.
    10030    2    1    2    0    0  0.00000000000E+00  0.00000000000E+00 -0.12926273210E+04  0.31745849182E+04  0.28995006487E+04 0.  0.
        4    1    3    3  502    0 -0.12769153489E+04 -0.53857755523E+03 -0.11123693354E+04  0.17770609844E+04  0.12699999809E+01 0.  1.
       -4    1    3    3    0  502  0.12769153489E+04  0.53857755523E+03 -0.18025798566E+03  0.13975239338E+04  0.12699999809E+01 0. -1.
</event>
<event>
 5   0  0.1543678E-06  0.2842428E+04  0.7818609E-02  0.8290216E-01
       -1   -1    0    0    0  501  0.00000000000E+00  0.00000000000E+00  0.12253139524E+04  0.12253139524E+04  0.50400001928E-02 0.  1.
        1   -1    0    0  501    0  0.00000000000E+00  0.00000000000E+00 -0.16484344250E+04  0.16484344250E+04  0.50400001928E-02 0. -1.
    10030    2    1    2    0    0  0.00000000000E+00  0.00000000000E+00 -0.42312047266E+03  0.28737483774E+04  0.28424283284E+04 0.  0.
        3    1    3    3  502    0  0.14498586082E+03 -0.12249301649E+04 -0.92529572104E+03  0.15419620586E+04  0.10100000352E+00 0. -1.
       -3    1    3    3    0  502 -0.14498586082E+03  0.12249301649E+04  0.50217524837E+03  0.13317863188E+04  0.10100000352E+00 0.  1.
</event>
<event>
 5   0  0.4187518E-06  0.2968078E+04  0.7818609E-02  0.8252906E-01
       -2   -1    0    0    0  501  0.00000000000E+00  0.00000000000E+00  0.14288201156E+04  0.14288201156E+04  0.25500000920E-02 0.  1.
        2   -1    0    0  501    0  0.00000000000E+00  0.00000000000E+00 -0.15413921268E+04  0.15413921268E+04  0.25500000920E-02 0. -1.
    10030    2    1    2    0    0  0.00000000000E+00  0.00000000000E+00 -0.11257201121E+03  0.29702122423E+04  0.29680782178E+04 0.  0.
        3    1    3    3  502    0 -0.59742711201E+03  0.43409142271E+03  0.12318914552E+04  0.14362837759E+04  0.10100000352E+00 0.  1.
       -3    1    3    3    0  502  0.59742711201E+03 -0.43409142271E+03 -0.13444634664E+04  0.15339284664E+04  0.10100000352E+00 0. -1.
</event>
<event>
 5   0  0.1550278E-06  0.2867537E+04  0.7818609E-02  0.8282602E-01
       -1   -1    0    0    0  501  0.00000000000E+00  0.00000000000E+00  0.95017948539E+03  0.95017948540E+03  0.50400001928E-02 0. -1.
        1   -1    0    0  501    0  0.00000000000E+00  0.00000000000E+00 -0.21634783524E+04  0.21634783524E+04  0.50400001928E-02 0.  1.
    10030    2    1    2    0    0  0.00000000000E+00  0.00000000000E+00 -0.12132988670E+04  0.31136578378E+04  0.28675374436E+04 0.  0.
        2    1    3    3  502    0 -0.11318026194E+03 -0.13782101412E+04 -0.19543692373E+03  0.13965917643E+04  0.25500000920E-02 0. -1.
       -2    1    3    3    0  502  0.11318026194E+03  0.13782101412E+04 -0.10178619433E+04  0.17170660735E+04  0.25500000920E-02 0.  1.
</event>
<event>
 5   0  0.4115143E-06  0.2901121E+04  0.7818609E-02  0.8272544E-01
        2   -1    0    0  501    0  0.00000000000E+00  0.00000000000E+00  0.14303922317E+04  0.14303922317E+04  0.25500000920E-02 0. -1.
       -2   -1    0    0    0  501  0.00000000000E+00  0.00000000000E+00 -0.14710129237E+04  0.14710129237E+04  0.25500000920E-02 0.  1.
    10030    2    1    2    0    0  0.00000000000E+00  0.00000000000E+00 -0.40620691993E+02  0.29014051554E+04  0.29011207895E+04 0.  0.
        1    1    3    3  502    0  0.10201144670E+04 -0.24416378962E+03 -0.10223446693E+04  0.14647314104E+04  0.50400001928E-02 0.  1.
       -1    1    3    3    0  502 -0.10201144670E+04  0.24416378962E+03  0.98172397732E+03  0.14366737450E+04  0.50400001928E-02 0. -1.
</event>
<event>
 5   0  0.4187518E-06  0.2900953E+04  0.7818609E-02  0.8272594E-01
       -2   -1    0    0    0  501  0.00000000000E+00  0.00000000000E+00  0.13335168668E+04  0.13335168668E+04  0.25500000920E-02 0.  1.
        2   -1    0    0  501    0  0.00000000000E+00  0.00000000000E+00 -0.15776940150E+04  0.15776940150E+04  0.25500000920E-02 0. -1.
    10030    2    1    2    0    0  0.00000000000E+00  0.00000000000E+00 -0.24417714819E+03  0.29112108817E+04  0.29009526570E+04 0.  0.
        3    1    3    3  502    0  0.36333838041E+03  0.50238376475E+02 -0.15303837612E+04  0.15737258782E+04  0.10100000352E+00 0. -1.
       -3    1    3    3    0  502 -0.36333838041E+03 -0.50238376475E+02  0.12862066130E+04  0.13374850035E+04  0.10100000352E+00 0.  1.
</event>
<event>
 5   0  0.1543678E-06  0.2877801E+04  0.7818609E-02  0.8279513E-01
        1   -1    0    0  501    0  0.00000000000E+00  0.00000000000E+00  0.17401165958E+04  0.17401165958E+04  0.50400001928E-02 0.  1.
       -1   -1    0    0    0  501  0.00000000000E+00  0.00000000000E+00 -0.11898255253E+04  0.11898255253E+04  0.50400001928E-02 0. -1.
    10030    2    1    2    0    0  0.00000000000E+00  0.00000000000E+00  0.55029107057E+03  0.29299421211E+04  0.28778013432E+04 0.  0.
        3    1    3    3  502    0  0.14354436200E+04 -0.61758385125E+01  0.37643988825E+03  0.14839957974E+04  0.10100000352E+00 0.  1.
       -3    1    3    3    0  502 -0.14354436200E+04  0.61758385125E+01  0.17385118232E+03  0.14459463237E+04  0.10100000352E+00 0. -1.
</event>
<event>
 5   0  0.1602873E-06  0.2905135E+04  0.7818609E-02  0.8271351E-01
        1   -1    0    0  501    0  0.00000000000E+00  0.00000000000E+00  0.12309334171E+04  0.12309334171E+04  0.50400001928E-02 0.  1.
       -1   -1    0    0    0  501  0.00000000000E+00  0.00000000000E+00 -0.17141077437E+04  0.17141077437E+04  0.50400001928E-02 0. -1.
    10030    2    1    2    0    0  0.00000000000E+00  0.00000000000E+00 -0.48317432658E+03  0.29450411608E+04  0.29051351103E+04 0.  0.
        1    1    3    3  502    0  0.95114851948E+03 -0.44713224768E+03 -0.12580275036E+04  0.16392815355E+04  0.50400001928E-02 0. -1.
       -1    1    3    3    0  502 -0.95114851948E+03  0.44713224768E+03  0.77485317698E+03  0.13057596253E+04  0.50400001928E-02 0.  1.
</event>
<event>
 5   0  0.4115143E-06  0.2812272E+04  0.7818609E-02  0.8299468E-01
       -2   -1    0    0    0  501  0.00000000000E+00  0.00000000000E+00  0.82019023766E+03  0.82019023766E+03  0.25500000920E-02 0.  1.
        2   -1    0    0  501    0  0.00000000000E+00  0.00000000000E+00 -0.24106829557E+04  0.24106829557E+04  0.25500000920E-02 0. -1.
    10030    2    1    2    0    0  0.00000000000E+00  0.00000000000E+00 -0.15904927180E+04  0.32308731933E+04  0.28122721251E+04 0.  0.
        1    1    3    3  502    0 -0.17971528372E+02  0.14020298756E+04 -0.91687175771E+03  0.16753102901E+04  0.50400001928E-02 0.  1.
       -1    1    3    3    0  502  0.17971528372E+02 -0.14020298756E+04 -0.67362096029E+03  0.15555629033E+04  0.50400001928E-02 0. -1.
</event>
<event>
 5   0  0.1550278E-06  0.2867319E+04  0.7818609E-02  0.8282668E-01
       -1   -1    0    0    0  501  0.00000000000E+00  0.00000000000E+00  0.14044080199E+04  0.14044080200E+04  0.50400001928E-02 0. -1.
        1   -1    0    0  501    0  0.00000000000E+00  0.00000000000E+00 -0.14635201546E+04  0.14635201546E+04  0.50400001928E-02 0.  1.
    10030    2    1    2    0    0  0.00000000000E+00  0.00000000000E+00 -0.59112134629E+02  0.28679281745E+04  0.28673189167E+04 0.  0.
        2    1    3    3  502    0 -0.77686910216E+03  0.11304373875E+04  0.38762385891E+03  0.14253654075E+04  0.25500000920E-02 0. -1.
       -2    1    3    3    0  502  0.77686910216E+03 -0.11304373875E+04 -0.44673599354E+03  0.14425627670E+04  0.25500000920E-02 0.  1.
</event>
<event>
 5   0  0.1602873E-06  0.2893006E+04  0.7818609E-02  0.8274961E-01
       -1   -1    0    0    0  501  0.00000000000E+00  0.00000000000E+00  0.94800875387E+03  0.94800875389E+03  0.50400001928E-02 0.  1.
        1   -1    0    0  501    0  0.00000000000E+00  0.00000000000E+00 -0.22071227117E+04  0.22071227117E+04  0.50400001928E-02 0. -1.
    10030    2    1    2    0    0  0.00000000000E+00  0.00000000000E+00 -0.12591139578E+04  0.31551314656E+04  0.28930064995E+04 0.  0.
        1    1    3    3  502    0 -0.63508103621E+03  0.12674187262E+04 -0.94317697209E+03  0.17027216305E+04  0.50400001928E-02 0. -1.
       -1    1    3    3    0  502  0.63508103621E+03 -0.12674187262E+04 -0.31593698571E+03  0.14524098351E+04  0.50400001928E-02 0.  1.
</event>
<event>
 5   0  0.4187518E-06  0.2901172E+04  0.7818609E-02  0.8272529E-01
       -2   -1    0    0    0  501  0.00000000000E+00  0.00000000000E+00  0.11750304906E+04  0.11750304906E+04  0.25500000920E-02 0. -1.
        2   -1    0    0  501    0  0.00000000000E+00  0.00000000000E+00 -0.17907622733E+04  0.17907622733E+04  0.25500000920E-02 0.  1.
    10030    2    1    2    0    0  0.00000000000E+00  0.00000000000E+00 -0.61573178265E+03  0.29657927639E+04  0.29011723647E+04 0.  0.
        3    1    3    3  502    0 -0.68446216593E+03 -0.75815546565E+03  0.74508221957E+03  0.12642925654E+04  0.10100000352E+00 0. -1.
       -3    1    3    3    0  502  0.68446216593E+03  0.75815546565E+03 -0.13608140022E+04  0.17015001985E+04  0.10100000352E+00 0.  1.
</event>
<event>
 5   0  0.1580212E-06  0.2890430E+04  0.7818609E-02  0.8275731E-01
       -1   -1    0    0    0  501  0.00000000000E+00  0.00000000000E+00  0.29577604293E+04  0.29577604293E+04  0.50400001928E-02 0. -1.
        1   -1    0    0  501    0  0.00000000000E+00  0.00000000000E+00 -0.70615808163E+03  0.70615808165E+03  0.50400001928E-02 0.  1.
    10030    2    1    2    0    0  0.00000000000E+00  0.00000000000E+00  0.22516023477E+04  0.36639185109E+04  0.28904300239E+04 0.  0.
        4    1    3    3  502    0 -0.16767056087E+03 -0.15493159373E+02 -0.69368042262E+03  0.71382602684E+03  0.12699999809E+01 0.  1.
       -4    1    3    3    0  502  0.16767056087E+03  0.15493159373E+02  0.29452827703E+04  0.29500924841E+04  0.12699999809E+01 0. -1.
</event>
<event>
 5   0  0.1602873E-06  0.2883549E+04  0.7818609E-02  0.8277789E-01
       -1   -1    0    0    0  501  0.00000000000E+00  0.00000000000E+00  0.93543648136E+03  0.93543648138E+03  0.50400001928E-02 0. -1.
        1   -1    0    0  501    0  0.00000000000E+00  0.00000000000E+00 -0.22221864071E+04  0.22221864071E+04  0.50400001928E-02 0.  1.
    10030    2    1    2    0    0  0.00000000000E+00  0.00000000000E+00 -0.12867499257E+04  0.31576228885E+04  0.28835493640E+04 0.  0.
        1    1    3    3  502    0  0.10854697139E+04 -0.67825239718E+03 -0.13701130705E+04  0.18749615037E+04  0.50400001928E-02 0.  1.
       -1    1    3    3    0  502 -0.10854697139E+04  0.67825239718E+03  0.83363144781E+02  0.12826613848E+04  0.50400001928E-02 0. -1.
</event>
<event>
 5   0  0.1602873E-06  0.2906047E+04  0.7818609E-02  0.8271081E-01
       -1   -1    0    0    0  501  0.00000000000E+00  0.00000000000E+00  0.14045678812E+04  0.14045678813E+04  0.50400001928E-02 0. -1.
        1   -1    0    0  501    0  0.00000000000E+00  0.00000000000E+00 -0.15031505963E+04  0.15031505963E+04  0.50400001928E-02 0.  1.
    10030    2    1    2    0    0  0.00000000000E+00  0.00000000000E+00 -0.98582715079E+02  0.29077184776E+04  0.29060468326E+04 0.  0.
        1    1    3    3  502    0  0.60964165473E+02 -0.50554910902E+03  0.13123663671E+04  0.14076938632E+04  0.50400001928E-02 0. -1.
       -1    1    3    3    0  502 -0.60964165473E+02  0.50554910902E+03 -0.14109490822E+04  0.15000246143E+04  0.50400001928E-02 0.  1.
</event>
<event>
 5   0  0.4162450E-06  0.2905938E+04  0.7818609E-02  0.8271113E-01
       -2   -1    0    0    0  501  0.00000000000E+00  0.00000000000E+00  0.11402326034E+04  0.11402326034E+04  0.25500000920E-02 0. -1.
        2   -1    0    0  501    0  0.00000000000E+00  0.00000000000E+00 -0.18514806041E+04  0.18514806041E+04  0.25500000920E-02 0.  1.
    10030    2    1    2    0    0  0.00000000000E+00  0.00000000000E+00 -0.71124800067E+03  0.29917132076E+04  0.29059377484E+04 0.  0.
        2    1    3    3  502    0  0.72809403878E+03  0.56931617022E+03  0.79857313765E+03  0.12214585082E+04  0.25500000920E-02 0. -1.
       -2    1    3    3    0  502 -0.72809403878E+03 -0.56931617022E+03 -0.15098211383E+04  0.17702546994E+04  0.25500000920E-02 0.  1.
</event>
<event>
 5   0  0.4224163E-06  0.3046575E+04  0.7818609E-02  0.8230555E-01
       -2   -1    0    0    0  501  0.00000000000E+00  0.00000000000E+00  0.99114258828E+03  0.99114258828E+03  0.25500000920E-02 0.  1.
        2   -1    0    0  501    0  0.00000000000E+00  0.00000000000E+00 -0.23411409757E+04  0.23411409757E+04  0.25500000920E-02 0. -1.
    10030    2    1    2    0    0  0.00000000000E+00  0.00000000000E+00 -0.13499983874E+04  0.33322835640E+04  0.30465748152E+04 0.  0.
        4    1    3    3  502    0  0.85789304114E+03 -0.33375159300E+03  0.65250603688E+03  0.11283334334E+04  0.12699999809E+01 0.  1.
       -4    1    3    3    0  502 -0.85789304114E+03  0.33375159300E+03 -0.20025044243E+04  0.22039501306E+04  0.12699999809E+01 0. -1.
</event>
<event>
 5   0  0.4187518E-06  0.2991002E+04  0.7818609E-02  0.8246305E-01
       -2   -1    0    0    0  501  0.00000000000E+00  0.00000000000E+00  0.11522400881E+04  0.11522400881E+04  0.25500000920E-02 0.  1.
        2   -1    0    0  501    0  0.00000000000E+00  0.00000000000E+00 -0.19410225033E+04  0.19410225033E+04  0.25500000920E-02 0. -1.
    10030    2    1    2    0    0  0.00000000000E+00  0.00000000000E+00 -0.78878241519E+03  0.30932625914E+04  0.29910024675E+04 0.  0.
        3    1    3    3  502    0  0.15141833432E+03  0.61426783788E+03 -0.17958116818E+04  0.19039937225E+04  0.10100000352E+00 0. -1.
       -3    1    3    3    0  502 -0.15141833432E+03 -0.61426783788E+03  0.10070292666E+04  0.11892688689E+04  0.10100000352E+00 0.  1.
</event>
<event>
 5   0  0.1511126E-06  0.2928052E+04  0.7818609E-02  0.8264580E-01
        1   -1    0    0  501    0  0.00000000000E+00  0.00000000000E+00  0.19418317786E+04  0.19418317786E+04  0.50400001928E-02 0. -1.
       -1   -1    0    0    0  501  0.00000000000E+00  0.00000000000E+00 -0.11037885612E+04  0.11037885613E+04  0.50400001928E-02 0.  1.
    10030    2    1    2    0    0  0.00000000000E+00  0.00000000000E+00  0.83804321740E+03  0.30456203399E+04  0.29280517107E+04 0.  0.
        5    1    3    3  502    0 -0.35052563789E+03  0.49997481094E+02  0.18966173397E+04  0.19293904203E+04  0.46999998093E+01 0. -1.
       -5    1    3    3    0  502  0.35052563789E+03 -0.49997481094E+02 -0.10585741223E+04  0.11162299196E+04  0.46999998093E+01 0.  1.
</event>
<event>
 5   0  0.4148677E-06  0.2893439E+04  0.7818609E-02  0.8274832E-01
        2   -1    0    0  501    0  0.00000000000E+00  0.00000000000E+00  0.11368168279E+04  0.11368168279E+04  0.25500000920E-02 0. -1.
       -2   -1    0    0    0  501  0.00000000000E+00  0.00000000000E+00 -0.18411033679E+04  0.18411033679E+04  0.25500000920E-02 0.  1.
    10030    2    1    2    0    0  0.00000000000E+00  0.00000000000E+00 -0.70428654005E+03  0.29779201958E+04  0.28934389853E+04 0.  0.
        5    1    3    3  502    0 -0.85951395380E+02  0.95690820085E+03 -0.14653497928E+04  0.17522365858E+04  0.46999998093E+01 0.  1.
       -5    1    3    3    0  502  0.85951395380E+02 -0.95690820085E+03  0.76106325273E+03  0.12256836100E+04  0.46999998093E+01 0. -1.
</event>
<event>
 5   0  0.4162450E-06  0.2896170E+04  0.7818609E-02  0.8274018E-01
       -2   -1    0    0    0  501  0.00000000000E+00  0.00000000000E+00  0.83937087118E+03  0.83937087118E+03  0.25500000920E-02 0. -1.
        2   -1    0    0  501    0  0.00000000000E+00  0.00000000000E+00 -0.24982394808E+04  0.24982394808E+04  0.25500000920E-02 0.  1.
    10030    2    1    2    0    0  0.00000000000E+00  0.00000000000E+00 -0.16588686097E+04  0.33376103520E+04  0.28961695043E+04 0.  0.
        2    1    3    3  502    0 -0.12908722169E+04 -0.12633108806E+03 -0.87361287705E+02  0.12999779301E+04  0.25500000920E-02 0. -1.
       -2    1    3    3    0  502  0.12908722169E+04  0.12633108806E+03 -0.15715073219E+04  0.20376324220E+04  0.25500000920E-02 0.  1.
</event>
<event>
 5   0  0.1543678E-06  0.2907440E+04  0.7818609E-02  0.8270667E-01
        1   -1    0    0  501    0  0.00000000000E+00  0.00000000000E+00  0.20923611192E+04  0.20923611192E+04  0.50400001928E-02 0.  1.
       -1   -1    0    0    0  501  0.00000000000E+00  0.00000000000E+00 -0.10100081637E+04  0.10100081637E+04  0.50400001928E-02 0. -1.
    10030    2    1    2    0    0  0.00000000000E+00  0.00000000000E+00  0.10823529555E+04  0.31023692828E+04  0.29074399816E+04 0.  0.
        3    1    3    3  502    0  0.12674958863E+04 -0.37132251243E+03 -0.10689466109E+03  0.13250859251E+04  0.10100000352E+00 0. -1.
       -3    1    3    3    0  502 -0.12674958863E+04  0.37132251243E+03  0.11892476166E+04  0.17772833578E+04  0.10100000352E+00 0.  1.
</event>
<event>
 5   0  0.4148677E-06  0.2886258E+04  0.7818609E-02  0.8276978E-01
       -2   -1    0    0    0  501  0.00000000000E+00  0.00000000000E+00  0.26558376739E+04  0.26558376739E+04  0.25500000920E-02 0.  1.
        2   -1    0    0  501    0  0.00000000000E+00  0.00000000000E+00 -0.78416759341E+03  0.78416759341E+03  0.25500000920E-02 0. -1.
    10030    2    1    2    0    0  0.00000000000E+00  0.00000000000E+00  0.18716700805E+04  0.34400052673E+04  0.28862583649E+04 0.  0.
        5    1    3    3  502    0  0.87397144487E+03  0.69708027351E+03 -0.15186217291E+03  0.11281982112E+04  0.46999998093E+01 0. -1.
       -5    1    3    3    0  502 -0.87397144487E+03 -0.69708027351E+03  0.20235322534E+04  0.23118070561E+04  0.46999998093E+01 0.  1.
</event>
<event>
 5   0  0.4148677E-06  0.2878348E+04  0.7818609E-02  0.8279349E-01
        2   -1    0    0  501    0  0.00000000000E+00  0.00000000000E+00  0.13693250127E+04  0.13693250127E+04  0.25500000920E-02 0.  1.
       -2   -1    0    0    0  501  0.00000000000E+00  0.00000000000E+00 -0.15125857952E+04  0.15125857952E+04  0.25500000920E-02 0. -1.
    10030    2    1    2    0    0  0.00000000000E+00  0.00000000000E+00 -0.14326078252E+03  0.28819108079E+04  0.28783478339E+04 0.  0.
        5    1    3    3  502    0  0.24967578886E+03 -0.13635178447E+04 -0.45899501994E+03  0.14602114336E+04  0.46999998093E+01 0.  1.
       -5    1    3    3    0  502 -0.24967578886E+03  0.13635178447E+04  0.31573423743E+03  0.14216993744E+04  0.46999998093E+01 0. -1.
</event>
<event>
 5   0  0.4115143E-06  0.2931072E+04  0.7818609E-02  0.8263692E-01
        2   -1    0    0  501    0  0.00000000000E+00  0.00000000000E+00  0.14961344030E+04  0.14961344030E+04  0.25500000920E-02 0. -1.
       -2   -1    0    0    0  501  0.00000000000E+00  0.00000000000E+00 -0.14355635889E+04  0.14355635889E+04  0.25500000920E-02 0.  1.
    10030    2    1    2    0    0  0.00000000000E+00  0.00000000000E+00  0.60570814059E+02  0.29316979919E+04  0.29310722087E+04 0.  0.
        1    1    3    3  502    0 -0.11616626179E+04  0.60748732413E+03 -0.62506069602E+03  0.14523091133E+04  0.50400001928E-02 0.  1.
       -1    1    3    3    0  502  0.11616626179E+04 -0.60748732413E+03  0.68563151007E+03  0.14793888787E+04  0.50400001928E-02 0. -1.
</event>
<event>
 5   0  0.4224163E-06  0.2898770E+04  0.7818609E-02  0.8273244E-01
        2   -1    0    0  501    0  0.00000000000E+00  0.00000000000E+00  0.26387799948E+04  0.26387799948E+04  0.25500000920E-02 0.  1.
       -2   -1    0    0    0  501  0.00000000000E+00  0.00000000000E+00 -0.79609387354E+03  0.79609387354E+03  0.25500000920E-02 0. -1.
    10030    2    1    2    0    0  0.00000000000E+00  0.00000000000E+00  0.18426861212E+04  0.34348738683E+04  0.28987697994E+04 0.  0.
        4    1    3    3  502    0  0.86657570758E+03 -0.67620566492E+03 -0.19810251131E+03  0.11168947023E+04  0.12699999809E+01 0. -1.
       -4    1    3    3    0  502 -0.86657570758E+03  0.67620566492E+03  0.20407886326E+04  0.23179791660E+04  0.12699999809E+01 0.  1.
</event>
<event>
 5   0  0.1543678E-06  0.2591260E+04  0.7818609E-02  0.8371176E-01
        1   -1    0    0  501    0  0.00000000000E+00  0.00000000000E+00  0.14519567144E+04  0.14519567145E+04  0.50400001928E-02 0.  1.
       -1   -1    0    0    0  501  0.00000000000E+00  0.00000000000E+00 -0.11561343248E+04  0.11561343248E+04  0.50400001928E-02 0. -1.
    10030    2    1    2    0    0  0.00000000000E+00  0.00000000000E+00  0.29582238966E+03  0.26080910393E+04  0.25912599219E+04 0.  0.
        3    1    3    3  502    0  0.59071511659E+03 -0.55112757531E+03  0.11673926225E+04  0.14196800690E+04  0.10100000352E+00 0.  1.
       -3    1    3    3    0  502 -0.59071511659E+03  0.55112757531E+03 -0.87157023280E+03  0.11884109702E+04  0.10100000352E+00 0. -1.
</event>
<event>
 5   0  0.1580212E-06  0.2889973E+04  0.7818609E-02  0.8275867E-01
       -1   -1    0    0    0  501  0.00000000000E+00  0.00000000000E+00  0.13609062536E+04  0.13609062536E+04  0.50400001928E-02 0. -1.
        1   -1    0    0  501    0  0.00000000000E+00  0.00000000000E+00 -0.15342610816E+04  0.15342610816E+04  0.50400001928E-02 0.  1.
    10030    2    1    2    0    0  0.00000000000E+00  0.00000000000E+00 -0.17335482801E+03  0.28951673353E+04  0.28899726647E+04 0.  0.
        4    1    3    3  502    0  0.58337691742E+03 -0.31917930078E+02  0.12373019062E+04  0.13683073493E+04  0.12699999809E+01 0. -1.
       -4    1    3    3    0  502 -0.58337691742E+03  0.31917930078E+02 -0.14106567342E+04  0.15268599860E+04  0.12699999809E+01 0.  1.
</event>
<event>
 5   0  0.4115143E-06  0.2897283E+04  0.7818609E-02  0.8273686E-01
       -2   -1    0    0    0  501  0.00000000000E+00  0.00000000000E+00  0.11564087470E+04  0.11564087470E+04  0.25500000920E-02 0.  1.
        2   -1    0    0  501    0  0.00000000000E+00  0.00000000000E+00 -0.18147231605E+04  0.18147231605E+04  0.25500000920E-02 0. -1.
    10030    2    1    2    0    0  0.00000000000E+00  0.00000000000E+00 -0.65831441349E+03  0.29711319076E+04  0.28972826830E+04 0.  0.
        1    1    3    3  502    0  0.33523464393E+03  0.73808379634E+03 -0.15603472541E+04  0.17583610296E+04  0.50400001928E-02 0. -1.
       -1    1    3    3    0  502 -0.33523464393E+03 -0.73808379634E+03  0.90203284062E+03  0.12127708780E+04  0.50400001928E-02 0.  1.
</event>
<event>
 5   0  0.1602873E-06  0.2879445E+04  0.7818609E-02  0.8279019E-01
       -1   -1    0    0    0  501  0.00000000000E+00  0.00000000000E+00  0.98577546782E+03  0.98577546783E+03  0.50400001928E-02 0.  1.
        1   -1    0    0  501    0  0.00000000000E+00  0.00000000000E+00 -0.21027113002E+04  0.21027113002E+04  0.50400001928E-02 0. -1.
    10030    2    1    2    0    0  0.00000000000E+00  0.00000000000E+00 -0.11169358324E+04  0.30884867680E+04  0.28794452352E+04 0.  0.
        1    1    3    3  502    0 -0.50712371343E+02  0.88006229383E+03 -0.17794027224E+04  0.19857883659E+04  0.50400001928E-02 0. -1.
       -1    1    3    3    0  502  0.50712371343E+02 -0.88006229383E+03  0.66246689003E+03  0.11026984021E+04  0.50400001928E-02 0.  1.
</event>
<event>
 5   0  0.4224163E-06  0.2919384E+04  0.7818609E-02  0.8267133E-01
       -2   -1    0    0    0  501  0.00000000000E+00  0.00000000000E+00  0.10193845398E+04  0.10193845398E+04  0.25500000920E-02 0.  1.
        2   -1    0    0  501    0  0.00000000000E+00  0.00000000000E+00 -0.20901832526E+04  0.20901832526E+04  0.25500000920E-02 0. -1.
    10030    2    1    2    0    0  0.00000000000E+00  0.00000000000E+00 -0.10707987128E+04  0.31095677924E+04  0.29193838343E+04 0.  0.
        4    1    3    3  502    0  0.46940912023E+03  0.34108791275E+03  0.89126438130E+03  0.10635035010E+04  0.12699999809E+01 0.  1.
       -4    1    3    3    0  502 -0.46940912023E+03 -0.34108791275E+03 -0.19620630941E+04  0.20460642914E+04  0.12699999809E+01 0. -1.
</event>
<event>
 5   0  0.4148677E-06  0.2908817E+04  0.7818609E-02  0.8270259E-01
        2   -1    0    0  501    0  0.00000000000E+00  0.00000000000E+00  0.13314583640E+04  0.13314583640E+04  0.25500000920E-02 0. -1.
       -2   -1    0    0    0  501  0.00000000000E+00  0.00000000000E+00 -0.15887123390E+04  0.15887123390E+04  0.25500000920E-02 0.  1.
    10030    2    1    2    0    0  0.00000000000E+00  0.00000000000E+00 -0.25725397500E+03  0.29201707030E+04  0.29088171697E+04 0.  0.
        5    1    3    3  502    0 -0.42844907216E+03 -0.11955356103E+04  0.58294720857E+03  0.13973988482E+04  0.46999998093E+01 0. -1.
       -5    1    3    3    0  502  0.42844907216E+03  0.11955356103E+04 -0.84020118357E+03  0.15227718548E+04  0.46999998093E+01 0.  1.
</event>
<event>
 5   0  0.4148677E-06  0.2894981E+04  0.7818609E-02  0.8274372E-01
        2   -1    0    0  501    0  0.00000000000E+00  0.00000000000E+00  0.15759075926E+04  0.15759075926E+04  0.25500000920E-02 0. -1.
       -2   -1    0    0    0  501  0.00000000000E+00  0.00000000000E+00 -0.13295378072E+04  0.13295378072E+04  0.25500000920E-02 0.  1.
    10030    2    1    2    0    0  0.00000000000E+00  0.00000000000E+00  0.24636978546E+03  0.29054453998E+04  0.28949809844E+04 0.  0.
        5    1    3    3  502    0 -0.61278066762E+03  0.12954527547E+04  0.32765804899E+03  0.14700611801E+04  0.46999998093E+01 0.  1.
       -5    1    3    3    0  502  0.61278066762E+03 -0.12954527547E+04 -0.81288263525E+02  0.14353842197E+04  0.46999998093E+01 0. -1.
</event>
<event>
 5   0  0.1580212E-06  0.2906873E+04  0.7818609E-02  0.8270836E-01
        1   -1    0    0  501    0  0.00000000000E+00  0.00000000000E+00  0.16514965797E+04  0.16514965797E+04  0.50400001928E-02 0.  1.
       -1   -1    0    0    0  501  0.00000000000E+00  0.00000000000E+00 -0.12791289563E+04  0.12791289564E+04  0.50400001928E-02 0. -1.
    10030    2    1    2    0    0  0.00000000000E+00  0.00000000000E+00  0.37236762333E+03  0.29306255360E+04  0.29068726125E+04 0.  0.
        4    1    3    3  502    0 -0.37066490904E+03  0.37893450070E+03  0.15505683877E+04  0.16386725629E+04  0.12699999809E+01 0.  1.
       -4    1    3    3    0  502  0.37066490904E+03 -0.37893450070E+03 -0.11782007644E+04  0.12919529731E+04  0.12699999809E+01 0. -1.
</event>
<event>
 5   0  0.1580212E-06  0.2885066E+04  0.7818609E-02  0.8277335E-01
       -1   -1    0    0    0  501  0.00000000000E+00  0.00000000000E+00  0.15820716371E+04  0.15820716371E+04  0.50400001928E-02 0.  1.
        1   -1    0    0  501    0  0.00000000000E+00  0.00000000000E+00 -0.13153014068E+04  0.13153014068E+04  0.50400001928E-02 0. -1.
    10030    2    1    2    0    0  0.00000000000E+00  0.00000000000E+00  0.26677023033E+03  0.28973730439E+04  0.28850657184E+04 0.  0.
        4    1    3    3  502    0  0.13940446684E+04 -0.34575658023E+03  0.26808890573E+03  0.14610891227E+04  0.12699999809E+01 0. -1.
       -4    1    3    3    0  502 -0.13940446684E+04  0.34575658023E+03 -0.13186753997E+01  0.14362839211E+04  0.12699999809E+01 0.  1.
</event>
<event>
 5   0  0.1602873E-06  0.2901083E+04  0.7818609E-02  0.8272555E-01
       -1   -1    0    0    0  501  0.00000000000E+00  0.00000000000E+00  0.11804891438E+04  0.11804891438E+04  0.50400001928E-02 0.  1.
        1   -1    0    0  501    0  0.00000000000E+00  0.00000000000E+00 -0.17823715013E+04  0.17823715013E+04  0.50400001928E-02 0. -1.
    10030    2    1    2    0    0  0.00000000000E+00  0.00000000000E+00 -0.60188235744E+03  0.29628606451E+04  0.29010826996E+04 0.  0.
        1    1    3    3  502    0  0.58473875622E+02 -0.74203309678E+03  0.97057612389E+03  0.12231313597E+04  0.50400001928E-02 0.  1.
       -1    1    3    3    0  502 -0.58473875622E+02  0.74203309678E+03 -0.15724584813E+04  0.17397292854E+04  0.50400001928E-02 0. -1.
</event>
<event>
 5   0  0.4148677E-06  0.2841677E+04  0.7818609E-02  0.8290445E-01
       -2   -1    0    0    0  501  0.00000000000E+00  0.00000000000E+00  0.13532298836E+04  0.13532298836E+04  0.25500000920E-02 0. -1.
        2   -1    0    0  501    0  0.00000000000E+00  0.00000000000E+00 -0.14918244281E+04  0.14918244281E+04  0.25500000920E-02 0.  1.
    10030    2    1    2    0    0  0.00000000000E+00  0.00000000000E+00 -0.13859454458E+03  0.28450543117E+04  0.28416765454E+04 0.  0.
        5    1    3    3  502    0  0.82791948690E+03  0.11535009082E+04 -0.12174546683E+03  0.14250821277E+04  0.46999998093E+01 0.  1.
       -5    1    3    3    0  502 -0.82791948690E+03 -0.11535009082E+04 -0.16849077748E+02  0.14199721840E+04  0.46999998093E+01 0. -1.
</event>
<event>
 5   0  0.4115143E-06  0.2769537E+04  0.7818609E-02  0.8312789E-01
       -2   -1    0    0    0  501  0.00000000000E+00  0.00000000000E+00  0.14944616079E+04  0.14944616079E+04  0.25500000920E-02 0.  1.
        2   -1    0    0  501    0  0.00000000000E+00  0.00000000000E+00 -0.12831272680E+04  0.12831272680E+04  0.25500000920E-02 0. -1.
    10030    2    1    2    0    0  0.00000000000E+00  0.00000000000E+00  0.21133433990E+03  0.27775888759E+04  0.27695374632E+04 0.  0.
        1    1    3    3  502    0  0.66123497359E+03  0.11347986217E+04 -0.33445350088E+03  0.13553076206E+04  0.50400001928E-02 0. -1.
       -1    1    3    3    0  502 -0.66123497359E+03 -0.11347986217E+04  0.54578784078E+03  0.14222812553E+04  0.50400001928E-02 0.  1.
</event>
<event>
 5   0  0.4115143E-06  0.2902817E+04  0.7818609E-02  0.8272040E-01
        2   -1    0    0  501    0  0.00000000000E+00  0.00000000000E+00  0.17283056434E+04  0.17283056435E+04  0.25500000920E-02 0. -1.
       -2   -1    0    0    0  501  0.00000000000E+00  0.00000000000E+00 -0.12188740360E+04  0.12188740360E+04  0.25500000920E-02 0.  1.
    10030    2    1    2    0    0  0.00000000000E+00  0.00000000000E+00  0.50943160749E+03  0.29471796794E+04  0.29028171661E+04 0.  0.
        1    1    3    3  502    0 -0.10584190653E+04 -0.60571917721E+03 -0.54435752861E+03  0.13354668691E+04  0.50400001928E-02 0.  1.
       -1    1    3    3    0  502  0.10584190653E+04  0.60571917721E+03  0.10537891361E+04  0.16117128103E+04  0.50400001928E-02 0. -1.
</event>
<event>
 5   0  0.4115143E-06  0.2886175E+04  0.7818609E-02  0.8277003E-01
       -2   -1    0    0    0  501  0.00000000000E+00  0.00000000000E+00  0.19951863672E+04  0.19951863672E+04  0.25500000920E-02 0.  1.
        2   -1    0    0  501    0  0.00000000000E+00  0.00000000000E+00 -0.10437632303E+04  0.10437632303E+04  0.25500000920E-02 0. -1.
    10030    2    1    2    0    0  0.00000000000E+00  0.00000000000E+00  0.95142313688E+03  0.30389495974E+04  0.28861754400E+04 0.  0.
        1    1    3    3  502    0 -0.55714227593E+03  0.76393728997E+03 -0.67217600096E+03  0.11600983902E+04  0.50400001928E-02 0. -1.
       -1    1    3    3    0  502  0.55714227593E+03 -0.76393728997E+03  0.16235991378E+04  0.18788512073E+04  0.50400001928E-02 0.  1.
</event>
<event>
 5   0  0.1550278E-06  0.2860949E+04  0.7818609E-02  0.8284592E-01
       -1   -1    0    0    0  501  0.00000000000E+00  0.00000000000E+00  0.10521520690E+04  0.10521520690E+04  0.50400001928E-02 0.  1.
        1   -1    0    0  501    0  0.00000000000E+00  0.00000000000E+00 -0.19448310408E+04  0.19448310408E+04  0.50400001928E-02 0. -1.
    10030    2    1    2    0    0  0.00000000000E+00  0.00000000000E+00 -0.89267897184E+03  0.29969831098E+04  0.28609494951E+04 0.  0.
        2    1    3    3  502    0 -0.90993350645E+03 -0.55450970374E+03 -0.14460750453E+04  0.17962719822E+04  0.25500000920E-02 0. -1.
       -2    1    3    3    0  502  0.90993350645E+03  0.55450970374E+03  0.55339607341E+03  0.12007111275E+04  0.25500000920E-02 0.  1.
</event>
<event>
 5   0  0.1511126E-06  0.2898671E+04  0.7818609E-02  0.8273273E-01
       -1   -1    0    0    0  501  0.00000000000E+00  0.00000000000E+00  0.10463368757E+04  0.10463368757E+04  0.50400001928E-02 0. -1.
        1   -1    0    0  501    0  0.00000000000E+00  0.00000000000E+00 -0.20075492046E+04  0.20075492046E+04  0.50400001928E-02 0.  1.
    10030    2    1    2    0    0  0.00000000000E+00  0.00000000000E+00 -0.96121232896E+03  0.30538860803E+04  0.28986705660E+04 0.  0.
        5    1    3    3  502    0  0.12079467417E+04 -0.22424148057E+03 -0.12906264147E+04  0.17818973609E+04  0.46999998093E+01 0.  1.
       -5    1    3    3    0  502 -0.12079467417E+04  0.22424148057E+03  0.32941408571E+03  0.12719887194E+04  0.46999998093E+01 0. -1.
</event>
<event>
 5   0  0.4148677E-06  0.2920653E+04  0.7818609E-02  0.8266759E-01
        2   -1    0    0  501    0  0.00000000000E+00  0.00000000000E+00  0.23024666404E+04  0.23024666404E+04  0.25500000920E-02 0.  1.
       -2   -1    0    0    0  501  0.00000000000E+00  0.00000000000E+00 -0.92620386748E+03  0.92620386749E+03  0.25500000920E-02 0. -1.
    10030    2    1    2    0    0  0.00000000000E+00  0.00000000000E+00  0.13762627729E+04  0.32286705079E+04  0.29206530140E+04 0.  0.
        5    1    3    3  502    0 -0.30004309766E+03 -0.31288757224E+03 -0.85342592900E+03  0.95722640979E+03  0.46999998093E+01 0. -1.
       -5    1    3    3    0  502  0.30004309766E+03  0.31288757224E+03  0.22296887019E+04  0.22714440981E+04  0.46999998093E+01 0.  1.
</event>
<event>
 5   0  0.1580212E-06  0.2896193E+04  0.7818609E-02  0.8274011E-01
        1   -1    0    0  501    0  0.00000000000E+00  0.00000000000E+00  0.14555250926E+04  0.14555250926E+04  0.50400001928E-02 0.  1.
       -1   -1    0    0    0  501  0.00000000000E+00  0.00000000000E+00 -0.14407062679E+04  0.14407062679E+04  0.50400001928E-02 0. -1.
    10030    2    1    2    0    0  0.00000000000E+00  0.00000000000E+00  0.14818824705E+02  0.28962313605E+04  0.28961934493E+04 0.  0.
        4    1    3    3  502    0 -0.11289236647E+04  0.87581940051E+03 -0.22808092661E+03  0.14469107730E+04  0.12699999809E+01 0. -1.
       -4    1    3    3    0  502  0.11289236647E+04 -0.87581940051E+03  0.24289975131E+03  0.14493205875E+04  0.12699999809E+01 0.  1.
</event>
<event>
 5   0  0.4162450E-06  0.2902194E+04  0.7818609E-02  0.8272225E-01
       -2   -1    0    0    0  501  0.00000000000E+00  0.00000000000E+00  0.15045996587E+04  0.15045996587E+04  0.25500000920E-02 0.  1.
        2   -1    0    0  501    0  0.00000000000E+00  0.00000000000E+00 -0.13994964760E+04  0.13994964760E+04  0.25500000920E-02 0. -1.
    10030    2    1    2    0    0  0.00000000000E+00  0.00000000000E+00  0.10510318267E+03  0.29040961347E+04  0.29021935981E+04 0.  0.
        2    1    3    3  502    0  0.12094000224E+04 -0.35361837230E+03  0.77273692176E+03  0.14781125524E+04  0.25500000920E-02 0.  1.
       -2    1    3    3    0  502 -0.12094000224E+04  0.35361837230E+03 -0.66763373909E+03  0.14259835823E+04  0.25500000920E-02 0. -1.
</event>
<event>
 5   0  0.1602873E-06  0.2899937E+04  0.7818609E-02  0.8272896E-01
        1   -1    0    0  501    0  0.00000000000E+00  0.00000000000E+00  0.71567970785E+03  0.71567970786E+03  0.50400001928E-02 0. -1.
       -1   -1    0    0    0  501  0.00000000000E+00  0.00000000000E+00 -0.29376388646E+04  0.29376388646E+04  0.50400001928E-02 0.  1.
    10030    2    1    2    0    0  0.00000000000E+00  0.00000000000E+00 -0.22219591568E+04  0.36533185725E+04  0.28999369127E+04 0.  0.
        1    1    3    3  502    0 -0.17136477888E+03 -0.10843550811E+04 -0.23042741576E+04  0.25524245773E+04  0.50400001928E-02 0.  1.
       -1    1    3    3    0  502  0.17136477888E+03  0.10843550811E+04  0.82315000838E+02  0.11008939952E+04  0.50400001928E-02 0. -1.
</event>
<event>
 5   0  0.4187518E-06  0.2877138E+04  0.7818609E-02  0.8279712E-01
       -2   -1    0    0    0  501  0.00000000000E+00  0.00000000000E+00  0.10868150832E+04  0.10868150832E+04  0.25500000920E-02 0.  1.
        2   -1    0    0  501    0  0.00000000000E+00  0.00000000000E+00 -0.19041698921E+04  0.19041698921E+04  0.25500000920E-02 0. -1.
    10030    2    1    2    0    0  0.00000000000E+00  0.00000000000E+00 -0.81735480890E+03  0.29909849754E+04  0.28771378555E+04 0.  0.
        3    1    3    3  502    0 -0.22756023181E+03 -0.24066911841E+03  0.10466365590E+04  0.10977947807E+04  0.10100000352E+00 0.  1.
       -3    1    3    3    0  502  0.22756023181E+03  0.24066911841E+03 -0.18639913679E+04  0.18931901947E+04  0.10100000352E+00 0. -1.
</event>
<event>
 5   0  0.4148677E-06  0.2888275E+04  0.7818609E-02  0.8276375E-01
        2   -1    0    0  501    0  0.00000000000E+00  0.00000000000E+00  0.11758940921E+04  0.11758940921E+04  0.25500000920E-02 0.  1.
       -2   -1    0    0    0  501  0.00000000000E+00  0.00000000000E+00 -0.17735717884E+04  0.17735717884E+04  0.25500000920E-02 0. -1.
    10030    2    1    2    0    0  0.00000000000E+00  0.00000000000E+00 -0.59767769626E+03  0.29494658805E+04  0.28882746324E+04 0.  0.
        5    1    3    3  502    0  0.13976312020E+04 -0.34857230010E+03 -0.19352850250E+03  0.14533929257E+04  0.46999998093E+01 0. -1.
       -5    1    3    3    0  502 -0.13976312020E+04  0.34857230010E+03 -0.40414919376E+03  0.14960729548E+04  0.46999998093E+01 0.  1.
</event>
<event>
 5   0  0.1602873E-06  0.2821415E+04  0.7818609E-02  0.8296650E-01
       -1   -1    0    0    0  501  0.00000000000E+00  0.00000000000E+00  0.78008915578E+03  0.78008915579E+03  0.50400001928E-02 0. -1.
        1   -1    0    0  501    0  0.00000000000E+00  0.00000000000E+00 -0.25511135514E+04  0.25511135514E+04  0.50400001928E-02 0.  1.
    10030    2    1    2    0    0  0.00000000000E+00  0.00000000000E+00 -0.17710243956E+04  0.33312027072E+04  0.28214152595E+04 0.  0.
        1    1    3    3  502    0 -0.36402358472E+03 -0.58326070071E+02 -0.24932310461E+04  0.25203404829E+04  0.50400001928E-02 0.  1.
       -1    1    3    3    0  502  0.36402358472E+03  0.58326070071E+02  0.72220665049E+03  0.81086222425E+03  0.50400001928E-02 0. -1.
</event>
<event>
 5   0  0.1580212E-06  0.2904794E+04  0.7818609E-02  0.8271453E-01
        1   -1    0    0  501    0  0.00000000000E+00  0.00000000000E+00  0.25570358681E+04  0.25570358681E+04  0.50400001928E-02 0. -1.
       -1   -1    0    0    0  501  0.00000000000E+00  0.00000000000E+00 -0.82496177690E+03  0.82496177692E+03  0.50400001928E-02 0.  1.
    10030    2    1    2    0    0  0.00000000000E+00  0.00000000000E+00  0.17320740912E+04  0.33819976450E+04  0.29047938677E+04 0.  0.
        4    1    3    3  502    0  0.87838673873E+03  0.92051041820E+03  0.16814934531E+04  0.21086309631E+04  0.12699999809E+01 0. -1.
       -4    1    3    3    0  502 -0.87838673873E+03 -0.92051041820E+03  0.50580638094E+02  0.12733666819E+04  0.12699999809E+01 0.  1.
</event>
<event>
 5   0  0.1360125E-06  0.2910323E+04  0.7818609E-02  0.8269813E-01
       -3   -1    0    0    0  501  0.00000000000E+00  0.00000000000E+00  0.12148862356E+04  0.12148862398E+04  0.10100000352E+00 0. -1.
        3   -1    0    0  501    0  0.00000000000E+00  0.00000000000E+00 -0.17429570795E+04  0.17429570824E+04  0.10100000352E+00 0.  1.
    10030    2    1    2    0    0  0.00000000000E+00  0.00000000000E+00 -0.52807084391E+03  0.29578433222E+04  0.29103227145E+04 0.  0.
        5    1    3    3  502    0 -0.12115438228E+04 -0.73506967312E+03 -0.60004933695E+03  0.15389110291E+04  0.46999998093E+01 0. -1.
       -5    1    3    3    0  502  0.12115438228E+04  0.73506967312E+03  0.71978493044E+02  0.14189322931E+04  0.46999998093E+01 0.  1.
</event>
<event>
 5   0  0.1511126E-06  0.2905334E+04  0.7818609E-02  0.8271292E-01
        1   -1    0    0  501    0  0.00000000000E+00  0.00000000000E+00  0.14192339411E+04  0.14192339411E+04  0.50400001928E-02 0. -1.
       -1   -1    0    0    0  501  0.00000000000E+00  0.00000000000E+00 -0.14868876378E+04  0.14868876378E+04  0.50400001928E-02 0.  1.
    10030    2    1    2    0    0  0.00000000000E+00  0.00000000000E+00 -0.67653696662E+02  0.29061215790E+04  0.29053339927E+04 0.  0.
        5    1    3    3  502    0  0.67381117454E+03 -0.52476821502E+02 -0.13200385567E+04  0.14830034379E+04  0.46999998093E+01 0.  1.
       -5    1    3    3    0  502 -0.67381117454E+03  0.52476821502E+02  0.12523848600E+04  0.14231181410E+04  0.46999998093E+01 0. -1.
</event>
<event>
 5   0  0.4148677E-06  0.2901119E+04  0.7818609E-02  0.8272545E-01
       -2   -1    0    0    0  501  0.00000000000E+00  0.00000000000E+00  0.92075907453E+03  0.92075907453E+03  0.25500000920E-02 0.  1.
        2   -1    0    0  501    0  0.00000000000E+00  0.00000000000E+00 -0.22852042075E+04  0.22852042075E+04  0.25500000920E-02 0. -1.
    10030    2    1    2    0    0  0.00000000000E+00  0.00000000000E+00 -0.13644451330E+04  0.32059632821E+04  0.29011187575E+04 0.  0.
        5    1    3    3  502    0 -0.28597842115E+03  0.92515377668E+03 -0.18757108032E+04  0.21109254547E+04  0.46999998093E+01 0. -1.
       -5    1    3    3    0  502  0.28597842115E+03 -0.92515377668E+03  0.51126567022E+03  0.10950378274E+04  0.46999998093E+01 0.  1.
</event>
<event>
 5   0  0.4148677E-06  0.2850774E+04  0.7818609E-02  0.8287676E-01
        2   -1    0    0  501    0  0.00000000000E+00  0.00000000000E+00  0.16334188284E+04  0.16334188284E+04  0.25500000920E-02 0.  1.
       -2   -1    0    0    0  501  0.00000000000E+00  0.00000000000E+00 -0.12438504464E+04  0.12438504464E+04  0.25500000920E-02 0. -1.
    10030    2    1    2    0    0  0.00000000000E+00  0.00000000000E+00  0.38956838199E+03  0.28772692749E+04  0.28507744484E+04 0.  0.
        5    1    3    3  502    0 -0.81864375684E+03  0.58518916615E+03 -0.82409422580E+03  0.13006834141E+04  0.46999998093E+01 0. -1.
       -5    1    3    3    0  502  0.81864375684E+03 -0.58518916615E+03  0.12136626078E+04  0.15765858608E+04  0.46999998093E+01 0.  1.
</event>
<event>
 5   0  0.4187518E-06  0.2884401E+04  0.7818609E-02  0.8277534E-01
       -2   -1    0    0    0  501  0.00000000000E+00  0.00000000000E+00  0.10444942440E+04  0.10444942441E+04  0.25500000920E-02 0. -1.
        2   -1    0    0  501    0  0.00000000000E+00  0.00000000000E+00 -0.19913396657E+04  0.19913396657E+04  0.25500000920E-02 0.  1.
    10030    2    1    2    0    0  0.00000000000E+00  0.00000000000E+00 -0.94684542168E+03  0.30358339098E+04  0.28844013721E+04 0.  0.
        3    1    3    3  502    0  0.53742792008E+03  0.21989566301E+02 -0.18818203966E+04  0.19571817303E+04  0.10100000352E+00 0.  1.
       -3    1    3    3    0  502 -0.53742792008E+03 -0.21989566301E+02  0.93497497491E+03  0.10786521794E+04  0.10100000352E+00 0. -1.
</event>
<event>
 5   0  0.4148677E-06  0.3065209E+04  0.7818609E-02  0.8225351E-01
       -2   -1    0    0    0  501  0.00000000000E+00  0.00000000000E+00  0.15640148253E+04  0.15640148253E+04  0.25500000920E-02 0.  1.
        2   -1    0    0  501    0  0.00000000000E+00  0.00000000000E+00 -0.15018248484E+04  0.15018248485E+04  0.25500000920E-02 0. -1.
    10030    2    1    2    0    0  0.00000000000E+00  0.00000000000E+00  0.62189976880E+02  0.30658396738E+04  0.30652088529E+04 0.  0.
        5    1    3    3  502    0 -0.11304144193E+04 -0.18847834038E+03  0.10488963675E+04  0.15535657450E+04  0.46999998093E+01 0.  1.
       -5    1    3    3    0  502  0.11304144193E+04  0.18847834038E+03 -0.98670639066E+03  0.15122739288E+04  0.46999998093E+01 0. -1.
</event>
<event>
 5   0  0.1550278E-06  0.2711961E+04  0.7818609E-02  0.8331135E-01
        1   -1    0    0  501    0  0.00000000000E+00  0.00000000000E+00  0.12422559607E+04  0.12422559607E+04  0.50400001928E-02 0. -1.
       -1   -1    0    0    0  501  0.00000000000E+00  0.00000000000E+00 -0.14801156273E+04  0.14801156273E+04  0.50400001928E-02 0.  1.
    10030    2    1    2    0    0  0.00000000000E+00  0.00000000000E+00 -0.23785966658E+03  0.27223715881E+04  0.27119605164E+04 0.  0.
        2    1    3    3  502    0  0.85371664179E+03 -0.28148094771E+03  0.90016142973E+03  0.12721455215E+04  0.25500000920E-02 0. -1.
       -2    1    3    3    0  502 -0.85371664179E+03  0.28148094771E+03 -0.11380210963E+04  0.14502260665E+04  0.25500000920E-02 0.  1.
</event>
<event>
 5   0  0.4187518E-06  0.2877207E+04  0.7818609E-02  0.8279692E-01
        2   -1    0    0  501    0  0.00000000000E+00  0.00000000000E+00  0.16981809200E+04  0.16981809200E+04  0.25500000920E-02 0. -1.
       -2   -1    0    0    0  501  0.00000000000E+00  0.00000000000E+00 -0.12187037294E+04  0.12187037294E+04  0.25500000920E-02 0.  1.
    10030    2    1    2    0    0  0.00000000000E+00  0.00000000000E+00  0.47947719065E+03  0.29168846494E+04  0.28772065761E+04 0.  0.
        3    1    3    3  502    0  0.13662686758E+04  0.23665958638E+03 -0.14879792180E+03  0.13945747330E+04  0.10100000352E+00 0.  1.
       -3    1    3    3    0  502 -0.13662686758E+04 -0.23665958638E+03  0.62827511244E+03  0.15223099164E+04  0.10100000352E+00 0. -1.
</event>
<event>
 5   0  0.4224163E-06  0.2876099E+04  0.7818609E-02  0.8280025E-01
        2   -1    0    0  501    0  0.00000000000E+00  0.00000000000E+00  0.21492906901E+04  0.21492906901E+04  0.25500000920E-02 0.  1.
       -2   -1    0    0    0  501  0.00000000000E+00  0.00000000000E+00 -0.96217133436E+03  0.96217133436E+03  0.25500000920E-02 0. -1.
    10030    2    1    2    0    0  0.00000000000E+00  0.00000000000E+00  0.11871193558E+04  0.31114620245E+04  0.28760986710E+04 0.  0.
        4    1    3    3  502    0 -0.66365436966E+03 -0.58858793679E+03  0.18180466553E+04  0.20229108076E+04  0.12699999809E+01 0.  1.
       -4    1    3    3    0  502  0.66365436966E+03  0.58858793679E+03 -0.63092729951E+03  0.10885512169E+04  0.12699999809E+01 0. -1.
</event>
<event>
 5   0  0.4187518E-06  0.2919550E+04  0.7818609E-02  0.8267085E-01
       -2   -1    0    0    0  501  0.00000000000E+00  0.00000000000E+00  0.10120868464E+04  0.10120868464E+04  0.25500000920E-02 0. -1.
        2   -1    0    0  501    0  0.00000000000E+00  0.00000000000E+00 -0.21054937046E+04  0.21054937046E+04  0.25500000920E-02 0.  1.
    10030    2    1    2    0    0  0.00000000000E+00  0.00000000000E+00 -0.10934068582E+04  0.31175805510E+04  0.29195496115E+04 0.  0.
        3    1    3    3  502    0  0.72498932316E+03 -0.16326818616E+03  0.79497485235E+03  0.10882329922E+04  0.10100000352E+00 0. -1.
       -3    1    3    3    0  502 -0.72498932316E+03  0.16326818616E+03 -0.18883817105E+04  0.20293475587E+04  0.10100000352E+00 0.  1.
</event>
<event>
 5   0  0.1550278E-06  0.2994902E+04  0.7818609E-02  0.8245188E-01
        1   -1    0    0  501    0  0.00000000000E+00  0.00000000000E+00  0.14550147652E+04  0.14550147652E+04  0.50400001928E-02 0.  1.
       -1   -1    0    0    0  501  0.00000000000E+00  0.00000000000E+00 -0.15411249147E+04  0.15411249147E+04  0.50400001928E-02 0. -1.
    10030    2    1    2    0    0  0.00000000000E+00  0.00000000000E+00 -0.86110149510E+02  0.29961396800E+04  0.29949020057E+04 0.  0.
        2    1    3    3  502    0  0.70052196288E+03 -0.40245578892E+03  0.12182823028E+04  0.14618185427E+04  0.25500000920E-02 0. -1.
       -2    1    3    3    0  502 -0.70052196288E+03  0.40245578892E+03 -0.13043924523E+04  0.15343211372E+04  0.25500000920E-02 0.  1.
</event>
<event>
 5   0  0.4162450E-06  0.2910425E+04  0.7818609E-02  0.8269783E-01
       -2   -1    0    0    0  501  0.00000000000E+00  0.00000000000E+00  0.11344286497E+04  0.11344286497E+04  0.25500000920E-02 0. -1.
        2   -1    0    0  501    0  0.00000000000E+00  0.00000000000E+00 -0.18667043446E+04  0.18667043446E+04  0.25500000920E-02 0.  1.
    10030    2    1    2    0    0  0.00000000000E+00  0.00000000000E+00 -0.73227569491E+03  0.30011329942E+04  0.29104246349E+04 0.  0.
        2    1    3    3  502    0 -0.55174325785E+03 -0.13429985742E+04 -0.46705054230E+03  0.15251891692E+04  0.25500000920E-02 0. -1.
       -2    1    3    3    0  502  0.55174325785E+03  0.13429985742E+04 -0.26522515261E+03  0.14759438250E+04  0.25500000920E-02 0.  1.
</event>
<event>
 5   0  0.1580212E-06  0.2813636E+04  0.7818609E-02  0.8299047E-01
       -1   -1    0    0    0  501  0.00000000000E+00  0.00000000000E+00  0.12652897758E+04  0.12652897758E+04  0.50400001928E-02 0. -1.
        1   -1    0    0  501    0  0.00000000000E+00  0.00000000000E+00 -0.15641772785E+04  0.15641772785E+04  0.50400001928E-02 0.  1.
    10030    2    1    2    0    0  0.00000000000E+00  0.00000000000E+00 -0.29888750277E+03  0.28294670543E+04  0.28136364499E+04 0.  0.
        4    1    3    3  502    0 -0.25785293168E+03  0.10292148644E+03 -0.15363534602E+04  0.15612381414E+04  0.12699999809E+01 0.  1.
       -4    1    3    3    0  502  0.25785293168E+03 -0.10292148644E+03  0.12374659574E+04  0.12682289129E+04  0.12699999809E+01 0. -1.
</event>
<event>
 5   0  0.1580212E-06  0.2868233E+04  0.7818609E-02  0.8282392E-01
        1   -1    0    0  501    0  0.00000000000E+00  0.00000000000E+00  0.12320026175E+04  0.12320026175E+04  0.50400001928E-02 0. -1.
       -1   -1    0    0    0  501  0.00000000000E+00  0.00000000000E+00 -0.16693874440E+04  0.16693874440E+04  0.50400001928E-02 0.  1.
    10030    2    1    2    0    0  0.00000000000E+00  0.00000000000E+00 -0.43738482651E+03  0.29013900614E+04  0.28682326967E+04 0.  0.
        4    1    3    3  502    0 -0.96825802431E+03 -0.90976798649E+03  0.32744396521E+03  0.13683649199E+04  0.12699999809E+01 0. -1.
       -4    1    3    3    0  502  0.96825802431E+03  0.90976798649E+03 -0.76482879172E+03  0.15330251415E+04  0.12699999809E+01 0.  1.
</event>
<event>
 5   0  0.4224163E-06  0.2749128E+04  0.7818609E-02  0.8319238E-01
       -2   -1    0    0    0  501  0.00000000000E+00  0.00000000000E+00  0.98789736335E+03  0.98789736336E+03  0.25500000920E-02 0. -1.
        2   -1    0    0  501    0  0.00000000000E+00  0.00000000000E+00 -0.19125739840E+04  0.19125739840E+04  0.25500000920E-02 0.  1.
    10030    2    1    2    0    0  0.00000000000E+00  0.00000000000E+00 -0.92467662063E+03  0.29004713473E+04  0.27491284408E+04 0.  0.
        4    1    3    3  502    0 -0.18650930213E+03  0.86259991431E+03  0.64950792207E+03  0.10957766587E+04  0.12699999809E+01 0. -1.
       -4    1    3    3    0  502  0.18650930213E+03 -0.86259991431E+03 -0.15741845427E+04  0.18046946887E+04  0.12699999809E+01 0.  1.
</event>
<event>
 5   0  0.1511126E-06  0.2897351E+04  0.7818609E-02  0.8273666E-01
        1   -1    0    0  501    0  0.00000000000E+00  0.00000000000E+00  0.17847708046E+04  0.17847708046E+04  0.50400001928E-02 0. -1.
       -1   -1    0    0    0  501  0.00000000000E+00  0.00000000000E+00 -0.11758714636E+04  0.11758714636E+04  0.50400001928E-02 0.  1.
    10030    2    1    2    0    0  0.00000000000E+00  0.00000000000E+00  0.60889934105E+03  0.29606422682E+04  0.28973512443E+04 0.  0.
        5    1    3    3  502    0  0.40782993617E+03  0.11580842028E+04  0.10901109636E+04  0.16419038585E+04  0.46999998093E+01 0. -1.
       -5    1    3    3    0  502 -0.40782993617E+03 -0.11580842028E+04 -0.48121162257E+03  0.13187384097E+04  0.46999998093E+01 0.  1.
</event>
<event>
 5   0  0.1550278E-06  0.2916433E+04  0.7818609E-02  0.8268005E-01
        1   -1    0    0  501    0  0.00000000000E+00  0.00000000000E+00  0.15137089802E+04  0.15137089802E+04  0.50400001928E-02 0.  1.
       -1   -1    0    0    0  501  0.00000000000E+00  0.00000000000E+00 -0.14047585135E+04  0.14047585135E+04  0.50400001928E-02 0. -1.
    10030    2    1    2    0    0  0.00000000000E+00  0.00000000000E+00  0.10895046667E+03  0.29184674937E+04  0.29164331482E+04 0.  0.
        2    1    3    3  502    0  0.97799548794E+03  0.93762607982E+03  0.59408948441E+03  0.14793783003E+04  0.25500000920E-02 0.  1.
       -2    1    3    3    0  502 -0.97799548794E+03 -0.93762607982E+03 -0.48513901774E+03  0.14390891934E+04  0.25500000920E-02 0. -1.
</event>
<event>
 5   0  0.4187518E-06  0.2909686E+04  0.7818609E-02  0.8270001E-01
        2   -1    0    0  501    0  0.00000000000E+00  0.00000000000E+00  0.23611369429E+04  0.23611369429E+04  0.25500000920E-02 0.  1.
       -2   -1    0    0    0  501  0.00000000000E+00  0.00000000000E+00 -0.89641898407E+03  0.89641898407E+03  0.25500000920E-02 0. -1.
    10030    2    1    2    0    0  0.00000000000E+00  0.00000000000E+00  0.14647179589E+04  0.32575559270E+04  0.29096858797E+04 0.  0.
        3    1    3    3  502    0 -0.98795050422E+03  0.44587135358E+03 -0.35408362488E+03  0.11402730753E+04  0.10100000352E+00 0. -1.
       -3    1    3    3    0  502  0.98795050422E+03 -0.44587135358E+03  0.18188015838E+04  0.21172828517E+04  0.10100000352E+00 0.  1.
</event>
<event>
 5   0  0.4187518E-06  0.2897666E+04  0.7818609E-02  0.8273572E-01
        2   -1    0    0  501    0  0.00000000000E+00  0.00000000000E+00  0.20374741013E+04  0.20374741013E+04  0.25500000920E-02 0.  1.
       -2   -1    0    0    0  501  0.00000000000E+00  0.00000000000E+00 -0.10302548718E+04  0.10302548718E+04  0.25500000920E-02 0. -1.
    10030    2    1    2    0    0  0.00000000000E+00  0.00000000000E+00  0.10072192295E+04  0.30677289730E+04  0.28976663845E+04 0.  0.
        3    1    3    3  502    0 -0.18752963103E+03  0.97571966442E+03  0.16199731605E+04  0.19003971366E+04  0.10100000352E+00 0.  1.
       -3    1    3    3    0  502  0.18752963103E+03 -0.97571966442E+03 -0.61275393099E+03  0.11673318364E+04  0.10100000352E+00 0. -1.
</event>
<event>
 5   0  0.4224163E-06  0.2863665E+04  0.7818609E-02  0.8283771E-01
       -2   -1    0    0    0  501  0.00000000000E+00  0.00000000000E+00  0.11147560748E+04  0.11147560749E+04  0.25500000920E-02 0. -1.
        2   -1    0    0  501    0  0.00000000000E+00  0.00000000000E+00 -0.18390962902E+04  0.18390962902E+04  0.25500000920E-02 0.  1.
    10030    2    1    2    0    0  0.00000000000E+00  0.00000000000E+00 -0.72434021537E+03  0.29538523651E+04  0.28636646185E+04 0.  0.
        4    1    3    3  502    0  0.32277199225E+03 -0.13917937168E+04 -0.26501981727E+03  0.14531031022E+04  0.12699999809E+01 0.  1.
       -4    1    3    3    0  502 -0.32277199225E+03  0.13917937168E+04 -0.45932039809E+03  0.15007492629E+04  0.12699999809E+01 0. -1.
</event>
<event>
 5   0  0.1602873E-06  0.2893779E+04  0.7818609E-02  0.8274731E-01
        1   -1    0    0  501    0  0.00000000000E+00  0.00000000000E+00  0.19423777321E+04  0.19423777321E+04  0.50400001928E-02 0.  1.
       -1   -1    0    0    0  501  0.00000000000E+00  0.00000000000E+00 -0.10777969938E+04  0.10777969938E+04  0.50400001928E-02 0. -1.
    10030    2    1    2    0    0  0.00000000000E+00  0.00000000000E+00  0.86458073834E+03  0.30201747260E+04  0.28937787618E+04 0.  0.
        1    1    3    3  502    0  0.81725055884E+03  0.94853152171E+03 -0.32455889433E+03  0.12934252972E+04  0.50400001928E-02 0. -1.
       -1    1    3    3    0  502 -0.81725055884E+03 -0.94853152171E+03  0.11891396327E+04  0.17267494287E+04  0.50400001928E-02 0.  1.
</event>
<event>
 5   0  0.4224163E-06  0.2899933E+04  0.7818609E-02  0.8272897E-01
       -2   -1    0    0    0  501  0.00000000000E+00  0.00000000000E+00  0.10418495937E+04  0.10418495937E+04  0.25500000920E-02 0. -1.
        2   -1    0    0  501    0  0.00000000000E+00  0.00000000000E+00 -0.20179521784E+04  0.20179521784E+04  0.25500000920E-02 0.  1.
    10030    2    1    2    0    0  0.00000000000E+00  0.00000000000E+00 -0.97610258473E+03  0.30598017722E+04  0.28999328663E+04 0.  0.
        4    1    3    3  502    0 -0.39929693837E+02 -0.10808986105E+04  0.53082529893E+03  0.12048706559E+04  0.12699999809E+01 0. -1.
       -4    1    3    3    0  502  0.39929693837E+02  0.10808986105E+04 -0.15069278837E+04  0.18549311163E+04  0.12699999809E+01 0.  1.
</event>
<event>
 5   0  0.1543678E-06  0.2879206E+04  0.7818609E-02  0.8279091E-01
       -1   -1    0    0    0  501  0.00000000000E+00  0.00000000000E+00  0.11381981382E+04  0.11381981382E+04  0.50400001928E-02 0. -1.
        1   -1    0    0  501    0  0.00000000000E+00  0.00000000000E+00 -0.18208228479E+04  0.18208228479E+04  0.50400001928E-02 0.  1.
    10030    2    1    2    0    0  0.00000000000E+00  0.00000000000E+00 -0.68262470974E+03  0.29590209862E+04  0.28792062625E+04 0.  0.
        3    1    3    3  502    0  0.11480328038E+02 -0.13752926745E+04 -0.77842066268E+03  0.15803482138E+04  0.10100000352E+00 0.  1.
       -3    1    3    3    0  502 -0.11480328038E+02  0.13752926745E+04  0.95795952944E+02  0.13786727724E+04  0.10100000352E+00 0. -1.
</event>
<event>
 5   0  0.4187518E-06  0.2890408E+04  0.7818609E-02  0.8275737E-01
       -2   -1    0    0    0  501  0.00000000000E+00  0.00000000000E+00  0.13707480352E+04  0.13707480352E+04  0.25500000920E-02 0.  1.
        2   -1    0    0  501    0  0.00000000000E+00  0.00000000000E+00 -0.15237042445E+04  0.15237042445E+04  0.25500000920E-02 0. -1.
    10030    2    1    2    0    0  0.00000000000E+00  0.00000000000E+00 -0.15295620936E+03  0.28944522797E+04  0.28904079984E+04 0.  0.
        3    1    3    3  502    0 -0.10222995631E+04  0.99614252969E+03  0.15015305637E+03  0.14352499039E+04  0.10100000352E+00 0. -1.
       -3    1    3    3    0  502  0.10222995631E+04 -0.99614252969E+03 -0.30310926573E+03  0.14592023758E+04  0.10100000352E+00 0.  1.
</event>
<event>
 5   0  0.4148677E-06  0.2900383E+04  0.7818609E-02  0.8272764E-01
        2   -1    0    0  501    0  0.00000000000E+00  0.00000000000E+00  0.15041915129E+04  0.15041915129E+04  0.25500000920E-02 0.  1.
       -2   -1    0    0    0  501  0.00000000000E+00  0.00000000000E+00 -0.13981300155E+04  0.13981300155E+04  0.25500000920E-02 0. -1.
    10030    2    1    2    0    0  0.00000000000E+00  0.00000000000E+00  0.10606149744E+03  0.29023215285E+04  0.29003829425E+04 0.  0.
        5    1    3    3  502    0  0.13051464395E+04 -0.58989428512E+03 -0.17438909617E+03  0.14428500071E+04  0.46999998093E+01 0.  1.
       -5    1    3    3    0  502 -0.13051464395E+04  0.58989428512E+03  0.28045059361E+03  0.14594715213E+04  0.46999998093E+01 0. -1.
</event>
<event>
 5   0  0.1602873E-06  0.2890270E+04  0.7818609E-02  0.8275778E-01
        1   -1    0    0  501    0  0.00000000000E+00  0.00000000000E+00  0.16527848929E+04  0.16527848929E+04  0.50400001928E-02 0. -1.
       -1   -1    0    0    0  501  0.00000000000E+00  0.00000000000E+00 -0.12635738206E+04  0.12635738206E+04  0.50400001928E-02 0.  1.
    10030    2    1    2    0    0  0.00000000000E+00  0.00000000000E+00  0.38921107235E+03  0.29163587135E+04  0.28902703830E+04 0.  0.
        1    1    3    3  502    0  0.15449318308E+03  0.33644023298E+03  0.16041236859E+04  0.16462906710E+04  0.50400001928E-02 0. -1.
       -1    1    3    3    0  502 -0.15449318308E+03 -0.33644023298E+03 -0.12149126135E+04  0.12700680425E+04  0.50400001928E-02 0.  1.
</event>
<event>
 5   0  0.1602873E-06  0.2910898E+04  0.7818609E-02  0.8269643E-01
       -1   -1    0    0    0  501  0.00000000000E+00  0.00000000000E+00  0.89118242539E+03  0.89118242541E+03  0.50400001928E-02 0. -1.
        1   -1    0    0  501    0  0.00000000000E+00  0.00000000000E+00 -0.23769894034E+04  0.23769894034E+04  0.50400001928E-02 0.  1.
    10030    2    1    2    0    0  0.00000000000E+00  0.00000000000E+00 -0.14858069780E+04  0.32681718288E+04  0.29108975810E+04 0.  0.
        1    1    3    3  502    0  0.13176395529E+04 -0.60434413844E+03 -0.59683826760E+03  0.15676803713E+04  0.50400001928E-02 0.  1.
       -1    1    3    3    0  502 -0.13176395529E+04  0.60434413844E+03 -0.88896871042E+03  0.17004914575E+04  0.50400001928E-02 0. -1.
</event>
<event>
 5   0  0.4115143E-06  0.2894795E+04  0.7818609E-02  0.8274428E-01
       -2   -1    0    0    0  501  0.00000000000E+00  0.00000000000E+00  0.14524378297E+04  0.14524378297E+04  0.25500000920E-02 0. -1.
        2   -1    0    0  501    0  0.00000000000E+00  0.00000000000E+00 -0.14423747021E+04  0.14423747021E+04  0.25500000920E-02 0.  1.
    10030    2    1    2    0    0  0.00000000000E+00  0.00000000000E+00  0.10063127574E+02  0.28948125317E+04  0.28947950406E+04 0.  0.
        1    1    3    3  502    0 -0.97135511109E+02  0.14183802901E+04  0.27655047258E+03  0.14483501368E+04  0.50400001928E-02 0. -1.
       -1    1    3    3    0  502  0.97135511109E+02 -0.14183802901E+04 -0.26648734500E+03  0.14464623949E+04  0.50400001928E-02 0.  1.
</event>
<event>
 5   0  0.1580212E-06  0.2895736E+04  0.7818609E-02  0.8274147E-01
        1   -1    0    0  501    0  0.00000000000E+00  0.00000000000E+00  0.25381297168E+04  0.25381297168E+04  0.50400001928E-02 0.  1.
       -1   -1    0    0    0  501  0.00000000000E+00  0.00000000000E+00 -0.82593189750E+03  0.82593189752E+03  0.50400001928E-02 0. -1.
    10030    2    1    2    0    0  0.00000000000E+00  0.00000000000E+00  0.17121978193E+04  0.33640616144E+04  0.28957363783E+04 0.  0.
        4    1    3    3  502    0 -0.38135715241E+03 -0.67059382563E+03  0.22794857367E+04  0.24064883531E+04  0.12699999809E+01 0.  1.
       -4    1    3    3    0  502  0.38135715241E+03  0.67059382563E+03 -0.56728791737E+03  0.95757326130E+03  0.12699999809E+01 0. -1.
</event>
<event>
 5   0  0.4148677E-06  0.2875090E+04  0.7818609E-02  0.8280328E-01
        2   -1    0    0  501    0  0.00000000000E+00  0.00000000000E+00  0.15785431875E+04  0.15785431875E+04  0.25500000920E-02 0. -1.
       -2   -1    0    0    0  501  0.00000000000E+00  0.00000000000E+00 -0.13091411119E+04  0.13091411119E+04  0.25500000920E-02 0.  1.
    10030    2    1    2    0    0  0.00000000000E+00  0.00000000000E+00  0.26940207560E+03  0.28876842994E+04  0.28750901090E+04 0.  0.
        5    1    3    3  502    0  0.13052293953E+04 -0.58937306591E+03  0.25986356111E+03  0.14555189953E+04  0.46999998093E+01 0.  1.
       -5    1    3    3    0  502 -0.13052293953E+04  0.58937306591E+03  0.95385144810E+01  0.14321653042E+04  0.46999998093E+01 0. -1.
</event>
<event>
 5   0  0.1550278E-06  0.2888863E+04  0.7818609E-02  0.8276199E-01
       -1   -1    0    0    0  501  0.00000000000E+00  0.00000000000E+00  0.11730565751E+04  0.11730565751E+04  0.50400001928E-02 0. -1.
        1   -1    0    0  501    0  0.00000000000E+00  0.00000000000E+00 -0.17785858958E+04  0.17785858958E+04  0.50400001928E-02 0.  1.
    10030    2    1    2    0    0  0.00000000000E+00  0.00000000000E+00 -0.60552932072E+03  0.29516424710E+04  0.28888626686E+04 0.  0.
        2    1    3    3  502    0  0.25765182964E+02 -0.12796598054E+04  0.38125307479E+03  0.13354950277E+04  0.25500000920E-02 0. -1.
       -2    1    3    3    0  502 -0.25765182964E+02  0.12796598054E+04 -0.98678239551E+03  0.16161474432E+04  0.25500000920E-02 0.  1.
</event>
<event>
 5   0  0.1511126E-06  0.2852383E+04  0.7818609E-02  0.8287188E-01
        1   -1    0    0  501    0  0.00000000000E+00  0.00000000000E+00  0.15867900825E+04  0.15867900825E+04  0.50400001928E-02 0.  1.
       -1   -1    0    0    0  501  0.00000000000E+00  0.00000000000E+00 -0.12818466103E+04  0.12818466103E+04  0.50400001928E-02 0. -1.
    10030    2    1    2    0    0  0.00000000000E+00  0.00000000000E+00  0.30494347229E+03  0.28686366928E+04  0.28523825049E+04 0.  0.
        5    1    3    3  502    0 -0.12271337747E+04 -0.70525865324E+03 -0.23890986665E+02  0.14155705345E+04  0.46999998093E+01 0. -1.
       -5    1    3    3    0  502  0.12271337747E+04  0.70525865324E+03  0.32883445895E+03  0.14530661583E+04  0.46999998093E+01 0.  1.
</event>
<event>
 5   0  0.1543678E-06  0.2913159E+04  0.7818609E-02  0.8268973E-01
        1   -1    0    0  501    0  0.00000000000E+00  0.00000000000E+00  0.14238797128E+04  0.14238797128E+04  0.50400001928E-02 0.  1.
       -1   -1    0    0    0  501  0.00000000000E+00  0.00000000000E+00 -0.14900306348E+04  0.14900306348E+04  0.50400001928E-02 0. -1.
    10030    2    1    2    0    0  0.00000000000E+00  0.00000000000E+00 -0.66150921934E+02  0.29139103476E+04  0.29131593793E+04 0.  0.
        3    1    3    3  502    0 -0.43645802930E+03 -0.10489743995E+04  0.87863165264E+03  0.14362578088E+04  0.10100000352E+00 0.  1.
       -3    1    3    3    0  502  0.43645802930E+03  0.10489743995E+04 -0.94478257458E+03  0.14776525388E+04  0.10100000352E+00 0. -1.
</event>
<event>
 5   0  0.4148677E-06  0.2595082E+04  0.7818609E-02  0.8369874E-01
        2   -1    0    0  501    0  0.00000000000E+00  0.00000000000E+00  0.18696949047E+04  0.18696949047E+04  0.25500000920E-02 0. -1.
       -2   -1    0    0    0  501  0.00000000000E+00  0.00000000000E+00 -0.90047459522E+03  0.90047459523E+03  0.25500000920E-02 0.  1.
    10030    2    1    2    0    0  0.00000000000E+00  0.00000000000E+00  0.96922030946E+03  0.27701694999E+04  0.25950820893E+04 0.  0.
        5    1    3    3  502    0  0.79263225028E+02  0.12649998565E+04  0.18823922103E+03  0.12813911933E+04  0.46999998093E+01 0.  1.
       -5    1    3    3    0  502 -0.79263225028E+02 -0.12649998565E+04  0.78098108843E+03  0.14887783066E+04  0.46999998093E+01 0. -1.
</event>
<event>
 5   0  0.1550278E-06  0.2855486E+04  0.7818609E-02  0.8286246E-01
        1   -1    0    0  501    0  0.00000000000E+00  0.00000000000E+00  0.19827579591E+04  0.19827579591E+04  0.50400001928E-02 0.  1.
       -1   -1    0    0    0  501  0.00000000000E+00  0.00000000000E+00 -0.10280879336E+04  0.10280879336E+04  0.50400001928E-02 0. -1.
    10030    2    1    2    0    0  0.00000000000E+00  0.00000000000E+00  0.95467002548E+03  0.30108458926E+04  0.28554856210E+04 0.  0.
        2    1    3    3  502    0  0.54636778410E+03  0.56084894604E+03 -0.78151478960E+03  0.11062706098E+04  0.25500000920E-02 0. -1.
       -2    1    3    3    0  502 -0.54636778410E+03 -0.56084894604E+03  0.17361848151E+04  0.19045752828E+04  0.25500000920E-02 0.  1.
</event>
<event>
 5   0  0.1543678E-06  0.2820418E+04  0.7818609E-02  0.8296957E-01
        1   -1    0    0  501    0  0.00000000000E+00  0.00000000000E+00  0.16576394275E+04  0.16576394276E+04  0.50400001928E-02 0.  1.
       -1   -1    0    0    0  501  0.00000000000E+00  0.00000000000E+00 -0.11997119527E+04  0.11997119527E+04  0.50400001928E-02 0. -1.
    10030    2    1    2    0    0  0.00000000000E+00  0.00000000000E+00  0.45792747487E+03  0.28573513802E+04  0.28204182913E+04 0.  0.
        3    1    3    3  502    0 -0.11828528005E+04 -0.74171920128E+03  0.27865795741E+02  0.13964471468E+04  0.10100000352E+00 0. -1.
       -3    1    3    3    0  502  0.11828528005E+04  0.74171920128E+03  0.43006167913E+03  0.14609042334E+04  0.10100000352E+00 0.  1.
</event>
<event>
 5   0  0.4187518E-06  0.2889724E+04  0.7818609E-02  0.8275941E-01
       -2   -1    0    0    0  501  0.00000000000E+00  0.00000000000E+00  0.14288142701E+04  0.14288142701E+04  0.25500000920E-02 0.  1.
        2   -1    0    0  501    0  0.00000000000E+00  0.00000000000E+00 -0.14610899874E+04  0.14610899874E+04  0.25500000920E-02 0. -1.
    10030    2    1    2    0    0  0.00000000000E+00  0.00000000000E+00 -0.32275717359E+02  0.28899042575E+04  0.28897240172E+04 0.  0.
        3    1    3    3  502    0  0.42574342124E+03 -0.85728122401E+03 -0.10985351020E+04  0.14570408156E+04  0.10100000352E+00 0. -1.
       -3    1    3    3    0  502 -0.42574342124E+03  0.85728122401E+03  0.10662593846E+04  0.14328634419E+04  0.10100000352E+00 0.  1.
</event>
<event>
 5   0  0.4148677E-06  0.2900878E+04  0.7818609E-02  0.8272616E-01
       -2   -1    0    0    0  501  0.00000000000E+00  0.00000000000E+00  0.73950755405E+03  0.73950755405E+03  0.25500000920E-02 0. -1.
        2   -1    0    0  501    0  0.00000000000E+00  0.00000000000E+00 -0.28448293665E+04  0.28448293665E+04  0.25500000920E-02 0.  1.
    10030    2    1    2    0    0  0.00000000000E+00  0.00000000000E+00 -0.21053218124E+04  0.35843369205E+04  0.29008776648E+04 0.  0.
        5    1    3    3  502    0  0.13692758718E+04  0.32501101598E+03 -0.61896178475E+03  0.15374278372E+04  0.46999998093E+01 0. -1.
       -5    1    3    3    0  502 -0.13692758718E+04 -0.32501101598E+03 -0.14863600277E+04  0.20469090833E+04  0.46999998093E+01 0.  1.
</event>
<event>
 5   0  0.4115143E-06  0.2909392E+04  0.7818609E-02  0.8270088E-01
       -2   -1    0    0    0  501  0.00000000000E+00  0.00000000000E+00  0.14112633137E+04  0.14112633137E+04  0.25500000920E-02 0.  1.
        2   -1    0    0  501    0  0.00000000000E+00  0.00000000000E+00 -0.14994656785E+04  0.14994656785E+04  0.25500000920E-02 0. -1.
    10030    2    1    2    0    0  0.00000000000E+00  0.00000000000E+00 -0.88202364840E+02  0.29107289922E+04  0.29093923092E+04 0.  0.
        1    1    3    3  502    0 -0.14287692811E+04 -0.74940555524E+02  0.21897049061E+03  0.14473927668E+04  0.50400001928E-02 0.  1.
       -1    1    3    3    0  502  0.14287692811E+04  0.74940555524E+02 -0.30717285545E+03  0.14633362254E+04  0.50400001928E-02 0. -1.
</event>
<event>
 5   0  0.1580212E-06  0.2900042E+04  0.7818609E-02  0.8272865E-01
        1   -1    0    0  501    0  0.00000000000E+00  0.00000000000E+00  0.25809423345E+04  0.25809423345E+04  0.50400001928E-02 0. -1.
       -1   -1    0    0    0  501  0.00000000000E+00  0.00000000000E+00 -0.81464879352E+03  0.81464879354E+03  0.50400001928E-02 0.  1.
    10030    2    1    2    0    0  0.00000000000E+00  0.00000000000E+00  0.17662935409E+04  0.33955911280E+04  0.29000424541E+04 0.  0.
        4    1    3    3  502    0 -0.45181167528E+03  0.49623097269E+03 -0.62186481593E+03  0.91492974067E+03  0.12699999809E+01 0.  1.
       -4    1    3    3    0  502  0.45181167528E+03 -0.49623097269E+03  0.23881583569E+04  0.24806613873E+04  0.12699999809E+01 0. -1.
</event>
<event>
 5   0  0.1511126E-06  0.2899798E+04  0.7818609E-02  0.8272938E-01
       -1   -1    0    0    0  501  0.00000000000E+00  0.00000000000E+00  0.25623499444E+04  0.25623499444E+04  0.50400001928E-02 0. -1.
        1   -1    0    0  501    0  0.00000000000E+00  0.00000000000E+00 -0.82042141188E+03  0.82042141189E+03  0.50400001928E-02 0.  1.
    10030    2    1    2    0    0  0.00000000000E+00  0.00000000000E+00  0.17419285325E+04  0.33827713563E+04  0.28997977579E+04 0.  0.
        5    1    3    3  502    0  0.24482344263E+03  0.37106820601E+03 -0.73894589485E+03  0.86237651701E+03  0.46999998093E+01 0.  1.
       -5    1    3    3    0  502 -0.24482344263E+03 -0.37106820601E+03  0.24808744274E+04  0.25203948393E+04  0.46999998093E+01 0. -1.
</event>
<event>
 5   0  0.1543678E-06  0.2871412E+04  0.7818609E-02  0.8281435E-01
        1   -1    0    0  501    0  0.00000000000E+00  0.00000000000E+00  0.19974173778E+04  0.19974173778E+04  0.50400001928E-02 0.  1.
       -1   -1    0    0    0  501  0.00000000000E+00  0.00000000000E+00 -0.10319581518E+04  0.10319581518E+04  0.50400001928E-02 0. -1.
    10030    2    1    2    0    0  0.00000000000E+00  0.00000000000E+00  0.96545922597E+03  0.30293755297E+04  0.28714116011E+04 0.  0.
        3    1    3    3  502    0 -0.32579029084E+03  0.79437732899E+03 -0.73125783966E+03  0.11277910678E+04  0.10100000352E+00 0. -1.
       -3    1    3    3    0  502  0.32579029084E+03 -0.79437732899E+03  0.16967170656E+04  0.19015844618E+04  0.10100000352E+00 0.  1.
</event>
<event>
 5   0  0.4162450E-06  0.2652775E+04  0.7818609E-02  0.8350493E-01
        2   -1    0    0  501    0  0.00000000000E+00  0.00000000000E+00  0.24179846274E+04  0.24179846274E+04  0.25500000920E-02 0. -1.
       -2   -1    0    0    0  501  0.00000000000E+00  0.00000000000E+00 -0.72759091199E+03  0.72759091200E+03  0.25500000920E-02 0.  1.
    10030    2    1    2    0    0  0.00000000000E+00  0.00000000000E+00  0.16903937154E+04  0.31455755394E+04  0.26527748795E+04 0.  0.
        2    1    3    3  502    0 -0.45889262206E+03 -0.65897686863E+03  0.20969942658E+04  0.22454883439E+04  0.25500000920E-02 0. -1.
       -2    1    3    3    0  502  0.45889262206E+03  0.65897686863E+03 -0.40660055035E+03  0.90008719551E+03  0.25500000920E-02 0.  1.
</event>
<event>
 5   0  0.1543678E-06  0.2891328E+04  0.7818609E-02  0.8275462E-01
        1   -1    0    0  501    0  0.00000000000E+00  0.00000000000E+00  0.11945546263E+04  0.11945546263E+04  0.50400001928E-02 0.  1.
       -1   -1    0    0    0  501  0.00000000000E+00  0.00000000000E+00 -0.17495599863E+04  0.17495599863E+04  0.50400001928E-02 0. -1.
    10030    2    1    2    0    0  0.00000000000E+00  0.00000000000E+00 -0.55500536007E+03  0.29441146126E+04  0.28913283976E+04 0.  0.
        3    1    3    3  502    0 -0.11471290858E+04  0.87655796507E+03 -0.35428463867E+03  0.14865317423E+04  0.10100000352E+00 0. -1.
       -3    1    3    3    0  502  0.11471290858E+04 -0.87655796507E+03 -0.20072072140E+03  0.14575828703E+04  0.10100000352E+00 0.  1.
</event>
<event>
 5   0  0.1550278E-06  0.2901289E+04  0.7818609E-02  0.8272494E-01
        1   -1    0    0  501    0  0.00000000000E+00  0.00000000000E+00  0.19838810746E+04  0.19838810746E+04  0.50400001928E-02 0. -1.
       -1   -1    0    0    0  501  0.00000000000E+00  0.00000000000E+00 -0.10607335541E+04  0.10607335541E+04  0.50400001928E-02 0.  1.
    10030    2    1    2    0    0  0.00000000000E+00  0.00000000000E+00  0.92314752053E+03  0.30446146288E+04  0.29012888331E+04 0.  0.
        2    1    3    3  502    0  0.86499960421E+02 -0.22587124703E+03 -0.10394248535E+04  0.10671944947E+04  0.25500000920E-02 0.  1.
       -2    1    3    3    0  502 -0.86499960421E+02  0.22587124703E+03  0.19625723740E+04  0.19774201341E+04  0.25500000920E-02 0. -1.
</event>
<event>
 5   0  0.1580212E-06  0.2907325E+04  0.7818609E-02  0.8270701E-01
       -1   -1    0    0    0  501  0.00000000000E+00  0.00000000000E+00  0.84947929283E+03  0.84947929284E+03  0.50400001928E-02 0.  1.
        1   -1    0    0  501    0  0.00000000000E+00  0.00000000000E+00 -0.24875652447E+04  0.24875652447E+04  0.50400001928E-02 0. -1.
    10030    2    1    2    0    0  0.00000000000E+00  0.00000000000E+00 -0.16380859519E+04  0.33370445376E+04  0.29073253447E+04 0.  0.
        4    1    3    3  502    0 -0.12689863705E+03  0.81733078517E+03  0.55305330045E+03  0.99498866451E+03  0.12699999809E+01 0.  1.
       -4    1    3    3    0  502  0.12689863705E+03 -0.81733078517E+03 -0.21911392523E+04  0.23420558730E+04  0.12699999809E+01 0. -1.
</event>
<event>
 5   0  0.4187518E-06  0.2875659E+04  0.7818609E-02  0.8280157E-01
       -2   -1    0    0    0  501  0.00000000000E+00  0.00000000000E+00  0.86027130995E+03  0.86027130995E+03  0.25500000920E-02 0. -1.
        2   -1    0    0  501    0  0.00000000000E+00  0.00000000000E+00 -0.24031410617E+04  0.24031410617E+04  0.25500000920E-02 0.  1.
    10030    2    1    2    0    0  0.00000000000E+00  0.00000000000E+00 -0.15428697517E+04  0.32634123716E+04  0.28756587483E+04 0.  0.
        3    1    3    3  502    0 -0.77787050108E+03 -0.32630327145E+03  0.54995792281E+03  0.10069806694E+04  0.10100000352E+00 0. -1.
       -3    1    3    3    0  502  0.77787050108E+03  0.32630327145E+03 -0.20928276745E+04  0.22564317022E+04  0.10100000352E+00 0.  1.
</event>
<event>
 5   0  0.4187518E-06  0.2954169E+04  0.7818609E-02  0.8256941E-01
       -2   -1    0    0    0  501  0.00000000000E+00  0.00000000000E+00  0.66813616801E+03  0.66813616802E+03  0.25500000920E-02 0. -1.
        2   -1    0    0  501    0  0.00000000000E+00  0.00000000000E+00 -0.32654694198E+04  0.32654694198E+04  0.25500000920E-02 0.  1.
    10030    2    1    2    0    0  0.00000000000E+00  0.00000000000E+00 -0.25973332518E+04  0.39336055878E+04  0.29541687324E+04 0.  0.
        3    1    3    3  502    0 -0.88528884442E+02  0.82564404892E+03  0.32791817498E+03  0.89277981529E+03  0.10100000352E+00 0. -1.
       -3    1    3    3    0  502  0.88528884442E+02 -0.82564404892E+03 -0.29252514268E+04  0.30408257725E+04  0.10100000352E+00 0.  1.
</event>
<event>
 5   0  0.1550278E-06  0.2915655E+04  0.7818609E-02  0.8268235E-01
       -1   -1    0    0    0  501  0.00000000000E+00  0.00000000000E+00  0.12274992852E+04  0.12274992852E+04  0.50400001928E-02 0. -1.
        1   -1    0    0  501    0  0.00000000000E+00  0.00000000000E+00 -0.17313750010E+04  0.17313750010E+04  0.50400001928E-02 0.  1.
    10030    2    1    2    0    0  0.00000000000E+00  0.00000000000E+00 -0.50387571577E+03  0.29588742863E+04  0.29156553817E+04 0.  0.
        2    1    3    3  502    0  0.10020564185E+04  0.82677190737E+03 -0.92325133906E+03  0.15937571608E+04  0.25500000920E-02 0.  1.
       -2    1    3    3    0  502 -0.10020564185E+04 -0.82677190737E+03  0.41937562329E+03  0.13651171254E+04  0.25500000920E-02 0. -1.
</event>
<event>
 5   0  0.1511126E-06  0.2891742E+04  0.7818609E-02  0.8275339E-01
       -1   -1    0    0    0  501  0.00000000000E+00  0.00000000000E+00  0.13505449329E+04  0.13505449329E+04  0.50400001928E-02 0.  1.
        1   -1    0    0  501    0  0.00000000000E+00  0.00000000000E+00 -0.15479252267E+04  0.15479252268E+04  0.50400001928E-02 0. -1.
    10030    2    1    2    0    0  0.00000000000E+00  0.00000000000E+00 -0.19738029389E+03  0.28984701596E+04  0.28917417391E+04 0.  0.
        5    1    3    3  502    0 -0.96249140403E+02  0.13987937510E+04 -0.45254503870E+03  0.14733319236E+04  0.46999998093E+01 0.  1.
       -5    1    3    3    0  502  0.96249140403E+02 -0.13987937510E+04  0.25516474482E+03  0.14251382361E+04  0.46999998093E+01 0. -1.
</event>
<event>
 5   0  0.4148677E-06  0.2903089E+04  0.7818609E-02  0.8271959E-01
        2   -1    0    0  501    0  0.00000000000E+00  0.00000000000E+00  0.23413866509E+04  0.23413866509E+04  0.25500000920E-02 0.  1.
       -2   -1    0    0    0  501  0.00000000000E+00  0.00000000000E+00 -0.89988631661E+03  0.89988631661E+03  0.25500000920E-02 0. -1.
    10030    2    1    2    0    0  0.00000000000E+00  0.00000000000E+00  0.14415003343E+04  0.32412729676E+04  0.29030892574E+04 0.  0.
        5    1    3    3  502    0  0.12881080561E+04 -0.40412571485E+03  0.12531414816E+03  0.13558265683E+04  0.46999998093E+01 0. -1.
       -5    1    3    3    0  502 -0.12881080561E+04  0.40412571485E+03  0.13161861862E+04  0.18854463992E+04  0.46999998093E+01 0.  1.
</event>
<event>
 5   0  0.4115143E-06  0.2935110E+04  0.7818609E-02  0.8262507E-01
        2   -1    0    0  501    0  0.00000000000E+00  0.00000000000E+00  0.97629967213E+03  0.97629967213E+03  0.25500000920E-02 0. -1.
       -2   -1    0    0    0  501  0.00000000000E+00  0.00000000000E+00 -0.22060013514E+04  0.22060013514E+04  0.25500000920E-02 0.  1.
    10030    2    1    2    0    0  0.00000000000E+00  0.00000000000E+00 -0.12297016793E+04  0.31823010235E+04  0.29351104893E+04 0.  0.
        1    1    3    3  502    0  0.39822446374E+03  0.12872066405E+04  0.15708420788E+02  0.13474904131E+04  0.50400001928E-02 0. -1.
       -1    1    3    3    0  502 -0.39822446374E+03 -0.12872066405E+04 -0.12454101001E+04  0.18348106104E+04  0.50400001928E-02 0.  1.
</event>
<event>
 5   0  0.1360125E-06  0.2560931E+04  0.7818609E-02  0.8381594E-01
       -3   -1    0    0    0  501  0.00000000000E+00  0.00000000000E+00  0.10057474328E+04  0.10057474379E+04  0.10100000352E+00 0. -1.
        3   -1    0    0  501    0  0.00000000000E+00  0.00000000000E+00 -0.16302221875E+04  0.16302221907E+04  0.10100000352E+00 0.  1.
    10030    2    1    2    0    0  0.00000000000E+00  0.00000000000E+00 -0.62447475474E+03  0.26359696285E+04  0.25609309173E+04 0.  0.
        5    1    3    3  502    0 -0.24029354274E+03  0.62936035816E+03  0.80858352552E+03  0.10524565810E+04  0.46999998093E+01 0. -1.
       -5    1    3    3    0  502  0.24029354274E+03 -0.62936035816E+03 -0.14330582803E+04  0.15835130475E+04  0.46999998093E+01 0.  1.
</event>
<event>
 5   0  0.1580212E-06  0.2907319E+04  0.7818609E-02  0.8270703E-01
       -1   -1    0    0    0  501  0.00000000000E+00  0.00000000000E+00  0.14851528498E+04  0.14851528499E+04  0.50400001928E-02 0.  1.
        1   -1    0    0  501    0  0.00000000000E+00  0.00000000000E+00 -0.14228341472E+04  0.14228341472E+04  0.50400001928E-02 0. -1.
    10030    2    1    2    0    0  0.00000000000E+00  0.00000000000E+00  0.62318702621E+02  0.29079869971E+04  0.29073191697E+04 0.  0.
        4    1    3    3  502    0 -0.14493120916E+04 -0.81425406527E+02 -0.46246667546E+02  0.14523346731E+04  0.12699999809E+01 0. -1.
       -4    1    3    3    0  502  0.14493120916E+04  0.81425406527E+02  0.10856537017E+03  0.14556523239E+04  0.12699999809E+01 0.  1.
</event>
<event>
 5   0  0.4224163E-06  0.2896149E+04  0.7818609E-02  0.8274024E-01
       -2   -1    0    0    0  501  0.00000000000E+00  0.00000000000E+00  0.10068864556E+04  0.10068864556E+04  0.25500000920E-02 0. -1.
        2   -1    0    0  501    0  0.00000000000E+00  0.00000000000E+00 -0.20825776332E+04  0.20825776332E+04  0.25500000920E-02 0.  1.
    10030    2    1    2    0    0  0.00000000000E+00  0.00000000000E+00 -0.10756911776E+04  0.30894640888E+04  0.28961486230E+04 0.  0.
        4    1    3    3  502    0 -0.10858082480E+04  0.93141583951E+03 -0.77733631161E+03  0.16281180460E+04  0.12699999809E+01 0.  1.
       -4    1    3    3    0  502  0.10858082480E+04 -0.93141583951E+03 -0.29835486595E+03  0.14613460427E+04  0.12699999809E+01 0. -1.
</event>
<event>
 5   0  0.4187518E-06  0.2849104E+04  0.7818609E-02  0.8288184E-01
       -2   -1    0    0    0  501  0.00000000000E+00  0.00000000000E+00  0.14226050687E+04  0.14226050687E+04  0.25500000920E-02 0. -1.
        2   -1    0    0  501    0  0.00000000000E+00  0.00000000000E+00 -0.14265019883E+04  0.14265019883E+04  0.25500000920E-02 0.  1.
    10030    2    1    2    0    0  0.00000000000E+00  0.00000000000E+00 -0.38969196230E+01  0.28491070570E+04  0.28491043920E+04 0.  0.
        3    1    3    3  502    0 -0.43808190147E+03  0.11003503192E+04  0.78967237354E+03  0.14234707743E+04  0.10100000352E+00 0. -1.
       -3    1    3    3    0  502  0.43808190147E+03 -0.11003503192E+04 -0.79356929317E+03  0.14256362827E+04  0.10100000352E+00 0.  1.
</event>
<event>
 5   0  0.4148677E-06  0.2900806E+04  0.7818609E-02  0.8272638E-01
       -2   -1    0    0    0  501  0.00000000000E+00  0.00000000000E+00  0.88294267912E+03  0.88294267913E+03  0.25500000920E-02 0. -1.
        2   -1    0    0  501    0  0.00000000000E+00  0.00000000000E+00 -0.23825654474E+04  0.23825654474E+04  0.25500000920E-02 0.  1.
    10030    2    1    2    0    0  0.00000000000E+00  0.00000000000E+00 -0.14996227682E+04  0.32655081265E+04  0.29008059013E+04 0.  0.
        5    1    3    3  502    0  0.37479974607E+03  0.12872731750E+04 -0.13726326688E+04  0.19187729439E+04  0.46999998093E+01 0.  1.
       -5    1    3    3    0  502 -0.37479974607E+03 -0.12872731750E+04 -0.12699009944E+03  0.13467351826E+04  0.46999998093E+01 0. -1.
</event>
<event>
 5   0  0.4148677E-06  0.2900095E+04  0.7818609E-02  0.8272849E-01
       -2   -1    0    0    0  501  0.00000000000E+00  0.00000000000E+00  0.14920440603E+04  0.14920440603E+04  0.25500000920E-02 0.  1.
        2   -1    0    0  501    0  0.00000000000E+00  0.00000000000E+00 -0.14092332457E+04  0.14092332457E+04  0.25500000920E-02 0. -1.
    10030    2    1    2    0    0  0.00000000000E+00  0.00000000000E+00  0.82810814581E+02  0.29012773061E+04  0.29000952356E+04 0.  0.
        5    1    3    3  502    0  0.67464270992E+03  0.39175807361E+02 -0.12420588528E+04  0.14140048846E+04  0.46999998093E+01 0. -1.
       -5    1    3    3    0  502 -0.67464270992E+03 -0.39175807361E+02  0.13248696674E+04  0.14872724214E+04  0.46999998093E+01 0.  1.
</event>
<event>
 5   0  0.4148677E-06  0.2745789E+04  0.7818609E-02  0.8320299E-01
        2   -1    0    0  501    0  0.00000000000E+00  0.00000000000E+00  0.22872470934E+04  0.22872470934E+04  0.25500000920E-02 0.  1.
       -2   -1    0    0    0  501  0.00000000000E+00  0.00000000000E+00 -0.82406427812E+03  0.82406427812E+03  0.25500000920E-02 0. -1.
    10030    2    1    2    0    0  0.00000000000E+00  0.00000000000E+00  0.14631828153E+04  0.31113113715E+04  0.27457885024E+04 0.  0.
        5    1    3    3  502    0  0.46958492280E+03  0.10933317633E+04 -0.44354447265E+02  0.11907450404E+04  0.46999998093E+01 0. -1.
       -5    1    3    3    0  502 -0.46958492280E+03 -0.10933317633E+04  0.15075372626E+04  0.19205663311E+04  0.46999998093E+01 0.  1.
</event>
<event>
 5   0  0.1511126E-06  0.2899803E+04  0.7818609E-02  0.8272936E-01
       -1   -1    0    0    0  501  0.00000000000E+00  0.00000000000E+00  0.91573452570E+03  0.91573452572E+03  0.50400001928E-02 0.  1.
        1   -1    0    0  501    0  0.00000000000E+00  0.00000000000E+00 -0.22956597638E+04  0.22956597638E+04  0.50400001928E-02 0. -1.
    10030    2    1    2    0    0  0.00000000000E+00  0.00000000000E+00 -0.13799252381E+04  0.32113942896E+04  0.28998033761E+04 0.  0.
        5    1    3    3  502    0 -0.10905127334E+04  0.38735105514E+02 -0.17472603831E+04  0.20600144093E+04  0.46999998093E+01 0. -1.
       -5    1    3    3    0  502  0.10905127334E+04 -0.38735105514E+02  0.36733514498E+03  0.11513798803E+04  0.46999998093E+01 0.  1.
</event>
<event>
 5   0  0.4115143E-06  0.2892192E+04  0.7818609E-02  0.8275204E-01
       -2   -1    0    0    0  501  0.00000000000E+00  0.00000000000E+00  0.67566982003E+03  0.67566982004E+03  0.25500000920E-02 0. -1.
        2   -1    0    0  501    0  0.00000000000E+00  0.00000000000E+00 -0.30949931636E+04  0.30949931636E+04  0.25500000920E-02 0.  1.
    10030    2    1    2    0    0  0.00000000000E+00  0.00000000000E+00 -0.24193233436E+04  0.37706629837E+04  0.28921918843E+04 0.  0.
        1    1    3    3  502    0  0.10705412709E+04 -0.61049097551E+03 -0.22325967399E+03  0.12524387115E+04  0.50400001928E-02 0. -1.
       -1    1    3    3    0  502 -0.10705412709E+04  0.61049097551E+03 -0.21960636696E+04  0.25182242722E+04  0.50400001928E-02 0.  1.
</event>
<event>
 5   0  0.1550278E-06  0.2903507E+04  0.7818609E-02  0.8271835E-01
       -1   -1    0    0    0  501  0.00000000000E+00  0.00000000000E+00  0.16075507725E+04  0.16075507726E+04  0.50400001928E-02 0. -1.
        1   -1    0    0  501    0  0.00000000000E+00  0.00000000000E+00 -0.13110553672E+04  0.13110553672E+04  0.50400001928E-02 0.  1.
    10030    2    1    2    0    0  0.00000000000E+00  0.00000000000E+00  0.29649540538E+03  0.29186061397E+04  0.29035068923E+04 0.  0.
        2    1    3    3  502    0 -0.10068625849E+04 -0.10388618609E+04  0.26963095095E+03  0.14716341532E+04  0.25500000920E-02 0.  1.
       -2    1    3    3    0  502  0.10068625849E+04  0.10388618609E+04  0.26864454431E+02  0.14469719866E+04  0.25500000920E-02 0. -1.
</event>
<event>
 5   0  0.1580212E-06  0.2899025E+04  0.7818609E-02  0.8273168E-01
        1   -1    0    0  501    0  0.00000000000E+00  0.00000000000E+00  0.16658527001E+04  0.16658527001E+04  0.50400001928E-02 0.  1.
       -1   -1    0    0    0  501  0.00000000000E+00  0.00000000000E+00 -0.12612677512E+04  0.12612677512E+04  0.50400001928E-02 0. -1.
    10030    2    1    2    0    0  0.00000000000E+00  0.00000000000E+00  0.40458494888E+03  0.29271204513E+04  0.28990248628E+04 0.  0.
        4    1    3    3  502    0  0.57636002317E+03 -0.46222513649E+03 -0.10568869062E+04  0.12895171571E+04  0.12699999809E+01 0. -1.
       -4    1    3    3    0  502 -0.57636002317E+03  0.46222513649E+03  0.14614718550E+04  0.16376032942E+04  0.12699999809E+01 0.  1.
</event>
<event>
 5   0  0.1543678E-06  0.2872192E+04  0.7818609E-02  0.8281200E-01
        1   -1    0    0  501    0  0.00000000000E+00  0.00000000000E+00  0.14605538412E+04  0.14605538412E+04  0.50400001928E-02 0.  1.
       -1   -1    0    0    0  501  0.00000000000E+00  0.00000000000E+00 -0.14120474681E+04  0.14120474682E+04  0.50400001928E-02 0. -1.
    10030    2    1    2    0    0  0.00000000000E+00  0.00000000000E+00  0.48506373009E+02  0.28726013093E+04  0.28721917440E+04 0.  0.
        3    1    3    3  502    0  0.82804974373E+03  0.56626837788E+03 -0.10035338966E+04  0.14189455753E+04  0.10100000352E+00 0. -1.
       -3    1    3    3    0  502 -0.82804974373E+03 -0.56626837788E+03  0.10520402696E+04  0.14536557340E+04  0.10100000352E+00 0.  1.
</event>
<event>
 5   0  0.4115143E-06  0.2895884E+04  0.7818609E-02  0.8274103E-01
        2   -1    0    0  501    0  0.00000000000E+00  0.00000000000E+00  0.22757916824E+04  0.22757916824E+04  0.25500000920E-02 0.  1.
       -2   -1    0    0    0  501  0.00000000000E+00  0.00000000000E+00 -0.92123370669E+03  0.92123370670E+03  0.25500000920E-02 0. -1.
    10030    2    1    2    0    0  0.00000000000E+00  0.00000000000E+00  0.13545579757E+04  0.31970253891E+04  0.28958839806E+04 0.  0.
        1    1    3    3  502    0 -0.11237937174E+03  0.14263257148E+04  0.92290570019E+03  0.17025830668E+04  0.50400001928E-02 0.  1.
       -1    1    3    3    0  502  0.11237937174E+03 -0.14263257148E+04  0.43165227553E+03  0.14944423223E+04  0.50400001928E-02 0. -1.
</event>
<event>
 5   0  0.1580212E-06  0.2855143E+04  0.7818609E-02  0.8286350E-01
       -1   -1    0    0    0  501  0.00000000000E+00  0.00000000000E+00  0.10059503167E+04  0.10059503167E+04  0.50400001928E-02 0. -1.
        1   -1    0    0  501    0  0.00000000000E+00  0.00000000000E+00 -0.20259054273E+04  0.20259054273E+04  0.50400001928E-02 0.  1.
    10030    2    1    2    0    0  0.00000000000E+00  0.00000000000E+00 -0.10199551107E+04  0.30318557440E+04  0.28551428729E+04 0.  0.
        4    1    3    3  502    0  0.10446522276E+04 -0.95631418050E+03 -0.70030093913E+03  0.15799550964E+04  0.12699999809E+01 0.  1.
       -4    1    3    3    0  502 -0.10446522276E+04  0.95631418050E+03 -0.31965417152E+03  0.14519006476E+04  0.12699999809E+01 0. -1.
</event>
<event>
 5   0  0.1580212E-06  0.2863220E+04  0.7818609E-02  0.8283906E-01
       -1   -1    0    0    0  501  0.00000000000E+00  0.00000000000E+00  0.15266177525E+04  0.15266177525E+04  0.50400001928E-02 0.  1.
        1   -1    0    0  501    0  0.00000000000E+00  0.00000000000E+00 -0.13425148013E+04  0.13425148013E+04  0.50400001928E-02 0. -1.
    10030    2    1    2    0    0  0.00000000000E+00  0.00000000000E+00  0.18410295119E+03  0.28691325539E+04  0.28632198160E+04 0.  0.
        4    1    3    3  502    0 -0.27598564025E+03 -0.25801144234E+03 -0.12916575509E+04  0.13457781465E+04  0.12699999809E+01 0. -1.
       -4    1    3    3    0  502  0.27598564025E+03  0.25801144234E+03  0.14757605021E+04  0.15233544073E+04  0.12699999809E+01 0.  1.
</event>
<event>
 5   0  0.1511126E-06  0.2914466E+04  0.7818609E-02  0.8268586E-01
       -1   -1    0    0    0  501  0.00000000000E+00  0.00000000000E+00  0.22164514019E+04  0.22164514019E+04  0.50400001928E-02 0. -1.
        1   -1    0    0  501    0  0.00000000000E+00  0.00000000000E+00 -0.95807574338E+03  0.95807574339E+03  0.50400001928E-02 0.  1.
    10030    2    1    2    0    0  0.00000000000E+00  0.00000000000E+00  0.12583756585E+04  0.31745271453E+04  0.29144662115E+04 0.  0.
        5    1    3    3  502    0 -0.70266126173E+02 -0.83986087960E+03 -0.66567044282E+03  0.10739845688E+04  0.46999998093E+01 0.  1.
       -5    1    3    3    0  502  0.70266126173E+02  0.83986087960E+03  0.19240461013E+04  0.21005425765E+04  0.46999998093E+01 0. -1.
</event>
<event>
 5   0  0.4162450E-06  0.2904319E+04  0.7818609E-02  0.8271594E-01
        2   -1    0    0  501    0  0.00000000000E+00  0.00000000000E+00  0.27018004239E+04  0.27018004239E+04  0.25500000920E-02 0. -1.
       -2   -1    0    0    0  501  0.00000000000E+00  0.00000000000E+00 -0.78050425499E+03  0.78050425500E+03  0.25500000920E-02 0.  1.
    10030    2    1    2    0    0  0.00000000000E+00  0.00000000000E+00  0.19212961689E+04  0.34823046789E+04  0.29043186650E+04 0.  0.
        2    1    3    3  502    0 -0.29262624646E+03 -0.37489322441E+03  0.26057793935E+04  0.26488226248E+04  0.25500000920E-02 0. -1.
       -2    1    3    3    0  502  0.29262624646E+03  0.37489322441E+03 -0.68448322459E+03  0.83348205414E+03  0.25500000920E-02 0.  1.
</event>
<event>
 5   0  0.4224163E-06  0.2904770E+04  0.7818609E-02  0.8271460E-01
       -2   -1    0    0    0  501  0.00000000000E+00  0.00000000000E+00  0.26712041114E+04  0.26712041114E+04  0.25500000920E-02 0. -1.
        2   -1    0    0  501    0  0.00000000000E+00  0.00000000000E+00 -0.78968979670E+03  0.78968979670E+03  0.25500000920E-02 0.  1.
    10030    2    1    2    0    0  0.00000000000E+00  0.00000000000E+00  0.18815143147E+04  0.34608939081E+04  0.29047703053E+04 0.  0.
        4    1    3    3  502    0  0.91132496717E+03  0.11239162363E+04  0.10901412573E+04  0.18116595916E+04  0.12699999809E+01 0.  1.
       -4    1    3    3    0  502 -0.91132496717E+03 -0.11239162363E+04  0.79137305740E+03  0.16492343165E+04  0.12699999809E+01 0. -1.
</event>
<event>
 5   0  0.4148677E-06  0.2892250E+04  0.7818609E-02  0.8275187E-01
       -2   -1    0    0    0  501  0.00000000000E+00  0.00000000000E+00  0.85160940222E+03  0.85160940222E+03  0.25500000920E-02 0. -1.
        2   -1    0    0  501    0  0.00000000000E+00  0.00000000000E+00 -0.24556770179E+04  0.24556770179E+04  0.25500000920E-02 0.  1.
    10030    2    1    2    0    0  0.00000000000E+00  0.00000000000E+00 -0.16040676157E+04  0.33072864201E+04  0.28922500841E+04 0.  0.
        5    1    3    3  502    0 -0.14438133332E+04 -0.18570132965E+02 -0.89289530152E+03  0.16977119604E+04  0.46999998093E+01 0.  1.
       -5    1    3    3    0  502  0.14438133332E+04  0.18570132965E+02 -0.71117231413E+03  0.16095744597E+04  0.46999998093E+01 0. -1.
</event>
<event>
 5   0  0.4187518E-06  0.2899117E+04  0.7818609E-02  0.8273140E-01
        2   -1    0    0  501    0  0.00000000000E+00  0.00000000000E+00  0.16683857980E+04  0.16683857980E+04  0.25500000920E-02 0.  1.
       -2   -1    0    0    0  501  0.00000000000E+00  0.00000000000E+00 -0.12594328105E+04  0.12594328105E+04  0.25500000920E-02 0. -1.
    10030    2    1    2    0    0  0.00000000000E+00  0.00000000000E+00  0.40895298752E+03  0.29278186085E+04  0.28991169790E+04 0.  0.
        3    1    3    3  502    0  0.46406844511E+03 -0.42974624834E+03  0.15216814704E+04  0.16478943738E+04  0.10100000352E+00 0.  1.
       -3    1    3    3    0  502 -0.46406844511E+03  0.42974624834E+03 -0.11127284829E+04  0.12799242347E+04  0.10100000352E+00 0. -1.
</event>
<event>
 5   0  0.4148677E-06  0.2905786E+04  0.7818609E-02  0.8271158E-01
       -2   -1    0    0    0  501  0.00000000000E+00  0.00000000000E+00  0.11436512457E+04  0.11436512457E+04  0.25500000920E-02 0. -1.
        2   -1    0    0  501    0  0.00000000000E+00  0.00000000000E+00 -0.18457538174E+04  0.18457538174E+04  0.25500000920E-02 0.  1.
    10030    2    1    2    0    0  0.00000000000E+00  0.00000000000E+00 -0.70210257172E+03  0.29894050631E+04  0.29057864013E+04 0.  0.
        5    1    3    3  502    0 -0.11559046637E+04  0.76491172081E+03  0.96993657699E+02  0.13894730627E+04  0.46999998093E+01 0.  1.
       -5    1    3    3    0  502  0.11559046637E+04 -0.76491172081E+03 -0.79909622942E+03  0.15999320005E+04  0.46999998093E+01 0. -1.
</event>
<event>
 5   0  0.4162450E-06  0.2886731E+04  0.7818609E-02  0.8276836E-01
        2   -1    0    0  501    0  0.00000000000E+00  0.00000000000E+00  0.83905705492E+03  0.83905705493E+03  0.25500000920E-02 0.  1.
       -2   -1    0    0    0  501  0.00000000000E+00  0.00000000000E+00 -0.24829115656E+04  0.24829115656E+04  0.25500000920E-02 0. -1.
    10030    2    1    2    0    0  0.00000000000E+00  0.00000000000E+00 -0.16438545107E+04  0.33219686205E+04  0.28867313459E+04 0.  0.
        2    1    3    3  502    0  0.28381079155E+03  0.14120751358E+04 -0.71397707628E+03  0.16075658681E+04  0.25500000920E-02 0. -1.
       -2    1    3    3    0  502 -0.28381079155E+03 -0.14120751358E+04 -0.92987743439E+03  0.17144027525E+04  0.25500000920E-02 0.  1.
</event>
<event>
 5   0  0.1602873E-06  0.2909065E+04  0.7818609E-02  0.8270186E-01
       -1   -1    0    0    0  501  0.00000000000E+00  0.00000000000E+00  0.20957249819E+04  0.20957249819E+04  0.50400001928E-02 0. -1.
        1   -1    0    0  501    0  0.00000000000E+00  0.00000000000E+00 -0.10095143327E+04  0.10095143327E+04  0.50400001928E-02 0.  1.
    10030    2    1    2    0    0  0.00000000000E+00  0.00000000000E+00  0.10862106493E+04  0.31052393146E+04  0.29090647340E+04 0.  0.
        1    1    3    3  502    0  0.11780655537E+04 -0.34271311901E+03 -0.29084385932E+03  0.12609047868E+04  0.50400001928E-02 0. -1.
       -1    1    3    3    0  502 -0.11780655537E+04  0.34271311901E+03  0.13770545086E+04  0.18443345278E+04  0.50400001928E-02 0.  1.
</event>
<event>
 5   0  0.1580212E-06  0.2903992E+04  0.7818609E-02  0.8271691E-01
        1   -1    0    0  501    0  0.00000000000E+00  0.00000000000E+00  0.16522965727E+04  0.16522965727E+04  0.50400001928E-02 0.  1.
       -1   -1    0    0    0  501  0.00000000000E+00  0.00000000000E+00 -0.12759766626E+04  0.12759766626E+04  0.50400001928E-02 0. -1.
    10030    2    1    2    0    0  0.00000000000E+00  0.00000000000E+00  0.37631991007E+03  0.29282732353E+04  0.29039916435E+04 0.  0.
        4    1    3    3  502    0 -0.58810776578E+03 -0.13481919100E+03 -0.11435810337E+04  0.12929911647E+04  0.12699999809E+01 0. -1.
       -4    1    3    3    0  502  0.58810776578E+03  0.13481919100E+03  0.15199009438E+04  0.16352820706E+04  0.12699999809E+01 0.  1.
</event>
<event>
 5   0  0.4224163E-06  0.2900908E+04  0.7818609E-02  0.8272607E-01
        2   -1    0    0  501    0  0.00000000000E+00  0.00000000000E+00  0.12356790181E+04  0.12356790181E+04  0.25500000920E-02 0. -1.
       -2   -1    0    0    0  501  0.00000000000E+00  0.00000000000E+00 -0.17025591981E+04  0.17025591981E+04  0.25500000920E-02 0.  1.
    10030    2    1    2    0    0  0.00000000000E+00  0.00000000000E+00 -0.46688017998E+03  0.29382382162E+04  0.29009079118E+04 0.  0.
        4    1    3    3  502    0 -0.85258550162E+03 -0.90285148693E+03 -0.99259986830E+03  0.15897480796E+04  0.12699999809E+01 0. -1.
       -4    1    3    3    0  502  0.85258550162E+03  0.90285148693E+03  0.52571968833E+03  0.13484901366E+04  0.12699999809E+01 0.  1.
</event>
<event>
 5   0  0.4224163E-06  0.2896200E+04  0.7818609E-02  0.8274009E-01
       -2   -1    0    0    0  501  0.00000000000E+00  0.00000000000E+00  0.10937421053E+04  0.10937421053E+04  0.25500000920E-02 0. -1.
        2   -1    0    0  501    0  0.00000000000E+00  0.00000000000E+00 -0.19172648720E+04  0.19172648720E+04  0.25500000920E-02 0.  1.
    10030    2    1    2    0    0  0.00000000000E+00  0.00000000000E+00 -0.82352276672E+03  0.30110069774E+04  0.28961997981E+04 0.  0.
        4    1    3    3  502    0 -0.55712291533E+02  0.55787291177E+03 -0.17998531947E+04  0.18851522964E+04  0.12699999809E+01 0.  1.
       -4    1    3    3    0  502  0.55712291533E+02 -0.55787291177E+03  0.97633042802E+03  0.11258546810E+04  0.12699999809E+01 0. -1.
</event>
<event>
 5   0  0.1550278E-06  0.2900679E+04  0.7818609E-02  0.8272676E-01
        1   -1    0    0  501    0  0.00000000000E+00  0.00000000000E+00  0.20210949427E+04  0.20210949427E+04  0.50400001928E-02 0.  1.
       -1   -1    0    0    0  501  0.00000000000E+00  0.00000000000E+00 -0.10407647070E+04  0.10407647070E+04  0.50400001928E-02 0. -1.
    10030    2    1    2    0    0  0.00000000000E+00  0.00000000000E+00  0.98033023570E+03  0.30618596498E+04  0.29006787385E+04 0.  0.
        2    1    3    3  502    0 -0.14446379690E+03 -0.14344845547E+04  0.32370470591E+03  0.14776333993E+04  0.25500000920E-02 0.  1.
       -2    1    3    3    0  502  0.14446379690E+03  0.14344845547E+04  0.65662552979E+03  0.15842262504E+04  0.25500000920E-02 0. -1.
</event>
<event>
 5   0  0.1550278E-06  0.2906067E+04  0.7818609E-02  0.8271075E-01
       -1   -1    0    0    0  501  0.00000000000E+00  0.00000000000E+00  0.13597507429E+04  0.13597507429E+04  0.50400001928E-02 0. -1.
        1   -1    0    0  501    0  0.00000000000E+00  0.00000000000E+00 -0.15527157614E+04  0.15527157614E+04  0.50400001928E-02 0.  1.
    10030    2    1    2    0    0  0.00000000000E+00  0.00000000000E+00 -0.19296501850E+03  0.29124665044E+04  0.29060670400E+04 0.  0.
        2    1    3    3  502    0  0.89366670011E+03  0.10242800942E+04  0.41798652566E+03  0.14221471857E+04  0.25500000920E-02 0. -1.
       -2    1    3    3    0  502 -0.89366670011E+03 -0.10242800942E+04 -0.61095154415E+03  0.14903193187E+04  0.25500000920E-02 0.  1.
</event>
<event>
 5   0  0.4162450E-06  0.2890036E+04  0.7818609E-02  0.8275848E-01
       -2   -1    0    0    0  501  0.00000000000E+00  0.00000000000E+00  0.10428208505E+04  0.10428208505E+04  0.25500000920E-02 0. -1.
        2   -1    0    0  501    0  0.00000000000E+00  0.00000000000E+00 -0.20023346398E+04  0.20023346398E+04  0.25500000920E-02 0.  1.
    10030    2    1    2    0    0  0.00000000000E+00  0.00000000000E+00 -0.95951378924E+03  0.30451554903E+04  0.28900355099E+04 0.  0.
        2    1    3    3  502    0  0.67579853137E+03 -0.11138753339E+04 -0.11383279709E+04  0.17300903109E+04  0.25500000920E-02 0.  1.
       -2    1    3    3    0  502 -0.67579853137E+03  0.11138753339E+04  0.17881418167E+03  0.13150651794E+04  0.25500000920E-02 0. -1.
</event>
<event>
 5   0  0.4187518E-06  0.2848225E+04  0.7818609E-02  0.8288451E-01
        2   -1    0    0  501    0  0.00000000000E+00  0.00000000000E+00  0.14929557491E+04  0.14929557491E+04  0.25500000920E-02 0. -1.
       -2   -1    0    0    0  501  0.00000000000E+00  0.00000000000E+00 -0.13584440668E+04  0.13584440668E+04  0.25500000920E-02 0.  1.
    10030    2    1    2    0    0  0.00000000000E+00  0.00000000000E+00  0.13451168229E+03  0.28513998159E+04  0.28482253277E+04 0.  0.
        3    1    3    3  502    0 -0.11445597657E+04 -0.68780374537E+03 -0.42827646482E+03  0.14023237108E+04  0.10100000352E+00 0.  1.
       -3    1    3    3    0  502  0.11445597657E+04  0.68780374537E+03  0.56278814711E+03  0.14490761050E+04  0.10100000352E+00 0. -1.
</event>
<event>
 5   0  0.4162450E-06  0.2850026E+04  0.7818609E-02  0.8287903E-01
        2   -1    0    0  501    0  0.00000000000E+00  0.00000000000E+00  0.14649451640E+04  0.14649451640E+04  0.25500000920E-02 0. -1.
       -2   -1    0    0    0  501  0.00000000000E+00  0.00000000000E+00 -0.13861695634E+04  0.13861695634E+04  0.25500000920E-02 0.  1.
    10030    2    1    2    0    0  0.00000000000E+00  0.00000000000E+00  0.78775600667E+02  0.28511147274E+04  0.28500262444E+04 0.  0.
        2    1    3    3  502    0 -0.29698057006E+03 -0.13370724574E+04 -0.35408440114E+03  0.14146858233E+04  0.25500000920E-02 0.  1.
       -2    1    3    3    0  502  0.29698057006E+03  0.13370724574E+04  0.43286000181E+03  0.14364289041E+04  0.25500000920E-02 0. -1.
</event>
<event>
 5   0  0.4115143E-06  0.2933546E+04  0.7818609E-02  0.8262966E-01
        2   -1    0    0  501    0  0.00000000000E+00  0.00000000000E+00  0.23563566525E+04  0.23563566525E+04  0.25500000920E-02 0. -1.
       -2   -1    0    0    0  501  0.00000000000E+00  0.00000000000E+00 -0.91302926552E+03  0.91302926552E+03  0.25500000920E-02 0.  1.
    10030    2    1    2    0    0  0.00000000000E+00  0.00000000000E+00  0.14433273870E+04  0.32693859180E+04  0.29335456933E+04 0.  0.
        1    1    3    3  502    0 -0.11917052486E+04 -0.38298079418E+03  0.15737780223E+04  0.20108736787E+04  0.50400001928E-02 0. -1.
       -1    1    3    3    0  502  0.11917052486E+04  0.38298079418E+03 -0.13045063536E+03  0.12585122393E+04  0.50400001928E-02 0.  1.
</event>
<event>
 5   0  0.1511126E-06  0.2932855E+04  0.7818609E-02  0.8263169E-01
        1   -1    0    0  501    0  0.00000000000E+00  0.00000000000E+00  0.17230786106E+04  0.17230786106E+04  0.50400001928E-02 0. -1.
       -1   -1    0    0    0  501  0.00000000000E+00  0.00000000000E+00 -0.12480047654E+04  0.12480047654E+04  0.50400001928E-02 0.  1.
    10030    2    1    2    0    0  0.00000000000E+00  0.00000000000E+00  0.47507384524E+03  0.29710833760E+04  0.29328554804E+04 0.  0.
        5    1    3    3  502    0  0.57163192031E+03 -0.87906072535E+03 -0.80094802410E+03  0.13194887792E+04  0.46999998093E+01 0.  1.
       -5    1    3    3    0  502 -0.57163192031E+03  0.87906072535E+03  0.12760218693E+04  0.16515945968E+04  0.46999998093E+01 0. -1.
</event>
<event>
 5   0  0.4148677E-06  0.2902823E+04  0.7818609E-02  0.8272038E-01
       -2   -1    0    0    0  501  0.00000000000E+00  0.00000000000E+00  0.12059886819E+04  0.12059886819E+04  0.25500000920E-02 0. -1.
        2   -1    0    0  501    0  0.00000000000E+00  0.00000000000E+00 -0.17467791434E+04  0.17467791434E+04  0.25500000920E-02 0.  1.
    10030    2    1    2    0    0  0.00000000000E+00  0.00000000000E+00 -0.54079046156E+03  0.29527678253E+04  0.29028233682E+04 0.  0.
        5    1    3    3  502    0 -0.11058675553E+04  0.42389650250E+03 -0.11238436534E+04  0.16326903999E+04  0.46999998093E+01 0.  1.
       -5    1    3    3    0  502  0.11058675553E+04 -0.42389650250E+03  0.58305319182E+03  0.13200774254E+04  0.46999998093E+01 0. -1.
</event>
<event>
 5   0  0.4224163E-06  0.2929562E+04  0.7818609E-02  0.8264136E-01
       -2   -1    0    0    0  501  0.00000000000E+00  0.00000000000E+00  0.14375551464E+04  0.14375551464E+04  0.25500000920E-02 0. -1.
        2   -1    0    0  501    0  0.00000000000E+00  0.00000000000E+00 -0.14925224565E+04  0.14925224565E+04  0.25500000920E-02 0.  1.
    10030    2    1    2    0    0  0.00000000000E+00  0.00000000000E+00 -0.54967310169E+02  0.29300776029E+04  0.29295619730E+04 0.  0.
        4    1    3    3  502    0 -0.70586942915E+02  0.64022794973E+03 -0.13432787288E+04  0.14897226924E+04  0.12699999809E+01 0.  1.
       -4    1    3    3    0  502  0.70586942915E+02 -0.64022794973E+03  0.12883114186E+04  0.14403549105E+04  0.12699999809E+01 0. -1.
</event>
<event>
 5   0  0.4162450E-06  0.2866169E+04  0.7818609E-02  0.8283015E-01
       -2   -1    0    0    0  501  0.00000000000E+00  0.00000000000E+00  0.13129390529E+04  0.13129390529E+04  0.25500000920E-02 0. -1.
        2   -1    0    0  501    0  0.00000000000E+00  0.00000000000E+00 -0.15642243926E+04  0.15642243926E+04  0.25500000920E-02 0.  1.
    10030    2    1    2    0    0  0.00000000000E+00  0.00000000000E+00 -0.25128533973E+03  0.28771634455E+04  0.28661690756E+04 0.  0.
        2    1    3    3  502    0  0.10787843529E+04 -0.70109161868E+03  0.50798866766E+03  0.13832417086E+04  0.25500000920E-02 0. -1.
       -2    1    3    3    0  502 -0.10787843529E+04  0.70109161868E+03 -0.75927400740E+03  0.14939217369E+04  0.25500000920E-02 0.  1.
</event>
<event>
 5   0  0.1511126E-06  0.2910804E+04  0.7818609E-02  0.8269670E-01
       -1   -1    0    0    0  501  0.00000000000E+00  0.00000000000E+00  0.13814055927E+04  0.13814055927E+04  0.50400001928E-02 0.  1.
        1   -1    0    0  501    0  0.00000000000E+00  0.00000000000E+00 -0.15333622461E+04  0.15333622461E+04  0.50400001928E-02 0. -1.
    10030    2    1    2    0    0  0.00000000000E+00  0.00000000000E+00 -0.15195665338E+03  0.29147678389E+04  0.29108041380E+04 0.  0.
        5    1    3    3  502    0  0.67108279825E+03 -0.12590218298E+04  0.21196323593E+03  0.14423725571E+04  0.46999998093E+01 0.  1.
       -5    1    3    3    0  502 -0.67108279825E+03  0.12590218298E+04 -0.36391988931E+03  0.14723952818E+04  0.46999998093E+01 0. -1.
</event>
<event>
 5   0  0.1511126E-06  0.2890801E+04  0.7818609E-02  0.8275620E-01
        1   -1    0    0  501    0  0.00000000000E+00  0.00000000000E+00  0.12148263186E+04  0.12148263186E+04  0.50400001928E-02 0.  1.
       -1   -1    0    0    0  501  0.00000000000E+00  0.00000000000E+00 -0.17197379461E+04  0.17197379461E+04  0.50400001928E-02 0. -1.
    10030    2    1    2    0    0  0.00000000000E+00  0.00000000000E+00 -0.50491162759E+03  0.29345642647E+04  0.28908012163E+04 0.  0.
        5    1    3    3  502    0  0.10306296329E+04 -0.51087477120E+03  0.63599088297E+03  0.13144188698E+04  0.46999998093E+01 0.  1.
       -5    1    3    3    0  502 -0.10306296329E+04  0.51087477120E+03 -0.11409025106E+04  0.16201453949E+04  0.46999998093E+01 0. -1.
</event>
<event>
 5   0  0.4115143E-06  0.2905523E+04  0.7818609E-02  0.8271236E-01
       -2   -1    0    0    0  501  0.00000000000E+00  0.00000000000E+00  0.13192789905E+04  0.13192789905E+04  0.25500000920E-02 0.  1.
        2   -1    0    0  501    0  0.00000000000E+00  0.00000000000E+00 -0.15997497881E+04  0.15997497881E+04  0.25500000920E-02 0. -1.
    10030    2    1    2    0    0  0.00000000000E+00  0.00000000000E+00 -0.28047079762E+03  0.29190287786E+04  0.29055232131E+04 0.  0.
        1    1    3    3  502    0  0.79058804735E+03  0.87982925380E+03 -0.98759369104E+03  0.15409316257E+04  0.50400001928E-02 0. -1.
       -1    1    3    3    0  502 -0.79058804735E+03 -0.87982925380E+03  0.70712289342E+03  0.13780971529E+04  0.50400001928E-02 0.  1.
</event>
<event>
 5   0  0.4148677E-06  0.2898823E+04  0.7818609E-02  0.8273228E-01
       -2   -1    0    0    0  501  0.00000000000E+00  0.00000000000E+00  0.13186110725E+04  0.13186110725E+04  0.25500000920E-02 0. -1.
        2   -1    0    0  501    0  0.00000000000E+00  0.00000000000E+00 -0.15931872431E+04  0.15931872432E+04  0.25500000920E-02 0.  1.
    10030    2    1    2    0    0  0.00000000000E+00  0.00000000000E+00 -0.27457617063E+03  0.29117983157E+04  0.28988234437E+04 0.  0.
        5    1    3    3  502    0  0.75137214528E+03  0.12303283548E+04  0.13397657769E+02  0.14416898240E+04  0.46999998093E+01 0.  1.
       -5    1    3    3    0  502 -0.75137214528E+03 -0.12303283548E+04 -0.28797382840E+03  0.14701084917E+04  0.46999998093E+01 0. -1.
</event>
<event>
 5   0  0.4148677E-06  0.2885050E+04  0.7818609E-02  0.8277340E-01
       -2   -1    0    0    0  501  0.00000000000E+00  0.00000000000E+00  0.73304161386E+03  0.73304161387E+03  0.25500000920E-02 0. -1.
        2   -1    0    0  501    0  0.00000000000E+00  0.00000000000E+00 -0.28386897392E+04  0.28386897392E+04  0.25500000920E-02 0.  1.
    10030    2    1    2    0    0  0.00000000000E+00  0.00000000000E+00 -0.21056481253E+04  0.35717313530E+04  0.28850495370E+04 0.  0.
        5    1    3    3  502    0  0.13201866359E+03 -0.15346126201E+03  0.71535983402E+03  0.74346557998E+03  0.46999998093E+01 0. -1.
       -5    1    3    3    0  502 -0.13201866359E+03  0.15346126201E+03 -0.28210079593E+04  0.28282657731E+04  0.46999998093E+01 0.  1.
</event>
<event>
 5   0  0.1580212E-06  0.2888412E+04  0.7818609E-02  0.8276334E-01
       -1   -1    0    0    0  501  0.00000000000E+00  0.00000000000E+00  0.14344943595E+04  0.14344943595E+04  0.50400001928E-02 0. -1.
        1   -1    0    0  501    0  0.00000000000E+00  0.00000000000E+00 -0.14539835172E+04  0.14539835172E+04  0.50400001928E-02 0.  1.
    10030    2    1    2    0    0  0.00000000000E+00  0.00000000000E+00 -0.19489157686E+02  0.28884778767E+04  0.28884121273E+04 0.  0.
        4    1    3    3  502    0 -0.14308364992E+03 -0.94515182367E+03  0.10728439836E+04  0.14369344894E+04  0.12699999809E+01 0. -1.
       -4    1    3    3    0  502  0.14308364992E+03  0.94515182367E+03 -0.10923331413E+04  0.14515433873E+04  0.12699999809E+01 0.  1.
</event>
<event>
 5   0  0.1580212E-06  0.2749296E+04  0.7818609E-02  0.8319185E-01
       -1   -1    0    0    0  501  0.00000000000E+00  0.00000000000E+00  0.13420813164E+04  0.13420813164E+04  0.50400001928E-02 0.  1.
        1   -1    0    0  501    0  0.00000000000E+00  0.00000000000E+00 -0.14080048396E+04  0.14080048396E+04  0.50400001928E-02 0. -1.
    10030    2    1    2    0    0  0.00000000000E+00  0.00000000000E+00 -0.65923523246E+02  0.27500861561E+04  0.27492959016E+04 0.  0.
        4    1    3    3  502    0 -0.93058632978E+02  0.13442462528E+04 -0.30506472777E+03  0.13815657778E+04  0.12699999809E+01 0. -1.
       -4    1    3    3    0  502  0.93058632978E+02 -0.13442462528E+04  0.23914120452E+03  0.13685203783E+04  0.12699999809E+01 0.  1.
</event>
<event>
 5   0  0.1550278E-06  0.2901407E+04  0.7818609E-02  0.8272459E-01
        1   -1    0    0  501    0  0.00000000000E+00  0.00000000000E+00  0.16799123437E+04  0.16799123438E+04  0.50400001928E-02 0. -1.
       -1   -1    0    0    0  501  0.00000000000E+00  0.00000000000E+00 -0.12527677638E+04  0.12527677638E+04  0.50400001928E-02 0.  1.
    10030    2    1    2    0    0  0.00000000000E+00  0.00000000000E+00  0.42714457996E+03  0.29326801076E+04  0.29014065763E+04 0.  0.
        2    1    3    3  502    0  0.64335524739E+03  0.12994300298E+04  0.26006430530E+03  0.14731116114E+04  0.25500000920E-02 0.  1.
       -2    1    3    3    0  502 -0.64335524739E+03 -0.12994300298E+04  0.16708027466E+03  0.14595684962E+04  0.25500000920E-02 0. -1.
</event>
<event>
 5   0  0.4115143E-06  0.2896448E+04  0.7818609E-02  0.8273935E-01
       -2   -1    0    0    0  501  0.00000000000E+00  0.00000000000E+00  0.83714475850E+03  0.83714475851E+03  0.25500000920E-02 0.  1.
        2   -1    0    0  501    0  0.00000000000E+00  0.00000000000E+00 -0.25053644516E+04  0.25053644516E+04  0.25500000920E-02 0. -1.
    10030    2    1    2    0    0  0.00000000000E+00  0.00000000000E+00 -0.16682196931E+04  0.33425092102E+04  0.28964479756E+04 0.  0.
        1    1    3    3  502    0 -0.12646567067E+04 -0.67640810027E+03 -0.60196240390E+03  0.15553916676E+04  0.50400001928E-02 0. -1.
       -1    1    3    3    0  502  0.12646567067E+04  0.67640810027E+03 -0.10662572892E+04  0.17871175425E+04  0.50400001928E-02 0.  1.
</event>
<event>
 5   0  0.4148677E-06  0.2905997E+04  0.7818609E-02  0.8271095E-01
        2   -1    0    0  501    0  0.00000000000E+00  0.00000000000E+00  0.16375144284E+04  0.16375144284E+04  0.25500000920E-02 0. -1.
       -2   -1    0    0    0  501  0.00000000000E+00  0.00000000000E+00 -0.12892739665E+04  0.12892739665E+04  0.25500000920E-02 0.  1.
    10030    2    1    2    0    0  0.00000000000E+00  0.00000000000E+00  0.34824046187E+03  0.29267883949E+04  0.29059970560E+04 0.  0.
        5    1    3    3  502    0 -0.44612762356E+03 -0.70235603720E+03 -0.10255564268E+04  0.13206520866E+04  0.46999998093E+01 0.  1.
       -5    1    3    3    0  502  0.44612762356E+03  0.70235603720E+03  0.13737968886E+04  0.16061363083E+04  0.46999998093E+01 0. -1.
</event>
<event>
 5   0  0.4187518E-06  0.2959383E+04  0.7818609E-02  0.8255425E-01
       -2   -1    0    0    0  501  0.00000000000E+00  0.00000000000E+00  0.13305973803E+04  0.13305973803E+04  0.25500000920E-02 0. -1.
        2   -1    0    0  501    0  0.00000000000E+00  0.00000000000E+00 -0.16454920927E+04  0.16454920927E+04  0.25500000920E-02 0.  1.
    10030    2    1    2    0    0  0.00000000000E+00  0.00000000000E+00 -0.31489471236E+03  0.29760894730E+04  0.29593833600E+04 0.  0.
        3    1    3    3  502    0 -0.96909601854E+03 -0.11127710600E+04 -0.46913586007E+02  0.14763493557E+04  0.10100000352E+00 0. -1.
       -3    1    3    3    0  502  0.96909601854E+03  0.11127710600E+04 -0.26798112635E+03  0.14997401173E+04  0.10100000352E+00 0.  1.
</event>
<event>
 5   0  0.1602873E-06  0.2920054E+04  0.7818609E-02  0.8266936E-01
        1   -1    0    0  501    0  0.00000000000E+00  0.00000000000E+00  0.15333450025E+04  0.15333450025E+04  0.50400001928E-02 0. -1.
       -1   -1    0    0    0  501  0.00000000000E+00  0.00000000000E+00 -0.13902150966E+04  0.13902150966E+04  0.50400001928E-02 0.  1.
    10030    2    1    2    0    0  0.00000000000E+00  0.00000000000E+00  0.14312990590E+03  0.29235600991E+04  0.29200543630E+04 0.  0.
        1    1    3    3  502    0  0.47328358096E+03 -0.12338864029E+04 -0.54983013779E+03  0.14313581605E+04  0.50400001928E-02 0.  1.
       -1    1    3    3    0  502 -0.47328358096E+03  0.12338864029E+04  0.69296004369E+03  0.14922019385E+04  0.50400001928E-02 0. -1.
</event>
<event>
 5   0  0.4115143E-06  0.2901489E+04  0.7818609E-02  0.8272435E-01
        2   -1    0    0  501    0  0.00000000000E+00  0.00000000000E+00  0.28083935228E+04  0.28083935228E+04  0.25500000920E-02 0.  1.
       -2   -1    0    0    0  501  0.00000000000E+00  0.00000000000E+00 -0.74941772400E+03  0.74941772400E+03  0.25500000920E-02 0. -1.
    10030    2    1    2    0    0  0.00000000000E+00  0.00000000000E+00  0.20589757988E+04  0.35578112468E+04  0.29014891914E+04 0.  0.
        1    1    3    3  502    0  0.45563955774E+03 -0.12428202380E+04  0.30152221398E+03  0.13576174705E+04  0.50400001928E-02 0. -1.
       -1    1    3    3    0  502 -0.45563955774E+03  0.12428202380E+04  0.17574535848E+04  0.22001937763E+04  0.50400001928E-02 0.  1.
</event>
<event>
 5   0  0.1580212E-06  0.2896271E+04  0.7818609E-02  0.8273988E-01
        1   -1    0    0  501    0  0.00000000000E+00  0.00000000000E+00  0.15901399252E+04  0.15901399252E+04  0.50400001928E-02 0.  1.
       -1   -1    0    0    0  501  0.00000000000E+00  0.00000000000E+00 -0.13188124729E+04  0.13188124729E+04  0.50400001928E-02 0. -1.
    10030    2    1    2    0    0  0.00000000000E+00  0.00000000000E+00  0.27132745224E+03  0.29089523981E+04  0.28962709590E+04 0.  0.
        4    1    3    3  502    0  0.24353735414E+03 -0.13090409708E+04 -0.43621149992E+03  0.14011355365E+04  0.12699999809E+01 0. -1.
       -4    1    3    3    0  502 -0.24353735414E+03  0.13090409708E+04  0.70753895216E+03  0.15078168615E+04  0.12699999809E+01 0.  1.
</event>
<event>
 5   0  0.4187518E-06  0.2894742E+04  0.7818609E-02  0.8274444E-01
        2   -1    0    0  501    0  0.00000000000E+00  0.00000000000E+00  0.93785293612E+03  0.93785293612E+03  0.25500000920E-02 0. -1.
       -2   -1    0    0    0  501  0.00000000000E+00  0.00000000000E+00 -0.22337005703E+04  0.22337005703E+04  0.25500000920E-02 0.  1.
    10030    2    1    2    0    0  0.00000000000E+00  0.00000000000E+00 -0.12958476342E+04  0.31715535064E+04  0.28947418802E+04 0.  0.
        3    1    3    3  502    0 -0.14326426508E+03  0.91974396648E+02 -0.22226922780E+04  0.22292027526E+04  0.10100000352E+00 0.  1.
       -3    1    3    3    0  502  0.14326426508E+03 -0.91974396648E+02  0.92684464381E+03  0.94235075383E+03  0.10100000352E+00 0. -1.
</event>
<event>
 5   0  0.4224163E-06  0.2903115E+04  0.7818609E-02  0.8271951E-01
       -2   -1    0    0    0  501  0.00000000000E+00  0.00000000000E+00  0.10861037500E+04  0.10861037500E+04  0.25500000920E-02 0. -1.
        2   -1    0    0  501    0  0.00000000000E+00  0.00000000000E+00 -0.19399798706E+04  0.19399798706E+04  0.25500000920E-02 0.  1.
    10030    2    1    2    0    0  0.00000000000E+00  0.00000000000E+00 -0.85387612058E+03  0.30260836206E+04  0.29031151629E+04 0.  0.
        4    1    3    3  502    0 -0.28909837785E+03 -0.13454004617E+04 -0.90838705791E+03  0.16488932453E+04  0.12699999809E+01 0.  1.
       -4    1    3    3    0  502  0.28909837785E+03  0.13454004617E+04  0.54510937332E+02  0.13771903753E+04  0.12699999809E+01 0. -1.
</event>
<event>
 5   0  0.1543678E-06  0.2913297E+04  0.7818609E-02  0.8268932E-01
        1   -1    0    0  501    0  0.00000000000E+00  0.00000000000E+00  0.13078477664E+04  0.13078477664E+04  0.50400001928E-02 0.  1.
       -1   -1    0    0    0  501  0.00000000000E+00  0.00000000000E+00 -0.16223788347E+04  0.16223788347E+04  0.50400001928E-02 0. -1.
    10030    2    1    2    0    0  0.00000000000E+00  0.00000000000E+00 -0.31453106832E+03  0.29302266012E+04  0.29132967822E+04 0.  0.
        3    1    3    3  502    0  0.90414309290E+03 -0.11706936167E+01 -0.13059831631E+04  0.15884168645E+04  0.10100000352E+00 0. -1.
       -3    1    3    3    0  502 -0.90414309290E+03  0.11706936167E+01  0.99145209478E+03  0.13418097367E+04  0.10100000352E+00 0.  1.
</event>
<event>
 5   0  0.4115143E-06  0.2903367E+04  0.7818609E-02  0.8271876E-01
        2   -1    0    0  501    0  0.00000000000E+00  0.00000000000E+00  0.14787325622E+04  0.14787325622E+04  0.25500000920E-02 0. -1.
       -2   -1    0    0    0  501  0.00000000000E+00  0.00000000000E+00 -0.14251292848E+04  0.14251292848E+04  0.25500000920E-02 0.  1.
    10030    2    1    2    0    0  0.00000000000E+00  0.00000000000E+00  0.53603277332E+02  0.29038618470E+04  0.29033670652E+04 0.  0.
        1    1    3    3  502    0  0.12959641993E+04  0.64257825680E+03 -0.95510071127E+02  0.14496731341E+04  0.50400001928E-02 0.  1.
       -1    1    3    3    0  502 -0.12959641993E+04 -0.64257825680E+03  0.14911334846E+03  0.14541887129E+04  0.50400001928E-02 0. -1.
</event>
<event>
 5   0  0.1511126E-06  0.2974503E+04  0.7818609E-02  0.8251050E-01
       -1   -1    0    0    0  501  0.00000000000E+00  0.00000000000E+00  0.11508594579E+04  0.11508594579E+04  0.50400001928E-02 0. -1.
        1   -1    0    0  501    0  0.00000000000E+00  0.00000000000E+00 -0.19219691643E+04  0.19219691643E+04  0.50400001928E-02 0.  1.
    10030    2    1    2    0    0  0.00000000000E+00  0.00000000000E+00 -0.77110970642E+03  0.30728286222E+04  0.29745025739E+04 0.  0.
        5    1    3    3  502    0 -0.13652258057E+04 -0.42799816785E+03 -0.80501943304E+03  0.16416766764E+04  0.46999998093E+01 0.  1.
       -5    1    3    3    0  502  0.13652258057E+04  0.42799816785E+03  0.33909726619E+02  0.14311519458E+04  0.46999998093E+01 0. -1.
</event>
<event>
 5   0  0.1511126E-06  0.2868213E+04  0.7818609E-02  0.8282398E-01
        1   -1    0    0  501    0  0.00000000000E+00  0.00000000000E+00  0.12087668362E+04  0.12087668362E+04  0.50400001928E-02 0. -1.
       -1   -1    0    0    0  501  0.00000000000E+00  0.00000000000E+00 -0.17014547645E+04  0.17014547645E+04  0.50400001928E-02 0.  1.
    10030    2    1    2    0    0  0.00000000000E+00  0.00000000000E+00 -0.49268792832E+03  0.29102216006E+04  0.28682134457E+04 0.  0.
        5    1    3    3  502    0 -0.66103236298E+03 -0.11790910143E+04 -0.73233783902E+03  0.15373874611E+04  0.46999998093E+01 0. -1.
       -5    1    3    3    0  502  0.66103236298E+03  0.11790910143E+04  0.23964991071E+03  0.13728341396E+04  0.46999998093E+01 0.  1.
</event>
<event>
 5   0  0.1602873E-06  0.2953551E+04  0.7818609E-02  0.8257120E-01
       -1   -1    0    0    0  501  0.00000000000E+00  0.00000000000E+00  0.12108910365E+04  0.12108910365E+04  0.50400001928E-02 0. -1.
        1   -1    0    0  501    0  0.00000000000E+00  0.00000000000E+00 -0.18010426539E+04  0.18010426539E+04  0.50400001928E-02 0.  1.
    10030    2    1    2    0    0  0.00000000000E+00  0.00000000000E+00 -0.59015161740E+03  0.30119336903E+04  0.29535513579E+04 0.  0.
        1    1    3    3  502    0  0.56448037540E+03 -0.59553174097E+03  0.95702604844E+03  0.12606327800E+04  0.50400001928E-02 0. -1.
       -1    1    3    3    0  502 -0.56448037540E+03  0.59553174097E+03 -0.15471776658E+04  0.17513009103E+04  0.50400001928E-02 0.  1.
</event>
<event>
 5   0  0.1543678E-06  0.2891121E+04  0.7818609E-02  0.8275524E-01
       -1   -1    0    0    0  501  0.00000000000E+00  0.00000000000E+00  0.18378270558E+04  0.18378270558E+04  0.50400001928E-02 0.  1.
        1   -1    0    0  501    0  0.00000000000E+00  0.00000000000E+00 -0.11370194644E+04  0.11370194644E+04  0.50400001928E-02 0. -1.
    10030    2    1    2    0    0  0.00000000000E+00  0.00000000000E+00  0.70080759137E+03  0.29748465202E+04  0.28911209831E+04 0.  0.
        3    1    3    3  502    0 -0.10677551052E+03  0.11148625932E+04  0.12908331392E+04  0.17089674704E+04  0.10100000352E+00 0.  1.
       -3    1    3    3    0  502  0.10677551052E+03 -0.11148625932E+04 -0.59002554784E+03  0.12658790498E+04  0.10100000352E+00 0. -1.
</event>
<event>
 5   0  0.1543678E-06  0.2911519E+04  0.7818609E-02  0.8269459E-01
        1   -1    0    0  501    0  0.00000000000E+00  0.00000000000E+00  0.10356252708E+04  0.10356252708E+04  0.50400001928E-02 0. -1.
       -1   -1    0    0    0  501  0.00000000000E+00  0.00000000000E+00 -0.20463340905E+04  0.20463340905E+04  0.50400001928E-02 0.  1.
    10030    2    1    2    0    0  0.00000000000E+00  0.00000000000E+00 -0.10107088198E+04  0.30819593613E+04  0.29115187079E+04 0.  0.
        3    1    3    3  502    0  0.77024819235E+03  0.80551913806E+03 -0.14967109581E+04  0.18660887069E+04  0.10100000352E+00 0.  1.
       -3    1    3    3    0  502 -0.77024819235E+03 -0.80551913806E+03  0.48600213833E+03  0.12158706544E+04  0.10100000352E+00 0. -1.
</event>
<event>
 5   0  0.1580212E-06  0.2908070E+04  0.7818609E-02  0.8270481E-01
        1   -1    0    0  501    0  0.00000000000E+00  0.00000000000E+00  0.14236154764E+04  0.14236154764E+04  0.50400001928E-02 0. -1.
       -1   -1    0    0    0  501  0.00000000000E+00  0.00000000000E+00 -0.14851041339E+04  0.14851041339E+04  0.50400001928E-02 0.  1.
    10030    2    1    2    0    0  0.00000000000E+00  0.00000000000E+00 -0.61488657515E+02  0.29087196103E+04  0.29080696203E+04 0.  0.
        4    1    3    3  502    0  0.93427553808E+03  0.65028906077E+03  0.87415063179E+03  0.14352308468E+04  0.12699999809E+01 0.  1.
       -4    1    3    3    0  502 -0.93427553808E+03 -0.65028906077E+03 -0.93563928930E+03  0.14734887635E+04  0.12699999809E+01 0. -1.
</event>
<event>
 5   0  0.1543678E-06  0.2882418E+04  0.7818609E-02  0.8278128E-01
        1   -1    0    0  501    0  0.00000000000E+00  0.00000000000E+00  0.16073630786E+04  0.16073630786E+04  0.50400001928E-02 0.  1.
       -1   -1    0    0    0  501  0.00000000000E+00  0.00000000000E+00 -0.12922306471E+04  0.12922306471E+04  0.50400001928E-02 0. -1.
    10030    2    1    2    0    0  0.00000000000E+00  0.00000000000E+00  0.31513243152E+03  0.28995937257E+04  0.28824183119E+04 0.  0.
        3    1    3    3  502    0  0.88025632146E+03  0.10348694394E+04 -0.32621297690E+03  0.13972189752E+04  0.10100000352E+00 0. -1.
       -3    1    3    3    0  502 -0.88025632146E+03 -0.10348694394E+04  0.64134540842E+03  0.15023747506E+04  0.10100000352E+00 0.  1.
</event>
<event>
 5   0  0.1602873E-06  0.2888805E+04  0.7818609E-02  0.8276216E-01
       -1   -1    0    0    0  501  0.00000000000E+00  0.00000000000E+00  0.95892256295E+03  0.95892256297E+03  0.50400001928E-02 0. -1.
        1   -1    0    0  501    0  0.00000000000E+00  0.00000000000E+00 -0.21756702219E+04  0.21756702219E+04  0.50400001928E-02 0.  1.
    10030    2    1    2    0    0  0.00000000000E+00  0.00000000000E+00 -0.12167476590E+04  0.31345927849E+04  0.28888054731E+04 0.  0.
        1    1    3    3  502    0  0.11383863731E+04 -0.87000509728E+03 -0.80687831560E+03  0.16443494215E+04  0.50400001928E-02 0.  1.
       -1    1    3    3    0  502 -0.11383863731E+04  0.87000509728E+03 -0.40986934339E+03  0.14902433635E+04  0.50400001928E-02 0. -1.
</event>
<event>
 5   0  0.1511126E-06  0.2931287E+04  0.7818609E-02  0.8263629E-01
        1   -1    0    0  501    0  0.00000000000E+00  0.00000000000E+00  0.23521768382E+04  0.23521768382E+04  0.50400001928E-02 0. -1.
       -1   -1    0    0    0  501  0.00000000000E+00  0.00000000000E+00 -0.91324371203E+03  0.91324371204E+03  0.50400001928E-02 0.  1.
    10030    2    1    2    0    0  0.00000000000E+00  0.00000000000E+00  0.14389331262E+04  0.32654205502E+04  0.29312868895E+04 0.  0.
        5    1    3    3  502    0 -0.52898903123E+03  0.64903706327E+02 -0.80146332315E+03  0.96250061538E+03  0.46999998093E+01 0.  1.
       -5    1    3    3    0  502  0.52898903123E+03 -0.64903706327E+02  0.22403964493E+04  0.23029199349E+04  0.46999998093E+01 0. -1.
</event>
<event>
 5   0  0.4187518E-06  0.2875117E+04  0.7818609E-02  0.8280320E-01
       -2   -1    0    0    0  501  0.00000000000E+00  0.00000000000E+00  0.17700357366E+04  0.17700357366E+04  0.25500000920E-02 0. -1.
        2   -1    0    0  501    0  0.00000000000E+00  0.00000000000E+00 -0.11675325222E+04  0.11675325222E+04  0.25500000920E-02 0.  1.
    10030    2    1    2    0    0  0.00000000000E+00  0.00000000000E+00  0.60250321445E+03  0.29375682588E+04  0.28751168936E+04 0.  0.
        3    1    3    3  502    0  0.41019429596E+02  0.10639516118E+04 -0.68559509270E+03  0.12663791956E+04  0.10100000352E+00 0.  1.
       -3    1    3    3    0  502 -0.41019429596E+02 -0.10639516118E+04  0.12880983072E+04  0.16711890632E+04  0.10100000352E+00 0. -1.
</event>
<event>
 5   0  0.4162450E-06  0.2857462E+04  0.7818609E-02  0.8285648E-01
       -2   -1    0    0    0  501  0.00000000000E+00  0.00000000000E+00  0.10955860913E+04  0.10955860913E+04  0.25500000920E-02 0. -1.
        2   -1    0    0  501    0  0.00000000000E+00  0.00000000000E+00 -0.18631780046E+04  0.18631780046E+04  0.25500000920E-02 0.  1.
    10030    2    1    2    0    0  0.00000000000E+00  0.00000000000E+00 -0.76759191326E+03  0.29587640959E+04  0.28574617461E+04 0.  0.
        2    1    3    3  502    0 -0.37663085468E+03 -0.38767079319E+03  0.98563854403E+03  0.11241097740E+04  0.25500000920E-02 0. -1.
       -2    1    3    3    0  502  0.37663085468E+03  0.38767079319E+03 -0.17532304573E+04  0.18346543219E+04  0.25500000920E-02 0.  1.
</event>
<event>
 5   0  0.1511126E-06  0.2902235E+04  0.7818609E-02  0.8272213E-01
        1   -1    0    0  501    0  0.00000000000E+00  0.00000000000E+00  0.23787225962E+04  0.23787225962E+04  0.50400001928E-02 0. -1.
       -1   -1    0    0    0  501  0.00000000000E+00  0.00000000000E+00 -0.88524040956E+03  0.88524040957E+03  0.50400001928E-02 0.  1.
    10030    2    1    2    0    0  0.00000000000E+00  0.00000000000E+00  0.14934821866E+04  0.32639630058E+04  0.29022345634E+04 0.  0.
        5    1    3    3  502    0  0.51998552299E+03  0.30852590454E+03 -0.73682047283E+03  0.95315249413E+03  0.46999998093E+01 0.  1.
       -5    1    3    3    0  502 -0.51998552299E+03 -0.30852590454E+03  0.22303026595E+04  0.23108105117E+04  0.46999998093E+01 0. -1.
</event>
<event>
 5   0  0.4187518E-06  0.2915678E+04  0.7818609E-02  0.8268228E-01
       -2   -1    0    0    0  501  0.00000000000E+00  0.00000000000E+00  0.19964051987E+04  0.19964051987E+04  0.25500000920E-02 0.  1.
        2   -1    0    0  501    0  0.00000000000E+00  0.00000000000E+00 -0.10645604408E+04  0.10645604408E+04  0.25500000920E-02 0. -1.
    10030    2    1    2    0    0  0.00000000000E+00  0.00000000000E+00  0.93184475798E+03  0.30609656395E+04  0.29156776216E+04 0.  0.
        3    1    3    3  502    0 -0.93002743275E+03 -0.11021155296E+04  0.69031188491E+03  0.15987933497E+04  0.10100000352E+00 0. -1.
       -3    1    3    3    0  502  0.93002743275E+03  0.11021155296E+04  0.24153287306E+03  0.14621722899E+04  0.10100000352E+00 0.  1.
</event>
<event>
 5   0  0.4115143E-06  0.2902993E+04  0.7818609E-02  0.8271988E-01
       -2   -1    0    0    0  501  0.00000000000E+00  0.00000000000E+00  0.14545317870E+04  0.14545317870E+04  0.25500000920E-02 0. -1.
        2   -1    0    0  501    0  0.00000000000E+00  0.00000000000E+00 -0.14484672195E+04  0.14484672195E+04  0.25500000920E-02 0.  1.
    10030    2    1    2    0    0  0.00000000000E+00  0.00000000000E+00  0.60645674856E+01  0.29029990066E+04  0.29029926719E+04 0.  0.
        1    1    3    3  502    0  0.11247068829E+04  0.66594243587E+03 -0.62815584317E+03  0.14501809072E+04  0.50400001928E-02 0.  1.
       -1    1    3    3    0  502 -0.11247068829E+04 -0.66594243587E+03  0.63422041066E+03  0.14528180993E+04  0.50400001928E-02 0. -1.
</event>
<event>
 5   0  0.4224163E-06  0.2919773E+04  0.7818609E-02  0.8267019E-01
        2   -1    0    0  501    0  0.00000000000E+00  0.00000000000E+00  0.11919456668E+04  0.11919456668E+04  0.25500000920E-02 0.  1.
       -2   -1    0    0    0  501  0.00000000000E+00  0.00000000000E+00 -0.17880580962E+04  0.17880580962E+04  0.25500000920E-02 0. -1.
    10030    2    1    2    0    0  0.00000000000E+00  0.00000000000E+00 -0.59611242938E+03  0.29800037630E+04  0.29197726623E+04 0.  0.
        4    1    3    3  502    0 -0.19571707325E+03 -0.51611959333E+03  0.10813346549E+04  0.12140720144E+04  0.12699999809E+01 0.  1.
       -4    1    3    3    0  502  0.19571707325E+03  0.51611959333E+03 -0.16774470843E+04  0.17659317486E+04  0.12699999809E+01 0. -1.
</event>
<event>
 5   0  0.4162450E-06  0.2884428E+04  0.7818609E-02  0.8277526E-01
       -2   -1    0    0    0  501  0.00000000000E+00  0.00000000000E+00  0.12092353862E+04  0.12092353862E+04  0.25500000920E-02 0. -1.
        2   -1    0    0  501    0  0.00000000000E+00  0.00000000000E+00 -0.17200799790E+04  0.17200799790E+04  0.25500000920E-02 0.  1.
    10030    2    1    2    0    0  0.00000000000E+00  0.00000000000E+00 -0.51084459280E+03  0.29293153651E+04  0.28844282467E+04 0.  0.
        2    1    3    3  502    0  0.68965870066E+03 -0.12446826183E+04 -0.49384723102E+03  0.15062367116E+04  0.25500000920E-02 0. -1.
       -2    1    3    3    0  502 -0.68965870066E+03  0.12446826183E+04 -0.16997361788E+02  0.14230786535E+04  0.25500000920E-02 0.  1.
</event>
<event>
 5   0  0.1511126E-06  0.2858063E+04  0.7818609E-02  0.8285465E-01
       -1   -1    0    0    0  501  0.00000000000E+00  0.00000000000E+00  0.18005063417E+04  0.18005063417E+04  0.50400001928E-02 0. -1.
        1   -1    0    0  501    0  0.00000000000E+00  0.00000000000E+00 -0.11341982276E+04  0.11341982276E+04  0.50400001928E-02 0.  1.
    10030    2    1    2    0    0  0.00000000000E+00  0.00000000000E+00  0.66630811411E+03  0.29347045693E+04  0.28580630515E+04 0.  0.
        5    1    3    3  502    0  0.12014592790E+04  0.45960907205E+02  0.11261938321E+04  0.16474074911E+04  0.46999998093E+01 0. -1.
       -5    1    3    3    0  502 -0.12014592790E+04 -0.45960907205E+02 -0.45988571803E+03  0.12872970783E+04  0.46999998093E+01 0.  1.
</event>
<event>
 5   0  0.4162450E-06  0.2916484E+04  0.7818609E-02  0.8267990E-01
        2   -1    0    0  501    0  0.00000000000E+00  0.00000000000E+00  0.12409920890E+04  0.12409920890E+04  0.25500000920E-02 0.  1.
       -2   -1    0    0    0  501  0.00000000000E+00  0.00000000000E+00 -0.17135238207E+04  0.17135238207E+04  0.25500000920E-02 0. -1.
    10030    2    1    2    0    0  0.00000000000E+00  0.00000000000E+00 -0.47253173166E+03  0.29545159097E+04  0.29164838459E+04 0.  0.
        2    1    3    3  502    0 -0.10505962101E+04  0.10817075750E+03  0.78233915888E+03  0.13143469363E+04  0.25500000920E-02 0.  1.
       -2    1    3    3    0  502  0.10505962101E+04 -0.10817075750E+03 -0.12548708905E+04  0.16401689734E+04  0.25500000920E-02 0. -1.
</event>
<event>
 5   0  0.1511126E-06  0.2914044E+04  0.7818609E-02  0.8268711E-01
       -1   -1    0    0    0  501  0.00000000000E+00  0.00000000000E+00  0.12625014619E+04  0.12625014619E+04  0.50400001928E-02 0.  1.
        1   -1    0    0  501    0  0.00000000000E+00  0.00000000000E+00 -0.16815138714E+04  0.16815138714E+04  0.50400001928E-02 0. -1.
    10030    2    1    2    0    0  0.00000000000E+00  0.00000000000E+00 -0.41901240958E+03  0.29440153333E+04  0.29140444203E+04 0.  0.
        5    1    3    3  502    0  0.71648993386E+03 -0.77308579042E+03  0.80675822436E+03  0.13273659583E+04  0.46999998093E+01 0.  1.
       -5    1    3    3    0  502 -0.71648993386E+03  0.77308579042E+03 -0.12257706339E+04  0.16166493750E+04  0.46999998093E+01 0. -1.
</event>
<event>
 5   0  0.1580212E-06  0.2894586E+04  0.7818609E-02  0.8274490E-01
       -1   -1    0    0    0  501  0.00000000000E+00  0.00000000000E+00  0.15063348705E+04  0.15063348705E+04  0.50400001928E-02 0.  1.
        1   -1    0    0  501    0  0.00000000000E+00  0.00000000000E+00 -0.13905653199E+04  0.13905653199E+04  0.50400001928E-02 0. -1.
    10030    2    1    2    0    0  0.00000000000E+00  0.00000000000E+00  0.11576955058E+03  0.28969001904E+04  0.28945860022E+04 0.  0.
        4    1    3    3  502    0  0.89314477493E+02 -0.31780341442E+03  0.14681527132E+04  0.15048089873E+04  0.12699999809E+01 0.  1.
       -4    1    3    3    0  502 -0.89314477493E+02  0.31780341442E+03 -0.13523831626E+04  0.13920912030E+04  0.12699999809E+01 0. -1.
</event>
<event>
 5   0  0.1550278E-06  0.2915212E+04  0.7818609E-02  0.8268366E-01
       -1   -1    0    0    0  501  0.00000000000E+00  0.00000000000E+00  0.14280414888E+04  0.14280414888E+04  0.50400001928E-02 0.  1.
        1   -1    0    0  501    0  0.00000000000E+00  0.00000000000E+00 -0.14877826901E+04  0.14877826901E+04  0.50400001928E-02 0. -1.
    10030    2    1    2    0    0  0.00000000000E+00  0.00000000000E+00 -0.59741201314E+02  0.29158241789E+04  0.29152121074E+04 0.  0.
        2    1    3    3  502    0 -0.84203698365E+03 -0.87653165052E+03 -0.83457751854E+03  0.14743994203E+04  0.25500000920E-02 0. -1.
       -2    1    3    3    0  502  0.84203698365E+03  0.87653165052E+03  0.77483631722E+03  0.14414247586E+04  0.25500000920E-02 0.  1.
</event>
<event>
 5   0  0.1580212E-06  0.2904084E+04  0.7818609E-02  0.8271663E-01
        1   -1    0    0  501    0  0.00000000000E+00  0.00000000000E+00  0.15615592140E+04  0.15615592140E+04  0.50400001928E-02 0. -1.
       -1   -1    0    0    0  501  0.00000000000E+00  0.00000000000E+00 -0.13502058535E+04  0.13502058535E+04  0.50400001928E-02 0.  1.
    10030    2    1    2    0    0  0.00000000000E+00  0.00000000000E+00  0.21135336049E+03  0.29117650674E+04  0.29040842903E+04 0.  0.
        4    1    3    3  502    0  0.10876559533E+04 -0.24941027067E+03 -0.82587900910E+03  0.13882646384E+04  0.12699999809E+01 0.  1.
       -4    1    3    3    0  502 -0.10876559533E+04  0.24941027067E+03  0.10372323696E+04  0.15235004290E+04  0.12699999809E+01 0. -1.
</event>
<event>
 5   0  0.4115143E-06  0.2900814E+04  0.7818609E-02  0.8272635E-01
       -2   -1    0    0    0  501  0.00000000000E+00  0.00000000000E+00  0.19433208746E+04  0.19433208746E+04  0.25500000920E-02 0. -1.
        2   -1    0    0  501    0  0.00000000000E+00  0.00000000000E+00 -0.10825185561E+04  0.10825185561E+04  0.25500000920E-02 0.  1.
    10030    2    1    2    0    0  0.00000000000E+00  0.00000000000E+00  0.86080231842E+03  0.30258394307E+04  0.29008143045E+04 0.  0.
        1    1    3    3  502    0  0.21608245407E+03  0.37926902450E+03  0.18731801588E+04  0.19233669768E+04  0.50400001928E-02 0. -1.
       -1    1    3    3    0  502 -0.21608245407E+03 -0.37926902450E+03 -0.10123778404E+04  0.11024724539E+04  0.50400001928E-02 0.  1.
</event>
<event>
 5   0  0.4224163E-06  0.2900802E+04  0.7818609E-02  0.8272639E-01
        2   -1    0    0  501    0  0.00000000000E+00  0.00000000000E+00  0.21422731902E+04  0.21422731902E+04  0.25500000920E-02 0.  1.
       -2   -1    0    0    0  501  0.00000000000E+00  0.00000000000E+00 -0.98197732839E+03  0.98197732839E+03  0.25500000920E-02 0. -1.
    10030    2    1    2    0    0  0.00000000000E+00  0.00000000000E+00  0.11602958618E+04  0.31242505186E+04  0.29008024435E+04 0.  0.
        4    1    3    3  502    0 -0.18001915479E+03  0.17319780549E+03 -0.95863236886E+03  0.99064726692E+03  0.12699999809E+01 0. -1.
       -4    1    3    3    0  502  0.18001915479E+03 -0.17319780549E+03  0.21189282307E+04  0.21336032517E+04  0.12699999809E+01 0.  1.
</event>
<event>
 5   0  0.1543678E-06  0.2893741E+04  0.7818609E-02  0.8274742E-01
        1   -1    0    0  501    0  0.00000000000E+00  0.00000000000E+00  0.23842936922E+04  0.23842936922E+04  0.50400001928E-02 0.  1.
       -1   -1    0    0    0  501  0.00000000000E+00  0.00000000000E+00 -0.87801014216E+03  0.87801014218E+03  0.50400001928E-02 0. -1.
    10030    2    1    2    0    0  0.00000000000E+00  0.00000000000E+00  0.15062835500E+04  0.32623038343E+04  0.28937408617E+04 0.  0.
        3    1    3    3  502    0 -0.67206560238E+03 -0.25269241454E+03  0.21692800606E+04  0.22850167662E+04  0.10100000352E+00 0.  1.
       -3    1    3    3    0  502  0.67206560238E+03  0.25269241454E+03 -0.66299651062E+03  0.97728706814E+03  0.10100000352E+00 0. -1.
</event>
<event>
 5   0  0.4187518E-06  0.2899791E+04  0.7818609E-02  0.8272940E-01
       -2   -1    0    0    0  501  0.00000000000E+00  0.00000000000E+00  0.11421568563E+04  0.11421568563E+04  0.25500000920E-02 0.  1.
        2   -1    0    0  501    0  0.00000000000E+00  0.00000000000E+00 -0.18405503305E+04  0.18405503305E+04  0.25500000920E-02 0. -1.
    10030    2    1    2    0    0  0.00000000000E+00  0.00000000000E+00 -0.69839347422E+03  0.29827071868E+04  0.28997911507E+04 0.  0.
        3    1    3    3  502    0  0.37266539619E+03  0.37446535214E+02  0.10915380474E+04  0.11540091246E+04  0.10100000352E+00 0.  1.
       -3    1    3    3    0  502 -0.37266539619E+03 -0.37446535214E+02 -0.17899315216E+04  0.18286980622E+04  0.10100000352E+00 0. -1.
</event>
<event>
 5   0  0.1543678E-06  0.2899187E+04  0.7818609E-02  0.8273119E-01
       -1   -1    0    0    0  501  0.00000000000E+00  0.00000000000E+00  0.94493180166E+03  0.94493180168E+03  0.50400001928E-02 0.  1.
        1   -1    0    0  501    0  0.00000000000E+00  0.00000000000E+00 -0.22237807435E+04  0.22237807435E+04  0.50400001928E-02 0. -1.
    10030    2    1    2    0    0  0.00000000000E+00  0.00000000000E+00 -0.12788489418E+04  0.31687125452E+04  0.28991868822E+04 0.  0.
        3    1    3    3  502    0 -0.81871678405E+03  0.88613190035E+03  0.23889742212E+03  0.12298775979E+04  0.10100000352E+00 0.  1.
       -3    1    3    3    0  502  0.81871678405E+03 -0.88613190035E+03 -0.15177463640E+04  0.19388349473E+04  0.10100000352E+00 0. -1.
</event>
<event>
 5   0  0.1550278E-06  0.2907575E+04  0.7818609E-02  0.8270627E-01
       -1   -1    0    0    0  501  0.00000000000E+00  0.00000000000E+00  0.10458876356E+04  0.10458876356E+04  0.50400001928E-02 0.  1.
        1   -1    0    0  501    0  0.00000000000E+00  0.00000000000E+00 -0.20207696921E+04  0.20207696921E+04  0.50400001928E-02 0. -1.
    10030    2    1    2    0    0  0.00000000000E+00  0.00000000000E+00 -0.97488205654E+03  0.30666573277E+04  0.29075749589E+04 0.  0.
        2    1    3    3  502    0 -0.13157137777E+04 -0.90255744506E+02 -0.11326713456E+04  0.17384456337E+04  0.25500000920E-02 0. -1.
       -2    1    3    3    0  502  0.13157137777E+04  0.90255744506E+02  0.15778928905E+03  0.13282116940E+04  0.25500000920E-02 0.  1.
</event>
<event>
 5   0  0.4162450E-06  0.3020683E+04  0.7818609E-02  0.8237849E-01
       -2   -1    0    0    0  501  0.00000000000E+00  0.00000000000E+00  0.83709467792E+03  0.83709467792E+03  0.25500000920E-02 0.  1.
        2   -1    0    0  501    0  0.00000000000E+00  0.00000000000E+00 -0.27250584451E+04  0.27250584451E+04  0.25500000920E-02 0. -1.
    10030    2    1    2    0    0  0.00000000000E+00  0.00000000000E+00 -0.18879637672E+04  0.35621531230E+04  0.30206833144E+04 0.  0.
        2    1    3    3  502    0 -0.13902693513E+04  0.53690669182E+03 -0.65509049058E+03  0.16279622894E+04  0.25500000920E-02 0. -1.
       -2    1    3    3    0  502  0.13902693513E+04 -0.53690669182E+03 -0.12328732766E+04  0.19341908337E+04  0.25500000920E-02 0.  1.
</event>
<event>
 5   0  0.1360125E-06  0.2905321E+04  0.7818609E-02  0.8271296E-01
        3   -1    0    0  501    0  0.00000000000E+00  0.00000000000E+00  0.25684311993E+04  0.25684312013E+04  0.10100000352E+00 0.  1.
       -3   -1    0    0    0  501  0.00000000000E+00  0.00000000000E+00 -0.82160006002E+03  0.82160006623E+03  0.10100000352E+00 0. -1.
    10030    2    1    2    0    0  0.00000000000E+00  0.00000000000E+00  0.17468311393E+04  0.33900312675E+04  0.29053214909E+04 0.  0.
        3    1    3    3  502    0 -0.48326860423E+02 -0.88214761962E+03  0.22189254285E+04  0.23883362359E+04  0.10100000352E+00 0.  1.
       -3    1    3    3    0  502  0.48326860423E+02  0.88214761962E+03 -0.47209428923E+03  0.10016950316E+04  0.10100000352E+00 0. -1.
</event>
<event>
 5   0  0.1602873E-06  0.2876258E+04  0.7818609E-02  0.8279977E-01
        1   -1    0    0  501    0  0.00000000000E+00  0.00000000000E+00  0.19949343361E+04  0.19949343361E+04  0.50400001928E-02 0. -1.
       -1   -1    0    0    0  501  0.00000000000E+00  0.00000000000E+00 -0.10367332785E+04  0.10367332785E+04  0.50400001928E-02 0.  1.
    10030    2    1    2    0    0  0.00000000000E+00  0.00000000000E+00  0.95820105757E+03  0.30316676146E+04  0.28762578568E+04 0.  0.
        1    1    3    3  502    0 -0.93926293222E+03 -0.66314766361E+03  0.13896249804E+04  0.18036178270E+04  0.50400001928E-02 0. -1.
       -1    1    3    3    0  502  0.93926293222E+03  0.66314766361E+03 -0.43142392286E+03  0.12280497876E+04  0.50400001928E-02 0.  1.
</event>
<event>
 5   0  0.4224163E-06  0.2764942E+04  0.7818609E-02  0.8314236E-01
        2   -1    0    0  501    0  0.00000000000E+00  0.00000000000E+00  0.15624158565E+04  0.15624158565E+04  0.25500000920E-02 0.  1.
       -2   -1    0    0    0  501  0.00000000000E+00  0.00000000000E+00 -0.12232504038E+04  0.12232504038E+04  0.25500000920E-02 0. -1.
    10030    2    1    2    0    0  0.00000000000E+00  0.00000000000E+00  0.33916545273E+03  0.27856662604E+04  0.27649418276E+04 0.  0.
        4    1    3    3  502    0  0.46335968856E+03 -0.66115977426E+03 -0.96105420076E+03  0.12551737879E+04  0.12699999809E+01 0. -1.
       -4    1    3    3    0  502 -0.46335968856E+03  0.66115977426E+03  0.13002196535E+04  0.15304924725E+04  0.12699999809E+01 0.  1.
</event>
<event>
 5   0  0.1602873E-06  0.2915709E+04  0.7818609E-02  0.8268219E-01
        1   -1    0    0  501    0  0.00000000000E+00  0.00000000000E+00  0.12884562430E+04  0.12884562430E+04  0.50400001928E-02 0. -1.
       -1   -1    0    0    0  501  0.00000000000E+00  0.00000000000E+00 -0.16495240804E+04  0.16495240804E+04  0.50400001928E-02 0.  1.
    10030    2    1    2    0    0  0.00000000000E+00  0.00000000000E+00 -0.36106783734E+03  0.29379803234E+04  0.29157089014E+04 0.  0.
        1    1    3    3  502    0 -0.85395591270E+03  0.11325481994E+04 -0.51990539514E+03  0.15106977675E+04  0.50400001928E-02 0.  1.
       -1    1    3    3    0  502  0.85395591270E+03 -0.11325481994E+04  0.15883755780E+03  0.14272825559E+04  0.50400001928E-02 0. -1.
</event>
<event>
 5   0  0.4224163E-06  0.2939791E+04  0.7818609E-02  0.8261136E-01
       -2   -1    0    0    0  501  0.00000000000E+00  0.00000000000E+00  0.12803510692E+04  0.12803510692E+04  0.25500000920E-02 0. -1.
        2   -1    0    0  501    0  0.00000000000E+00  0.00000000000E+00 -0.16875006135E+04  0.16875006135E+04  0.25500000920E-02 0.  1.
    10030    2    1    2    0    0  0.00000000000E+00  0.00000000000E+00 -0.40714954432E+03  0.29678516827E+04  0.29397912952E+04 0.  0.
        4    1    3    3  502    0 -0.37649535063E+03 -0.11511586765E+04 -0.10443970344E+04  0.15992754065E+04  0.12699999809E+01 0.  1.
       -4    1    3    3    0  502  0.37649535063E+03  0.11511586765E+04  0.63724749004E+03  0.13685762762E+04  0.12699999809E+01 0. -1.
</event>
<event>
 5   0  0.4148677E-06  0.2910177E+04  0.7818609E-02  0.8269856E-01
       -2   -1    0    0    0  501  0.00000000000E+00  0.00000000000E+00  0.12055918122E+04  0.12055918122E+04  0.25500000920E-02 0. -1.
        2   -1    0    0  501    0  0.00000000000E+00  0.00000000000E+00 -0.17562185247E+04  0.17562185247E+04  0.25500000920E-02 0.  1.
    10030    2    1    2    0    0  0.00000000000E+00  0.00000000000E+00 -0.55062671252E+03  0.29618103369E+04  0.29101770900E+04 0.  0.
        5    1    3    3  502    0 -0.24327221909E+03  0.40516992529E+03 -0.16759266555E+04  0.17412915568E+04  0.46999998093E+01 0.  1.
       -5    1    3    3    0  502  0.24327221909E+03 -0.40516992529E+03  0.11252999430E+04  0.12205187802E+04  0.46999998093E+01 0. -1.
</event>
<event>
 5   0  0.1580212E-06  0.2895861E+04  0.7818609E-02  0.8274110E-01
        1   -1    0    0  501    0  0.00000000000E+00  0.00000000000E+00  0.10330840261E+04  0.10330840261E+04  0.50400001928E-02 0.  1.
       -1   -1    0    0    0  501  0.00000000000E+00  0.00000000000E+00 -0.20293631046E+04  0.20293631046E+04  0.50400001928E-02 0. -1.
    10030    2    1    2    0    0  0.00000000000E+00  0.00000000000E+00 -0.99627907857E+03  0.30624471307E+04  0.28958609128E+04 0.  0.
        4    1    3    3  502    0 -0.10652462749E+04  0.58072768873E+03 -0.13338569664E+04  0.18031001897E+04  0.12699999809E+01 0. -1.
       -4    1    3    3    0  502  0.10652462749E+04 -0.58072768873E+03  0.33757788779E+03  0.12593469410E+04  0.12699999809E+01 0.  1.
</event>
<event>
 5   0  0.4148677E-06  0.2935116E+04  0.7818609E-02  0.8262505E-01
        2   -1    0    0  501    0  0.00000000000E+00  0.00000000000E+00  0.17451193358E+04  0.17451193358E+04  0.25500000920E-02 0.  1.
       -2   -1    0    0    0  501  0.00000000000E+00  0.00000000000E+00 -0.12341430471E+04  0.12341430471E+04  0.25500000920E-02 0. -1.
    10030    2    1    2    0    0  0.00000000000E+00  0.00000000000E+00  0.51097628866E+03  0.29792623829E+04  0.29351162802E+04 0.  0.
        5    1    3    3  502    0 -0.10517289802E+04 -0.91201701829E+03  0.72701350022E+03  0.15705029796E+04  0.46999998093E+01 0.  1.
       -5    1    3    3    0  502  0.10517289802E+04  0.91201701829E+03 -0.21603721156E+03  0.14087594033E+04  0.46999998093E+01 0. -1.
</event>
<event>
 5   0  0.1550278E-06  0.2920306E+04  0.7818609E-02  0.8266861E-01
       -1   -1    0    0    0  501  0.00000000000E+00  0.00000000000E+00  0.14085351072E+04  0.14085351072E+04  0.50400001928E-02 0. -1.
        1   -1    0    0  501    0  0.00000000000E+00  0.00000000000E+00 -0.15136625974E+04  0.15136625974E+04  0.50400001928E-02 0.  1.
    10030    2    1    2    0    0  0.00000000000E+00  0.00000000000E+00 -0.10512749025E+03  0.29221977046E+04  0.29203060860E+04 0.  0.
        2    1    3    3  502    0  0.11743819126E+04 -0.32725488646E+03 -0.85668758140E+03  0.14900276002E+04  0.25500000920E-02 0.  1.
       -2    1    3    3    0  502 -0.11743819126E+04  0.32725488646E+03  0.75156009116E+03  0.14321701044E+04  0.25500000920E-02 0. -1.
</event>
<event>
 5   0  0.4162450E-06  0.2903167E+04  0.7818609E-02  0.8271936E-01
       -2   -1    0    0    0  501  0.00000000000E+00  0.00000000000E+00  0.14269114928E+04  0.14269114928E+04  0.25500000920E-02 0. -1.
        2   -1    0    0  501    0  0.00000000000E+00  0.00000000000E+00 -0.14766820388E+04  0.14766820388E+04  0.25500000920E-02 0.  1.
    10030    2    1    2    0    0  0.00000000000E+00  0.00000000000E+00 -0.49770546015E+02  0.29035935316E+04  0.29031669414E+04 0.  0.
        2    1    3    3  502    0  0.97797718902E+02 -0.15671355895E+03  0.14151078821E+04  0.14271138187E+04  0.25500000920E-02 0. -1.
       -2    1    3    3    0  502 -0.97797718902E+02  0.15671355895E+03 -0.14648784282E+04  0.14764797129E+04  0.25500000920E-02 0.  1.
</event>
<event>
 5   0  0.1511126E-06  0.2896218E+04  0.7818609E-02  0.8274004E-01
        1   -1    0    0  501    0  0.00000000000E+00  0.00000000000E+00  0.12752276574E+04  0.12752276574E+04  0.50400001928E-02 0.  1.
       -1   -1    0    0    0  501  0.00000000000E+00  0.00000000000E+00 -0.16444276920E+04  0.16444276920E+04  0.50400001928E-02 0. -1.
    10030    2    1    2    0    0  0.00000000000E+00  0.00000000000E+00 -0.36920003456E+03  0.29196553494E+04  0.28962179983E+04 0.  0.
        5    1    3    3  502    0 -0.53050597277E+03 -0.59880553361E+03  0.10322276118E+04  0.13059558135E+04  0.46999998093E+01 0.  1.
       -5    1    3    3    0  502  0.53050597277E+03  0.59880553361E+03 -0.14014276464E+04  0.16136995359E+04  0.46999998093E+01 0. -1.
</event>
</LesHouchesEvents>
