<LesHouchesEvents version="3.0">
<header>
<!--
#*********************************************************************
#                                                                    *
#                        MadGraph5_aMC@NLO                           *
#                                                                    *
#                           Going Beyond                             *
#                                                                    *
#                   http://madgraph.hep.uiuc.edu                     *
#                   http://madgraph.phys.ucl.ac.be                   *
#                   http://amcatnlo.cern.ch                          *
#                                                                    *
#                     The MadGraph5_aMC@NLO team                     *
#                                                                    *
#....................................................................*
#                                                                    *
# This file contains all the information necessary to reproduce      *
# the events generated:                                              *
#                                                                    *
# 1. software version                                                *
# 2. proc_card          : code generation info including model       *
# 3. param_card         : model primary parameters in the LH format  *
# 4. run_card           : running parameters (collider and cuts)     *
# 5. pythia_card        : present only if pythia has been run        *
# 6. pgs_card           : present only if pgs has been run           *
# 7. delphes_cards      : present only if delphes has been run       *
#                                                                    *
#                                                                    *
#*********************************************************************
-->
<MGVersion>
#5.2.2.3
</MGVersion>
<MG5ProcCard>
#************************************************************
#*                     MadGraph5_aMC@NLO                    *
#*                                                          *
#*                *                       *                 *
#*                  *        * *        *                   *
#*                    * * * * 5 * * * *                     *
#*                  *        * *        *                   *
#*                *                       *                 *
#*                                                          *
#*                                                          *
#*         VERSION 2.2.3                 2015-02-10         *
#*                                                          *
#*    The MadGraph5_aMC@NLO Development Team - Find us at   *
#*    https://server06.fynu.ucl.ac.be/projects/madgraph     *
#*                                                          *
#************************************************************
#*                                                          *
#*               Command File for MadGraph5_aMC@NLO         *
#*                                                          *
#*     run as ./bin/mg5_aMC  filename                       *
#*                                                          *
#************************************************************
set group_subprocesses Auto
set ignore_six_quark_processes False
set loop_optimized_output True
set gauge unitary
set complex_mass_scheme False
import model sm
define p = g u c d s u~ c~ d~ s~
define j = g u c d s u~ c~ d~ s~
define l+ = e+ mu+
define l- = e- mu-
define vl = ve vm vt
define vl~ = ve~ vm~ vt~
import model Zprime_UFO
generate p p > zph, zph > j j
add process p p > zph, zph > b b~
output Dijet_signal
</MG5ProcCard>
<MGProcCard>
#*********************************************************************
#                        MadGraph/MadEvent                           *
#                   http://madgraph.hep.uiuc.edu                     *
#                                                                    *
#                          proc_card.dat                             *
#*********************************************************************
#                                                                    *
#            This Files is generated by MADGRAPH 5                   *
#                                                                    *
# WARNING: This Files is generated for MADEVENT (compatibility issue)*
#          This files is NOT a valid MG4 proc_card.dat               *
#          Running this in MG4 will NEVER reproduce the result of MG5*
#                                                                    *
#*********************************************************************
#*********************************************************************
# Process(es) requested : mg2 input                                  *
#*********************************************************************
# Begin PROCESS # This is TAG. Do not modify this line
p p > zph , zph > j j           #Process
# Be carefull the coupling are here in MG5 convention
          
end_coup           # End the couplings input

done               # this tells MG there are no more procs
# End PROCESS  # This is TAG. Do not modify this line
#*********************************************************************
# Model information                                                  *
#*********************************************************************
# Begin MODEL  # This is TAG. Do not modify this line
Zprime_UFO
# End   MODEL  # This is TAG. Do not modify this line
#*********************************************************************
# Start multiparticle definitions                                    *
#*********************************************************************
# Begin MULTIPARTICLES # This is TAG. Do not modify this line

# End  MULTIPARTICLES # This is TAG. Do not modify this line
</MGProcCard>
<MGRunCard>
#*********************************************************************
#                       MadGraph5_aMC@NLO                            *
#                                                                    *
#                     run_card.dat MadEvent                          *
#                                                                    *
#  This file is used to set the parameters of the run.               *
#                                                                    *
#  Some notation/conventions:                                        *
#                                                                    *
#   Lines starting with a '# ' are info or comments                  *
#                                                                    *
#   mind the format:   value    = variable     ! comment             *
#*********************************************************************
#
#*******************                                                 
# Running parameters
#*******************                                                 
#                                                                    
#*********************************************************************
# Tag name for the run (one word)                                    *
#*********************************************************************
  tag_1     = run_tag ! name of the run 
#*********************************************************************
# Run to generate the grid pack                                      *
#*********************************************************************
  .false.     = gridpack  !True = setting up the grid pack
#*********************************************************************
# Number of events and rnd seed                                      *
# Warning: Do not generate more than 1M events in a single run       *
# If you want to run Pythia, avoid more than 50k events in a run.    *
#*********************************************************************
  2000 = nevents ! Number of unweighted events requested 
 1326 = iseed   ! rnd seed (0=assigned automatically=default))
#*********************************************************************
# Collider type and energy                                           *
# lpp: 0=No PDF, 1=proton, -1=antiproton, 2=photon from proton,      *
#                                         3=photon from electron     *
#*********************************************************************
        1     = lpp1    ! beam 1 type 
        1     = lpp2    ! beam 2 type
     4000     = ebeam1  ! beam 1 total energy in GeV
     4000     = ebeam2  ! beam 2 total energy in GeV
#*********************************************************************
# Beam polarization from -100 (left-handed) to 100 (right-handed)    *
#*********************************************************************
        0     = polbeam1 ! beam polarization for beam 1
        0     = polbeam2 ! beam polarization for beam 2
#*********************************************************************
# PDF CHOICE: this automatically fixes also alpha_s and its evol.    *
#*********************************************************************
 'nn23lo1'    = pdlabel     ! PDF set                                     
 230000    = lhaid     ! if pdlabel=lhapdf, this is the lhapdf number
#*********************************************************************
# Renormalization and factorization scales                           *
#*********************************************************************
 F        = fixed_ren_scale  ! if .true. use fixed ren scale
 F        = fixed_fac_scale  ! if .true. use fixed fac scale
 91.1880  = scale            ! fixed ren scale
 91.1880  = dsqrt_q2fact1    ! fixed fact scale for pdf1
 91.1880  = dsqrt_q2fact2    ! fixed fact scale for pdf2
 1        = scalefact        ! scale factor for event-by-event scales
#*********************************************************************
# Matching - Warning! ickkw > 1 is still beta
#*********************************************************************
 0        = ickkw            ! 0 no matching, 1 MLM, 2 CKKW matching
 1        = highestmult      ! for ickkw=2, highest mult group
 1        = ktscheme         ! for ickkw=1, 1 Durham kT, 2 Pythia pTE
 1        = alpsfact         ! scale factor for QCD emission vx
 F        = chcluster        ! cluster only according to channel diag
 T        = pdfwgt           ! for ickkw=1, perform pdf reweighting
 5        = asrwgtflavor     ! highest quark flavor for a_s reweight
 T        = clusinfo         ! include clustering tag in output
 3.0      = lhe_version       ! Change the way clustering information pass to shower.        
#*********************************************************************
#**********************************************************
#
#**********************************************************
# Automatic ptj and mjj cuts if xqcut > 0
# (turn off for VBF and single top processes)
#**********************************************************
   T  = auto_ptj_mjj  ! Automatic setting of ptj and mjj
#**********************************************************
#                                                                    
#**********************************
# BW cutoff (M+/-bwcutoff*Gamma)
#**********************************
  15  = bwcutoff      ! (M+/-bwcutoff*Gamma)
#**********************************************************
# Apply pt/E/eta/dr/mij cuts on decay products or not
# (note that etmiss/ptll/ptheavy/ht/sorted cuts always apply)
#**********************************************************
   T  = cut_decays    ! Cut decay products 
#*************************************************************
# Number of helicities to sum per event (0 = all helicities)
# 0 gives more stable result, but longer run time (needed for
# long decay chains e.g.).
# Use >=2 if most helicities contribute, e.g. pure QCD.
#*************************************************************
   0  = nhel          ! Number of helicities used per event
#*******************                                                 
# Standard Cuts
#*******************                                                 
#                                                                    
#*********************************************************************
# Minimum and maximum pt's (for max, -1 means no cut)                *
#*********************************************************************
 20  = ptj       ! minimum pt for the jets 
  0  = ptb       ! minimum pt for the b 
 10  = pta       ! minimum pt for the photons 
 10  = ptl       ! minimum pt for the charged leptons 
  0  = misset    ! minimum missing Et (sum of neutrino's momenta)
  0  = ptheavy   ! minimum pt for one heavy final state
 1.0 = ptonium   ! minimum pt for the quarkonium states
 -1  = ptjmax    ! maximum pt for the jets
 -1  = ptbmax    ! maximum pt for the b
 -1  = ptamax    ! maximum pt for the photons
 -1  = ptlmax    ! maximum pt for the charged leptons
 -1  = missetmax ! maximum missing Et (sum of neutrino's momenta)
#*********************************************************************
# Minimum and maximum E's (in the center of mass frame)              *
#*********************************************************************
  0  = ej     ! minimum E for the jets 
  0  = eb     ! minimum E for the b 
  0  = ea     ! minimum E for the photons 
  0  = el     ! minimum E for the charged leptons 
 -1   = ejmax ! maximum E for the jets
 -1   = ebmax ! maximum E for the b
 -1   = eamax ! maximum E for the photons
 -1   = elmax ! maximum E for the charged leptons
#*********************************************************************
# Maximum and minimum absolute rapidity (for max, -1 means no cut)   *
#*********************************************************************
   5  = etaj    ! max rap for the jets 
  -1  = etab    ! max rap for the b
 2.5  = etaa    ! max rap for the photons 
 2.5  = etal    ! max rap for the charged leptons 
 0.6  = etaonium ! max rap for the quarkonium states
   0  = etajmin ! min rap for the jets
   0  = etabmin ! min rap for the b
   0  = etaamin ! min rap for the photons
   0  = etalmin ! main rap for the charged leptons
#*********************************************************************
# Minimum and maximum DeltaR distance                                *
#*********************************************************************
 0.4 = drjj    ! min distance between jets 
 0   = drbb    ! min distance between b's 
 0.4 = drll    ! min distance between leptons 
 0.4 = draa    ! min distance between gammas 
 0   = drbj    ! min distance between b and jet 
 0.4 = draj    ! min distance between gamma and jet 
 0.4 = drjl    ! min distance between jet and lepton 
 0   = drab    ! min distance between gamma and b 
 0   = drbl    ! min distance between b and lepton 
 0.4 = dral    ! min distance between gamma and lepton 
 -1  = drjjmax ! max distance between jets
 -1  = drbbmax ! max distance between b's
 -1  = drllmax ! max distance between leptons
 -1  = draamax ! max distance between gammas
 -1  = drbjmax ! max distance between b and jet
 -1  = drajmax ! max distance between gamma and jet
 -1  = drjlmax ! max distance between jet and lepton
 -1  = drabmax ! max distance between gamma and b
 -1  = drblmax ! max distance between b and lepton
 -1  = dralmax ! maxdistance between gamma and lepton
#*********************************************************************
# Minimum and maximum invariant mass for pairs                       *
# WARNING: for four lepton final state mmll cut require to have      *
#          different lepton masses for each flavor!                  *           
#*********************************************************************
 0   = mmjj    ! min invariant mass of a jet pair 
 0   = mmbb    ! min invariant mass of a b pair 
 0   = mmaa    ! min invariant mass of gamma gamma pair
 0   = mmll    ! min invariant mass of l+l- (same flavour) lepton pair
 -1  = mmjjmax ! max invariant mass of a jet pair
 -1  = mmbbmax ! max invariant mass of a b pair
 -1  = mmaamax ! max invariant mass of gamma gamma pair
 -1  = mmllmax ! max invariant mass of l+l- (same flavour) lepton pair
#*********************************************************************
# Minimum and maximum invariant mass for all letpons                 *
#*********************************************************************
 0   = mmnl    ! min invariant mass for all letpons (l+- and vl) 
 -1  = mmnlmax ! max invariant mass for all letpons (l+- and vl) 
#*********************************************************************
# Minimum and maximum pt for 4-momenta sum of leptons                *
#*********************************************************************
 0   = ptllmin  ! Minimum pt for 4-momenta sum of leptons(l and vl)
 -1  = ptllmax  ! Maximum pt for 4-momenta sum of leptons(l and vl)
#*********************************************************************
# Inclusive cuts                                                     *
#*********************************************************************
 0  = xptj ! minimum pt for at least one jet  
 0  = xptb ! minimum pt for at least one b 
 0  = xpta ! minimum pt for at least one photon 
 0  = xptl ! minimum pt for at least one charged lepton 
#*********************************************************************
# Control the pt's of the jets sorted by pt                          *
#*********************************************************************
 0   = ptj1min ! minimum pt for the leading jet in pt
 0   = ptj2min ! minimum pt for the second jet in pt
 0   = ptj3min ! minimum pt for the third jet in pt
 0   = ptj4min ! minimum pt for the fourth jet in pt
 -1  = ptj1max ! maximum pt for the leading jet in pt 
 -1  = ptj2max ! maximum pt for the second jet in pt
 -1  = ptj3max ! maximum pt for the third jet in pt
 -1  = ptj4max ! maximum pt for the fourth jet in pt
 0   = cutuse  ! reject event if fails any (0) / all (1) jet pt cuts
#*********************************************************************
# Control the pt's of leptons sorted by pt                           *
#*********************************************************************
 0   = ptl1min ! minimum pt for the leading lepton in pt
 0   = ptl2min ! minimum pt for the second lepton in pt
 0   = ptl3min ! minimum pt for the third lepton in pt
 0   = ptl4min ! minimum pt for the fourth lepton in pt
 -1  = ptl1max ! maximum pt for the leading lepton in pt 
 -1  = ptl2max ! maximum pt for the second lepton in pt
 -1  = ptl3max ! maximum pt for the third lepton in pt
 -1  = ptl4max ! maximum pt for the fourth lepton in pt
#*********************************************************************
# Control the Ht(k)=Sum of k leading jets                            *
#*********************************************************************
 0   = htjmin ! minimum jet HT=Sum(jet pt)
 -1  = htjmax ! maximum jet HT=Sum(jet pt)
 0   = ihtmin  !inclusive Ht for all partons (including b)
 -1  = ihtmax  !inclusive Ht for all partons (including b)
 0   = ht2min ! minimum Ht for the two leading jets
 0   = ht3min ! minimum Ht for the three leading jets
 0   = ht4min ! minimum Ht for the four leading jets
 -1  = ht2max ! maximum Ht for the two leading jets
 -1  = ht3max ! maximum Ht for the three leading jets
 -1  = ht4max ! maximum Ht for the four leading jets
#***********************************************************************
# Photon-isolation cuts, according to hep-ph/9801442                   *
# When ptgmin=0, all the other parameters are ignored                  *
# When ptgmin>0, pta and draj are not going to be used                 *
#***********************************************************************
   0 = ptgmin ! Min photon transverse momentum
 0.4 = R0gamma ! Radius of isolation code
 1.0 = xn ! n parameter of eq.(3.4) in hep-ph/9801442
 1.0 = epsgamma ! epsilon_gamma parameter of eq.(3.4) in hep-ph/9801442
 .true. = isoEM ! isolate photons from EM energy (photons and leptons)
#*********************************************************************
# WBF cuts                                                           *
#*********************************************************************
 0   = xetamin ! minimum rapidity for two jets in the WBF case  
 0   = deltaeta ! minimum rapidity for two jets in the WBF case 
#*********************************************************************
# KT DURHAM CUT                                                      *
#*********************************************************************
 -1    =  ktdurham        
 0.4  =  dparameter 
#*********************************************************************
# maximal pdg code for quark to be considered as a light jet         *
# (otherwise b cuts are applied)                                     *
#*********************************************************************
 4 = maxjetflavor    ! Maximum jet pdg code
#*********************************************************************
# Jet measure cuts                                                   *
#*********************************************************************
 0   = xqcut   ! minimum kt jet measure between partons
#*********************************************************************
#
#*********************************************************************
# Store info for systematics studies                                 *
# WARNING: If use_syst is T, matched Pythia output is                *
#          meaningful ONLY if plotted taking matchscale              *
#          reweighting into account!                                 *
#*********************************************************************
   F  = use_syst      ! Enable systematics studies
#
#**************************************
# Parameter of the systematics study
#  will be used by SysCalc (if installed)
#**************************************                                  
#
0.5 1 2 = sys_scalefact  # factorization/renormalization scale factor
0.5 1 2 = sys_alpsfact  # \alpha_s emission scale factors
30 50 = sys_matchscale # variation of merging scale
# PDF sets and number of members (0 or none for all members).
CT10nlo.LHgrid = sys_pdf # matching scales
# MSTW2008nlo68cl.LHgrid 1  = sys_pdf
</MGRunCard>
<slha>
######################################################################
## PARAM_CARD AUTOMATICALY GENERATED BY MG5 FOLLOWING UFO MODEL   ####
######################################################################
##                                                                  ##
##  Width set on Auto will be computed following the information    ##
##        present in the decay.py files of the model.               ##
##        See  arXiv:1402.1178 for more details.                    ##
##                                                                  ##
######################################################################

###################################
## INFORMATION FOR CKMBLOCK
###################################
Block ckmblock 
    1 2.277360e-01 # cabi 

###################################
## INFORMATION FOR FRBLOCK
###################################
Block frblock 
    1 6.000000e-01 # gz 

###################################
## INFORMATION FOR MASS
###################################
Block mass 
    1 5.040000e-03 # MD 
    2 2.550000e-03 # MU 
    3 1.010000e-01 # MS 
    4 1.270000e+00 # MC 
    5 4.700000e+00 # MB 
    6 1.720000e+02 # MT 
   11 5.110000e-04 # Me 
   13 1.056600e-01 # MM 
   15 1.777000e+00 # MTA 
   23 9.118760e+01 # MZ 
   25 1.200000e+02 # MH 
  10030 2.500000e+03 # MZph 
  10031 3.000000e+02 # MZpl 
## Dependent parameters, given by model restrictions.
## Those values should be edited following the 
## analytical expression. MG5 ignores those values 
## but they are important for interfacing the output of MG5
## to external program such as Pythia.
  12 0.000000 # ve : 0.0 
  14 0.000000 # vm : 0.0 
  16 0.000000 # vt : 0.0 
  21 0.000000 # g : 0.0 
  22 0.000000 # a : 0.0 
  24 79.824360 # w+ : cmath.sqrt(MZ__exp__2/2. + cmath.sqrt(MZ__exp__4/4. - (aEW*cmath.pi*MZ__exp__2)/(Gf*sqrt__2))) 

###################################
## INFORMATION FOR SMINPUTS
###################################
Block sminputs 
    1 1.279000e+02 # aEWM1 
    2 1.166370e-05 # Gf 
    3 1.184000e-01 # aS 

###################################
## INFORMATION FOR YUKAWA
###################################
Block yukawa 
    1 5.040000e-03 # ymdo 
    2 2.550000e-03 # ymup 
    3 1.010000e-01 # yms 
    4 1.270000e+00 # ymc 
    5 4.700000e+00 # ymb 
    6 1.720000e+02 # ymt 
   11 5.110000e-04 # yme 
   13 1.056600e-01 # ymm 
   15 1.777000e+00 # ymtau 

###################################
## INFORMATION FOR DECAY
###################################
DECAY   6 1.508336e+00 # WT 
DECAY  23 2.495200e+00 # WZ 
DECAY  24 2.085000e+00 # WW 
DECAY  25 5.753088e-03 # WH 
## Dependent parameters, given by model restrictions.
## Those values should be edited following the 
## analytical expression. MG5 ignores those values 
## but they are important for interfacing the output of MG5
## to external program such as Pythia.
DECAY  1 0.000000 # d : 0.0 
DECAY  2 0.000000 # u : 0.0 
DECAY  3 0.000000 # s : 0.0 
DECAY  4 0.000000 # c : 0.0 
DECAY  5 0.000000 # b : 0.0 
DECAY  11 0.000000 # e- : 0.0 
DECAY  12 0.000000 # ve : 0.0 
DECAY  13 0.000000 # mu- : 0.0 
DECAY  14 0.000000 # vm : 0.0 
DECAY  15 0.000000 # ta- : 0.0 
DECAY  16 0.000000 # vt : 0.0 
DECAY  21 0.000000 # g : 0.0 
DECAY  22 0.000000 # a : 0.0 
DECAY  10030 0.308725 # zph : (gz__exp__2*MZph*(5 + cmath.sqrt(1 - (4*MT__exp__2)/MZph__exp__2)))/(144.*cmath.pi) 
DECAY  10031 0.132629 # zpl : (5*gz__exp__2*MZpl)/(144.*cmath.pi) 
#===========================================================
# QUANTUM NUMBERS OF NEW STATE(S) (NON SM PDG CODE)
#===========================================================

Block QNUMBERS 10030  # zph 
        1 0  # 3 times electric charge
        2 3  # number of spin states (2S+1)
        3 1  # colour rep (1: singlet, 3: triplet, 8: octet)
        4 0  # Particle/Antiparticle distinction (0=own anti)
Block QNUMBERS 10031  # zpl 
        1 0  # 3 times electric charge
        2 3  # number of spin states (2S+1)
        3 1  # colour rep (1: singlet, 3: triplet, 8: octet)
        4 0  # Particle/Antiparticle distinction (0=own anti)
</slha>
## END BANNER##
<MGGenerationInfo>
#  Number of Events        :         3934
#  Integrated weight (pb)  :  0.23210E-02
#  Max wgt                 :  0.89483E-06
#  Average wgt             :  0.58998E-06
</MGGenerationInfo>
</header>
<init>
     2212     2212  0.40000000000E+04  0.40000000000E+04 0 0  247000  247000 2   1
  0.23232502930E-02  0.45638205023E-05  0.89482860000E-06   0
</init>
<event>
 5   0  0.8579923E-06  0.2492042E+04  0.7818609E-02  0.8405826E-01
        2   -1    0    0  501    0  0.00000000000E+00  0.00000000000E+00  0.14112529964E+04  0.14112529964E+04  0.25500000920E-02 0.  1.
       -2   -1    0    0    0  501  0.00000000000E+00  0.00000000000E+00 -0.11001350896E+04  0.11001350896E+04  0.25500000920E-02 0. -1.
    10030    2    1    2    0    0  0.00000000000E+00  0.00000000000E+00  0.31111790681E+03  0.25113880861E+04  0.24920424890E+04 0.  0.
        1    1    3    3  502    0 -0.19732863707E+03  0.79808292509E+03 -0.78802903310E+03  0.11387996766E+04  0.50400001928E-02 0. -1.
       -1    1    3    3    0  502  0.19732863707E+03 -0.79808292509E+03  0.10991469399E+04  0.13725884095E+04  0.50400001928E-02 0.  1.
</event>
<event>
 5   0  0.8579923E-06  0.2509945E+04  0.7818609E-02  0.8399451E-01
       -2   -1    0    0    0  501  0.00000000000E+00  0.00000000000E+00  0.17455588520E+04  0.17455588520E+04  0.25500000920E-02 0. -1.
        2   -1    0    0  501    0  0.00000000000E+00  0.00000000000E+00 -0.90226470585E+03  0.90226470585E+03  0.25500000920E-02 0.  1.
    10030    2    1    2    0    0  0.00000000000E+00  0.00000000000E+00  0.84329414619E+03  0.26478235579E+04  0.25099451342E+04 0.  0.
        1    1    3    3  502    0  0.16545246105E+03  0.12319170522E+04  0.60425105381E+03  0.13820685498E+04  0.50400001928E-02 0. -1.
       -1    1    3    3    0  502 -0.16545246105E+03 -0.12319170522E+04  0.23904309238E+03  0.12657550081E+04  0.50400001928E-02 0.  1.
</event>
<event>
 5   0  0.8354653E-06  0.2612182E+04  0.7818609E-02  0.8364075E-01
        2   -1    0    0  501    0  0.00000000000E+00  0.00000000000E+00  0.14735218104E+04  0.14735218104E+04  0.25500000920E-02 0.  1.
       -2   -1    0    0    0  501  0.00000000000E+00  0.00000000000E+00 -0.11576848994E+04  0.11576848994E+04  0.25500000920E-02 0. -1.
    10030    2    1    2    0    0  0.00000000000E+00  0.00000000000E+00  0.31583691096E+03  0.26312067098E+04  0.26121821903E+04 0.  0.
        3    1    3    3  502    0 -0.41329776135E+03  0.12362682553E+04  0.24036627767E+03  0.13254999797E+04  0.10100000352E+00 0.  1.
       -3    1    3    3    0  502  0.41329776135E+03 -0.12362682553E+04  0.75470633289E+02  0.13057067302E+04  0.10100000352E+00 0. -1.
</event>
<event>
 5   0  0.8579923E-06  0.2522663E+04  0.7818609E-02  0.8394956E-01
       -2   -1    0    0    0  501  0.00000000000E+00  0.00000000000E+00  0.86048046001E+03  0.86048046001E+03  0.25500000920E-02 0. -1.
        2   -1    0    0  501    0  0.00000000000E+00  0.00000000000E+00 -0.18489166546E+04  0.18489166546E+04  0.25500000920E-02 0.  1.
    10030    2    1    2    0    0  0.00000000000E+00  0.00000000000E+00 -0.98843619461E+03  0.27093971146E+04  0.25226626041E+04 0.  0.
        1    1    3    3  502    0 -0.12337751275E+04  0.20758644048E+03 -0.66627459621E+03  0.14174678244E+04  0.50400001928E-02 0.  1.
       -1    1    3    3    0  502  0.12337751275E+04 -0.20758644048E+03 -0.32216159840E+03  0.12919292903E+04  0.50400001928E-02 0. -1.
</event>
<event>
 5   0  0.8354653E-06  0.2477080E+04  0.7818609E-02  0.8411197E-01
        2   -1    0    0  501    0  0.00000000000E+00  0.00000000000E+00  0.15460035422E+04  0.15460035422E+04  0.25500000920E-02 0. -1.
       -2   -1    0    0    0  501  0.00000000000E+00  0.00000000000E+00 -0.99222353454E+03  0.99222353454E+03  0.25500000920E-02 0.  1.
    10030    2    1    2    0    0  0.00000000000E+00  0.00000000000E+00  0.55378000768E+03  0.25382270768E+04  0.24770798123E+04 0.  0.
        3    1    3    3  502    0  0.54615416029E+02  0.11584903357E+04 -0.16846321737E+03  0.11719481931E+04  0.10100000352E+00 0.  1.
       -3    1    3    3    0  502 -0.54615416029E+02 -0.11584903357E+04  0.72224322506E+03  0.13662788836E+04  0.10100000352E+00 0. -1.
</event>
<event>
 5   0  0.3424193E-06  0.2497910E+04  0.7818609E-02  0.8403730E-01
       -1   -1    0    0    0  501  0.00000000000E+00  0.00000000000E+00  0.11282850678E+04  0.11282850679E+04  0.50400001928E-02 0. -1.
        1   -1    0    0  501    0  0.00000000000E+00  0.00000000000E+00 -0.13825309532E+04  0.13825309532E+04  0.50400001928E-02 0.  1.
    10030    2    1    2    0    0  0.00000000000E+00  0.00000000000E+00 -0.25424588533E+03  0.25108160210E+04  0.24979103509E+04 0.  0.
        1    1    3    3  502    0  0.45412078966E+03 -0.78252890022E+03  0.73832015259E+03  0.11677730169E+04  0.50400001928E-02 0. -1.
       -1    1    3    3    0  502 -0.45412078966E+03  0.78252890022E+03 -0.99256603793E+03  0.13430430041E+04  0.50400001928E-02 0.  1.
</event>
<event>
 5   0  0.3484857E-06  0.2503019E+04  0.7818609E-02  0.8401911E-01
        1   -1    0    0  501    0  0.00000000000E+00  0.00000000000E+00  0.13721761530E+04  0.13721761530E+04  0.50400001928E-02 0.  1.
       -1   -1    0    0    0  501  0.00000000000E+00  0.00000000000E+00 -0.11414542012E+04  0.11414542013E+04  0.50400001928E-02 0. -1.
    10030    2    1    2    0    0  0.00000000000E+00  0.00000000000E+00  0.23072195180E+03  0.25136303543E+04  0.25030191647E+04 0.  0.
        3    1    3    3  502    0  0.70952110470E+02  0.65994172776E+03  0.11808579571E+04  0.13546153739E+04  0.10100000352E+00 0.  1.
       -3    1    3    3    0  502 -0.70952110470E+02 -0.65994172776E+03 -0.95013600533E+03  0.11590149804E+04  0.10100000352E+00 0. -1.
</event>
<event>
 5   0  0.8579923E-06  0.2500090E+04  0.7818609E-02  0.8402954E-01
       -2   -1    0    0    0  501  0.00000000000E+00  0.00000000000E+00  0.18083510550E+04  0.18083510550E+04  0.25500000920E-02 0. -1.
        2   -1    0    0  501    0  0.00000000000E+00  0.00000000000E+00 -0.86410877321E+03  0.86410877321E+03  0.25500000920E-02 0.  1.
    10030    2    1    2    0    0  0.00000000000E+00  0.00000000000E+00  0.94424228182E+03  0.26724598282E+04  0.25000896078E+04 0.  0.
        1    1    3    3  502    0 -0.31864272644E+03  0.88053437768E+03 -0.41306525326E+03  0.10234729507E+04  0.50400001928E-02 0.  1.
       -1    1    3    3    0  502  0.31864272644E+03 -0.88053437768E+03  0.13573075351E+04  0.16489868775E+04  0.50400001928E-02 0. -1.
</event>
<event>
 5   0  0.3522870E-06  0.2482301E+04  0.7818609E-02  0.8409318E-01
       -1   -1    0    0    0  501  0.00000000000E+00  0.00000000000E+00  0.10270916885E+04  0.10270916885E+04  0.50400001928E-02 0. -1.
        1   -1    0    0  501    0  0.00000000000E+00  0.00000000000E+00 -0.14998220757E+04  0.14998220757E+04  0.50400001928E-02 0.  1.
    10030    2    1    2    0    0  0.00000000000E+00  0.00000000000E+00 -0.47273038721E+03  0.25269137642E+04  0.24823011809E+04 0.  0.
        2    1    3    3  502    0 -0.32121423539E+03  0.47797812953E+03  0.88285497597E+03  0.10540752278E+04  0.25500000920E-02 0. -1.
       -2    1    3    3    0  502  0.32121423539E+03 -0.47797812953E+03 -0.13555853632E+04  0.14728385364E+04  0.25500000920E-02 0.  1.
</event>
<event>
 5   0  0.8579923E-06  0.2452620E+04  0.7818609E-02  0.8420062E-01
       -2   -1    0    0    0  501  0.00000000000E+00  0.00000000000E+00  0.14436407353E+04  0.14436407353E+04  0.25500000920E-02 0.  1.
        2   -1    0    0  501    0  0.00000000000E+00  0.00000000000E+00 -0.10416966405E+04  0.10416966405E+04  0.25500000920E-02 0. -1.
    10030    2    1    2    0    0  0.00000000000E+00  0.00000000000E+00  0.40194409475E+03  0.24853373758E+04  0.24526195825E+04 0.  0.
        1    1    3    3  502    0  0.11891753773E+04 -0.26817751439E+03  0.33608658118E+03  0.12645202440E+04  0.50400001928E-02 0.  1.
       -1    1    3    3    0  502 -0.11891753773E+04  0.26817751439E+03  0.65857513563E+02  0.12208171319E+04  0.50400001928E-02 0. -1.
</event>
<event>
 5   0  0.2901250E-06  0.2499290E+04  0.7818609E-02  0.8403239E-01
       -4   -1    0    0    0  501  0.00000000000E+00  0.00000000000E+00  0.14564451319E+04  0.14564456857E+04  0.12699999809E+01 0. -1.
        4   -1    0    0  501    0  0.00000000000E+00  0.00000000000E+00 -0.10722072019E+04  0.10722079540E+04  0.12699999809E+01 0.  1.
    10030    2    1    2    0    0  0.00000000000E+00  0.00000000000E+00  0.38423793005E+03  0.25286536397E+04  0.24992899877E+04 0.  0.
        4    1    3    3  502    0 -0.13763014624E+03  0.73268808413E+03  0.12068163116E+04  0.14185136970E+04  0.12699999809E+01 0. -1.
       -4    1    3    3    0  502  0.13763014624E+03 -0.73268808413E+03 -0.82257838151E+03  0.11101399427E+04  0.12699999809E+01 0.  1.
</event>
<event>
 5   0  0.8407986E-06  0.2489862E+04  0.7818609E-02  0.8406606E-01
       -2   -1    0    0    0  501  0.00000000000E+00  0.00000000000E+00  0.73919934308E+03  0.73919934309E+03  0.25500000920E-02 0.  1.
        2   -1    0    0  501    0  0.00000000000E+00  0.00000000000E+00 -0.20966651338E+04  0.20966651338E+04  0.25500000920E-02 0. -1.
    10030    2    1    2    0    0  0.00000000000E+00  0.00000000000E+00 -0.13574657907E+04  0.28358644769E+04  0.24898622368E+04 0.  0.
        5    1    3    3  502    0  0.45274459046E+03 -0.10034917996E+04 -0.16703579401E+02  0.11010334035E+04  0.46999998093E+01 0.  1.
       -5    1    3    3    0  502 -0.45274459046E+03  0.10034917996E+04 -0.13407622113E+04  0.17348310734E+04  0.46999998093E+01 0. -1.
</event>
<event>
 5   0  0.3642184E-06  0.2500786E+04  0.7818609E-02  0.8402705E-01
       -1   -1    0    0    0  501  0.00000000000E+00  0.00000000000E+00  0.28610401165E+04  0.28610401165E+04  0.50400001928E-02 0. -1.
        1   -1    0    0  501    0  0.00000000000E+00  0.00000000000E+00 -0.54647367843E+03  0.54647367845E+03  0.50400001928E-02 0.  1.
    10030    2    1    2    0    0  0.00000000000E+00  0.00000000000E+00  0.23145664380E+04  0.34075137949E+04  0.25007863696E+04 0.  0.
        5    1    3    3  502    0  0.11089183529E+04 -0.29626386363E+03  0.18330840602E+04  0.21627971362E+04  0.46999998093E+01 0. -1.
       -5    1    3    3    0  502 -0.11089183529E+04  0.29626386363E+03  0.48148237779E+03  0.12447166587E+04  0.46999998093E+01 0.  1.
</event>
<event>
 5   0  0.3424193E-06  0.2505110E+04  0.7818609E-02  0.8401167E-01
       -1   -1    0    0    0  501  0.00000000000E+00  0.00000000000E+00  0.13893594895E+04  0.13893594895E+04  0.50400001928E-02 0. -1.
        1   -1    0    0  501    0  0.00000000000E+00  0.00000000000E+00 -0.11292213649E+04  0.11292213649E+04  0.50400001928E-02 0.  1.
    10030    2    1    2    0    0  0.00000000000E+00  0.00000000000E+00  0.26013812458E+03  0.25185808544E+04  0.25051103122E+04 0.  0.
        1    1    3    3  502    0 -0.41639881503E+03  0.47929939955E+03  0.12155871629E+04  0.13714109662E+04  0.50400001928E-02 0. -1.
       -1    1    3    3    0  502  0.41639881503E+03 -0.47929939955E+03 -0.95544903830E+03  0.11471698882E+04  0.50400001928E-02 0.  1.
</event>
<event>
 5   0  0.3484857E-06  0.2492570E+04  0.7818609E-02  0.8405637E-01
       -1   -1    0    0    0  501  0.00000000000E+00  0.00000000000E+00  0.14013808106E+04  0.14013808106E+04  0.50400001928E-02 0.  1.
        1   -1    0    0  501    0  0.00000000000E+00  0.00000000000E+00 -0.11083541548E+04  0.11083541548E+04  0.50400001928E-02 0. -1.
    10030    2    1    2    0    0  0.00000000000E+00  0.00000000000E+00  0.29302665579E+03  0.25097349654E+04  0.24925699540E+04 0.  0.
        3    1    3    3  502    0  0.13860568785E+03  0.19192903863E+03  0.13785317889E+04  0.13987130499E+04  0.10100000352E+00 0.  1.
       -3    1    3    3    0  502 -0.13860568785E+03 -0.19192903863E+03 -0.10855051331E+04  0.11110219156E+04  0.10100000352E+00 0. -1.
</event>
<event>
 5   0  0.3484857E-06  0.2530729E+04  0.7818609E-02  0.8392119E-01
       -1   -1    0    0    0  501  0.00000000000E+00  0.00000000000E+00  0.99803356380E+03  0.99803356381E+03  0.50400001928E-02 0.  1.
        1   -1    0    0  501    0  0.00000000000E+00  0.00000000000E+00 -0.16043018240E+04  0.16043018240E+04  0.50400001928E-02 0. -1.
    10030    2    1    2    0    0  0.00000000000E+00  0.00000000000E+00 -0.60626826017E+03  0.26023353878E+04  0.25307288016E+04 0.  0.
        3    1    3    3  502    0  0.51504788153E+03  0.78202004259E+03 -0.11782833615E+04  0.15050519451E+04  0.10100000352E+00 0. -1.
       -3    1    3    3    0  502 -0.51504788153E+03 -0.78202004259E+03  0.57201510132E+03  0.10972834427E+04  0.10100000352E+00 0.  1.
</event>
<event>
 5   0  0.8579923E-06  0.2512702E+04  0.7818609E-02  0.8398474E-01
       -2   -1    0    0    0  501  0.00000000000E+00  0.00000000000E+00  0.86575153088E+03  0.86575153089E+03  0.25500000920E-02 0.  1.
        2   -1    0    0  501    0  0.00000000000E+00  0.00000000000E+00 -0.18231771885E+04  0.18231771885E+04  0.25500000920E-02 0. -1.
    10030    2    1    2    0    0  0.00000000000E+00  0.00000000000E+00 -0.95742565759E+03  0.26889287194E+04  0.25127024830E+04 0.  0.
        1    1    3    3  502    0  0.94220872078E+03 -0.15440811659E+03 -0.13525737174E+04  0.16556131194E+04  0.50400001928E-02 0. -1.
       -1    1    3    3    0  502 -0.94220872078E+03  0.15440811659E+03  0.39514805982E+03  0.10333156000E+04  0.50400001928E-02 0.  1.
</event>
<event>
 5   0  0.3481387E-06  0.2496665E+04  0.7818609E-02  0.8404175E-01
        1   -1    0    0  501    0  0.00000000000E+00  0.00000000000E+00  0.11746863747E+04  0.11746863747E+04  0.50400001928E-02 0.  1.
       -1   -1    0    0    0  501  0.00000000000E+00  0.00000000000E+00 -0.13265953914E+04  0.13265953914E+04  0.50400001928E-02 0. -1.
    10030    2    1    2    0    0  0.00000000000E+00  0.00000000000E+00 -0.15190901663E+03  0.25012817661E+04  0.24966645999E+04 0.  0.
        4    1    3    3  502    0 -0.40814334845E+03 -0.26101329963E+03  0.10766612781E+04  0.11806396809E+04  0.12699999809E+01 0.  1.
       -4    1    3    3    0  502  0.40814334845E+03  0.26101329963E+03 -0.12285702947E+04  0.13206420853E+04  0.12699999809E+01 0. -1.
</event>
<event>
 5   0  0.3424193E-06  0.2503387E+04  0.7818609E-02  0.8401780E-01
        1   -1    0    0  501    0  0.00000000000E+00  0.00000000000E+00  0.67289417104E+03  0.67289417106E+03  0.50400001928E-02 0. -1.
       -1   -1    0    0    0  501  0.00000000000E+00  0.00000000000E+00 -0.23283552984E+04  0.23283552984E+04  0.50400001928E-02 0.  1.
    10030    2    1    2    0    0  0.00000000000E+00  0.00000000000E+00 -0.16554611273E+04  0.30012494694E+04  0.25033870723E+04 0.  0.
        1    1    3    3  502    0 -0.56758560878E+03  0.11097342329E+04 -0.96480779747E+03  0.15762352544E+04  0.50400001928E-02 0.  1.
       -1    1    3    3    0  502  0.56758560878E+03 -0.11097342329E+04 -0.69065332987E+03  0.14250142151E+04  0.50400001928E-02 0. -1.
</event>
<event>
 5   0  0.8056723E-06  0.2501026E+04  0.7818609E-02  0.8402620E-01
       -2   -1    0    0    0  501  0.00000000000E+00  0.00000000000E+00  0.10678927457E+04  0.10678927457E+04  0.25500000920E-02 0. -1.
        2   -1    0    0  501    0  0.00000000000E+00  0.00000000000E+00 -0.14643633262E+04  0.14643633262E+04  0.25500000920E-02 0.  1.
    10030    2    1    2    0    0  0.00000000000E+00  0.00000000000E+00 -0.39647058048E+03  0.25322560720E+04  0.25010261680E+04 0.  0.
        2    1    3    3  502    0  0.12749216276E+03 -0.11397480796E+04  0.30649019639E+03  0.11871041138E+04  0.25500000920E-02 0. -1.
       -2    1    3    3    0  502 -0.12749216276E+03  0.11397480796E+04 -0.70296077687E+03  0.13451519581E+04  0.25500000920E-02 0.  1.
</event>
<event>
 5   0  0.3484857E-06  0.2508668E+04  0.7818609E-02  0.8399904E-01
        1   -1    0    0  501    0  0.00000000000E+00  0.00000000000E+00  0.12873713922E+04  0.12873713922E+04  0.50400001928E-02 0. -1.
       -1   -1    0    0    0  501  0.00000000000E+00  0.00000000000E+00 -0.12221440227E+04  0.12221440227E+04  0.50400001928E-02 0.  1.
    10030    2    1    2    0    0  0.00000000000E+00  0.00000000000E+00  0.65227369539E+02  0.25095154149E+04  0.25086675762E+04 0.  0.
        3    1    3    3  502    0  0.94296261397E+03 -0.61072158920E+03  0.59064976873E+03  0.12692621913E+04  0.10100000352E+00 0. -1.
       -3    1    3    3    0  502 -0.94296261397E+03  0.61072158920E+03 -0.52542239920E+03  0.12402532236E+04  0.10100000352E+00 0.  1.
</event>
<event>
 5   0  0.8354653E-06  0.2509968E+04  0.7818609E-02  0.8399443E-01
        2   -1    0    0  501    0  0.00000000000E+00  0.00000000000E+00  0.17036059796E+04  0.17036059796E+04  0.25500000920E-02 0.  1.
       -2   -1    0    0    0  501  0.00000000000E+00  0.00000000000E+00 -0.92450061003E+03  0.92450061003E+03  0.25500000920E-02 0. -1.
    10030    2    1    2    0    0  0.00000000000E+00  0.00000000000E+00  0.77910536958E+03  0.26281065896E+04  0.25099679420E+04 0.  0.
        3    1    3    3  502    0 -0.54458070059E+03  0.94099497235E+03  0.10459106019E+04  0.15086313913E+04  0.10100000352E+00 0.  1.
       -3    1    3    3    0  502  0.54458070059E+03 -0.94099497235E+03 -0.26680523235E+03  0.11194751983E+04  0.10100000352E+00 0. -1.
</event>
<event>
 5   0  0.3424193E-06  0.2490706E+04  0.7818609E-02  0.8406304E-01
        1   -1    0    0  501    0  0.00000000000E+00  0.00000000000E+00  0.11286037404E+04  0.11286037404E+04  0.50400001928E-02 0. -1.
       -1   -1    0    0    0  501  0.00000000000E+00  0.00000000000E+00 -0.13741798342E+04  0.13741798342E+04  0.50400001928E-02 0.  1.
    10030    2    1    2    0    0  0.00000000000E+00  0.00000000000E+00 -0.24557609378E+03  0.25027835746E+04  0.24907063262E+04 0.  0.
        1    1    3    3  502    0 -0.28792808820E+03  0.10305419483E+04 -0.76304732168E+03  0.13142147870E+04  0.50400001928E-02 0.  1.
       -1    1    3    3    0  502  0.28792808820E+03 -0.10305419483E+04  0.51747122789E+03  0.11885687876E+04  0.50400001928E-02 0. -1.
</event>
<event>
 5   0  0.8056723E-06  0.2485460E+04  0.7818609E-02  0.8408184E-01
       -2   -1    0    0    0  501  0.00000000000E+00  0.00000000000E+00  0.14830448371E+04  0.14830448371E+04  0.25500000920E-02 0.  1.
        2   -1    0    0  501    0  0.00000000000E+00  0.00000000000E+00 -0.10413564907E+04  0.10413564907E+04  0.25500000920E-02 0. -1.
    10030    2    1    2    0    0  0.00000000000E+00  0.00000000000E+00  0.44168834644E+03  0.25244013278E+04  0.24854604138E+04 0.  0.
        2    1    3    3  502    0 -0.50115743795E+03 -0.79550830738E+03 -0.60452932219E+03  0.11177870755E+04  0.25500000920E-02 0. -1.
       -2    1    3    3    0  502  0.50115743795E+03  0.79550830738E+03  0.10462176686E+04  0.14066142523E+04  0.25500000920E-02 0.  1.
</event>
<event>
 5   0  0.3522870E-06  0.2512685E+04  0.7818609E-02  0.8398480E-01
        1   -1    0    0  501    0  0.00000000000E+00  0.00000000000E+00  0.16235857865E+04  0.16235857865E+04  0.50400001928E-02 0. -1.
       -1   -1    0    0    0  501  0.00000000000E+00  0.00000000000E+00 -0.97216700216E+03  0.97216700217E+03  0.50400001928E-02 0.  1.
    10030    2    1    2    0    0  0.00000000000E+00  0.00000000000E+00  0.65141878431E+03  0.25957527886E+04  0.25126850394E+04 0.  0.
        2    1    3    3  502    0 -0.19162128688E+03 -0.94150566740E+03 -0.51052321088E+03  0.10880191121E+04  0.25500000920E-02 0. -1.
       -2    1    3    3    0  502  0.19162128688E+03  0.94150566740E+03  0.11619419952E+04  0.15077336766E+04  0.25500000920E-02 0.  1.
</event>
<event>
 5   0  0.8354653E-06  0.2488689E+04  0.7818609E-02  0.8407026E-01
       -2   -1    0    0    0  501  0.00000000000E+00  0.00000000000E+00  0.10983609945E+04  0.10983609945E+04  0.25500000920E-02 0.  1.
        2   -1    0    0  501    0  0.00000000000E+00  0.00000000000E+00 -0.14097308997E+04  0.14097308997E+04  0.25500000920E-02 0. -1.
    10030    2    1    2    0    0  0.00000000000E+00  0.00000000000E+00 -0.31136990524E+03  0.25080918942E+04  0.24886891593E+04 0.  0.
        3    1    3    3  502    0 -0.15315999356E+03 -0.89045501622E+03  0.70657027319E+03  0.11470002967E+04  0.10100000352E+00 0.  1.
       -3    1    3    3    0  502  0.15315999356E+03  0.89045501622E+03 -0.10179401784E+04  0.13610915974E+04  0.10100000352E+00 0. -1.
</event>
<event>
 5   0  0.8407986E-06  0.2504455E+04  0.7818609E-02  0.8401400E-01
       -2   -1    0    0    0  501  0.00000000000E+00  0.00000000000E+00  0.87970903085E+03  0.87970903085E+03  0.25500000920E-02 0. -1.
        2   -1    0    0  501    0  0.00000000000E+00  0.00000000000E+00 -0.17824914837E+04  0.17824914837E+04  0.25500000920E-02 0.  1.
    10030    2    1    2    0    0  0.00000000000E+00  0.00000000000E+00 -0.90278245281E+03  0.26622005145E+04  0.25044551149E+04 0.  0.
        5    1    3    3  502    0 -0.39833412196E+03 -0.11669221697E+04 -0.68348840865E+03  0.14098070498E+04  0.46999998093E+01 0.  1.
       -5    1    3    3    0  502  0.39833412196E+03  0.11669221697E+04 -0.21929404416E+03  0.12523934648E+04  0.46999998093E+01 0. -1.
</event>
<event>
 5   0  0.3522870E-06  0.2502697E+04  0.7818609E-02  0.8402025E-01
        1   -1    0    0  501    0  0.00000000000E+00  0.00000000000E+00  0.21195178594E+04  0.21195178594E+04  0.50400001928E-02 0. -1.
       -1   -1    0    0    0  501  0.00000000000E+00  0.00000000000E+00 -0.73878768412E+03  0.73878768414E+03  0.50400001928E-02 0.  1.
    10030    2    1    2    0    0  0.00000000000E+00  0.00000000000E+00  0.13807301753E+04  0.28583055436E+04  0.25026974974E+04 0.  0.
        2    1    3    3  502    0 -0.61994471718E+03  0.10381919644E+04  0.32258432613E+03  0.12514929703E+04  0.25500000920E-02 0.  1.
       -2    1    3    3    0  502  0.61994471718E+03 -0.10381919644E+04  0.10581458492E+04  0.16068125732E+04  0.25500000920E-02 0. -1.
</event>
<event>
 5   0  0.8354653E-06  0.2499217E+04  0.7818609E-02  0.8403265E-01
        2   -1    0    0  501    0  0.00000000000E+00  0.00000000000E+00  0.70346267930E+03  0.70346267930E+03  0.25500000920E-02 0. -1.
       -2   -1    0    0    0  501  0.00000000000E+00  0.00000000000E+00 -0.22197642104E+04  0.22197642104E+04  0.25500000920E-02 0.  1.
    10030    2    1    2    0    0  0.00000000000E+00  0.00000000000E+00 -0.15163015311E+04  0.29232268897E+04  0.24992169005E+04 0.  0.
        3    1    3    3  502    0  0.34918643546E+03  0.66335778741E+03  0.41124115168E+03  0.85504035920E+03  0.10100000352E+00 0. -1.
       -3    1    3    3    0  502 -0.34918643546E+03 -0.66335778741E+03 -0.19275426828E+04  0.20681865305E+04  0.10100000352E+00 0.  1.
</event>
<event>
 5   0  0.8579923E-06  0.2497625E+04  0.7818609E-02  0.8403832E-01
        2   -1    0    0  501    0  0.00000000000E+00  0.00000000000E+00  0.83733504079E+03  0.83733504080E+03  0.25500000920E-02 0.  1.
       -2   -1    0    0    0  501  0.00000000000E+00  0.00000000000E+00 -0.18624949489E+04  0.18624949489E+04  0.25500000920E-02 0. -1.
    10030    2    1    2    0    0  0.00000000000E+00  0.00000000000E+00 -0.10251599081E+04  0.26998299897E+04  0.24976246988E+04 0.  0.
        1    1    3    3  502    0  0.78657381640E+03  0.65511200556E+03  0.26063615465E+03  0.10563149689E+04  0.50400001928E-02 0.  1.
       -1    1    3    3    0  502 -0.78657381640E+03 -0.65511200556E+03 -0.12857960628E+04  0.16435150208E+04  0.50400001928E-02 0. -1.
</event>
<event>
 5   0  0.3642184E-06  0.2489862E+04  0.7818609E-02  0.8406606E-01
        1   -1    0    0  501    0  0.00000000000E+00  0.00000000000E+00  0.13407729612E+04  0.13407729612E+04  0.50400001928E-02 0.  1.
       -1   -1    0    0    0  501  0.00000000000E+00  0.00000000000E+00 -0.11559405333E+04  0.11559405333E+04  0.50400001928E-02 0. -1.
    10030    2    1    2    0    0  0.00000000000E+00  0.00000000000E+00  0.18483242793E+03  0.24967134945E+04  0.24898624957E+04 0.  0.
        5    1    3    3  502    0  0.95429186893E+03  0.66504322254E+03  0.53734450710E+03  0.12812949185E+04  0.46999998093E+01 0.  1.
       -5    1    3    3    0  502 -0.95429186893E+03 -0.66504322254E+03 -0.35251207917E+03  0.12154185760E+04  0.46999998093E+01 0. -1.
</event>
<event>
 5   0  0.8354653E-06  0.2540296E+04  0.7818609E-02  0.8388769E-01
       -2   -1    0    0    0  501  0.00000000000E+00  0.00000000000E+00  0.11111254460E+04  0.11111254460E+04  0.25500000920E-02 0. -1.
        2   -1    0    0  501    0  0.00000000000E+00  0.00000000000E+00 -0.14519293006E+04  0.14519293006E+04  0.25500000920E-02 0.  1.
    10030    2    1    2    0    0  0.00000000000E+00  0.00000000000E+00 -0.34080385463E+03  0.25630547466E+04  0.25402957243E+04 0.  0.
        3    1    3    3  502    0  0.21439709810E+03 -0.12146898941E+04 -0.47616472363E+03  0.13221839920E+04  0.10100000352E+00 0.  1.
       -3    1    3    3    0  502 -0.21439709810E+03  0.12146898941E+04  0.13536086900E+03  0.12408707546E+04  0.10100000352E+00 0. -1.
</event>
<event>
 5   0  0.3481387E-06  0.2503857E+04  0.7818609E-02  0.8401613E-01
       -1   -1    0    0    0  501  0.00000000000E+00  0.00000000000E+00  0.10252028292E+04  0.10252028292E+04  0.50400001928E-02 0. -1.
        1   -1    0    0  501    0  0.00000000000E+00  0.00000000000E+00 -0.15287949486E+04  0.15287949486E+04  0.50400001928E-02 0.  1.
    10030    2    1    2    0    0  0.00000000000E+00  0.00000000000E+00 -0.50359211943E+03  0.25539977778E+04  0.25038569501E+04 0.  0.
        4    1    3    3  502    0  0.10388001693E+04  0.25442428281E+03  0.41199350559E+03  0.11461142041E+04  0.12699999809E+01 0. -1.
       -4    1    3    3    0  502 -0.10388001693E+04 -0.25442428281E+03 -0.91558562502E+03  0.14078835737E+04  0.12699999809E+01 0.  1.
</event>
<event>
 5   0  0.3424193E-06  0.2494003E+04  0.7818609E-02  0.8405125E-01
        1   -1    0    0  501    0  0.00000000000E+00  0.00000000000E+00  0.12672519914E+04  0.12672519914E+04  0.50400001928E-02 0.  1.
       -1   -1    0    0    0  501  0.00000000000E+00  0.00000000000E+00 -0.12270748351E+04  0.12270748351E+04  0.50400001928E-02 0. -1.
    10030    2    1    2    0    0  0.00000000000E+00  0.00000000000E+00  0.40177156264E+02  0.24943268266E+04  0.24940032305E+04 0.  0.
        1    1    3    3  502    0  0.27414359586E+02 -0.12087385461E+04  0.32543559144E+03  0.12520817642E+04  0.50400001928E-02 0.  1.
       -1    1    3    3    0  502 -0.27414359586E+02  0.12087385461E+04 -0.28525843518E+03  0.12422450623E+04  0.50400001928E-02 0. -1.
</event>
<event>
 5   0  0.3484857E-06  0.2504278E+04  0.7818609E-02  0.8401463E-01
        1   -1    0    0  501    0  0.00000000000E+00  0.00000000000E+00  0.14009989948E+04  0.14009989948E+04  0.50400001928E-02 0. -1.
       -1   -1    0    0    0  501  0.00000000000E+00  0.00000000000E+00 -0.11190959528E+04  0.11190959528E+04  0.50400001928E-02 0.  1.
    10030    2    1    2    0    0  0.00000000000E+00  0.00000000000E+00  0.28190304202E+03  0.25200949476E+04  0.25042781834E+04 0.  0.
        3    1    3    3  502    0  0.19394630639E+03 -0.13648659654E+03 -0.10962886181E+04  0.11216472285E+04  0.10100000352E+00 0.  1.
       -3    1    3    3    0  502 -0.19394630639E+03  0.13648659654E+03  0.13781916601E+04  0.13984477191E+04  0.10100000352E+00 0. -1.
</event>
<event>
 5   0  0.8948286E-06  0.2545914E+04  0.7818609E-02  0.8386809E-01
        2   -1    0    0  501    0  0.00000000000E+00  0.00000000000E+00  0.25434463266E+04  0.25434463266E+04  0.25500000920E-02 0. -1.
       -2   -1    0    0    0  501  0.00000000000E+00  0.00000000000E+00 -0.63709613978E+03  0.63709613979E+03  0.25500000920E-02 0.  1.
    10030    2    1    2    0    0  0.00000000000E+00  0.00000000000E+00  0.19063501869E+04  0.31805424664E+04  0.25459142456E+04 0.  0.
        4    1    3    3  502    0 -0.99188908124E+03 -0.93701890357E+02  0.19430175718E+04  0.21835619733E+04  0.12699999809E+01 0. -1.
       -4    1    3    3    0  502  0.99188908124E+03  0.93701890357E+02 -0.36667384970E+02  0.99698049317E+03  0.12699999809E+01 0.  1.
</event>
<event>
 5   0  0.8948286E-06  0.2473566E+04  0.7818609E-02  0.8412464E-01
       -2   -1    0    0    0  501  0.00000000000E+00  0.00000000000E+00  0.79480088000E+03  0.79480088001E+03  0.25500000920E-02 0. -1.
        2   -1    0    0  501    0  0.00000000000E+00  0.00000000000E+00 -0.19245477697E+04  0.19245477697E+04  0.25500000920E-02 0.  1.
    10030    2    1    2    0    0  0.00000000000E+00  0.00000000000E+00 -0.11297468897E+04  0.27193486497E+04  0.24735660581E+04 0.  0.
        4    1    3    3  502    0  0.44294427641E+03  0.15547992299E+03  0.69304890462E+03  0.83707349471E+03  0.12699999809E+01 0. -1.
       -4    1    3    3    0  502 -0.44294427641E+03 -0.15547992299E+03 -0.18227957943E+04  0.18822751550E+04  0.12699999809E+01 0.  1.
</event>
<event>
 5   0  0.3522870E-06  0.2513293E+04  0.7818609E-02  0.8398265E-01
        1   -1    0    0  501    0  0.00000000000E+00  0.00000000000E+00  0.14488309107E+04  0.14488309107E+04  0.50400001928E-02 0. -1.
       -1   -1    0    0    0  501  0.00000000000E+00  0.00000000000E+00 -0.10899547588E+04  0.10899547588E+04  0.50400001928E-02 0.  1.
    10030    2    1    2    0    0  0.00000000000E+00  0.00000000000E+00  0.35887615193E+03  0.25387856695E+04  0.25132927770E+04 0.  0.
        2    1    3    3  502    0 -0.27843729438E+03  0.22681006284E+03 -0.10370151382E+04  0.10974381661E+04  0.25500000920E-02 0.  1.
       -2    1    3    3    0  502  0.27843729438E+03 -0.22681006284E+03  0.13958912902E+04  0.14413475034E+04  0.25500000920E-02 0. -1.
</event>
<event>
 5   0  0.3484857E-06  0.2499984E+04  0.7818609E-02  0.8402991E-01
        1   -1    0    0  501    0  0.00000000000E+00  0.00000000000E+00  0.76200173260E+03  0.76200173262E+03  0.50400001928E-02 0. -1.
       -1   -1    0    0    0  501  0.00000000000E+00  0.00000000000E+00 -0.20504946534E+04  0.20504946534E+04  0.50400001928E-02 0.  1.
    10030    2    1    2    0    0  0.00000000000E+00  0.00000000000E+00 -0.12884929208E+04  0.28124963860E+04  0.24999843828E+04 0.  0.
        3    1    3    3  502    0 -0.11439313366E+03 -0.11719036550E+04 -0.17223119589E+03  0.11900031767E+04  0.10100000352E+00 0. -1.
       -3    1    3    3    0  502  0.11439313366E+03  0.11719036550E+04 -0.11162617249E+04  0.16224932093E+04  0.10100000352E+00 0.  1.
</event>
<event>
 5   0  0.3642184E-06  0.2503778E+04  0.7818609E-02  0.8401641E-01
        1   -1    0    0  501    0  0.00000000000E+00  0.00000000000E+00  0.88042118268E+03  0.88042118270E+03  0.50400001928E-02 0. -1.
       -1   -1    0    0    0  501  0.00000000000E+00  0.00000000000E+00 -0.17800861447E+04  0.17800861447E+04  0.50400001928E-02 0.  1.
    10030    2    1    2    0    0  0.00000000000E+00  0.00000000000E+00 -0.89966496200E+03  0.26605073274E+04  0.25037775850E+04 0.  0.
        5    1    3    3  502    0  0.10006189766E+04 -0.20554184024E+03 -0.12188165234E+04  0.15902897824E+04  0.46999998093E+01 0.  1.
       -5    1    3    3    0  502 -0.10006189766E+04  0.20554184024E+03  0.31915156135E+03  0.10702175450E+04  0.46999998093E+01 0. -1.
</event>
<event>
 5   0  0.8056723E-06  0.2578961E+04  0.7818609E-02  0.8375383E-01
       -2   -1    0    0    0  501  0.00000000000E+00  0.00000000000E+00  0.19401531652E+04  0.19401531652E+04  0.25500000920E-02 0. -1.
        2   -1    0    0  501    0  0.00000000000E+00  0.00000000000E+00 -0.85702512783E+03  0.85702512783E+03  0.25500000920E-02 0.  1.
    10030    2    1    2    0    0  0.00000000000E+00  0.00000000000E+00  0.10831280374E+04  0.27971782930E+04  0.25789610423E+04 0.  0.
        2    1    3    3  502    0  0.39975269406E+03  0.70556389702E+03 -0.54583285693E+03  0.97752551726E+03  0.25500000920E-02 0.  1.
       -2    1    3    3    0  502 -0.39975269406E+03 -0.70556389702E+03  0.16289608943E+04  0.18196527758E+04  0.25500000920E-02 0. -1.
</event>
<event>
 5   0  0.8354653E-06  0.2517476E+04  0.7818609E-02  0.8396786E-01
       -2   -1    0    0    0  501  0.00000000000E+00  0.00000000000E+00  0.11503555449E+04  0.11503555449E+04  0.25500000920E-02 0.  1.
        2   -1    0    0  501    0  0.00000000000E+00  0.00000000000E+00 -0.13773314553E+04  0.13773314553E+04  0.25500000920E-02 0. -1.
    10030    2    1    2    0    0  0.00000000000E+00  0.00000000000E+00 -0.22697591041E+03  0.25276870002E+04  0.25174756220E+04 0.  0.
        3    1    3    3  502    0  0.67184835791E+03 -0.60641456049E+03 -0.99185180639E+03  0.13427169662E+04  0.10100000352E+00 0. -1.
       -3    1    3    3    0  502 -0.67184835791E+03  0.60641456049E+03  0.76487589598E+03  0.11849700341E+04  0.10100000352E+00 0.  1.
</event>
<event>
 5   0  0.8579923E-06  0.2498080E+04  0.7818609E-02  0.8403670E-01
        2   -1    0    0  501    0  0.00000000000E+00  0.00000000000E+00  0.17089687491E+04  0.17089687491E+04  0.25500000920E-02 0.  1.
       -2   -1    0    0    0  501  0.00000000000E+00  0.00000000000E+00 -0.91289004050E+03  0.91289004051E+03  0.25500000920E-02 0. -1.
    10030    2    1    2    0    0  0.00000000000E+00  0.00000000000E+00  0.79607870862E+03  0.26218587896E+04  0.24980797030E+04 0.  0.
        1    1    3    3  502    0 -0.10805779614E+04  0.40305451599E+03 -0.10530576801E+03  0.11580980003E+04  0.50400001928E-02 0. -1.
       -1    1    3    3    0  502  0.10805779614E+04 -0.40305451599E+03  0.90138447663E+03  0.14637607893E+04  0.50400001928E-02 0.  1.
</event>
<event>
 5   0  0.8056723E-06  0.2504110E+04  0.7818609E-02  0.8401523E-01
       -2   -1    0    0    0  501  0.00000000000E+00  0.00000000000E+00  0.75731816856E+03  0.75731816856E+03  0.25500000920E-02 0. -1.
        2   -1    0    0  501    0  0.00000000000E+00  0.00000000000E+00 -0.20699907494E+04  0.20699907494E+04  0.25500000920E-02 0.  1.
    10030    2    1    2    0    0  0.00000000000E+00  0.00000000000E+00 -0.13126725809E+04  0.28273089180E+04  0.25041099044E+04 0.  0.
        2    1    3    3  502    0  0.53132864024E+02 -0.46078117234E+03  0.65673524741E+03  0.80401714859E+03  0.25500000920E-02 0. -1.
       -2    1    3    3    0  502 -0.53132864024E+02  0.46078117234E+03 -0.19694078283E+04  0.20232917694E+04  0.25500000920E-02 0.  1.
</event>
<event>
 5   0  0.8354653E-06  0.2504100E+04  0.7818609E-02  0.8401526E-01
       -2   -1    0    0    0  501  0.00000000000E+00  0.00000000000E+00  0.13065818597E+04  0.13065818597E+04  0.25500000920E-02 0. -1.
        2   -1    0    0  501    0  0.00000000000E+00  0.00000000000E+00 -0.11997943803E+04  0.11997943803E+04  0.25500000920E-02 0.  1.
    10030    2    1    2    0    0  0.00000000000E+00  0.00000000000E+00  0.10678747947E+03  0.25063762400E+04  0.25041002956E+04 0.  0.
        3    1    3    3  502    0 -0.94741155072E+03  0.80558723901E+03 -0.91893680475E+02  0.12469979570E+04  0.10100000352E+00 0.  1.
       -3    1    3    3    0  502  0.94741155072E+03 -0.80558723901E+03  0.19868115994E+03  0.12593782830E+04  0.10100000352E+00 0. -1.
</event>
<event>
 5   0  0.3484857E-06  0.2495070E+04  0.7818609E-02  0.8404744E-01
       -1   -1    0    0    0  501  0.00000000000E+00  0.00000000000E+00  0.61985707322E+03  0.61985707324E+03  0.50400001928E-02 0. -1.
        1   -1    0    0  501    0  0.00000000000E+00  0.00000000000E+00 -0.25108105272E+04  0.25108105272E+04  0.50400001928E-02 0.  1.
    10030    2    1    2    0    0  0.00000000000E+00  0.00000000000E+00 -0.18909534540E+04  0.31306676004E+04  0.24950700710E+04 0.  0.
        3    1    3    3  502    0 -0.28616868904E+03 -0.40953612312E+03  0.48884758179E+03  0.69898807082E+03  0.10100000352E+00 0. -1.
       -3    1    3    3    0  502  0.28616868904E+03  0.40953612312E+03 -0.23798010358E+04  0.24316795296E+04  0.10100000352E+00 0.  1.
</event>
<event>
 5   0  0.8407986E-06  0.2501293E+04  0.7818609E-02  0.8402525E-01
        2   -1    0    0  501    0  0.00000000000E+00  0.00000000000E+00  0.14440656631E+04  0.14440656631E+04  0.25500000920E-02 0.  1.
       -2   -1    0    0    0  501  0.00000000000E+00  0.00000000000E+00 -0.10831341399E+04  0.10831341399E+04  0.25500000920E-02 0. -1.
    10030    2    1    2    0    0  0.00000000000E+00  0.00000000000E+00  0.36093152324E+03  0.25271998030E+04  0.25012931216E+04 0.  0.
        5    1    3    3  502    0  0.84949577294E+03  0.87955025745E+03  0.44556281717E+03  0.13014607323E+04  0.46999998093E+01 0.  1.
       -5    1    3    3    0  502 -0.84949577294E+03 -0.87955025745E+03 -0.84631293929E+02  0.12257390707E+04  0.46999998093E+01 0. -1.
</event>
<event>
 5   0  0.3642184E-06  0.2500625E+04  0.7818609E-02  0.8402763E-01
        1   -1    0    0  501    0  0.00000000000E+00  0.00000000000E+00  0.14135103819E+04  0.14135103819E+04  0.50400001928E-02 0. -1.
       -1   -1    0    0    0  501  0.00000000000E+00  0.00000000000E+00 -0.11059571164E+04  0.11059571164E+04  0.50400001928E-02 0.  1.
    10030    2    1    2    0    0  0.00000000000E+00  0.00000000000E+00  0.30755326557E+03  0.25194674983E+04  0.25006254146E+04 0.  0.
        5    1    3    3  502    0  0.11374901403E+04  0.24814510031E+03 -0.30550899500E+03  0.12036684120E+04  0.46999998093E+01 0.  1.
       -5    1    3    3    0  502 -0.11374901403E+04 -0.24814510031E+03  0.61306226057E+03  0.13157990863E+04  0.46999998093E+01 0. -1.
</event>
<event>
 5   0  0.3484857E-06  0.2501431E+04  0.7818609E-02  0.8402476E-01
       -1   -1    0    0    0  501  0.00000000000E+00  0.00000000000E+00  0.75137190555E+03  0.75137190556E+03  0.50400001928E-02 0. -1.
        1   -1    0    0  501    0  0.00000000000E+00  0.00000000000E+00 -0.20819103498E+04  0.20819103498E+04  0.50400001928E-02 0.  1.
    10030    2    1    2    0    0  0.00000000000E+00  0.00000000000E+00 -0.13305384443E+04  0.28332822554E+04  0.25014307480E+04 0.  0.
        3    1    3    3  502    0  0.88092263106E+03 -0.56731938188E+03  0.10827771124E+03  0.10533755436E+04  0.10100000352E+00 0.  1.
       -3    1    3    3    0  502 -0.88092263106E+03  0.56731938188E+03 -0.14388161555E+04  0.17799067118E+04  0.10100000352E+00 0. -1.
</event>
<event>
 5   0  0.8354653E-06  0.2494100E+04  0.7818609E-02  0.8405091E-01
       -2   -1    0    0    0  501  0.00000000000E+00  0.00000000000E+00  0.14716462097E+04  0.14716462097E+04  0.25500000920E-02 0.  1.
        2   -1    0    0  501    0  0.00000000000E+00  0.00000000000E+00 -0.10567303236E+04  0.10567303236E+04  0.25500000920E-02 0. -1.
    10030    2    1    2    0    0  0.00000000000E+00  0.00000000000E+00  0.41491588610E+03  0.25283765333E+04  0.24940995774E+04 0.  0.
        3    1    3    3  502    0  0.47744560721E+02 -0.90101124752E+03  0.10801209116E+04  0.14073954686E+04  0.10100000352E+00 0.  1.
       -3    1    3    3    0  502 -0.47744560721E+02  0.90101124752E+03 -0.66520502551E+03  0.11209810647E+04  0.10100000352E+00 0. -1.
</event>
<event>
 5   0  0.3424193E-06  0.2488538E+04  0.7818609E-02  0.8407080E-01
       -1   -1    0    0    0  501  0.00000000000E+00  0.00000000000E+00  0.16684399407E+04  0.16684399407E+04  0.50400001928E-02 0.  1.
        1   -1    0    0  501    0  0.00000000000E+00  0.00000000000E+00 -0.92793626285E+03  0.92793626286E+03  0.50400001928E-02 0. -1.
    10030    2    1    2    0    0  0.00000000000E+00  0.00000000000E+00  0.74050367784E+03  0.25963762036E+04  0.24885384653E+04 0.  0.
        1    1    3    3  502    0  0.10408935778E+04 -0.60427919486E+03  0.40992600384E+02  0.12042811877E+04  0.50400001928E-02 0. -1.
       -1    1    3    3    0  502 -0.10408935778E+04  0.60427919486E+03  0.69951107746E+03  0.13920950159E+04  0.50400001928E-02 0.  1.
</event>
<event>
 5   0  0.3484857E-06  0.2494710E+04  0.7818609E-02  0.8404873E-01
       -1   -1    0    0    0  501  0.00000000000E+00  0.00000000000E+00  0.10167756869E+04  0.10167756869E+04  0.50400001928E-02 0.  1.
        1   -1    0    0  501    0  0.00000000000E+00  0.00000000000E+00 -0.15302235796E+04  0.15302235796E+04  0.50400001928E-02 0. -1.
    10030    2    1    2    0    0  0.00000000000E+00  0.00000000000E+00 -0.51344789269E+03  0.25469992664E+04  0.24947097075E+04 0.  0.
        3    1    3    3  502    0  0.22440800052E+03  0.11411837805E+04  0.20354087896E+03  0.11807151524E+04  0.10100000352E+00 0. -1.
       -3    1    3    3    0  502 -0.22440800052E+03 -0.11411837805E+04 -0.71698877164E+03  0.13662841141E+04  0.10100000352E+00 0.  1.
</event>
<event>
 5   0  0.3522870E-06  0.2507194E+04  0.7818609E-02  0.8400427E-01
        1   -1    0    0  501    0  0.00000000000E+00  0.00000000000E+00  0.10624469221E+04  0.10624469221E+04  0.50400001928E-02 0. -1.
       -1   -1    0    0    0  501  0.00000000000E+00  0.00000000000E+00 -0.14791381830E+04  0.14791381830E+04  0.50400001928E-02 0.  1.
    10030    2    1    2    0    0  0.00000000000E+00  0.00000000000E+00 -0.41669126084E+03  0.25415851051E+04  0.25071942963E+04 0.  0.
        2    1    3    3  502    0 -0.25128092536E+03  0.31416283455E+03  0.99523361090E+03  0.10734665017E+04  0.25500000920E-02 0. -1.
       -2    1    3    3    0  502  0.25128092536E+03 -0.31416283455E+03 -0.14119248717E+04  0.14681186034E+04  0.25500000920E-02 0.  1.
</event>
<event>
 5   0  0.3642184E-06  0.2506141E+04  0.7818609E-02  0.8400801E-01
        1   -1    0    0  501    0  0.00000000000E+00  0.00000000000E+00  0.14105498217E+04  0.14105498217E+04  0.50400001928E-02 0.  1.
       -1   -1    0    0    0  501  0.00000000000E+00  0.00000000000E+00 -0.11131725619E+04  0.11131725619E+04  0.50400001928E-02 0. -1.
    10030    2    1    2    0    0  0.00000000000E+00  0.00000000000E+00  0.29737725978E+03  0.25237223837E+04  0.25061407453E+04 0.  0.
        5    1    3    3  502    0 -0.64172544291E+03 -0.76946890594E+03 -0.60909922649E+03  0.11725689315E+04  0.46999998093E+01 0. -1.
       -5    1    3    3    0  502  0.64172544291E+03  0.76946890594E+03  0.90647648627E+03  0.13511534522E+04  0.46999998093E+01 0.  1.
</event>
<event>
 5   0  0.8948286E-06  0.2508691E+04  0.7818609E-02  0.8399896E-01
        2   -1    0    0  501    0  0.00000000000E+00  0.00000000000E+00  0.27268816101E+04  0.27268816101E+04  0.25500000920E-02 0. -1.
       -2   -1    0    0    0  501  0.00000000000E+00  0.00000000000E+00 -0.57698959372E+03  0.57698959373E+03  0.25500000920E-02 0.  1.
    10030    2    1    2    0    0  0.00000000000E+00  0.00000000000E+00  0.21498920164E+04  0.33038712039E+04  0.25086907441E+04 0.  0.
        4    1    3    3  502    0 -0.25812963238E+03  0.30213522905E+03  0.26417887497E+04  0.26715100627E+04  0.12699999809E+01 0. -1.
       -4    1    3    3    0  502  0.25812963238E+03 -0.30213522905E+03 -0.49189673333E+03  0.63236114120E+03  0.12699999809E+01 0.  1.
</event>
<event>
 5   0  0.8579923E-06  0.2516855E+04  0.7818609E-02  0.8397005E-01
       -2   -1    0    0    0  501  0.00000000000E+00  0.00000000000E+00  0.52537256352E+03  0.52537256352E+03  0.25500000920E-02 0.  1.
        2   -1    0    0  501    0  0.00000000000E+00  0.00000000000E+00 -0.30143174234E+04  0.30143174234E+04  0.25500000920E-02 0. -1.
    10030    2    1    2    0    0  0.00000000000E+00  0.00000000000E+00 -0.24889448599E+04  0.35396899869E+04  0.25168549199E+04 0.  0.
        1    1    3    3  502    0  0.10267109168E+04 -0.69846157314E+03 -0.15315139785E+04  0.19716792189E+04  0.50400001928E-02 0. -1.
       -1    1    3    3    0  502 -0.10267109168E+04  0.69846157314E+03 -0.95743088130E+03  0.15680107679E+04  0.50400001928E-02 0.  1.
</event>
<event>
 5   0  0.3481387E-06  0.2501798E+04  0.7818609E-02  0.8402345E-01
        1   -1    0    0  501    0  0.00000000000E+00  0.00000000000E+00  0.13880406521E+04  0.13880406521E+04  0.50400001928E-02 0. -1.
       -1   -1    0    0    0  501  0.00000000000E+00  0.00000000000E+00 -0.11273077054E+04  0.11273077054E+04  0.50400001928E-02 0.  1.
    10030    2    1    2    0    0  0.00000000000E+00  0.00000000000E+00  0.26073294674E+03  0.25153483575E+04  0.25017984911E+04 0.  0.
        4    1    3    3  502    0  0.56587322029E+03  0.11084803314E+04  0.25676995749E+03  0.12707767587E+04  0.12699999809E+01 0. -1.
       -4    1    3    3    0  502 -0.56587322029E+03 -0.11084803314E+04  0.39629892544E+01  0.12445715988E+04  0.12699999809E+01 0.  1.
</event>
<event>
 5   0  0.8056723E-06  0.2509290E+04  0.7818609E-02  0.8399683E-01
        2   -1    0    0  501    0  0.00000000000E+00  0.00000000000E+00  0.18406281836E+04  0.18406281836E+04  0.25500000920E-02 0. -1.
       -2   -1    0    0    0  501  0.00000000000E+00  0.00000000000E+00 -0.85521571234E+03  0.85521571235E+03  0.25500000920E-02 0.  1.
    10030    2    1    2    0    0  0.00000000000E+00  0.00000000000E+00  0.98541247126E+03  0.26958438960E+04  0.25092900535E+04 0.  0.
        2    1    3    3  502    0  0.96274754906E+03 -0.59271525798E+03 -0.91741464046E+02  0.11342886390E+04  0.25500000920E-02 0. -1.
       -2    1    3    3    0  502 -0.96274754906E+03  0.59271525798E+03  0.10771539353E+04  0.15615552570E+04  0.25500000920E-02 0.  1.
</event>
<event>
 5   0  0.3642184E-06  0.2511732E+04  0.7818609E-02  0.8398818E-01
        1   -1    0    0  501    0  0.00000000000E+00  0.00000000000E+00  0.17968430340E+04  0.17968430340E+04  0.50400001928E-02 0. -1.
       -1   -1    0    0    0  501  0.00000000000E+00  0.00000000000E+00 -0.87776114878E+03  0.87776114880E+03  0.50400001928E-02 0.  1.
    10030    2    1    2    0    0  0.00000000000E+00  0.00000000000E+00  0.91908188520E+03  0.26746041828E+04  0.25117316781E+04 0.  0.
        5    1    3    3  502    0 -0.69162391440E+03 -0.43218269950E+03  0.14764823509E+04  0.16867565762E+04  0.46999998093E+01 0. -1.
       -5    1    3    3    0  502  0.69162391440E+03  0.43218269950E+03 -0.55740046571E+03  0.98784760661E+03  0.46999998093E+01 0.  1.
</event>
<event>
 5   0  0.8056723E-06  0.2531213E+04  0.7818609E-02  0.8391949E-01
        2   -1    0    0  501    0  0.00000000000E+00  0.00000000000E+00  0.11812573973E+04  0.11812573973E+04  0.25500000920E-02 0. -1.
       -2   -1    0    0    0  501  0.00000000000E+00  0.00000000000E+00 -0.13559786231E+04  0.13559786231E+04  0.25500000920E-02 0.  1.
    10030    2    1    2    0    0  0.00000000000E+00  0.00000000000E+00 -0.17472122573E+03  0.25372360204E+04  0.25312129733E+04 0.  0.
        2    1    3    3  502    0  0.16814200608E+03 -0.11256259094E+04 -0.64226106753E+03  0.13068300200E+04  0.25500000920E-02 0.  1.
       -2    1    3    3    0  502 -0.16814200608E+03  0.11256259094E+04  0.46753984180E+03  0.12304060004E+04  0.25500000920E-02 0. -1.
</event>
<event>
 5   0  0.3481387E-06  0.2521794E+04  0.7818609E-02  0.8395262E-01
        1   -1    0    0  501    0  0.00000000000E+00  0.00000000000E+00  0.18317227611E+04  0.18317227611E+04  0.50400001928E-02 0. -1.
       -1   -1    0    0    0  501  0.00000000000E+00  0.00000000000E+00 -0.86795980141E+03  0.86795980143E+03  0.50400001928E-02 0.  1.
    10030    2    1    2    0    0  0.00000000000E+00  0.00000000000E+00  0.96376295973E+03  0.26996825626E+04  0.25217943802E+04 0.  0.
        4    1    3    3  502    0  0.67545625857E+03 -0.21705682149E+03  0.15977652253E+04  0.17482019760E+04  0.12699999809E+01 0. -1.
       -4    1    3    3    0  502 -0.67545625857E+03  0.21705682149E+03 -0.63400226553E+03  0.95148058656E+03  0.12699999809E+01 0.  1.
</event>
<event>
 5   0  0.3481387E-06  0.2472507E+04  0.7818609E-02  0.8412846E-01
       -1   -1    0    0    0  501  0.00000000000E+00  0.00000000000E+00  0.89327188473E+03  0.89327188474E+03  0.50400001928E-02 0.  1.
        1   -1    0    0  501    0  0.00000000000E+00  0.00000000000E+00 -0.17109265569E+04  0.17109265569E+04  0.50400001928E-02 0. -1.
    10030    2    1    2    0    0  0.00000000000E+00  0.00000000000E+00 -0.81765467219E+03  0.26041984417E+04  0.24725068980E+04 0.  0.
        4    1    3    3  502    0 -0.70869106781E+03  0.10096069746E+04 -0.32215399048E+03  0.12748859083E+04  0.12699999809E+01 0.  1.
       -4    1    3    3    0  502  0.70869106781E+03 -0.10096069746E+04 -0.49550068172E+03  0.13293125333E+04  0.12699999809E+01 0. -1.
</event>
<event>
 5   0  0.3522870E-06  0.2502174E+04  0.7818609E-02  0.8402211E-01
        1   -1    0    0  501    0  0.00000000000E+00  0.00000000000E+00  0.17525377539E+04  0.17525377539E+04  0.50400001928E-02 0. -1.
       -1   -1    0    0    0  501  0.00000000000E+00  0.00000000000E+00 -0.89311587368E+03  0.89311587370E+03  0.50400001928E-02 0.  1.
    10030    2    1    2    0    0  0.00000000000E+00  0.00000000000E+00  0.85942188021E+03  0.26456536276E+04  0.25021744841E+04 0.  0.
        2    1    3    3  502    0 -0.90441513797E+02  0.23621082561E+03 -0.86579988412E+03  0.90198927982E+03  0.25500000920E-02 0.  1.
       -2    1    3    3    0  502  0.90441513797E+02 -0.23621082561E+03  0.17252217643E+04  0.17436643478E+04  0.25500000920E-02 0. -1.
</event>
<event>
 5   0  0.8056723E-06  0.2494666E+04  0.7818609E-02  0.8404888E-01
       -2   -1    0    0    0  501  0.00000000000E+00  0.00000000000E+00  0.14533980088E+04  0.14533980088E+04  0.25500000920E-02 0. -1.
        2   -1    0    0  501    0  0.00000000000E+00  0.00000000000E+00 -0.10704844698E+04  0.10704844698E+04  0.25500000920E-02 0.  1.
    10030    2    1    2    0    0  0.00000000000E+00  0.00000000000E+00  0.38291353904E+03  0.25238824786E+04  0.24946663079E+04 0.  0.
        2    1    3    3  502    0 -0.85823407130E+03  0.46409261462E+03 -0.59474935125E+03  0.11426611339E+04  0.25500000920E-02 0.  1.
       -2    1    3    3    0  502  0.85823407130E+03 -0.46409261462E+03  0.97766289029E+03  0.13812213447E+04  0.25500000920E-02 0. -1.
</event>
<event>
 5   0  0.2901250E-06  0.2450206E+04  0.7818609E-02  0.8420943E-01
       -3   -1    0    0    0  501  0.00000000000E+00  0.00000000000E+00  0.14378635232E+04  0.14378635267E+04  0.10100000352E+00 0. -1.
        3   -1    0    0  501    0  0.00000000000E+00  0.00000000000E+00 -0.10438246709E+04  0.10438246758E+04  0.10100000352E+00 0.  1.
    10030    2    1    2    0    0  0.00000000000E+00  0.00000000000E+00  0.39403885225E+03  0.24816882025E+04  0.24502060561E+04 0.  0.
        2    1    3    3  502    0 -0.28647519710E+03  0.99318013652E+03 -0.46900285631E+03  0.11350940496E+04  0.25500000920E-02 0.  1.
       -2    1    3    3    0  502  0.28647519710E+03 -0.99318013652E+03  0.86304170856E+03  0.13465941530E+04  0.25500000920E-02 0. -1.
</event>
<event>
 5   0  0.8407986E-06  0.2498208E+04  0.7818609E-02  0.8403624E-01
       -2   -1    0    0    0  501  0.00000000000E+00  0.00000000000E+00  0.17752505926E+04  0.17752505926E+04  0.25500000920E-02 0.  1.
        2   -1    0    0  501    0  0.00000000000E+00  0.00000000000E+00 -0.87889609970E+03  0.87889609971E+03  0.25500000920E-02 0. -1.
    10030    2    1    2    0    0  0.00000000000E+00  0.00000000000E+00  0.89635449292E+03  0.26541466923E+04  0.24982080152E+04 0.  0.
        5    1    3    3  502    0 -0.88339046735E+03 -0.72240346158E+03  0.98781273011E+03  0.15093182431E+04  0.46999998093E+01 0.  1.
       -5    1    3    3    0  502  0.88339046735E+03  0.72240346158E+03 -0.91458237188E+02  0.11448284493E+04  0.46999998093E+01 0. -1.
</event>
<event>
 5   0  0.8407986E-06  0.2465911E+04  0.7818609E-02  0.8415231E-01
        2   -1    0    0  501    0  0.00000000000E+00  0.00000000000E+00  0.13040772002E+04  0.13040772002E+04  0.25500000920E-02 0.  1.
       -2   -1    0    0    0  501  0.00000000000E+00  0.00000000000E+00 -0.11657127723E+04  0.11657127723E+04  0.25500000920E-02 0. -1.
    10030    2    1    2    0    0  0.00000000000E+00  0.00000000000E+00  0.13836442790E+03  0.24697899725E+04  0.24659111487E+04 0.  0.
        5    1    3    3  502    0  0.32705463245E+03 -0.10102761903E+04 -0.55832915088E+03  0.11997400735E+04  0.46999998093E+01 0. -1.
       -5    1    3    3    0  502 -0.32705463245E+03  0.10102761903E+04  0.69669357878E+03  0.12700498990E+04  0.46999998093E+01 0.  1.
</event>
<event>
 5   0  0.8948286E-06  0.2494417E+04  0.7818609E-02  0.8404977E-01
       -2   -1    0    0    0  501  0.00000000000E+00  0.00000000000E+00  0.70661916098E+03  0.70661916099E+03  0.25500000920E-02 0. -1.
        2   -1    0    0  501    0  0.00000000000E+00  0.00000000000E+00 -0.22013680200E+04  0.22013680200E+04  0.25500000920E-02 0.  1.
    10030    2    1    2    0    0  0.00000000000E+00  0.00000000000E+00 -0.14947488591E+04  0.29079871810E+04  0.24944168243E+04 0.  0.
        4    1    3    3  502    0  0.63373344409E+03 -0.34603717043E+01  0.50492162567E+03  0.81029470768E+03  0.12699999809E+01 0. -1.
       -4    1    3    3    0  502 -0.63373344409E+03  0.34603717043E+01 -0.19996704847E+04  0.20976924733E+04  0.12699999809E+01 0.  1.
</event>
<event>
 5   0  0.3481387E-06  0.2504326E+04  0.7818609E-02  0.8401446E-01
       -1   -1    0    0    0  501  0.00000000000E+00  0.00000000000E+00  0.85146514462E+03  0.85146514463E+03  0.50400001928E-02 0.  1.
        1   -1    0    0  501    0  0.00000000000E+00  0.00000000000E+00 -0.18414290615E+04  0.18414290615E+04  0.50400001928E-02 0. -1.
    10030    2    1    2    0    0  0.00000000000E+00  0.00000000000E+00 -0.98996391687E+03  0.26928942061E+04  0.25043263862E+04 0.  0.
        4    1    3    3  502    0 -0.87826211950E+03  0.28813698143E+03  0.41333761829E+03  0.10125299355E+04  0.12699999809E+01 0.  1.
       -4    1    3    3    0  502  0.87826211950E+03 -0.28813698143E+03 -0.14033015352E+04  0.16803642707E+04  0.12699999809E+01 0. -1.
</event>
<event>
 5   0  0.3522870E-06  0.2504588E+04  0.7818609E-02  0.8401353E-01
        1   -1    0    0  501    0  0.00000000000E+00  0.00000000000E+00  0.22807855481E+04  0.22807855481E+04  0.50400001928E-02 0. -1.
       -1   -1    0    0    0  501  0.00000000000E+00  0.00000000000E+00 -0.68758772667E+03  0.68758772669E+03  0.50400001928E-02 0.  1.
    10030    2    1    2    0    0  0.00000000000E+00  0.00000000000E+00  0.15931978215E+04  0.29683732748E+04  0.25045879103E+04 0.  0.
        2    1    3    3  502    0 -0.40484184869E+02  0.92024955631E+03 -0.20887460681E+03  0.94452465107E+03  0.25500000920E-02 0.  1.
       -2    1    3    3    0  502  0.40484184869E+02 -0.92024955631E+03  0.18020724283E+04  0.20238486237E+04  0.25500000920E-02 0. -1.
</event>
<event>
 5   0  0.8056723E-06  0.2499865E+04  0.7818609E-02  0.8403034E-01
        2   -1    0    0  501    0  0.00000000000E+00  0.00000000000E+00  0.16035730753E+04  0.16035730753E+04  0.25500000920E-02 0. -1.
       -2   -1    0    0    0  501  0.00000000000E+00  0.00000000000E+00 -0.97428124784E+03  0.97428124784E+03  0.25500000920E-02 0.  1.
    10030    2    1    2    0    0  0.00000000000E+00  0.00000000000E+00  0.62929182741E+03  0.25778543231E+04  0.24998649378E+04 0.  0.
        2    1    3    3  502    0  0.26522190509E+03 -0.11461671632E+04 -0.12077023205E+03  0.11826357317E+04  0.25500000920E-02 0.  1.
       -2    1    3    3    0  502 -0.26522190509E+03  0.11461671632E+04  0.75006205946E+03  0.13952185914E+04  0.25500000920E-02 0. -1.
</event>
<event>
 5   0  0.3522870E-06  0.2529680E+04  0.7818609E-02  0.8392488E-01
       -1   -1    0    0    0  501  0.00000000000E+00  0.00000000000E+00  0.87934270283E+03  0.87934270285E+03  0.50400001928E-02 0. -1.
        1   -1    0    0  501    0  0.00000000000E+00  0.00000000000E+00 -0.18193361052E+04  0.18193361052E+04  0.50400001928E-02 0.  1.
    10030    2    1    2    0    0  0.00000000000E+00  0.00000000000E+00 -0.93999340236E+03  0.26986788081E+04  0.25296797648E+04 0.  0.
        2    1    3    3  502    0 -0.89832601103E+03  0.85672414131E+03 -0.72880240002E+03  0.14394856077E+04  0.25500000920E-02 0.  1.
       -2    1    3    3    0  502  0.89832601103E+03 -0.85672414131E+03 -0.21119100234E+03  0.12591932004E+04  0.25500000920E-02 0. -1.
</event>
<event>
 5   0  0.8354653E-06  0.2492250E+04  0.7818609E-02  0.8405752E-01
        2   -1    0    0  501    0  0.00000000000E+00  0.00000000000E+00  0.13566525347E+04  0.13566525347E+04  0.25500000920E-02 0.  1.
       -2   -1    0    0    0  501  0.00000000000E+00  0.00000000000E+00 -0.11446026791E+04  0.11446026791E+04  0.25500000920E-02 0. -1.
    10030    2    1    2    0    0  0.00000000000E+00  0.00000000000E+00  0.21204985561E+03  0.25012552139E+04  0.24922504898E+04 0.  0.
        3    1    3    3  502    0  0.36510075197E+03  0.11900269809E+04  0.16424609123E+03  0.12555634444E+04  0.10100000352E+00 0. -1.
       -3    1    3    3    0  502 -0.36510075197E+03 -0.11900269809E+04  0.47803764379E+02  0.12456917694E+04  0.10100000352E+00 0.  1.
</event>
<event>
 5   0  0.8407986E-06  0.2498804E+04  0.7818609E-02  0.8403412E-01
        2   -1    0    0  501    0  0.00000000000E+00  0.00000000000E+00  0.15869021316E+04  0.15869021317E+04  0.25500000920E-02 0.  1.
       -2   -1    0    0    0  501  0.00000000000E+00  0.00000000000E+00 -0.98368108115E+03  0.98368108116E+03  0.25500000920E-02 0. -1.
    10030    2    1    2    0    0  0.00000000000E+00  0.00000000000E+00  0.60322105050E+03  0.25705832128E+04  0.24988041977E+04 0.  0.
        5    1    3    3  502    0  0.25520483296E+03 -0.12189129748E+04  0.40502258835E+03  0.13095586027E+04  0.46999998093E+01 0.  1.
       -5    1    3    3    0  502 -0.25520483296E+03  0.12189129748E+04  0.19819846215E+03  0.12610246101E+04  0.46999998093E+01 0. -1.
</event>
<event>
 5   0  0.3642184E-06  0.2527406E+04  0.7818609E-02  0.8393287E-01
       -1   -1    0    0    0  501  0.00000000000E+00  0.00000000000E+00  0.91064159933E+03  0.91064159935E+03  0.50400001928E-02 0.  1.
        1   -1    0    0  501    0  0.00000000000E+00  0.00000000000E+00 -0.17536483156E+04  0.17536483157E+04  0.50400001928E-02 0. -1.
    10030    2    1    2    0    0  0.00000000000E+00  0.00000000000E+00 -0.84300671631E+03  0.26642899150E+04  0.25274058692E+04 0.  0.
        5    1    3    3  502    0 -0.74505891887E+03 -0.18573387067E+03  0.63650413545E+03  0.99738130509E+03  0.46999998093E+01 0.  1.
       -5    1    3    3    0  502  0.74505891887E+03  0.18573387067E+03 -0.14795108518E+04  0.16669086099E+04  0.46999998093E+01 0. -1.
</event>
<event>
 5   0  0.3484857E-06  0.2498001E+04  0.7818609E-02  0.8403698E-01
       -1   -1    0    0    0  501  0.00000000000E+00  0.00000000000E+00  0.13654221332E+04  0.13654221332E+04  0.50400001928E-02 0.  1.
        1   -1    0    0  501    0  0.00000000000E+00  0.00000000000E+00 -0.11425054943E+04  0.11425054943E+04  0.50400001928E-02 0. -1.
    10030    2    1    2    0    0  0.00000000000E+00  0.00000000000E+00  0.22291663886E+03  0.25079276275E+04  0.24980010322E+04 0.  0.
        3    1    3    3  502    0 -0.31126569041E+03 -0.11219676468E+04  0.56525509323E+03  0.12942994480E+04  0.10100000352E+00 0.  1.
       -3    1    3    3    0  502  0.31126569041E+03  0.11219676468E+04 -0.34233845437E+03  0.12136281795E+04  0.10100000352E+00 0. -1.
</event>
<event>
 5   0  0.8354653E-06  0.2462477E+04  0.7818609E-02  0.8416477E-01
       -2   -1    0    0    0  501  0.00000000000E+00  0.00000000000E+00  0.64456844086E+03  0.64456844086E+03  0.25500000920E-02 0.  1.
        2   -1    0    0  501    0  0.00000000000E+00  0.00000000000E+00 -0.23518808381E+04  0.23518808381E+04  0.25500000920E-02 0. -1.
    10030    2    1    2    0    0  0.00000000000E+00  0.00000000000E+00 -0.17073123972E+04  0.29964492789E+04  0.24624769358E+04 0.  0.
        3    1    3    3  502    0 -0.15212975239E+03  0.31682400578E+03  0.58223328600E+03  0.68008567235E+03  0.10100000352E+00 0.  1.
       -3    1    3    3    0  502  0.15212975239E+03 -0.31682400578E+03 -0.22895456832E+04  0.23163636066E+04  0.10100000352E+00 0. -1.
</event>
<event>
 5   0  0.8579923E-06  0.2502530E+04  0.7818609E-02  0.8402085E-01
       -2   -1    0    0    0  501  0.00000000000E+00  0.00000000000E+00  0.12775277547E+04  0.12775277547E+04  0.25500000920E-02 0. -1.
        2   -1    0    0  501    0  0.00000000000E+00  0.00000000000E+00 -0.12255422326E+04  0.12255422326E+04  0.25500000920E-02 0.  1.
    10030    2    1    2    0    0  0.00000000000E+00  0.00000000000E+00  0.51985522171E+02  0.25030699873E+04  0.25025300931E+04 0.  0.
        1    1    3    3  502    0  0.68204748889E+03 -0.39337093090E+02 -0.10225310812E+04  0.12297585113E+04  0.50400001928E-02 0.  1.
       -1    1    3    3    0  502 -0.68204748889E+03  0.39337093090E+02  0.10745166034E+04  0.12733114760E+04  0.50400001928E-02 0. -1.
</event>
<event>
 5   0  0.8579923E-06  0.2506713E+04  0.7818609E-02  0.8400598E-01
       -2   -1    0    0    0  501  0.00000000000E+00  0.00000000000E+00  0.93028551579E+03  0.93028551580E+03  0.25500000920E-02 0.  1.
        2   -1    0    0  501    0  0.00000000000E+00  0.00000000000E+00 -0.16886243717E+04  0.16886243717E+04  0.25500000920E-02 0. -1.
    10030    2    1    2    0    0  0.00000000000E+00  0.00000000000E+00 -0.75833885592E+03  0.26189098875E+04  0.25067132222E+04 0.  0.
        1    1    3    3  502    0  0.11401103559E+04 -0.51700847694E+03 -0.44317660342E+03  0.13279890401E+04  0.50400001928E-02 0. -1.
       -1    1    3    3    0  502 -0.11401103559E+04  0.51700847694E+03 -0.31516225250E+03  0.12909208474E+04  0.50400001928E-02 0.  1.
</event>
<event>
 5   0  0.8056723E-06  0.2498667E+04  0.7818609E-02  0.8403460E-01
        2   -1    0    0  501    0  0.00000000000E+00  0.00000000000E+00  0.15682221891E+04  0.15682221891E+04  0.25500000920E-02 0. -1.
       -2   -1    0    0    0  501  0.00000000000E+00  0.00000000000E+00 -0.99528929416E+03  0.99528929416E+03  0.25500000920E-02 0.  1.
    10030    2    1    2    0    0  0.00000000000E+00  0.00000000000E+00  0.57293289494E+03  0.25635114833E+04  0.24986674494E+04 0.  0.
        2    1    3    3  502    0 -0.13911911970E+03  0.79516941202E+03 -0.69179115873E+03  0.10631197160E+04  0.25500000920E-02 0.  1.
       -2    1    3    3    0  502  0.13911911970E+03 -0.79516941202E+03  0.12647240537E+04  0.15003917672E+04  0.25500000920E-02 0. -1.
</event>
<event>
 5   0  0.3424193E-06  0.2485361E+04  0.7818609E-02  0.8408219E-01
        1   -1    0    0  501    0  0.00000000000E+00  0.00000000000E+00  0.16978068128E+04  0.16978068128E+04  0.50400001928E-02 0. -1.
       -1   -1    0    0    0  501  0.00000000000E+00  0.00000000000E+00 -0.90955862449E+03  0.90955862451E+03  0.50400001928E-02 0.  1.
    10030    2    1    2    0    0  0.00000000000E+00  0.00000000000E+00  0.78824818832E+03  0.26073654373E+04  0.24853610034E+04 0.  0.
        1    1    3    3  502    0  0.32711899097E+03  0.10288541645E+04  0.10397250283E+04  0.14988581856E+04  0.50400001928E-02 0.  1.
       -1    1    3    3    0  502 -0.32711899097E+03 -0.10288541645E+04 -0.25147684002E+03  0.11085072517E+04  0.50400001928E-02 0. -1.
</event>
<event>
 5   0  0.8579923E-06  0.2472104E+04  0.7818609E-02  0.8412992E-01
       -2   -1    0    0    0  501  0.00000000000E+00  0.00000000000E+00  0.92931068894E+03  0.92931068894E+03  0.25500000920E-02 0.  1.
        2   -1    0    0  501    0  0.00000000000E+00  0.00000000000E+00 -0.16440401772E+04  0.16440401773E+04  0.25500000920E-02 0. -1.
    10030    2    1    2    0    0  0.00000000000E+00  0.00000000000E+00 -0.71472948831E+03  0.25733508662E+04  0.24721036465E+04 0.  0.
        1    1    3    3  502    0 -0.36316656671E+03 -0.86333040597E+03 -0.11969940944E+04  0.15198763789E+04  0.50400001928E-02 0. -1.
       -1    1    3    3    0  502  0.36316656671E+03  0.86333040597E+03  0.48226460611E+03  0.10534744873E+04  0.50400001928E-02 0.  1.
</event>
<event>
 5   0  0.8948286E-06  0.2492680E+04  0.7818609E-02  0.8405598E-01
        2   -1    0    0  501    0  0.00000000000E+00  0.00000000000E+00  0.18365147130E+04  0.18365147130E+04  0.25500000920E-02 0.  1.
       -2   -1    0    0    0  501  0.00000000000E+00  0.00000000000E+00 -0.84582122750E+03  0.84582122750E+03  0.25500000920E-02 0. -1.
    10030    2    1    2    0    0  0.00000000000E+00  0.00000000000E+00  0.99069348554E+03  0.26823359405E+04  0.24926797860E+04 0.  0.
        4    1    3    3  502    0  0.25929062218E+03 -0.11355271752E+04  0.97260956367E+03  0.15174401368E+04  0.12699999809E+01 0.  1.
       -4    1    3    3    0  502 -0.25929062218E+03  0.11355271752E+04  0.18083921874E+02  0.11648958038E+04  0.12699999809E+01 0. -1.
</event>
<event>
 5   0  0.8354653E-06  0.2494466E+04  0.7818609E-02  0.8404960E-01
        2   -1    0    0  501    0  0.00000000000E+00  0.00000000000E+00  0.97561601453E+03  0.97561601454E+03  0.25500000920E-02 0.  1.
       -2   -1    0    0    0  501  0.00000000000E+00  0.00000000000E+00 -0.15944699556E+04  0.15944699556E+04  0.25500000920E-02 0. -1.
    10030    2    1    2    0    0  0.00000000000E+00  0.00000000000E+00 -0.61885394103E+03  0.25700859701E+04  0.24944662141E+04 0.  0.
        3    1    3    3  502    0  0.81715009202E+03 -0.93253599670E+03 -0.44854908642E+03  0.13185423585E+04  0.10100000352E+00 0. -1.
       -3    1    3    3    0  502 -0.81715009202E+03  0.93253599670E+03 -0.17030485462E+03  0.12515436116E+04  0.10100000352E+00 0.  1.
</event>
<event>
 5   0  0.3642184E-06  0.2499262E+04  0.7818609E-02  0.8403249E-01
       -1   -1    0    0    0  501  0.00000000000E+00  0.00000000000E+00  0.15058367947E+04  0.15058367947E+04  0.50400001928E-02 0.  1.
        1   -1    0    0  501    0  0.00000000000E+00  0.00000000000E+00 -0.10370161633E+04  0.10370161633E+04  0.50400001928E-02 0. -1.
    10030    2    1    2    0    0  0.00000000000E+00  0.00000000000E+00  0.46882063136E+03  0.25428529580E+04  0.24992615673E+04 0.  0.
        5    1    3    3  502    0  0.11633287547E+04  0.40754392561E+03  0.44324419243E+03  0.13099287564E+04  0.46999998093E+01 0.  1.
       -5    1    3    3    0  502 -0.11633287547E+04 -0.40754392561E+03  0.25576438927E+02  0.12329242016E+04  0.46999998093E+01 0. -1.
</event>
<event>
 5   0  0.3522870E-06  0.2485054E+04  0.7818609E-02  0.8408330E-01
       -1   -1    0    0    0  501  0.00000000000E+00  0.00000000000E+00  0.69496348478E+03  0.69496348480E+03  0.50400001928E-02 0.  1.
        1   -1    0    0  501    0  0.00000000000E+00  0.00000000000E+00 -0.22215169685E+04  0.22215169685E+04  0.50400001928E-02 0. -1.
    10030    2    1    2    0    0  0.00000000000E+00  0.00000000000E+00 -0.15265534837E+04  0.29164804533E+04  0.24850538617E+04 0.  0.
        2    1    3    3  502    0  0.47557352585E+03  0.37940880521E+03  0.50820880544E+03  0.79271521361E+03  0.25500000920E-02 0.  1.
       -2    1    3    3    0  502 -0.47557352585E+03 -0.37940880521E+03 -0.20347622891E+04  0.21237652397E+04  0.25500000920E-02 0. -1.
</event>
<event>
 5   0  0.8579923E-06  0.2540525E+04  0.7818609E-02  0.8388689E-01
       -2   -1    0    0    0  501  0.00000000000E+00  0.00000000000E+00  0.59017507070E+03  0.59017507071E+03  0.25500000920E-02 0.  1.
        2   -1    0    0  501    0  0.00000000000E+00  0.00000000000E+00 -0.27340478266E+04  0.27340478266E+04  0.25500000920E-02 0. -1.
    10030    2    1    2    0    0  0.00000000000E+00  0.00000000000E+00 -0.21438727559E+04  0.33242228974E+04  0.25405250398E+04 0.  0.
        1    1    3    3  502    0  0.76925580707E+03 -0.18606345167E+03  0.22813632199E+03  0.82366272599E+03  0.50400001928E-02 0.  1.
       -1    1    3    3    0  502 -0.76925580707E+03  0.18606345167E+03 -0.23720090779E+04  0.25005601714E+04  0.50400001928E-02 0. -1.
</event>
<event>
 5   0  0.8948286E-06  0.2497894E+04  0.7818609E-02  0.8403736E-01
        2   -1    0    0  501    0  0.00000000000E+00  0.00000000000E+00  0.14176420355E+04  0.14176420355E+04  0.25500000920E-02 0. -1.
       -2   -1    0    0    0  501  0.00000000000E+00  0.00000000000E+00 -0.11003258811E+04  0.11003258811E+04  0.25500000920E-02 0.  1.
    10030    2    1    2    0    0  0.00000000000E+00  0.00000000000E+00  0.31731615436E+03  0.25179679166E+04  0.24978936901E+04 0.  0.
        4    1    3    3  502    0 -0.11890122540E+04 -0.72622922497E+01  0.54391232094E+03  0.13075339792E+04  0.12699999809E+01 0. -1.
       -4    1    3    3    0  502  0.11890122540E+04  0.72622922497E+01 -0.22659616658E+03  0.12104339373E+04  0.12699999809E+01 0.  1.
</event>
<event>
 5   0  0.8354653E-06  0.2455986E+04  0.7818609E-02  0.8418836E-01
       -2   -1    0    0    0  501  0.00000000000E+00  0.00000000000E+00  0.13605006887E+04  0.13605006887E+04  0.25500000920E-02 0.  1.
        2   -1    0    0  501    0  0.00000000000E+00  0.00000000000E+00 -0.11083907116E+04  0.11083907116E+04  0.25500000920E-02 0. -1.
    10030    2    1    2    0    0  0.00000000000E+00  0.00000000000E+00  0.25210997710E+03  0.24688914004E+04  0.24559856079E+04 0.  0.
        3    1    3    3  502    0  0.10208564661E+04 -0.54660955694E+03  0.53690349232E+03  0.12763993507E+04  0.10100000352E+00 0.  1.
       -3    1    3    3    0  502 -0.10208564661E+04  0.54660955694E+03 -0.28479351523E+03  0.11924920497E+04  0.10100000352E+00 0. -1.
</event>
<event>
 5   0  0.3424193E-06  0.2492080E+04  0.7818609E-02  0.8405812E-01
       -1   -1    0    0    0  501  0.00000000000E+00  0.00000000000E+00  0.87018968630E+03  0.87018968631E+03  0.50400001928E-02 0. -1.
        1   -1    0    0  501    0  0.00000000000E+00  0.00000000000E+00 -0.17842271437E+04  0.17842271437E+04  0.50400001928E-02 0.  1.
    10030    2    1    2    0    0  0.00000000000E+00  0.00000000000E+00 -0.91403745743E+03  0.26544168301E+04  0.24920803025E+04 0.  0.
        1    1    3    3  502    0 -0.33953243631E+03 -0.10579744607E+03 -0.17290221352E+04  0.17652175274E+04  0.50400001928E-02 0.  1.
       -1    1    3    3    0  502  0.33953243631E+03  0.10579744607E+03  0.81498467776E+03  0.88919930269E+03  0.50400001928E-02 0. -1.
</event>
<event>
 5   0  0.8056723E-06  0.2506199E+04  0.7818609E-02  0.8400780E-01
       -2   -1    0    0    0  501  0.00000000000E+00  0.00000000000E+00  0.15211872801E+04  0.15211872801E+04  0.25500000920E-02 0.  1.
        2   -1    0    0  501    0  0.00000000000E+00  0.00000000000E+00 -0.10322586637E+04  0.10322586637E+04  0.25500000920E-02 0. -1.
    10030    2    1    2    0    0  0.00000000000E+00  0.00000000000E+00  0.48892861637E+03  0.25534459439E+04  0.25061993130E+04 0.  0.
        2    1    3    3  502    0  0.97026812915E+03  0.68026886844E+03 -0.17073849868E+03  0.11972207861E+04  0.25500000920E-02 0. -1.
       -2    1    3    3    0  502 -0.97026812915E+03 -0.68026886844E+03  0.65966711505E+03  0.13562251577E+04  0.25500000920E-02 0.  1.
</event>
<event>
 5   0  0.3424193E-06  0.2520647E+04  0.7818609E-02  0.8395667E-01
       -1   -1    0    0    0  501  0.00000000000E+00  0.00000000000E+00  0.17118652812E+04  0.17118652812E+04  0.50400001928E-02 0. -1.
        1   -1    0    0  501    0  0.00000000000E+00  0.00000000000E+00 -0.92788538250E+03  0.92788538251E+03  0.50400001928E-02 0.  1.
    10030    2    1    2    0    0  0.00000000000E+00  0.00000000000E+00  0.78397989873E+03  0.26397506638E+04  0.25206465609E+04 0.  0.
        1    1    3    3  502    0  0.78261888154E+03 -0.39535155293E+03  0.13400964474E+04  0.16014536061E+04  0.50400001928E-02 0. -1.
       -1    1    3    3    0  502 -0.78261888154E+03  0.39535155293E+03 -0.55611654868E+03  0.10382970576E+04  0.50400001928E-02 0.  1.
</event>
<event>
 5   0  0.3522870E-06  0.2429888E+04  0.7818609E-02  0.8428398E-01
       -1   -1    0    0    0  501  0.00000000000E+00  0.00000000000E+00  0.95229285047E+03  0.95229285048E+03  0.50400001928E-02 0.  1.
        1   -1    0    0  501    0  0.00000000000E+00  0.00000000000E+00 -0.15500362059E+04  0.15500362059E+04  0.50400001928E-02 0. -1.
    10030    2    1    2    0    0  0.00000000000E+00  0.00000000000E+00 -0.59774335545E+03  0.25023290564E+04  0.24298875669E+04 0.  0.
        2    1    3    3  502    0  0.45607212018E+03  0.10493687229E+04 -0.71960013947E+03  0.13516659558E+04  0.25500000920E-02 0. -1.
       -2    1    3    3    0  502 -0.45607212018E+03 -0.10493687229E+04  0.12185678402E+03  0.11506631006E+04  0.25500000920E-02 0.  1.
</event>
<event>
 5   0  0.8407986E-06  0.2500147E+04  0.7818609E-02  0.8402933E-01
       -2   -1    0    0    0  501  0.00000000000E+00  0.00000000000E+00  0.89137964145E+03  0.89137964145E+03  0.25500000920E-02 0.  1.
        2   -1    0    0  501    0  0.00000000000E+00  0.00000000000E+00 -0.17531064694E+04  0.17531064695E+04  0.25500000920E-02 0. -1.
    10030    2    1    2    0    0  0.00000000000E+00  0.00000000000E+00 -0.86172682800E+03  0.26444861109E+04  0.25001467286E+04 0.  0.
        5    1    3    3  502    0 -0.81256094169E+03 -0.31413667610E+03 -0.13791275230E+04  0.16312424559E+04  0.46999998093E+01 0. -1.
       -5    1    3    3    0  502  0.81256094169E+03  0.31413667610E+03  0.51740069499E+03  0.10132436550E+04  0.46999998093E+01 0.  1.
</event>
<event>
 5   0  0.3424193E-06  0.2430058E+04  0.7818609E-02  0.8428335E-01
       -1   -1    0    0    0  501  0.00000000000E+00  0.00000000000E+00  0.70263959839E+03  0.70263959840E+03  0.50400001928E-02 0. -1.
        1   -1    0    0  501    0  0.00000000000E+00  0.00000000000E+00 -0.21010705392E+04  0.21010705392E+04  0.50400001928E-02 0.  1.
    10030    2    1    2    0    0  0.00000000000E+00  0.00000000000E+00 -0.13984309408E+04  0.28037101376E+04  0.24300579087E+04 0.  0.
        1    1    3    3  502    0 -0.95173393012E+03 -0.61056094539E+03 -0.12122355236E+04  0.16577385519E+04  0.50400001928E-02 0. -1.
       -1    1    3    3    0  502  0.95173393012E+03  0.61056094539E+03 -0.18619541719E+03  0.11459715857E+04  0.50400001928E-02 0.  1.
</event>
<event>
 5   0  0.8948286E-06  0.2499954E+04  0.7818609E-02  0.8403002E-01
       -2   -1    0    0    0  501  0.00000000000E+00  0.00000000000E+00  0.83409550728E+03  0.83409550728E+03  0.25500000920E-02 0. -1.
        2   -1    0    0  501    0  0.00000000000E+00  0.00000000000E+00 -0.18732178368E+04  0.18732178368E+04  0.25500000920E-02 0.  1.
    10030    2    1    2    0    0  0.00000000000E+00  0.00000000000E+00 -0.10391223295E+04  0.27073133440E+04  0.24999540650E+04 0.  0.
        4    1    3    3  502    0  0.74777548385E+02 -0.23496235561E+03 -0.18466185256E+04  0.18630084762E+04  0.12699999809E+01 0.  1.
       -4    1    3    3    0  502 -0.74777548385E+02  0.23496235561E+03  0.80749619611E+03  0.84430486788E+03  0.12699999809E+01 0. -1.
</event>
<event>
 5   0  0.2901250E-06  0.2499231E+04  0.7818609E-02  0.8403260E-01
       -3   -1    0    0    0  501  0.00000000000E+00  0.00000000000E+00  0.15805596071E+04  0.15805596103E+04  0.10100000352E+00 0. -1.
        3   -1    0    0  501    0  0.00000000000E+00  0.00000000000E+00 -0.98796556211E+03  0.98796556727E+03  0.10100000352E+00 0.  1.
    10030    2    1    2    0    0  0.00000000000E+00  0.00000000000E+00  0.59259404500E+03  0.25685251776E+04  0.24992306588E+04 0.  0.
        4    1    3    3  502    0  0.82513189970E+02 -0.47039298985E+03 -0.89047499908E+03  0.10104579795E+04  0.12699999809E+01 0.  1.
       -4    1    3    3    0  502 -0.82513189970E+02  0.47039298985E+03  0.14830690441E+04  0.15580671981E+04  0.12699999809E+01 0. -1.
</event>
<event>
 5   0  0.8354653E-06  0.2501937E+04  0.7818609E-02  0.8402296E-01
       -2   -1    0    0    0  501  0.00000000000E+00  0.00000000000E+00  0.94146367515E+03  0.94146367515E+03  0.25500000920E-02 0.  1.
        2   -1    0    0  501    0  0.00000000000E+00  0.00000000000E+00 -0.16622220375E+04  0.16622220375E+04  0.25500000920E-02 0. -1.
    10030    2    1    2    0    0  0.00000000000E+00  0.00000000000E+00 -0.72075836231E+03  0.26036857126E+04  0.25019365846E+04 0.  0.
        3    1    3    3  502    0  0.11185995023E+04  0.67773113003E+02  0.21816456533E+03  0.11416890247E+04  0.10100000352E+00 0.  1.
       -3    1    3    3    0  502 -0.11185995023E+04 -0.67773113003E+02 -0.93892292764E+03  0.14619966879E+04  0.10100000352E+00 0. -1.
</event>
<event>
 5   0  0.8354653E-06  0.2497986E+04  0.7818609E-02  0.8403703E-01
       -2   -1    0    0    0  501  0.00000000000E+00  0.00000000000E+00  0.15885910467E+04  0.15885910467E+04  0.25500000920E-02 0. -1.
        2   -1    0    0  501    0  0.00000000000E+00  0.00000000000E+00 -0.98199194199E+03  0.98199194199E+03  0.25500000920E-02 0.  1.
    10030    2    1    2    0    0  0.00000000000E+00  0.00000000000E+00  0.60659910471E+03  0.25705829887E+04  0.24979860744E+04 0.  0.
        3    1    3    3  502    0 -0.18937671508E+03 -0.10090211800E+04  0.10353066520E+04  0.14580285167E+04  0.10100000352E+00 0. -1.
       -3    1    3    3    0  502  0.18937671508E+03  0.10090211800E+04 -0.42870754725E+03  0.11125544720E+04  0.10100000352E+00 0.  1.
</event>
<event>
 5   0  0.3484857E-06  0.2504707E+04  0.7818609E-02  0.8401310E-01
        1   -1    0    0  501    0  0.00000000000E+00  0.00000000000E+00  0.13086682919E+04  0.13086682919E+04  0.50400001928E-02 0. -1.
       -1   -1    0    0    0  501  0.00000000000E+00  0.00000000000E+00 -0.11984624609E+04  0.11984624609E+04  0.50400001928E-02 0.  1.
    10030    2    1    2    0    0  0.00000000000E+00  0.00000000000E+00  0.11020583105E+03  0.25071307528E+04  0.25047074253E+04 0.  0.
        3    1    3    3  502    0 -0.98267966686E+02 -0.96073551321E+03  0.85319515188E+03  0.12886470801E+04  0.10100000352E+00 0. -1.
       -3    1    3    3    0  502  0.98267966686E+02  0.96073551321E+03 -0.74298932083E+03  0.12184836727E+04  0.10100000352E+00 0.  1.
</event>
<event>
 5   0  0.8056723E-06  0.2495893E+04  0.7818609E-02  0.8404450E-01
       -2   -1    0    0    0  501  0.00000000000E+00  0.00000000000E+00  0.94730942478E+03  0.94730942478E+03  0.25500000920E-02 0.  1.
        2   -1    0    0  501    0  0.00000000000E+00  0.00000000000E+00 -0.16439930303E+04  0.16439930303E+04  0.25500000920E-02 0. -1.
    10030    2    1    2    0    0  0.00000000000E+00  0.00000000000E+00 -0.69668360553E+03  0.25913024551E+04  0.24958926995E+04 0.  0.
        2    1    3    3  502    0 -0.11373501138E+04 -0.37593997607E+03 -0.71168250322E+03  0.13933370491E+04  0.25500000920E-02 0.  1.
       -2    1    3    3    0  502  0.11373501138E+04  0.37593997607E+03  0.14998897693E+02  0.11979654060E+04  0.25500000920E-02 0. -1.
</event>
<event>
 5   0  0.8948286E-06  0.2500721E+04  0.7818609E-02  0.8402729E-01
       -2   -1    0    0    0  501  0.00000000000E+00  0.00000000000E+00  0.12829968777E+04  0.12829968778E+04  0.25500000920E-02 0. -1.
        2   -1    0    0  501    0  0.00000000000E+00  0.00000000000E+00 -0.12185543603E+04  0.12185543603E+04  0.25500000920E-02 0.  1.
    10030    2    1    2    0    0  0.00000000000E+00  0.00000000000E+00  0.64442517434E+02  0.25015512381E+04  0.25007210477E+04 0.  0.
        4    1    3    3  502    0 -0.58395580267E+03  0.84676949696E+03 -0.67891337862E+03  0.12324560637E+04  0.12699999809E+01 0.  1.
       -4    1    3    3    0  502  0.58395580267E+03 -0.84676949696E+03  0.74335589606E+03  0.12690951743E+04  0.12699999809E+01 0. -1.
</event>
<event>
 5   0  0.8948286E-06  0.2510923E+04  0.7818609E-02  0.8399104E-01
        2   -1    0    0  501    0  0.00000000000E+00  0.00000000000E+00  0.10403725540E+04  0.10403725540E+04  0.25500000920E-02 0.  1.
       -2   -1    0    0    0  501  0.00000000000E+00  0.00000000000E+00 -0.15150183641E+04  0.15150183641E+04  0.25500000920E-02 0. -1.
    10030    2    1    2    0    0  0.00000000000E+00  0.00000000000E+00 -0.47464581015E+03  0.25553909181E+04  0.25109229576E+04 0.  0.
        4    1    3    3  502    0  0.77576894259E+03 -0.74576268818E+03  0.42081553505E+03  0.11554508933E+04  0.12699999809E+01 0.  1.
       -4    1    3    3    0  502 -0.77576894259E+03  0.74576268818E+03 -0.89546134520E+03  0.13999400248E+04  0.12699999809E+01 0. -1.
</event>
<event>
 5   0  0.3481387E-06  0.2499151E+04  0.7818609E-02  0.8403288E-01
       -1   -1    0    0    0  501  0.00000000000E+00  0.00000000000E+00  0.17338039906E+04  0.17338039906E+04  0.50400001928E-02 0.  1.
        1   -1    0    0  501    0  0.00000000000E+00  0.00000000000E+00 -0.90058587771E+03  0.90058587772E+03  0.50400001928E-02 0. -1.
    10030    2    1    2    0    0  0.00000000000E+00  0.00000000000E+00  0.83321811290E+03  0.26343898683E+04  0.24991513669E+04 0.  0.
        4    1    3    3  502    0  0.97260494387E+03 -0.41820795859E+03 -0.28307121818E+03  0.10958965284E+04  0.12699999809E+01 0. -1.
       -4    1    3    3    0  502 -0.97260494387E+03  0.41820795859E+03  0.11162893311E+04  0.15384933399E+04  0.12699999809E+01 0.  1.
</event>
<event>
 5   0  0.3484857E-06  0.2482271E+04  0.7818609E-02  0.8409329E-01
       -1   -1    0    0    0  501  0.00000000000E+00  0.00000000000E+00  0.13604430298E+04  0.13604430298E+04  0.50400001928E-02 0. -1.
        1   -1    0    0  501    0  0.00000000000E+00  0.00000000000E+00 -0.11322911018E+04  0.11322911018E+04  0.50400001928E-02 0.  1.
    10030    2    1    2    0    0  0.00000000000E+00  0.00000000000E+00  0.22815192803E+03  0.24927341316E+04  0.24822711674E+04 0.  0.
        3    1    3    3  502    0 -0.12972753198E+02  0.44505628208E+03 -0.10493296924E+04  0.11398842924E+04  0.10100000352E+00 0.  1.
       -3    1    3    3    0  502  0.12972753198E+02 -0.44505628208E+03  0.12774816204E+04  0.13528498392E+04  0.10100000352E+00 0. -1.
</event>
<event>
 5   0  0.3424193E-06  0.2515076E+04  0.7818609E-02  0.8397634E-01
        1   -1    0    0  501    0  0.00000000000E+00  0.00000000000E+00  0.11632503889E+04  0.11632503889E+04  0.50400001928E-02 0.  1.
       -1   -1    0    0    0  501  0.00000000000E+00  0.00000000000E+00 -0.13594678414E+04  0.13594678414E+04  0.50400001928E-02 0. -1.
    10030    2    1    2    0    0  0.00000000000E+00  0.00000000000E+00 -0.19621745244E+03  0.25227182303E+04  0.25150757406E+04 0.  0.
        1    1    3    3  502    0 -0.98173912017E+03  0.28372565349E+03 -0.83319959521E+03  0.13185346078E+04  0.50400001928E-02 0. -1.
       -1    1    3    3    0  502  0.98173912017E+03 -0.28372565349E+03  0.63698214277E+03  0.12041836225E+04  0.50400001928E-02 0.  1.
</event>
<event>
 5   0  0.3481387E-06  0.2471066E+04  0.7818609E-02  0.8413366E-01
        1   -1    0    0  501    0  0.00000000000E+00  0.00000000000E+00  0.88922457781E+03  0.88922457783E+03  0.50400001928E-02 0. -1.
       -1   -1    0    0    0  501  0.00000000000E+00  0.00000000000E+00 -0.17167116513E+04  0.17167116513E+04  0.50400001928E-02 0.  1.
    10030    2    1    2    0    0  0.00000000000E+00  0.00000000000E+00 -0.82748707350E+03  0.26059362291E+04  0.24710663232E+04 0.  0.
        4    1    3    3  502    0  0.88117185608E+03  0.13198726882E+03 -0.13164144888E+04  0.15896015847E+04  0.12699999809E+01 0.  1.
       -4    1    3    3    0  502 -0.88117185608E+03 -0.13198726882E+03  0.48892741528E+03  0.10163346444E+04  0.12699999809E+01 0. -1.
</event>
<event>
 5   0  0.3424193E-06  0.2579923E+04  0.7818609E-02  0.8375053E-01
        1   -1    0    0  501    0  0.00000000000E+00  0.00000000000E+00  0.27421683395E+04  0.27421683395E+04  0.50400001928E-02 0.  1.
       -1   -1    0    0    0  501  0.00000000000E+00  0.00000000000E+00 -0.60681920357E+03  0.60681920359E+03  0.50400001928E-02 0. -1.
    10030    2    1    2    0    0  0.00000000000E+00  0.00000000000E+00  0.21353491359E+04  0.33489875431E+04  0.25799227956E+04 0.  0.
        1    1    3    3  502    0  0.87140279518E+03  0.11518355531E+03  0.22932520707E+04  0.24559346780E+04  0.50400001928E-02 0.  1.
       -1    1    3    3    0  502 -0.87140279518E+03 -0.11518355531E+03 -0.15790293484E+03  0.89305286502E+03  0.50400001928E-02 0. -1.
</event>
<event>
 5   0  0.8056723E-06  0.2517826E+04  0.7818609E-02  0.8396662E-01
       -2   -1    0    0    0  501  0.00000000000E+00  0.00000000000E+00  0.10587002972E+04  0.10587002972E+04  0.25500000920E-02 0. -1.
        2   -1    0    0  501    0  0.00000000000E+00  0.00000000000E+00 -0.14969880090E+04  0.14969880090E+04  0.25500000920E-02 0.  1.
    10030    2    1    2    0    0  0.00000000000E+00  0.00000000000E+00 -0.43828771184E+03  0.25556883062E+04  0.25178257684E+04 0.  0.
        2    1    3    3  502    0  0.12361483446E+04 -0.97994067835E+02  0.13696474606E+01  0.12400271945E+04  0.25500000920E-02 0. -1.
       -2    1    3    3    0  502 -0.12361483446E+04  0.97994067835E+02 -0.43965735930E+03  0.13156611117E+04  0.25500000920E-02 0.  1.
</event>
<event>
 5   0  0.3481387E-06  0.2502186E+04  0.7818609E-02  0.8402207E-01
        1   -1    0    0  501    0  0.00000000000E+00  0.00000000000E+00  0.13857736326E+04  0.13857736326E+04  0.50400001928E-02 0.  1.
       -1   -1    0    0    0  501  0.00000000000E+00  0.00000000000E+00 -0.11295021603E+04  0.11295021603E+04  0.50400001928E-02 0. -1.
    10030    2    1    2    0    0  0.00000000000E+00  0.00000000000E+00  0.25627147232E+03  0.25152757930E+04  0.25021864933E+04 0.  0.
        4    1    3    3  502    0  0.38339268296E+02 -0.55973107171E+03 -0.99595539052E+03  0.11431087109E+04  0.12699999809E+01 0. -1.
       -4    1    3    3    0  502 -0.38339268296E+02  0.55973107171E+03  0.12522268628E+04  0.13721670820E+04  0.12699999809E+01 0.  1.
</event>
<event>
 5   0  0.8056723E-06  0.2491840E+04  0.7818609E-02  0.8405898E-01
        2   -1    0    0  501    0  0.00000000000E+00  0.00000000000E+00  0.24108897086E+04  0.24108897086E+04  0.25500000920E-02 0.  1.
       -2   -1    0    0    0  501  0.00000000000E+00  0.00000000000E+00 -0.64387727081E+03  0.64387727081E+03  0.25500000920E-02 0. -1.
    10030    2    1    2    0    0  0.00000000000E+00  0.00000000000E+00  0.17670124378E+04  0.30547669794E+04  0.24918403527E+04 0.  0.
        2    1    3    3  502    0  0.68487101978E+03 -0.32829154670E+03  0.20942996270E+04  0.22277599918E+04  0.25500000920E-02 0.  1.
       -2    1    3    3    0  502 -0.68487101978E+03  0.32829154670E+03 -0.32728718920E+03  0.82700698763E+03  0.25500000920E-02 0. -1.
</event>
<event>
 5   0  0.3424193E-06  0.2508409E+04  0.7818609E-02  0.8399996E-01
       -1   -1    0    0    0  501  0.00000000000E+00  0.00000000000E+00  0.71926041636E+03  0.71926041638E+03  0.50400001928E-02 0. -1.
        1   -1    0    0  501    0  0.00000000000E+00  0.00000000000E+00 -0.21870089314E+04  0.21870089314E+04  0.50400001928E-02 0.  1.
    10030    2    1    2    0    0  0.00000000000E+00  0.00000000000E+00 -0.14677485151E+04  0.29062693478E+04  0.25084090214E+04 0.  0.
        1    1    3    3  502    0 -0.61233577424E+03 -0.52047833456E+03 -0.18495002779E+04  0.20165574812E+04  0.50400001928E-02 0.  1.
       -1    1    3    3    0  502  0.61233577424E+03  0.52047833456E+03  0.38175176280E+03  0.88971186661E+03  0.50400001928E-02 0. -1.
</event>
<event>
 5   0  0.3484857E-06  0.2496698E+04  0.7818609E-02  0.8404163E-01
        1   -1    0    0  501    0  0.00000000000E+00  0.00000000000E+00  0.19839139883E+04  0.19839139883E+04  0.50400001928E-02 0.  1.
       -1   -1    0    0    0  501  0.00000000000E+00  0.00000000000E+00 -0.78550528392E+03  0.78550528394E+03  0.50400001928E-02 0. -1.
    10030    2    1    2    0    0  0.00000000000E+00  0.00000000000E+00  0.11984087044E+04  0.27694192722E+04  0.24966977556E+04 0.  0.
        3    1    3    3  502    0  0.27300474093E+03  0.11125437383E+04  0.48942375542E+02  0.11465951877E+04  0.10100000352E+00 0. -1.
       -3    1    3    3    0  502 -0.27300474093E+03 -0.11125437383E+04  0.11494663288E+04  0.16228240846E+04  0.10100000352E+00 0.  1.
</event>
<event>
 5   0  0.8056723E-06  0.2509760E+04  0.7818609E-02  0.8399517E-01
        2   -1    0    0  501    0  0.00000000000E+00  0.00000000000E+00  0.14204970867E+04  0.14204970867E+04  0.25500000920E-02 0.  1.
       -2   -1    0    0    0  501  0.00000000000E+00  0.00000000000E+00 -0.11085719441E+04  0.11085719441E+04  0.25500000920E-02 0. -1.
    10030    2    1    2    0    0  0.00000000000E+00  0.00000000000E+00  0.31192514257E+03  0.25290690308E+04  0.25097595240E+04 0.  0.
        2    1    3    3  502    0  0.46302334829E+03  0.75426173300E+03 -0.74050087646E+03  0.11539683405E+04  0.25500000920E-02 0. -1.
       -2    1    3    3    0  502 -0.46302334829E+03 -0.75426173300E+03  0.10524260190E+04  0.13751006903E+04  0.25500000920E-02 0.  1.
</event>
<event>
 5   0  0.8579923E-06  0.2498975E+04  0.7818609E-02  0.8403351E-01
       -2   -1    0    0    0  501  0.00000000000E+00  0.00000000000E+00  0.95859860066E+03  0.95859860066E+03  0.25500000920E-02 0.  1.
        2   -1    0    0  501    0  0.00000000000E+00  0.00000000000E+00 -0.16286477216E+04  0.16286477216E+04  0.25500000920E-02 0. -1.
    10030    2    1    2    0    0  0.00000000000E+00  0.00000000000E+00 -0.67004912097E+03  0.25872463223E+04  0.24989753315E+04 0.  0.
        1    1    3    3  502    0  0.33887883414E+02 -0.15817629245E+03  0.94771135847E+03  0.96141819576E+03  0.50400001928E-02 0.  1.
       -1    1    3    3    0  502 -0.33887883414E+02  0.15817629245E+03 -0.16177604794E+04  0.16258281265E+04  0.50400001928E-02 0. -1.
</event>
<event>
 5   0  0.8407986E-06  0.2494452E+04  0.7818609E-02  0.8404965E-01
        2   -1    0    0  501    0  0.00000000000E+00  0.00000000000E+00  0.17353117541E+04  0.17353117541E+04  0.25500000920E-02 0.  1.
       -2   -1    0    0    0  501  0.00000000000E+00  0.00000000000E+00 -0.89642257294E+03  0.89642257294E+03  0.25500000920E-02 0. -1.
    10030    2    1    2    0    0  0.00000000000E+00  0.00000000000E+00  0.83888918112E+03  0.26317343270E+04  0.24944519458E+04 0.  0.
        5    1    3    3  502    0 -0.66432163787E+03  0.46266180862E+02 -0.69314818200E+03  0.96121812833E+03  0.46999998093E+01 0. -1.
       -5    1    3    3    0  502  0.66432163787E+03 -0.46266180862E+02  0.15320373631E+04  0.16705161987E+04  0.46999998093E+01 0.  1.
</event>
<event>
 5   0  0.3481387E-06  0.2517942E+04  0.7818609E-02  0.8396621E-01
       -1   -1    0    0    0  501  0.00000000000E+00  0.00000000000E+00  0.19623507246E+04  0.19623507246E+04  0.50400001928E-02 0. -1.
        1   -1    0    0  501    0  0.00000000000E+00  0.00000000000E+00 -0.80770865373E+03  0.80770865374E+03  0.50400001928E-02 0.  1.
    10030    2    1    2    0    0  0.00000000000E+00  0.00000000000E+00  0.11546420709E+04  0.27700593783E+04  0.25179417483E+04 0.  0.
        4    1    3    3  502    0  0.51222983204E+02 -0.19083987727E+03  0.19451848565E+04  0.19551954868E+04  0.12699999809E+01 0. -1.
       -4    1    3    3    0  502 -0.51222983204E+02  0.19083987727E+03 -0.79054278568E+03  0.81486389149E+03  0.12699999809E+01 0.  1.
</event>
<event>
 5   0  0.3424193E-06  0.2518969E+04  0.7818609E-02  0.8396259E-01
        1   -1    0    0  501    0  0.00000000000E+00  0.00000000000E+00  0.20085275217E+04  0.20085275218E+04  0.50400001928E-02 0. -1.
       -1   -1    0    0    0  501  0.00000000000E+00  0.00000000000E+00 -0.78978324562E+03  0.78978324563E+03  0.50400001928E-02 0.  1.
    10030    2    1    2    0    0  0.00000000000E+00  0.00000000000E+00  0.12187442761E+04  0.27983107674E+04  0.25189691424E+04 0.  0.
        1    1    3    3  502    0 -0.48670764333E+03  0.11370101363E+04  0.87372086455E+03  0.15142868055E+04  0.50400001928E-02 0. -1.
       -1    1    3    3    0  502  0.48670764333E+03 -0.11370101363E+04  0.34502341158E+03  0.12840239619E+04  0.50400001928E-02 0.  1.
</event>
<event>
 5   0  0.3484857E-06  0.2462680E+04  0.7818609E-02  0.8416403E-01
       -1   -1    0    0    0  501  0.00000000000E+00  0.00000000000E+00  0.93399859174E+03  0.93399859175E+03  0.50400001928E-02 0. -1.
        1   -1    0    0  501    0  0.00000000000E+00  0.00000000000E+00 -0.16233415810E+04  0.16233415810E+04  0.50400001928E-02 0.  1.
    10030    2    1    2    0    0  0.00000000000E+00  0.00000000000E+00 -0.68934298926E+03  0.25573401728E+04  0.24626804507E+04 0.  0.
        3    1    3    3  502    0 -0.67730224959E+02 -0.11993147176E+04 -0.63610389640E+02  0.12029087527E+04  0.10100000352E+00 0. -1.
       -3    1    3    3    0  502  0.67730224959E+02  0.11993147176E+04 -0.62573259962E+03  0.13544314201E+04  0.10100000352E+00 0.  1.
</event>
<event>
 5   0  0.8354653E-06  0.2333063E+04  0.7818609E-02  0.8464998E-01
        2   -1    0    0  501    0  0.00000000000E+00  0.00000000000E+00  0.14200039881E+04  0.14200039881E+04  0.25500000920E-02 0.  1.
       -2   -1    0    0    0  501  0.00000000000E+00  0.00000000000E+00 -0.95830408810E+03  0.95830408810E+03  0.25500000920E-02 0. -1.
    10030    2    1    2    0    0  0.00000000000E+00  0.00000000000E+00  0.46169989998E+03  0.23783080762E+04  0.23330629026E+04 0.  0.
        3    1    3    3  502    0 -0.67747350557E+03 -0.52986989815E+03 -0.57250883239E+03  0.10331983513E+04  0.10100000352E+00 0. -1.
       -3    1    3    3    0  502  0.67747350557E+03  0.52986989815E+03  0.10342087324E+04  0.13451097249E+04  0.10100000352E+00 0.  1.
</event>
<event>
 5   0  0.8056723E-06  0.2502225E+04  0.7818609E-02  0.8402193E-01
        2   -1    0    0  501    0  0.00000000000E+00  0.00000000000E+00  0.18765164709E+04  0.18765164709E+04  0.25500000920E-02 0.  1.
       -2   -1    0    0    0  501  0.00000000000E+00  0.00000000000E+00 -0.83414301374E+03  0.83414301375E+03  0.25500000920E-02 0. -1.
    10030    2    1    2    0    0  0.00000000000E+00  0.00000000000E+00  0.10423734572E+04  0.27106594847E+04  0.25022254930E+04 0.  0.
        2    1    3    3  502    0  0.10468150372E+04  0.52122311328E+03  0.39407221252E+02  0.11700633253E+04  0.25500000920E-02 0.  1.
       -2    1    3    3    0  502 -0.10468150372E+04 -0.52122311328E+03  0.10029662359E+04  0.15405961594E+04  0.25500000920E-02 0. -1.
</event>
<event>
 5   0  0.3522870E-06  0.2495895E+04  0.7818609E-02  0.8404449E-01
        1   -1    0    0  501    0  0.00000000000E+00  0.00000000000E+00  0.20136485104E+04  0.20136485104E+04  0.50400001928E-02 0. -1.
       -1   -1    0    0    0  501  0.00000000000E+00  0.00000000000E+00 -0.77340868491E+03  0.77340868493E+03  0.50400001928E-02 0.  1.
    10030    2    1    2    0    0  0.00000000000E+00  0.00000000000E+00  0.12402398255E+04  0.27870571953E+04  0.24958952272E+04 0.  0.
        2    1    3    3  502    0  0.10126323627E+04 -0.42091801774E+03 -0.44995847661E+02  0.10975522338E+04  0.25500000920E-02 0.  1.
       -2    1    3    3    0  502 -0.10126323627E+04  0.42091801774E+03  0.12852356731E+04  0.16895049615E+04  0.25500000920E-02 0. -1.
</event>
<event>
 5   0  0.3522870E-06  0.2486924E+04  0.7818609E-02  0.8407659E-01
       -1   -1    0    0    0  501  0.00000000000E+00  0.00000000000E+00  0.13383446306E+04  0.13383446306E+04  0.50400001928E-02 0. -1.
        1   -1    0    0  501    0  0.00000000000E+00  0.00000000000E+00 -0.11553058733E+04  0.11553058733E+04  0.50400001928E-02 0.  1.
    10030    2    1    2    0    0  0.00000000000E+00  0.00000000000E+00  0.18303875730E+03  0.24936505038E+04  0.24869237320E+04 0.  0.
        2    1    3    3  502    0 -0.26742445645E+03 -0.36757308046E+02  0.13086108078E+04  0.13361621106E+04  0.25500000920E-02 0. -1.
       -2    1    3    3    0  502  0.26742445645E+03  0.36757308046E+02 -0.11255720505E+04  0.11574883932E+04  0.25500000920E-02 0.  1.
</event>
<event>
 5   0  0.8948286E-06  0.2496639E+04  0.7818609E-02  0.8404184E-01
       -2   -1    0    0    0  501  0.00000000000E+00  0.00000000000E+00  0.90406882162E+03  0.90406882162E+03  0.25500000920E-02 0.  1.
        2   -1    0    0  501    0  0.00000000000E+00  0.00000000000E+00 -0.17236535024E+04  0.17236535024E+04  0.25500000920E-02 0. -1.
    10030    2    1    2    0    0  0.00000000000E+00  0.00000000000E+00 -0.81958468082E+03  0.26277223241E+04  0.24966388532E+04 0.  0.
        4    1    3    3  502    0 -0.47201870430E+03 -0.11531724597E+04 -0.48919467267E+03  0.13386266917E+04  0.12699999809E+01 0.  1.
       -4    1    3    3    0  502  0.47201870430E+03  0.11531724597E+04 -0.33039000815E+03  0.12890956324E+04  0.12699999809E+01 0. -1.
</event>
<event>
 5   0  0.3484857E-06  0.2503630E+04  0.7818609E-02  0.8401694E-01
       -1   -1    0    0    0  501  0.00000000000E+00  0.00000000000E+00  0.14577450275E+04  0.14577450275E+04  0.50400001928E-02 0.  1.
        1   -1    0    0  501    0  0.00000000000E+00  0.00000000000E+00 -0.10749755005E+04  0.10749755006E+04  0.50400001928E-02 0. -1.
    10030    2    1    2    0    0  0.00000000000E+00  0.00000000000E+00  0.38276952698E+03  0.25327205281E+04  0.25036295178E+04 0.  0.
        3    1    3    3  502    0  0.33779003736E+03  0.64593981440E+03 -0.83813374589E+03  0.11107693457E+04  0.10100000352E+00 0. -1.
       -3    1    3    3    0  502 -0.33779003736E+03 -0.64593981440E+03  0.12209032729E+04  0.14219511824E+04  0.10100000352E+00 0.  1.
</event>
<event>
 5   0  0.8579923E-06  0.2502319E+04  0.7818609E-02  0.8402160E-01
        2   -1    0    0  501    0  0.00000000000E+00  0.00000000000E+00  0.15725894635E+04  0.15725894635E+04  0.25500000920E-02 0.  1.
       -2   -1    0    0    0  501  0.00000000000E+00  0.00000000000E+00 -0.99542857709E+03  0.99542857709E+03  0.25500000920E-02 0. -1.
    10030    2    1    2    0    0  0.00000000000E+00  0.00000000000E+00  0.57716088646E+03  0.25680180406E+04  0.25023193178E+04 0.  0.
        1    1    3    3  502    0 -0.10070826739E+04  0.61457781550E+03 -0.13886324412E+03  0.11879412460E+04  0.50400001928E-02 0. -1.
       -1    1    3    3    0  502  0.10070826739E+04 -0.61457781550E+03  0.71602413059E+03  0.13800767946E+04  0.50400001928E-02 0.  1.
</event>
<event>
 5   0  0.3522870E-06  0.2497938E+04  0.7818609E-02  0.8403720E-01
       -1   -1    0    0    0  501  0.00000000000E+00  0.00000000000E+00  0.13030328342E+04  0.13030328342E+04  0.50400001928E-02 0.  1.
        1   -1    0    0  501    0  0.00000000000E+00  0.00000000000E+00 -0.11971483675E+04  0.11971483675E+04  0.50400001928E-02 0. -1.
    10030    2    1    2    0    0  0.00000000000E+00  0.00000000000E+00  0.10588446670E+03  0.25001812017E+04  0.24979380539E+04 0.  0.
        2    1    3    3  502    0 -0.11729724433E+04 -0.14382132568E+03 -0.35161710274E+03  0.12329572229E+04  0.25500000920E-02 0. -1.
       -2    1    3    3    0  502  0.11729724433E+04  0.14382132568E+03  0.45750156943E+03  0.12672239788E+04  0.25500000920E-02 0.  1.
</event>
<event>
 5   0  0.3481387E-06  0.2509417E+04  0.7818609E-02  0.8399638E-01
       -1   -1    0    0    0  501  0.00000000000E+00  0.00000000000E+00  0.14687346930E+04  0.14687346930E+04  0.50400001928E-02 0. -1.
        1   -1    0    0  501    0  0.00000000000E+00  0.00000000000E+00 -0.10718709427E+04  0.10718709427E+04  0.50400001928E-02 0.  1.
    10030    2    1    2    0    0  0.00000000000E+00  0.00000000000E+00  0.39686375031E+03  0.25406056357E+04  0.25094174941E+04 0.  0.
        4    1    3    3  502    0 -0.42161915385E+03  0.11586405249E+04  0.43387721895E+03  0.13070813406E+04  0.12699999809E+01 0. -1.
       -4    1    3    3    0  502  0.42161915385E+03 -0.11586405249E+04 -0.37013468640E+02  0.12335242951E+04  0.12699999809E+01 0.  1.
</event>
<event>
 5   0  0.8948286E-06  0.2506208E+04  0.7818609E-02  0.8400777E-01
        2   -1    0    0  501    0  0.00000000000E+00  0.00000000000E+00  0.13301885094E+04  0.13301885094E+04  0.25500000920E-02 0.  1.
       -2   -1    0    0    0  501  0.00000000000E+00  0.00000000000E+00 -0.11804862599E+04  0.11804862599E+04  0.25500000920E-02 0. -1.
    10030    2    1    2    0    0  0.00000000000E+00  0.00000000000E+00  0.14970224950E+03  0.25106747694E+04  0.25062076997E+04 0.  0.
        4    1    3    3  502    0  0.28163675165E+03 -0.11624020354E+04 -0.29967336065E+03  0.12330058750E+04  0.12699999809E+01 0. -1.
       -4    1    3    3    0  502 -0.28163675165E+03  0.11624020354E+04  0.44937561015E+03  0.12776688944E+04  0.12699999809E+01 0.  1.
</event>
<event>
 5   0  0.8056723E-06  0.2505676E+04  0.7818609E-02  0.8400966E-01
        2   -1    0    0  501    0  0.00000000000E+00  0.00000000000E+00  0.10572810190E+04  0.10572810190E+04  0.25500000920E-02 0.  1.
       -2   -1    0    0    0  501  0.00000000000E+00  0.00000000000E+00 -0.14845651469E+04  0.14845651469E+04  0.25500000920E-02 0. -1.
    10030    2    1    2    0    0  0.00000000000E+00  0.00000000000E+00 -0.42728412791E+03  0.25418461660E+04  0.25056755986E+04 0.  0.
        2    1    3    3  502    0  0.85908508387E+03 -0.37670828789E+03 -0.10560916126E+04  0.14125387817E+04  0.25500000920E-02 0. -1.
       -2    1    3    3    0  502 -0.85908508387E+03  0.37670828789E+03  0.62880748467E+03  0.11293073843E+04  0.25500000920E-02 0.  1.
</event>
<event>
 5   0  0.3642184E-06  0.2499369E+04  0.7818609E-02  0.8403210E-01
        1   -1    0    0  501    0  0.00000000000E+00  0.00000000000E+00  0.17216880765E+04  0.17216880765E+04  0.50400001928E-02 0.  1.
       -1   -1    0    0    0  501  0.00000000000E+00  0.00000000000E+00 -0.90708151083E+03  0.90708151085E+03  0.50400001928E-02 0. -1.
    10030    2    1    2    0    0  0.00000000000E+00  0.00000000000E+00  0.81460656563E+03  0.26287695873E+04  0.24993690577E+04 0.  0.
        5    1    3    3  502    0  0.52907908554E+02 -0.70481735309E+03  0.14912537936E+04  0.16502807988E+04  0.46999998093E+01 0.  1.
       -5    1    3    3    0  502 -0.52907908554E+02  0.70481735309E+03 -0.67664722801E+03  0.97848878847E+03  0.46999998093E+01 0. -1.
</event>
<event>
 5   0  0.8407986E-06  0.2545267E+04  0.7818609E-02  0.8387034E-01
       -2   -1    0    0    0  501  0.00000000000E+00  0.00000000000E+00  0.66498353238E+03  0.66498353238E+03  0.25500000920E-02 0.  1.
        2   -1    0    0  501    0  0.00000000000E+00  0.00000000000E+00 -0.24355437313E+04  0.24355437313E+04  0.25500000920E-02 0. -1.
    10030    2    1    2    0    0  0.00000000000E+00  0.00000000000E+00 -0.17705601990E+04  0.31005272637E+04  0.25452673524E+04 0.  0.
        5    1    3    3  502    0  0.22267030165E+03 -0.43486409401E+02 -0.24106992647E+04  0.24213562658E+04  0.46999998093E+01 0. -1.
       -5    1    3    3    0  502 -0.22267030165E+03  0.43486409401E+02  0.64013906571E+03  0.67917099797E+03  0.46999998093E+01 0.  1.
</event>
<event>
 5   0  0.8056723E-06  0.2493267E+04  0.7818609E-02  0.8405388E-01
        2   -1    0    0  501    0  0.00000000000E+00  0.00000000000E+00  0.13828311588E+04  0.13828311588E+04  0.25500000920E-02 0.  1.
       -2   -1    0    0    0  501  0.00000000000E+00  0.00000000000E+00 -0.11238503327E+04  0.11238503327E+04  0.25500000920E-02 0. -1.
    10030    2    1    2    0    0  0.00000000000E+00  0.00000000000E+00  0.25898082615E+03  0.25066814915E+04  0.24932671400E+04 0.  0.
        2    1    3    3  502    0 -0.62631306111E+03  0.73699722024E+03 -0.66129230325E+03  0.11716400742E+04  0.25500000920E-02 0. -1.
       -2    1    3    3    0  502  0.62631306111E+03 -0.73699722024E+03  0.92027312939E+03  0.13350414173E+04  0.25500000920E-02 0.  1.
</event>
<event>
 5   0  0.8407986E-06  0.2559939E+04  0.7818609E-02  0.8381938E-01
       -2   -1    0    0    0  501  0.00000000000E+00  0.00000000000E+00  0.14700918763E+04  0.14700918763E+04  0.25500000920E-02 0. -1.
        2   -1    0    0  501    0  0.00000000000E+00  0.00000000000E+00 -0.11144353397E+04  0.11144353397E+04  0.25500000920E-02 0.  1.
    10030    2    1    2    0    0  0.00000000000E+00  0.00000000000E+00  0.35565653662E+03  0.25845272160E+04  0.25599393271E+04 0.  0.
        5    1    3    3  502    0  0.40150810168E+03  0.32880798479E+03  0.13590991049E+04  0.14548181719E+04  0.46999998093E+01 0. -1.
       -5    1    3    3    0  502 -0.40150810168E+03 -0.32880798479E+03 -0.10034425682E+04  0.11297090441E+04  0.46999998093E+01 0.  1.
</event>
<event>
 5   0  0.3484857E-06  0.2500077E+04  0.7818609E-02  0.8402958E-01
        1   -1    0    0  501    0  0.00000000000E+00  0.00000000000E+00  0.18238142816E+04  0.18238142816E+04  0.50400001928E-02 0. -1.
       -1   -1    0    0    0  501  0.00000000000E+00  0.00000000000E+00 -0.85677364046E+03  0.85677364048E+03  0.50400001928E-02 0.  1.
    10030    2    1    2    0    0  0.00000000000E+00  0.00000000000E+00  0.96704064114E+03  0.26805879221E+04  0.25000768001E+04 0.  0.
        3    1    3    3  502    0  0.71679794992E+03  0.97918467392E+03  0.80517038332E+03  0.14563314468E+04  0.10100000352E+00 0.  1.
       -3    1    3    3    0  502 -0.71679794992E+03 -0.97918467392E+03  0.16187025782E+03  0.12242564753E+04  0.10100000352E+00 0. -1.
</event>
<event>
 5   0  0.8579923E-06  0.2477642E+04  0.7818609E-02  0.8410994E-01
       -2   -1    0    0    0  501  0.00000000000E+00  0.00000000000E+00  0.71001470796E+03  0.71001470797E+03  0.25500000920E-02 0.  1.
        2   -1    0    0  501    0  0.00000000000E+00  0.00000000000E+00 -0.21614735137E+04  0.21614735137E+04  0.25500000920E-02 0. -1.
    10030    2    1    2    0    0  0.00000000000E+00  0.00000000000E+00 -0.14514588057E+04  0.28714882216E+04  0.24776424162E+04 0.  0.
        1    1    3    3  502    0  0.10976724536E+04  0.47548808240E+03 -0.10989509396E+04  0.16243973959E+04  0.50400001928E-02 0. -1.
       -1    1    3    3    0  502 -0.10976724536E+04 -0.47548808240E+03 -0.35250786606E+03  0.12470908257E+04  0.50400001928E-02 0.  1.
</event>
<event>
 5   0  0.3484857E-06  0.2502789E+04  0.7818609E-02  0.8401993E-01
       -1   -1    0    0    0  501  0.00000000000E+00  0.00000000000E+00  0.90687147563E+03  0.90687147564E+03  0.50400001928E-02 0.  1.
        1   -1    0    0  501    0  0.00000000000E+00  0.00000000000E+00 -0.17268026831E+04  0.17268026831E+04  0.50400001928E-02 0. -1.
    10030    2    1    2    0    0  0.00000000000E+00  0.00000000000E+00 -0.81993120744E+03  0.26336741587E+04  0.25027889223E+04 0.  0.
        3    1    3    3  502    0  0.10858157910E+04 -0.58387885087E+03 -0.63584829051E+03  0.13871602298E+04  0.10100000352E+00 0.  1.
       -3    1    3    3    0  502 -0.10858157910E+04  0.58387885087E+03 -0.18408291693E+03  0.12465139289E+04  0.10100000352E+00 0. -1.
</event>
<event>
 5   0  0.8056723E-06  0.2497247E+04  0.7818609E-02  0.8403967E-01
       -2   -1    0    0    0  501  0.00000000000E+00  0.00000000000E+00  0.11753365117E+04  0.11753365117E+04  0.25500000920E-02 0. -1.
        2   -1    0    0  501    0  0.00000000000E+00  0.00000000000E+00 -0.13264797571E+04  0.13264797571E+04  0.25500000920E-02 0.  1.
    10030    2    1    2    0    0  0.00000000000E+00  0.00000000000E+00 -0.15114324539E+03  0.25018162688E+04  0.24972465562E+04 0.  0.
        2    1    3    3  502    0 -0.11965120788E+03 -0.44212040972E+03 -0.12392794090E+04  0.13212116870E+04  0.25500000920E-02 0.  1.
       -2    1    3    3    0  502  0.11965120788E+03  0.44212040972E+03  0.10881361636E+04  0.11806045819E+04  0.25500000920E-02 0. -1.
</event>
<event>
 5   0  0.8354653E-06  0.2508640E+04  0.7818609E-02  0.8399914E-01
       -2   -1    0    0    0  501  0.00000000000E+00  0.00000000000E+00  0.90896567921E+03  0.90896567922E+03  0.25500000920E-02 0. -1.
        2   -1    0    0  501    0  0.00000000000E+00  0.00000000000E+00 -0.17308893199E+04  0.17308893199E+04  0.25500000920E-02 0.  1.
    10030    2    1    2    0    0  0.00000000000E+00  0.00000000000E+00 -0.82192364073E+03  0.26398549992E+04  0.25086402583E+04 0.  0.
        3    1    3    3  502    0  0.10584599739E+04  0.57259941065E+03 -0.78317357412E+03  0.14358163040E+04  0.10100000352E+00 0. -1.
       -3    1    3    3    0  502 -0.10584599739E+04 -0.57259941065E+03 -0.38750066612E+02  0.12040386951E+04  0.10100000352E+00 0.  1.
</event>
<event>
 5   0  0.8579923E-06  0.2482149E+04  0.7818609E-02  0.8409373E-01
       -2   -1    0    0    0  501  0.00000000000E+00  0.00000000000E+00  0.10567710437E+04  0.10567710437E+04  0.25500000920E-02 0. -1.
        2   -1    0    0  501    0  0.00000000000E+00  0.00000000000E+00 -0.14575210297E+04  0.14575210297E+04  0.25500000920E-02 0.  1.
    10030    2    1    2    0    0  0.00000000000E+00  0.00000000000E+00 -0.40074998595E+03  0.25142920734E+04  0.24821490848E+04 0.  0.
        1    1    3    3  502    0 -0.50477453653E+03  0.51039941755E+03 -0.12258889123E+04  0.14206014654E+04  0.50400001928E-02 0.  1.
       -1    1    3    3    0  502  0.50477453653E+03 -0.51039941755E+03  0.82513892638E+03  0.10936906080E+04  0.50400001928E-02 0. -1.
</event>
<event>
 5   0  0.8407986E-06  0.2495250E+04  0.7818609E-02  0.8404680E-01
        2   -1    0    0  501    0  0.00000000000E+00  0.00000000000E+00  0.14151519303E+04  0.14151519303E+04  0.25500000920E-02 0. -1.
       -2   -1    0    0    0  501  0.00000000000E+00  0.00000000000E+00 -0.10999300754E+04  0.10999300754E+04  0.25500000920E-02 0.  1.
    10030    2    1    2    0    0  0.00000000000E+00  0.00000000000E+00  0.31522185486E+03  0.25150820057E+04  0.24952500231E+04 0.  0.
        5    1    3    3  502    0 -0.72796450042E+03  0.81984694969E+03  0.75771227910E+03  0.13327532865E+04  0.46999998093E+01 0.  1.
       -5    1    3    3    0  502  0.72796450042E+03 -0.81984694969E+03 -0.44249042424E+03  0.11823287192E+04  0.46999998093E+01 0. -1.
</event>
<event>
 5   0  0.3481387E-06  0.2515627E+04  0.7818609E-02  0.8397440E-01
       -1   -1    0    0    0  501  0.00000000000E+00  0.00000000000E+00  0.68762088064E+03  0.68762088066E+03  0.50400001928E-02 0. -1.
        1   -1    0    0  501    0  0.00000000000E+00  0.00000000000E+00 -0.23008235177E+04  0.23008235178E+04  0.50400001928E-02 0.  1.
    10030    2    1    2    0    0  0.00000000000E+00  0.00000000000E+00 -0.16132026371E+04  0.29884443984E+04  0.25156265967E+04 0.  0.
        4    1    3    3  502    0 -0.12179392497E+04  0.26586614075E+03 -0.60770581761E+03  0.13868557223E+04  0.12699999809E+01 0.  1.
       -4    1    3    3    0  502  0.12179392497E+04 -0.26586614075E+03 -0.10054968195E+04  0.16015886762E+04  0.12699999809E+01 0. -1.
</event>
<event>
 5   0  0.3642184E-06  0.2415562E+04  0.7818609E-02  0.8433700E-01
       -1   -1    0    0    0  501  0.00000000000E+00  0.00000000000E+00  0.17330912131E+04  0.17330912131E+04  0.50400001928E-02 0. -1.
        1   -1    0    0  501    0  0.00000000000E+00  0.00000000000E+00 -0.84169551612E+03  0.84169551613E+03  0.50400001928E-02 0.  1.
    10030    2    1    2    0    0  0.00000000000E+00  0.00000000000E+00  0.89139569695E+03  0.25747867292E+04  0.24155621318E+04 0.  0.
        5    1    3    3  502    0 -0.14987961896E+03 -0.68372368058E+03 -0.60344258189E+03  0.92417910125E+03  0.46999998093E+01 0.  1.
       -5    1    3    3    0  502  0.14987961896E+03  0.68372368058E+03  0.14948382788E+04  0.16506076280E+04  0.46999998093E+01 0. -1.
</event>
<event>
 5   0  0.8948286E-06  0.2498099E+04  0.7818609E-02  0.8403663E-01
        2   -1    0    0  501    0  0.00000000000E+00  0.00000000000E+00  0.18402746579E+04  0.18402746579E+04  0.25500000920E-02 0.  1.
       -2   -1    0    0    0  501  0.00000000000E+00  0.00000000000E+00 -0.84776732612E+03  0.84776732612E+03  0.25500000920E-02 0. -1.
    10030    2    1    2    0    0  0.00000000000E+00  0.00000000000E+00  0.99250733174E+03  0.26880419840E+04  0.24980990581E+04 0.  0.
        4    1    3    3  502    0 -0.10565579755E+04  0.21748793686E+03  0.11738203063E+04  0.15941993234E+04  0.12699999809E+01 0.  1.
       -4    1    3    3    0  502  0.10565579755E+04 -0.21748793686E+03 -0.18131297459E+03  0.10938426605E+04  0.12699999809E+01 0. -1.
</event>
<event>
 5   0  0.3481387E-06  0.2481015E+04  0.7818609E-02  0.8409780E-01
       -1   -1    0    0    0  501  0.00000000000E+00  0.00000000000E+00  0.12660010545E+04  0.12660010545E+04  0.50400001928E-02 0.  1.
        1   -1    0    0  501    0  0.00000000000E+00  0.00000000000E+00 -0.12155270792E+04  0.12155270792E+04  0.50400001928E-02 0. -1.
    10030    2    1    2    0    0  0.00000000000E+00  0.00000000000E+00  0.50473975294E+02  0.24815281337E+04  0.24810147634E+04 0.  0.
        4    1    3    3  502    0 -0.40803407979E+03 -0.10845796658E+04 -0.41763232925E+03  0.12317561597E+04  0.12699999809E+01 0. -1.
       -4    1    3    3    0  502  0.40803407979E+03  0.10845796658E+04  0.46810630454E+03  0.12497719740E+04  0.12699999809E+01 0.  1.
</event>
<event>
 5   0  0.3424193E-06  0.2487625E+04  0.7818609E-02  0.8407408E-01
        1   -1    0    0  501    0  0.00000000000E+00  0.00000000000E+00  0.14615398695E+04  0.14615398695E+04  0.50400001928E-02 0.  1.
       -1   -1    0    0    0  501  0.00000000000E+00  0.00000000000E+00 -0.10585200614E+04  0.10585200614E+04  0.50400001928E-02 0. -1.
    10030    2    1    2    0    0  0.00000000000E+00  0.00000000000E+00  0.40301980805E+03  0.25200599309E+04  0.24876247888E+04 0.  0.
        1    1    3    3  502    0  0.87984312417E+03  0.25833987467E+03  0.10528275809E+04  0.13961766826E+04  0.50400001928E-02 0.  1.
       -1    1    3    3    0  502 -0.87984312417E+03 -0.25833987467E+03 -0.64980777286E+03  0.11238832482E+04  0.50400001928E-02 0. -1.
</event>
<event>
 5   0  0.8579923E-06  0.2497962E+04  0.7818609E-02  0.8403712E-01
       -2   -1    0    0    0  501  0.00000000000E+00  0.00000000000E+00  0.98651795048E+03  0.98651795049E+03  0.25500000920E-02 0.  1.
        2   -1    0    0  501    0  0.00000000000E+00  0.00000000000E+00 -0.15812721223E+04  0.15812721223E+04  0.25500000920E-02 0. -1.
    10030    2    1    2    0    0  0.00000000000E+00  0.00000000000E+00 -0.59475417184E+03  0.25677900728E+04  0.24979618358E+04 0.  0.
        1    1    3    3  502    0  0.37638549443E+03  0.58500560344E+03  0.76895161884E+03  0.10369108875E+04  0.50400001928E-02 0.  1.
       -1    1    3    3    0  502 -0.37638549443E+03 -0.58500560344E+03 -0.13637057907E+04  0.15308791853E+04  0.50400001928E-02 0. -1.
</event>
<event>
 5   0  0.3642184E-06  0.2489086E+04  0.7818609E-02  0.8406884E-01
       -1   -1    0    0    0  501  0.00000000000E+00  0.00000000000E+00  0.18460337031E+04  0.18460337031E+04  0.50400001928E-02 0.  1.
        1   -1    0    0  501    0  0.00000000000E+00  0.00000000000E+00 -0.83903509567E+03  0.83903509569E+03  0.50400001928E-02 0. -1.
    10030    2    1    2    0    0  0.00000000000E+00  0.00000000000E+00  0.10069986074E+04  0.26850687988E+04  0.24890858279E+04 0.  0.
        5    1    3    3  502    0 -0.49455403465E+03 -0.95827116605E+03 -0.16670602787E+03  0.10911829868E+04  0.46999998093E+01 0. -1.
       -5    1    3    3    0  502  0.49455403465E+03  0.95827116605E+03  0.11737046353E+04  0.15938858120E+04  0.46999998093E+01 0.  1.
</event>
<event>
 5   0  0.8948286E-06  0.2509901E+04  0.7818609E-02  0.8399467E-01
       -2   -1    0    0    0  501  0.00000000000E+00  0.00000000000E+00  0.99960175496E+03  0.99960175496E+03  0.25500000920E-02 0. -1.
        2   -1    0    0  501    0  0.00000000000E+00  0.00000000000E+00 -0.15755281674E+04  0.15755281674E+04  0.25500000920E-02 0.  1.
    10030    2    1    2    0    0  0.00000000000E+00  0.00000000000E+00 -0.57592641246E+03  0.25751299224E+04  0.25099009711E+04 0.  0.
        4    1    3    3  502    0 -0.43845116910E+03  0.89754903445E+03  0.49142724494E+03  0.11132547089E+04  0.12699999809E+01 0. -1.
       -4    1    3    3    0  502  0.43845116910E+03 -0.89754903445E+03 -0.10673536574E+04  0.14618752135E+04  0.12699999809E+01 0.  1.
</event>
<event>
 5   0  0.8579923E-06  0.2498136E+04  0.7818609E-02  0.8403650E-01
       -2   -1    0    0    0  501  0.00000000000E+00  0.00000000000E+00  0.92772908066E+03  0.92772908066E+03  0.25500000920E-02 0. -1.
        2   -1    0    0  501    0  0.00000000000E+00  0.00000000000E+00 -0.16817093015E+04  0.16817093015E+04  0.25500000920E-02 0.  1.
    10030    2    1    2    0    0  0.00000000000E+00  0.00000000000E+00 -0.75398022089E+03  0.26094383822E+04  0.24981358044E+04 0.  0.
        1    1    3    3  502    0  0.12416622765E+04 -0.11066064815E+03 -0.45923598294E+03  0.13284836002E+04  0.50400001928E-02 0.  1.
       -1    1    3    3    0  502 -0.12416622765E+04  0.11066064815E+03 -0.29474423795E+03  0.12809547821E+04  0.50400001928E-02 0. -1.
</event>
<event>
 5   0  0.8354653E-06  0.2504278E+04  0.7818609E-02  0.8401463E-01
       -2   -1    0    0    0  501  0.00000000000E+00  0.00000000000E+00  0.11163498019E+04  0.11163498019E+04  0.25500000920E-02 0.  1.
        2   -1    0    0  501    0  0.00000000000E+00  0.00000000000E+00 -0.14044455088E+04  0.14044455088E+04  0.25500000920E-02 0. -1.
    10030    2    1    2    0    0  0.00000000000E+00  0.00000000000E+00 -0.28809570690E+03  0.25207953107E+04  0.25042783116E+04 0.  0.
        3    1    3    3  502    0 -0.76671285428E+03 -0.93395228134E+03  0.18635014681E+03  0.12226372529E+04  0.10100000352E+00 0.  1.
       -3    1    3    3    0  502  0.76671285428E+03  0.93395228134E+03 -0.47444585371E+03  0.12981580578E+04  0.10100000352E+00 0. -1.
</event>
<event>
 5   0  0.8056723E-06  0.2495545E+04  0.7818609E-02  0.8404575E-01
       -2   -1    0    0    0  501  0.00000000000E+00  0.00000000000E+00  0.85908132180E+03  0.85908132180E+03  0.25500000920E-02 0. -1.
        2   -1    0    0  501    0  0.00000000000E+00  0.00000000000E+00 -0.18123262605E+04  0.18123262605E+04  0.25500000920E-02 0.  1.
    10030    2    1    2    0    0  0.00000000000E+00  0.00000000000E+00 -0.95324493869E+03  0.26714075823E+04  0.24955445413E+04 0.  0.
        2    1    3    3  502    0 -0.53013962813E+03  0.69960606062E+03  0.47268597177E+03  0.99695972500E+03  0.25500000920E-02 0. -1.
       -2    1    3    3    0  502  0.53013962813E+03 -0.69960606062E+03 -0.14259309105E+04  0.16744478573E+04  0.25500000920E-02 0.  1.
</event>
<event>
 5   0  0.8579923E-06  0.2509781E+04  0.7818609E-02  0.8399509E-01
       -2   -1    0    0    0  501  0.00000000000E+00  0.00000000000E+00  0.88966354803E+03  0.88966354804E+03  0.25500000920E-02 0. -1.
        2   -1    0    0  501    0  0.00000000000E+00  0.00000000000E+00 -0.17700514185E+04  0.17700514185E+04  0.25500000920E-02 0.  1.
    10030    2    1    2    0    0  0.00000000000E+00  0.00000000000E+00 -0.88038787043E+03  0.26597149665E+04  0.25097810464E+04 0.  0.
        1    1    3    3  502    0 -0.88714173798E+03 -0.18707206356E+03  0.47923882101E+03  0.10255175609E+04  0.50400001928E-02 0.  1.
       -1    1    3    3    0  502  0.88714173798E+03  0.18707206356E+03 -0.13596266914E+04  0.16341974056E+04  0.50400001928E-02 0. -1.
</event>
<event>
 5   0  0.8407986E-06  0.2523139E+04  0.7818609E-02  0.8394788E-01
        2   -1    0    0  501    0  0.00000000000E+00  0.00000000000E+00  0.13854674599E+04  0.13854674599E+04  0.25500000920E-02 0.  1.
       -2   -1    0    0    0  501  0.00000000000E+00  0.00000000000E+00 -0.11487511028E+04  0.11487511028E+04  0.25500000920E-02 0. -1.
    10030    2    1    2    0    0  0.00000000000E+00  0.00000000000E+00  0.23671635707E+03  0.25342185627E+04  0.25231387377E+04 0.  0.
        5    1    3    3  502    0  0.25897794437E+03 -0.76681444735E+03  0.10903169262E+04  0.13578980307E+04  0.46999998093E+01 0.  1.
       -5    1    3    3    0  502 -0.25897794437E+03  0.76681444735E+03 -0.85360056910E+03  0.11763205320E+04  0.46999998093E+01 0. -1.
</event>
<event>
 5   0  0.8056723E-06  0.2502256E+04  0.7818609E-02  0.8402182E-01
        2   -1    0    0  501    0  0.00000000000E+00  0.00000000000E+00  0.16869762040E+04  0.16869762040E+04  0.25500000920E-02 0.  1.
       -2   -1    0    0    0  501  0.00000000000E+00  0.00000000000E+00 -0.92788559217E+03  0.92788559217E+03  0.25500000920E-02 0. -1.
    10030    2    1    2    0    0  0.00000000000E+00  0.00000000000E+00  0.75909061179E+03  0.26148617961E+04  0.25022557135E+04 0.  0.
        2    1    3    3  502    0 -0.64254893723E+03  0.54175277980E+03 -0.58896095841E+03  0.10262749250E+04  0.25500000920E-02 0. -1.
       -2    1    3    3    0  502  0.64254893723E+03 -0.54175277980E+03  0.13480515702E+04  0.15885868711E+04  0.25500000920E-02 0.  1.
</event>
<event>
 5   0  0.3484857E-06  0.2484122E+04  0.7818609E-02  0.8408664E-01
       -1   -1    0    0    0  501  0.00000000000E+00  0.00000000000E+00  0.11238222887E+04  0.11238222887E+04  0.50400001928E-02 0. -1.
        1   -1    0    0  501    0  0.00000000000E+00  0.00000000000E+00 -0.13727396143E+04  0.13727396143E+04  0.50400001928E-02 0.  1.
    10030    2    1    2    0    0  0.00000000000E+00  0.00000000000E+00 -0.24891732559E+03  0.24965619030E+04  0.24841218771E+04 0.  0.
        3    1    3    3  502    0 -0.75332623366E+03  0.98474436904E+03 -0.49969491252E+02  0.12408540796E+04  0.10100000352E+00 0. -1.
       -3    1    3    3    0  502  0.75332623366E+03 -0.98474436904E+03 -0.19894783434E+03  0.12557078234E+04  0.10100000352E+00 0.  1.
</event>
<event>
 5   0  0.3424193E-06  0.2559004E+04  0.7818609E-02  0.8382262E-01
        1   -1    0    0  501    0  0.00000000000E+00  0.00000000000E+00  0.12162732155E+04  0.12162732155E+04  0.50400001928E-02 0. -1.
       -1   -1    0    0    0  501  0.00000000000E+00  0.00000000000E+00 -0.13460175845E+04  0.13460175845E+04  0.50400001928E-02 0.  1.
    10030    2    1    2    0    0  0.00000000000E+00  0.00000000000E+00 -0.12974436908E+03  0.25622908000E+04  0.25590038184E+04 0.  0.
        1    1    3    3  502    0 -0.35474678244E+01  0.10793728790E+03  0.12117015549E+04  0.12165047065E+04  0.50400001928E-02 0. -1.
       -1    1    3    3    0  502  0.35474678244E+01 -0.10793728790E+03 -0.13414459240E+04  0.13457860936E+04  0.50400001928E-02 0.  1.
</event>
<event>
 5   0  0.8056723E-06  0.2488810E+04  0.7818609E-02  0.8406983E-01
        2   -1    0    0  501    0  0.00000000000E+00  0.00000000000E+00  0.12969759732E+04  0.12969759732E+04  0.25500000920E-02 0.  1.
       -2   -1    0    0    0  501  0.00000000000E+00  0.00000000000E+00 -0.11939646327E+04  0.11939646327E+04  0.25500000920E-02 0. -1.
    10030    2    1    2    0    0  0.00000000000E+00  0.00000000000E+00  0.10301134055E+03  0.24909406059E+04  0.24888097087E+04 0.  0.
        2    1    3    3  502    0 -0.29176656288E+03  0.95173982732E+03 -0.69586455975E+03  0.12145632596E+04  0.25500000920E-02 0. -1.
       -2    1    3    3    0  502  0.29176656288E+03 -0.95173982732E+03  0.79887590030E+03  0.12763773463E+04  0.25500000920E-02 0.  1.
</event>
<event>
 5   0  0.8407986E-06  0.2496048E+04  0.7818609E-02  0.8404395E-01
        2   -1    0    0  501    0  0.00000000000E+00  0.00000000000E+00  0.21276729823E+04  0.21276729823E+04  0.25500000920E-02 0.  1.
       -2   -1    0    0    0  501  0.00000000000E+00  0.00000000000E+00 -0.73205049007E+03  0.73205049007E+03  0.25500000920E-02 0. -1.
    10030    2    1    2    0    0  0.00000000000E+00  0.00000000000E+00  0.13956224922E+04  0.28597234723E+04  0.24960481160E+04 0.  0.
        5    1    3    3  502    0 -0.75660186917E+03 -0.39270393970E+03 -0.34652422021E+03  0.92019774933E+03  0.46999998093E+01 0. -1.
       -5    1    3    3    0  502  0.75660186917E+03  0.39270393970E+03  0.17421467124E+04  0.19395257230E+04  0.46999998093E+01 0.  1.
</event>
<event>
 5   0  0.8407986E-06  0.2501056E+04  0.7818609E-02  0.8402609E-01
        2   -1    0    0  501    0  0.00000000000E+00  0.00000000000E+00  0.19690458602E+04  0.19690458602E+04  0.25500000920E-02 0.  1.
       -2   -1    0    0    0  501  0.00000000000E+00  0.00000000000E+00 -0.79420234456E+03  0.79420234456E+03  0.25500000920E-02 0. -1.
    10030    2    1    2    0    0  0.00000000000E+00  0.00000000000E+00  0.11748435156E+04  0.27632482047E+04  0.25010564477E+04 0.  0.
        5    1    3    3  502    0 -0.32691329455E+03  0.36387927047E+03  0.18589481769E+04  0.19222358961E+04  0.46999998093E+01 0.  1.
       -5    1    3    3    0  502  0.32691329455E+03 -0.36387927047E+03 -0.68410466134E+03  0.84101230865E+03  0.46999998093E+01 0. -1.
</event>
<event>
 5   0  0.3481387E-06  0.2452016E+04  0.7818609E-02  0.8420282E-01
       -1   -1    0    0    0  501  0.00000000000E+00  0.00000000000E+00  0.13911878938E+04  0.13911878938E+04  0.50400001928E-02 0. -1.
        1   -1    0    0  501    0  0.00000000000E+00  0.00000000000E+00 -0.10804407145E+04  0.10804407145E+04  0.50400001928E-02 0.  1.
    10030    2    1    2    0    0  0.00000000000E+00  0.00000000000E+00  0.31074717931E+03  0.24716286083E+04  0.24520163474E+04 0.  0.
        4    1    3    3  502    0  0.65375567688E+03 -0.10037232413E+04 -0.10793905844E+03  0.12027091433E+04  0.12699999809E+01 0.  1.
       -4    1    3    3    0  502 -0.65375567688E+03  0.10037232413E+04  0.41868623775E+03  0.12689194650E+04  0.12699999809E+01 0. -1.
</event>
<event>
 5   0  0.3642184E-06  0.2507874E+04  0.7818609E-02  0.8400186E-01
        1   -1    0    0  501    0  0.00000000000E+00  0.00000000000E+00  0.19555608375E+04  0.19555608375E+04  0.50400001928E-02 0.  1.
       -1   -1    0    0    0  501  0.00000000000E+00  0.00000000000E+00 -0.80404441664E+03  0.80404441665E+03  0.50400001928E-02 0. -1.
    10030    2    1    2    0    0  0.00000000000E+00  0.00000000000E+00  0.11515164209E+04  0.27596052541E+04  0.25078738188E+04 0.  0.
        5    1    3    3  502    0 -0.20992563404E+03 -0.26260289121E+03  0.19050323618E+04  0.19344765287E+04  0.46999998093E+01 0.  1.
       -5    1    3    3    0  502  0.20992563404E+03  0.26260289121E+03 -0.75351594099E+03  0.82512872548E+03  0.46999998093E+01 0. -1.
</event>
<event>
 5   0  0.8579923E-06  0.2494524E+04  0.7818609E-02  0.8404939E-01
        2   -1    0    0  501    0  0.00000000000E+00  0.00000000000E+00  0.13985503344E+04  0.13985503344E+04  0.25500000920E-02 0. -1.
       -2   -1    0    0    0  501  0.00000000000E+00  0.00000000000E+00 -0.11123390028E+04  0.11123390029E+04  0.25500000920E-02 0.  1.
    10030    2    1    2    0    0  0.00000000000E+00  0.00000000000E+00  0.28621133159E+03  0.25108893373E+04  0.24945236695E+04 0.  0.
        1    1    3    3  502    0  0.27920114930E+03  0.85052382884E+03 -0.73110718134E+03  0.11557948675E+04  0.50400001928E-02 0.  1.
       -1    1    3    3    0  502 -0.27920114930E+03 -0.85052382884E+03  0.10173185129E+04  0.13550944698E+04  0.50400001928E-02 0. -1.
</event>
<event>
 5   0  0.8948286E-06  0.2494688E+04  0.7818609E-02  0.8404880E-01
       -2   -1    0    0    0  501  0.00000000000E+00  0.00000000000E+00  0.55932793643E+03  0.55932793644E+03  0.25500000920E-02 0. -1.
        2   -1    0    0  501    0  0.00000000000E+00  0.00000000000E+00 -0.27816731631E+04  0.27816731631E+04  0.25500000920E-02 0.  1.
    10030    2    1    2    0    0  0.00000000000E+00  0.00000000000E+00 -0.22223452267E+04  0.33410010996E+04  0.24946883655E+04 0.  0.
        4    1    3    3  502    0 -0.43595358162E+03  0.40370836966E+03  0.35762659224E+03  0.69349431536E+03  0.12699999809E+01 0. -1.
       -4    1    3    3    0  502  0.43595358162E+03 -0.40370836966E+03 -0.25799718190E+04  0.26475067842E+04  0.12699999809E+01 0.  1.
</event>
<event>
 5   0  0.8056723E-06  0.2495842E+04  0.7818609E-02  0.8404468E-01
        2   -1    0    0  501    0  0.00000000000E+00  0.00000000000E+00  0.15524446272E+04  0.15524446272E+04  0.25500000920E-02 0.  1.
       -2   -1    0    0    0  501  0.00000000000E+00  0.00000000000E+00 -0.10031323022E+04  0.10031323022E+04  0.25500000920E-02 0. -1.
    10030    2    1    2    0    0  0.00000000000E+00  0.00000000000E+00  0.54931232504E+03  0.25555769294E+04  0.24958424253E+04 0.  0.
        2    1    3    3  502    0 -0.45430413361E+03  0.94077059117E+03 -0.42422319269E+03  0.11275667910E+04  0.25500000920E-02 0. -1.
       -2    1    3    3    0  502  0.45430413361E+03 -0.94077059117E+03  0.97353551773E+03  0.14280101384E+04  0.25500000920E-02 0.  1.
</event>
<event>
 5   0  0.8056723E-06  0.2506806E+04  0.7818609E-02  0.8400565E-01
       -2   -1    0    0    0  501  0.00000000000E+00  0.00000000000E+00  0.11313841193E+04  0.11313841193E+04  0.25500000920E-02 0.  1.
        2   -1    0    0  501    0  0.00000000000E+00  0.00000000000E+00 -0.13885817211E+04  0.13885817211E+04  0.25500000920E-02 0. -1.
    10030    2    1    2    0    0  0.00000000000E+00  0.00000000000E+00 -0.25719760177E+03  0.25199658405E+04  0.25068061813E+04 0.  0.
        2    1    3    3  502    0  0.92606570085E+03  0.29026264979E+03  0.66876704752E+03  0.11786006330E+04  0.25500000920E-02 0.  1.
       -2    1    3    3    0  502 -0.92606570085E+03 -0.29026264979E+03 -0.92596464929E+03  0.13413652075E+04  0.25500000920E-02 0. -1.
</event>
<event>
 5   0  0.3522870E-06  0.2494020E+04  0.7818609E-02  0.8405119E-01
       -1   -1    0    0    0  501  0.00000000000E+00  0.00000000000E+00  0.13931097386E+04  0.13931097386E+04  0.50400001928E-02 0.  1.
        1   -1    0    0  501    0  0.00000000000E+00  0.00000000000E+00 -0.11162326149E+04  0.11162326149E+04  0.50400001928E-02 0. -1.
    10030    2    1    2    0    0  0.00000000000E+00  0.00000000000E+00  0.27687712370E+03  0.25093423535E+04  0.24940204701E+04 0.  0.
        2    1    3    3  502    0 -0.57860011812E+02 -0.11733487348E+04 -0.28238866824E+03  0.12082377226E+04  0.25500000920E-02 0. -1.
       -2    1    3    3    0  502  0.57860011812E+02  0.11733487348E+04  0.55926579194E+03  0.13011046309E+04  0.25500000920E-02 0.  1.
</event>
<event>
 5   0  0.3484857E-06  0.2463813E+04  0.7818609E-02  0.8415992E-01
       -1   -1    0    0    0  501  0.00000000000E+00  0.00000000000E+00  0.86916031826E+03  0.86916031828E+03  0.50400001928E-02 0.  1.
        1   -1    0    0  501    0  0.00000000000E+00  0.00000000000E+00 -0.17460459628E+04  0.17460459629E+04  0.50400001928E-02 0. -1.
    10030    2    1    2    0    0  0.00000000000E+00  0.00000000000E+00 -0.87688564458E+03  0.26152062811E+04  0.24638131949E+04 0.  0.
        3    1    3    3  502    0 -0.94608235667E+03 -0.65549704347E+03  0.27682936160E+02  0.11513099299E+04  0.10100000352E+00 0. -1.
       -3    1    3    3    0  502  0.94608235667E+03  0.65549704347E+03 -0.90456858074E+03  0.14638963512E+04  0.10100000352E+00 0.  1.
</event>
<event>
 5   0  0.8407986E-06  0.2491182E+04  0.7818609E-02  0.8406134E-01
        2   -1    0    0  501    0  0.00000000000E+00  0.00000000000E+00  0.20876703612E+04  0.20876703612E+04  0.25500000920E-02 0.  1.
       -2   -1    0    0    0  501  0.00000000000E+00  0.00000000000E+00 -0.74317154572E+03  0.74317154572E+03  0.25500000920E-02 0. -1.
    10030    2    1    2    0    0  0.00000000000E+00  0.00000000000E+00  0.13444988155E+04  0.28308419069E+04  0.24911822168E+04 0.  0.
        5    1    3    3  502    0 -0.33653333686E+03  0.65284348544E+03 -0.47090204082E+03  0.87248502873E+03  0.46999998093E+01 0. -1.
       -5    1    3    3    0  502  0.33653333686E+03 -0.65284348544E+03  0.18154008563E+04  0.19583568782E+04  0.46999998093E+01 0.  1.
</event>
<event>
 5   0  0.8579923E-06  0.2498341E+04  0.7818609E-02  0.8403577E-01
       -2   -1    0    0    0  501  0.00000000000E+00  0.00000000000E+00  0.71648680846E+03  0.71648680847E+03  0.25500000920E-02 0.  1.
        2   -1    0    0  501    0  0.00000000000E+00  0.00000000000E+00 -0.21778867796E+04  0.21778867796E+04  0.25500000920E-02 0. -1.
    10030    2    1    2    0    0  0.00000000000E+00  0.00000000000E+00 -0.14613999711E+04  0.28943735880E+04  0.24983411680E+04 0.  0.
        1    1    3    3  502    0  0.40524728529E+03  0.12677933526E+03 -0.20917141630E+04  0.21343773100E+04  0.50400001928E-02 0. -1.
       -1    1    3    3    0  502 -0.40524728529E+03 -0.12677933526E+03  0.63031419185E+03  0.75999627799E+03  0.50400001928E-02 0.  1.
</event>
<event>
 5   0  0.3481387E-06  0.2511238E+04  0.7818609E-02  0.8398993E-01
        1   -1    0    0  501    0  0.00000000000E+00  0.00000000000E+00  0.14707098817E+04  0.14707098817E+04  0.50400001928E-02 0.  1.
       -1   -1    0    0    0  501  0.00000000000E+00  0.00000000000E+00 -0.10719851985E+04  0.10719851985E+04  0.50400001928E-02 0. -1.
    10030    2    1    2    0    0  0.00000000000E+00  0.00000000000E+00  0.39872468322E+03  0.25426950802E+04  0.25112381205E+04 0.  0.
        4    1    3    3  502    0 -0.72138214482E+03  0.60736772599E+03  0.10387766255E+04  0.14029776349E+04  0.12699999809E+01 0. -1.
       -4    1    3    3    0  502  0.72138214482E+03 -0.60736772599E+03 -0.64005194225E+03  0.11397174453E+04  0.12699999809E+01 0.  1.
</event>
<event>
 5   0  0.3484857E-06  0.2492243E+04  0.7818609E-02  0.8405754E-01
       -1   -1    0    0    0  501  0.00000000000E+00  0.00000000000E+00  0.13148985457E+04  0.13148985458E+04  0.50400001928E-02 0. -1.
        1   -1    0    0  501    0  0.00000000000E+00  0.00000000000E+00 -0.11809418359E+04  0.11809418359E+04  0.50400001928E-02 0.  1.
    10030    2    1    2    0    0  0.00000000000E+00  0.00000000000E+00  0.13395670986E+03  0.24958403817E+04  0.24922429277E+04 0.  0.
        3    1    3    3  502    0 -0.12039720637E+03 -0.42846562431E+03  0.12325916119E+04  0.13104809692E+04  0.10100000352E+00 0. -1.
       -3    1    3    3    0  502  0.12039720637E+03  0.42846562431E+03 -0.10986349021E+04  0.11853594125E+04  0.10100000352E+00 0.  1.
</event>
<event>
 5   0  0.8407986E-06  0.2500557E+04  0.7818609E-02  0.8402787E-01
        2   -1    0    0  501    0  0.00000000000E+00  0.00000000000E+00  0.19017304092E+04  0.19017304092E+04  0.25500000920E-02 0.  1.
       -2   -1    0    0    0  501  0.00000000000E+00  0.00000000000E+00 -0.82198653424E+03  0.82198653424E+03  0.25500000920E-02 0. -1.
    10030    2    1    2    0    0  0.00000000000E+00  0.00000000000E+00  0.10797438750E+04  0.27237169435E+04  0.25005573684E+04 0.  0.
        5    1    3    3  502    0 -0.49741822427E+03 -0.27445204381E+03  0.17530109240E+04  0.18427745938E+04  0.46999998093E+01 0.  1.
       -5    1    3    3    0  502  0.49741822427E+03  0.27445204381E+03 -0.67326704895E+03  0.88094234964E+03  0.46999998093E+01 0. -1.
</event>
<event>
 5   0  0.8407986E-06  0.2507578E+04  0.7818609E-02  0.8400291E-01
       -2   -1    0    0    0  501  0.00000000000E+00  0.00000000000E+00  0.97372967306E+03  0.97372967306E+03  0.25500000920E-02 0.  1.
        2   -1    0    0  501    0  0.00000000000E+00  0.00000000000E+00 -0.16143970906E+04  0.16143970906E+04  0.25500000920E-02 0. -1.
    10030    2    1    2    0    0  0.00000000000E+00  0.00000000000E+00 -0.64066741755E+03  0.25881267637E+04  0.25075775970E+04 0.  0.
        5    1    3    3  502    0  0.11797792734E+04 -0.16910082209E+02 -0.75798177293E+03  0.14023992095E+04  0.46999998093E+01 0. -1.
       -5    1    3    3    0  502 -0.11797792734E+04  0.16910082209E+02  0.11731435537E+03  0.11857275542E+04  0.46999998093E+01 0.  1.
</event>
<event>
 5   0  0.8056723E-06  0.2506858E+04  0.7818609E-02  0.8400546E-01
        2   -1    0    0  501    0  0.00000000000E+00  0.00000000000E+00  0.12057049277E+04  0.12057049277E+04  0.25500000920E-02 0. -1.
       -2   -1    0    0    0  501  0.00000000000E+00  0.00000000000E+00 -0.13030423329E+04  0.13030423329E+04  0.25500000920E-02 0.  1.
    10030    2    1    2    0    0  0.00000000000E+00  0.00000000000E+00 -0.97337405206E+02  0.25087472607E+04  0.25068582424E+04 0.  0.
        2    1    3    3  502    0  0.67753075930E+02 -0.33591180024E+02  0.12034198469E+04  0.12057935871E+04  0.25500000920E-02 0. -1.
       -2    1    3    3    0  502 -0.67753075930E+02  0.33591180024E+02 -0.13007572521E+04  0.13029536736E+04  0.25500000920E-02 0.  1.
</event>
<event>
 5   0  0.8948286E-06  0.2501413E+04  0.7818609E-02  0.8402482E-01
        2   -1    0    0  501    0  0.00000000000E+00  0.00000000000E+00  0.13991255811E+04  0.13991255811E+04  0.25500000920E-02 0.  1.
       -2   -1    0    0    0  501  0.00000000000E+00  0.00000000000E+00 -0.11180313147E+04  0.11180313147E+04  0.25500000920E-02 0. -1.
    10030    2    1    2    0    0  0.00000000000E+00  0.00000000000E+00  0.28109426637E+03  0.25171568958E+04  0.25014125712E+04 0.  0.
        4    1    3    3  502    0 -0.98139931831E+02  0.89138083158E+03 -0.73676213132E+03  0.11606081527E+04  0.12699999809E+01 0. -1.
       -4    1    3    3    0  502  0.98139931831E+02 -0.89138083158E+03  0.10178563977E+04  0.13565487431E+04  0.12699999809E+01 0.  1.
</event>
<event>
 5   0  0.3424193E-06  0.2636037E+04  0.7818609E-02  0.8356062E-01
       -1   -1    0    0    0  501  0.00000000000E+00  0.00000000000E+00  0.19740080142E+04  0.19740080142E+04  0.50400001928E-02 0. -1.
        1   -1    0    0  501    0  0.00000000000E+00  0.00000000000E+00 -0.88002329573E+03  0.88002329574E+03  0.50400001928E-02 0.  1.
    10030    2    1    2    0    0  0.00000000000E+00  0.00000000000E+00  0.10939847184E+04  0.28540313099E+04  0.26360372065E+04 0.  0.
        1    1    3    3  502    0 -0.80087283853E+03 -0.10377037032E+04  0.69602269048E+03  0.14841407833E+04  0.50400001928E-02 0. -1.
       -1    1    3    3    0  502  0.80087283853E+03  0.10377037032E+04  0.39796202796E+03  0.13698905266E+04  0.50400001928E-02 0.  1.
</event>
<event>
 5   0  0.3424193E-06  0.2490346E+04  0.7818609E-02  0.8406433E-01
       -1   -1    0    0    0  501  0.00000000000E+00  0.00000000000E+00  0.13432498245E+04  0.13432498245E+04  0.50400001928E-02 0.  1.
        1   -1    0    0  501    0  0.00000000000E+00  0.00000000000E+00 -0.11542568234E+04  0.11542568234E+04  0.50400001928E-02 0. -1.
    10030    2    1    2    0    0  0.00000000000E+00  0.00000000000E+00  0.18899300114E+03  0.24975066479E+04  0.24903455788E+04 0.  0.
        1    1    3    3  502    0  0.23791925050E+03  0.84861263197E+03 -0.78763860189E+03  0.11819998038E+04  0.50400001928E-02 0. -1.
       -1    1    3    3    0  502 -0.23791925050E+03 -0.84861263197E+03  0.97663160304E+03  0.13155068441E+04  0.50400001928E-02 0.  1.
</event>
<event>
 5   0  0.3484857E-06  0.2579763E+04  0.7818609E-02  0.8375108E-01
       -1   -1    0    0    0  501  0.00000000000E+00  0.00000000000E+00  0.12825905853E+04  0.12825905853E+04  0.50400001928E-02 0.  1.
        1   -1    0    0  501    0  0.00000000000E+00  0.00000000000E+00 -0.12972133970E+04  0.12972133970E+04  0.50400001928E-02 0. -1.
    10030    2    1    2    0    0  0.00000000000E+00  0.00000000000E+00 -0.14622811651E+02  0.25798039823E+04  0.25797625395E+04 0.  0.
        3    1    3    3  502    0  0.16888028591E+03 -0.62688671654E+03  0.11072854215E+04  0.12835842478E+04  0.10100000352E+00 0.  1.
       -3    1    3    3    0  502 -0.16888028591E+03  0.62688671654E+03 -0.11219082331E+04  0.12962197345E+04  0.10100000352E+00 0. -1.
</event>
<event>
 5   0  0.8579923E-06  0.2486674E+04  0.7818609E-02  0.8407748E-01
       -2   -1    0    0    0  501  0.00000000000E+00  0.00000000000E+00  0.69780826349E+03  0.69780826350E+03  0.25500000920E-02 0. -1.
        2   -1    0    0  501    0  0.00000000000E+00  0.00000000000E+00 -0.22153459374E+04  0.22153459374E+04  0.25500000920E-02 0.  1.
    10030    2    1    2    0    0  0.00000000000E+00  0.00000000000E+00 -0.15175376739E+04  0.29131542009E+04  0.24866738440E+04 0.  0.
        1    1    3    3  502    0 -0.68304023256E+03 -0.69347342545E+03  0.14749362809E+03  0.98448144800E+03  0.50400001928E-02 0. -1.
       -1    1    3    3    0  502  0.68304023256E+03  0.69347342545E+03 -0.16650313020E+04  0.19286727529E+04  0.50400001928E-02 0.  1.
</event>
<event>
 5   0  0.8056723E-06  0.2518064E+04  0.7818609E-02  0.8396578E-01
        2   -1    0    0  501    0  0.00000000000E+00  0.00000000000E+00  0.13037380107E+04  0.13037380107E+04  0.25500000920E-02 0.  1.
       -2   -1    0    0    0  501  0.00000000000E+00  0.00000000000E+00 -0.12158590804E+04  0.12158590804E+04  0.25500000920E-02 0. -1.
    10030    2    1    2    0    0  0.00000000000E+00  0.00000000000E+00  0.87878930324E+02  0.25195970911E+04  0.25180640967E+04 0.  0.
        2    1    3    3  502    0 -0.75609252079E+03 -0.68800815837E+03 -0.69144372384E+03  0.12341497272E+04  0.25500000920E-02 0. -1.
       -2    1    3    3    0  502  0.75609252079E+03  0.68800815837E+03  0.77932265416E+03  0.12854473639E+04  0.25500000920E-02 0.  1.
</event>
<event>
 5   0  0.3481387E-06  0.2498151E+04  0.7818609E-02  0.8403645E-01
        1   -1    0    0  501    0  0.00000000000E+00  0.00000000000E+00  0.47545646032E+03  0.47545646035E+03  0.50400001928E-02 0. -1.
       -1   -1    0    0    0  501  0.00000000000E+00  0.00000000000E+00 -0.32814565978E+04  0.32814565978E+04  0.50400001928E-02 0.  1.
    10030    2    1    2    0    0  0.00000000000E+00  0.00000000000E+00 -0.28060001375E+04  0.37569130582E+04  0.24981511073E+04 0.  0.
        4    1    3    3  502    0 -0.14236784092E+03  0.10169123690E+04 -0.33343893552E+03  0.10796122012E+04  0.12699999809E+01 0. -1.
       -4    1    3    3    0  502  0.14236784092E+03 -0.10169123690E+04 -0.24725612020E+04  0.26773008570E+04  0.12699999809E+01 0.  1.
</event>
<event>
 5   0  0.3642184E-06  0.2638852E+04  0.7818609E-02  0.8355123E-01
       -1   -1    0    0    0  501  0.00000000000E+00  0.00000000000E+00  0.10251891477E+04  0.10251891477E+04  0.50400001928E-02 0. -1.
        1   -1    0    0  501    0  0.00000000000E+00  0.00000000000E+00 -0.16981108866E+04  0.16981108866E+04  0.50400001928E-02 0.  1.
    10030    2    1    2    0    0  0.00000000000E+00  0.00000000000E+00 -0.67292173893E+03  0.27233000343E+04  0.26388519113E+04 0.  0.
        5    1    3    3  502    0  0.81484219049E+03  0.79841181912E+03 -0.10205726522E+04  0.15306926069E+04  0.46999998093E+01 0.  1.
       -5    1    3    3    0  502 -0.81484219049E+03 -0.79841181912E+03  0.34765091330E+03  0.11926074274E+04  0.46999998093E+01 0. -1.
</event>
<event>
 5   0  0.8579923E-06  0.2487786E+04  0.7818609E-02  0.8407350E-01
        2   -1    0    0  501    0  0.00000000000E+00  0.00000000000E+00  0.89249597168E+03  0.89249597168E+03  0.25500000920E-02 0.  1.
       -2   -1    0    0    0  501  0.00000000000E+00  0.00000000000E+00 -0.17336431064E+04  0.17336431064E+04  0.25500000920E-02 0. -1.
    10030    2    1    2    0    0  0.00000000000E+00  0.00000000000E+00 -0.84114713471E+03  0.26261390781E+04  0.24877857535E+04 0.  0.
        1    1    3    3  502    0 -0.47806651958E+02 -0.11529302250E+04  0.69731029932E+02  0.11560259496E+04  0.50400001928E-02 0.  1.
       -1    1    3    3    0  502  0.47806651958E+02  0.11529302250E+04 -0.91087816464E+03  0.14701131285E+04  0.50400001928E-02 0. -1.
</event>
<event>
 5   0  0.3484857E-06  0.2503656E+04  0.7818609E-02  0.8401684E-01
       -1   -1    0    0    0  501  0.00000000000E+00  0.00000000000E+00  0.71565212300E+03  0.71565212301E+03  0.50400001928E-02 0.  1.
        1   -1    0    0  501    0  0.00000000000E+00  0.00000000000E+00 -0.21897135635E+04  0.21897135635E+04  0.50400001928E-02 0. -1.
    10030    2    1    2    0    0  0.00000000000E+00  0.00000000000E+00 -0.14740614405E+04  0.29053656865E+04  0.25036558553E+04 0.  0.
        3    1    3    3  502    0 -0.28032561191E+03 -0.53274041551E+03 -0.20107148107E+04  0.20988970578E+04  0.10100000352E+00 0. -1.
       -3    1    3    3    0  502  0.28032561191E+03  0.53274041551E+03  0.53665337026E+03  0.80646862867E+03  0.10100000352E+00 0.  1.
</event>
<event>
 5   0  0.8056723E-06  0.2497147E+04  0.7818609E-02  0.8404003E-01
        2   -1    0    0  501    0  0.00000000000E+00  0.00000000000E+00  0.21624635468E+04  0.21624635468E+04  0.25500000920E-02 0.  1.
       -2   -1    0    0    0  501  0.00000000000E+00  0.00000000000E+00 -0.72090733747E+03  0.72090733747E+03  0.25500000920E-02 0. -1.
    10030    2    1    2    0    0  0.00000000000E+00  0.00000000000E+00  0.14415562094E+04  0.28833708843E+04  0.24971470425E+04 0.  0.
        2    1    3    3  502    0 -0.68319826343E+02 -0.11992252363E+04  0.32729768119E+03  0.12449628662E+04  0.25500000920E-02 0.  1.
       -2    1    3    3    0  502  0.68319826343E+02  0.11992252363E+04  0.11142585282E+04  0.16384080181E+04  0.25500000920E-02 0. -1.
</event>
<event>
 5   0  0.8056723E-06  0.2480356E+04  0.7818609E-02  0.8410017E-01
       -2   -1    0    0    0  501  0.00000000000E+00  0.00000000000E+00  0.90319765075E+03  0.90319765075E+03  0.25500000920E-02 0.  1.
        2   -1    0    0  501    0  0.00000000000E+00  0.00000000000E+00 -0.17028851705E+04  0.17028851705E+04  0.25500000920E-02 0. -1.
    10030    2    1    2    0    0  0.00000000000E+00  0.00000000000E+00 -0.79968751979E+03  0.26060828213E+04  0.24803563337E+04 0.  0.
        2    1    3    3  502    0 -0.10586867098E+03 -0.19034334561E+03  0.88294501068E+03  0.90941225889E+03  0.25500000920E-02 0.  1.
       -2    1    3    3    0  502  0.10586867098E+03  0.19034334561E+03 -0.16826325305E+04  0.16966705624E+04  0.25500000920E-02 0. -1.
</event>
<event>
 5   0  0.8056723E-06  0.2496992E+04  0.7818609E-02  0.8404058E-01
       -2   -1    0    0    0  501  0.00000000000E+00  0.00000000000E+00  0.91571343863E+03  0.91571343863E+03  0.25500000920E-02 0.  1.
        2   -1    0    0  501    0  0.00000000000E+00  0.00000000000E+00 -0.17022166784E+04  0.17022166784E+04  0.25500000920E-02 0. -1.
    10030    2    1    2    0    0  0.00000000000E+00  0.00000000000E+00 -0.78650323982E+03  0.26179301171E+04  0.24969923411E+04 0.  0.
        2    1    3    3  502    0  0.43385920958E+03  0.37850694964E+03  0.76821258880E+03  0.96002703413E+03  0.25500000920E-02 0.  1.
       -2    1    3    3    0  502 -0.43385920958E+03 -0.37850694964E+03 -0.15547158286E+04  0.16579030829E+04  0.25500000920E-02 0. -1.
</event>
<event>
 5   0  0.8354653E-06  0.2491371E+04  0.7818609E-02  0.8406066E-01
        2   -1    0    0  501    0  0.00000000000E+00  0.00000000000E+00  0.20449268264E+04  0.20449268264E+04  0.25500000920E-02 0. -1.
       -2   -1    0    0    0  501  0.00000000000E+00  0.00000000000E+00 -0.75882078138E+03  0.75882078138E+03  0.25500000920E-02 0.  1.
    10030    2    1    2    0    0  0.00000000000E+00  0.00000000000E+00  0.12861060450E+04  0.28037476078E+04  0.24913714876E+04 0.  0.
        3    1    3    3  502    0 -0.10388157959E+04  0.66370156905E+03  0.84466607841E+03  0.14943556554E+04  0.10100000352E+00 0. -1.
       -3    1    3    3    0  502  0.10388157959E+04 -0.66370156905E+03  0.44143996658E+03  0.13093919524E+04  0.10100000352E+00 0.  1.
</event>
<event>
 5   0  0.8579923E-06  0.2506353E+04  0.7818609E-02  0.8400726E-01
       -2   -1    0    0    0  501  0.00000000000E+00  0.00000000000E+00  0.11809425263E+04  0.11809425263E+04  0.25500000920E-02 0.  1.
        2   -1    0    0  501    0  0.00000000000E+00  0.00000000000E+00 -0.13298287797E+04  0.13298287797E+04  0.25500000920E-02 0. -1.
    10030    2    1    2    0    0  0.00000000000E+00  0.00000000000E+00 -0.14888625340E+03  0.25107713061E+04  0.25063530148E+04 0.  0.
        1    1    3    3  502    0 -0.65477310062E+03 -0.31628202471E+02 -0.11443723602E+04  0.13188313976E+04  0.50400001928E-02 0. -1.
       -1    1    3    3    0  502  0.65477310062E+03  0.31628202471E+02  0.99548610681E+03  0.11919399085E+04  0.50400001928E-02 0.  1.
</event>
<event>
 5   0  0.8407986E-06  0.2497572E+04  0.7818609E-02  0.8403851E-01
       -2   -1    0    0    0  501  0.00000000000E+00  0.00000000000E+00  0.91565659700E+03  0.91565659700E+03  0.25500000920E-02 0. -1.
        2   -1    0    0  501    0  0.00000000000E+00  0.00000000000E+00 -0.17031121638E+04  0.17031121638E+04  0.25500000920E-02 0.  1.
    10030    2    1    2    0    0  0.00000000000E+00  0.00000000000E+00 -0.78745556678E+03  0.26187687608E+04  0.24975715311E+04 0.  0.
        5    1    3    3  502    0 -0.53801296638E+03  0.18342880977E+03  0.77213684669E+03  0.95881253655E+03  0.46999998093E+01 0. -1.
       -5    1    3    3    0  502  0.53801296638E+03 -0.18342880977E+03 -0.15595924135E+04  0.16599562242E+04  0.46999998093E+01 0.  1.
</event>
<event>
 5   0  0.3481387E-06  0.2494241E+04  0.7818609E-02  0.8405040E-01
       -1   -1    0    0    0  501  0.00000000000E+00  0.00000000000E+00  0.12253222093E+04  0.12253222093E+04  0.50400001928E-02 0.  1.
        1   -1    0    0  501    0  0.00000000000E+00  0.00000000000E+00 -0.12693065934E+04  0.12693065934E+04  0.50400001928E-02 0. -1.
    10030    2    1    2    0    0  0.00000000000E+00  0.00000000000E+00 -0.43984384124E+02  0.24946288027E+04  0.24942410142E+04 0.  0.
        4    1    3    3  502    0 -0.44519191071E+03  0.10792678454E+04  0.41658827307E+03  0.12395815107E+04  0.12699999809E+01 0.  1.
       -4    1    3    3    0  502  0.44519191071E+03 -0.10792678454E+04 -0.46057265720E+03  0.12550472919E+04  0.12699999809E+01 0. -1.
</event>
<event>
 5   0  0.3642184E-06  0.2486265E+04  0.7818609E-02  0.8407895E-01
       -1   -1    0    0    0  501  0.00000000000E+00  0.00000000000E+00  0.92206483748E+03  0.92206483750E+03  0.50400001928E-02 0.  1.
        1   -1    0    0  501    0  0.00000000000E+00  0.00000000000E+00 -0.16759969660E+04  0.16759969660E+04  0.50400001928E-02 0. -1.
    10030    2    1    2    0    0  0.00000000000E+00  0.00000000000E+00 -0.75393212847E+03  0.25980618035E+04  0.24862645636E+04 0.  0.
        5    1    3    3  502    0 -0.11293260271E+04 -0.31070529823E+03  0.58222700297E+02  0.11727433780E+04  0.46999998093E+01 0. -1.
       -5    1    3    3    0  502  0.11293260271E+04  0.31070529823E+03 -0.81215482877E+03  0.14253184254E+04  0.46999998093E+01 0.  1.
</event>
<event>
 5   0  0.8948286E-06  0.2500534E+04  0.7818609E-02  0.8402795E-01
       -2   -1    0    0    0  501  0.00000000000E+00  0.00000000000E+00  0.10325274374E+04  0.10325274374E+04  0.25500000920E-02 0. -1.
        2   -1    0    0  501    0  0.00000000000E+00  0.00000000000E+00 -0.15139237578E+04  0.15139237578E+04  0.25500000920E-02 0.  1.
    10030    2    1    2    0    0  0.00000000000E+00  0.00000000000E+00 -0.48139632046E+03  0.25464511952E+04  0.25005341973E+04 0.  0.
        4    1    3    3  502    0 -0.17572748983E+03 -0.11495757740E+04 -0.70821611702E+03  0.13616079803E+04  0.12699999809E+01 0.  1.
       -4    1    3    3    0  502  0.17572748983E+03  0.11495757740E+04  0.22681979656E+03  0.11848432148E+04  0.12699999809E+01 0. -1.
</event>
<event>
 5   0  0.8056723E-06  0.2498062E+04  0.7818609E-02  0.8403676E-01
       -2   -1    0    0    0  501  0.00000000000E+00  0.00000000000E+00  0.96407039938E+03  0.96407039938E+03  0.25500000920E-02 0. -1.
        2   -1    0    0  501    0  0.00000000000E+00  0.00000000000E+00 -0.16182201398E+04  0.16182201398E+04  0.25500000920E-02 0.  1.
    10030    2    1    2    0    0  0.00000000000E+00  0.00000000000E+00 -0.65414974042E+03  0.25822905392E+04  0.24980617578E+04 0.  0.
        2    1    3    3  502    0 -0.59441568126E+03 -0.10832364436E+04 -0.13830619103E+03  0.12433261026E+04  0.25500000920E-02 0. -1.
       -2    1    3    3    0  502  0.59441568126E+03  0.10832364436E+04 -0.51584354938E+03  0.13389644366E+04  0.25500000920E-02 0.  1.
</event>
<event>
 5   0  0.3642184E-06  0.2498143E+04  0.7818609E-02  0.8403647E-01
        1   -1    0    0  501    0  0.00000000000E+00  0.00000000000E+00  0.19589252214E+04  0.19589252214E+04  0.50400001928E-02 0.  1.
       -1   -1    0    0    0  501  0.00000000000E+00  0.00000000000E+00 -0.79644684117E+03  0.79644684118E+03  0.50400001928E-02 0. -1.
    10030    2    1    2    0    0  0.00000000000E+00  0.00000000000E+00  0.11624783802E+04  0.27553720626E+04  0.24981431542E+04 0.  0.
        5    1    3    3  502    0 -0.10893606968E+04  0.60803611364E+03  0.51375889325E+03  0.13492164147E+04  0.46999998093E+01 0. -1.
       -5    1    3    3    0  502  0.10893606968E+04 -0.60803611364E+03  0.64871948700E+03  0.14061556479E+04  0.46999998093E+01 0.  1.
</event>
<event>
 5   0  0.3522870E-06  0.2519375E+04  0.7818609E-02  0.8396115E-01
        1   -1    0    0  501    0  0.00000000000E+00  0.00000000000E+00  0.13751696328E+04  0.13751696328E+04  0.50400001928E-02 0. -1.
       -1   -1    0    0    0  501  0.00000000000E+00  0.00000000000E+00 -0.11539033889E+04  0.11539033890E+04  0.50400001928E-02 0.  1.
    10030    2    1    2    0    0  0.00000000000E+00  0.00000000000E+00  0.22126624386E+03  0.25290730218E+04  0.25193752398E+04 0.  0.
        2    1    3    3  502    0  0.83813396039E+03  0.21816793806E+03 -0.80762678773E+03  0.11841988064E+04  0.25500000920E-02 0.  1.
       -2    1    3    3    0  502 -0.83813396039E+03 -0.21816793806E+03  0.10288930316E+04  0.13448742154E+04  0.25500000920E-02 0. -1.
</event>
<event>
 5   0  0.8407986E-06  0.2504639E+04  0.7818609E-02  0.8401335E-01
       -2   -1    0    0    0  501  0.00000000000E+00  0.00000000000E+00  0.15062734060E+04  0.15062734060E+04  0.25500000920E-02 0.  1.
        2   -1    0    0  501    0  0.00000000000E+00  0.00000000000E+00 -0.10411818856E+04  0.10411818856E+04  0.25500000920E-02 0. -1.
    10030    2    1    2    0    0  0.00000000000E+00  0.00000000000E+00  0.46509152040E+03  0.25474552916E+04  0.25046393634E+04 0.  0.
        5    1    3    3  502    0 -0.10328903229E+04  0.37650091550E+03  0.84252035573E+03  0.13850913321E+04  0.46999998093E+01 0.  1.
       -5    1    3    3    0  502  0.10328903229E+04 -0.37650091550E+03 -0.37742883534E+03  0.11623639595E+04  0.46999998093E+01 0. -1.
</event>
<event>
 5   0  0.3522870E-06  0.2502830E+04  0.7818609E-02  0.8401978E-01
       -1   -1    0    0    0  501  0.00000000000E+00  0.00000000000E+00  0.52072465059E+03  0.52072465061E+03  0.50400001928E-02 0. -1.
        1   -1    0    0  501    0  0.00000000000E+00  0.00000000000E+00 -0.30074234470E+04  0.30074234470E+04  0.50400001928E-02 0.  1.
    10030    2    1    2    0    0  0.00000000000E+00  0.00000000000E+00 -0.24866987964E+04  0.35281480976E+04  0.25028300171E+04 0.  0.
        2    1    3    3  502    0  0.26079244593E+03  0.37700848270E+03  0.39810155081E+03  0.60715149727E+03  0.25500000920E-02 0. -1.
       -2    1    3    3    0  502 -0.26079244593E+03 -0.37700848270E+03 -0.28848003472E+04  0.29209966004E+04  0.25500000920E-02 0.  1.
</event>
<event>
 5   0  0.3484857E-06  0.2507747E+04  0.7818609E-02  0.8400231E-01
        1   -1    0    0  501    0  0.00000000000E+00  0.00000000000E+00  0.10661552531E+04  0.10661552531E+04  0.50400001928E-02 0.  1.
       -1   -1    0    0    0  501  0.00000000000E+00  0.00000000000E+00 -0.14746427763E+04  0.14746427763E+04  0.50400001928E-02 0. -1.
    10030    2    1    2    0    0  0.00000000000E+00  0.00000000000E+00 -0.40848752315E+03  0.25407980294E+04  0.25077465122E+04 0.  0.
        3    1    3    3  502    0  0.15850215690E+03  0.89463059756E+03  0.67126978142E+03  0.11296415226E+04  0.10100000352E+00 0.  1.
       -3    1    3    3    0  502 -0.15850215690E+03 -0.89463059756E+03 -0.10797573046E+04  0.14111565068E+04  0.10100000352E+00 0. -1.
</event>
<event>
 5   0  0.3424193E-06  0.2531040E+04  0.7818609E-02  0.8392010E-01
        1   -1    0    0  501    0  0.00000000000E+00  0.00000000000E+00  0.12054397313E+04  0.12054397313E+04  0.50400001928E-02 0. -1.
       -1   -1    0    0    0  501  0.00000000000E+00  0.00000000000E+00 -0.13285950001E+04  0.13285950001E+04  0.50400001928E-02 0.  1.
    10030    2    1    2    0    0  0.00000000000E+00  0.00000000000E+00 -0.12315526877E+03  0.25340347314E+04  0.25310402604E+04 0.  0.
        1    1    3    3  502    0 -0.51198485325E+03  0.80563209815E+03  0.77029023361E+03  0.12265881997E+04  0.50400001928E-02 0. -1.
       -1    1    3    3    0  502  0.51198485325E+03 -0.80563209815E+03 -0.89344550238E+03  0.13074465317E+04  0.50400001928E-02 0.  1.
</event>
<event>
 5   0  0.8579923E-06  0.2504435E+04  0.7818609E-02  0.8401407E-01
        2   -1    0    0  501    0  0.00000000000E+00  0.00000000000E+00  0.14650015038E+04  0.14650015038E+04  0.25500000920E-02 0.  1.
       -2   -1    0    0    0  501  0.00000000000E+00  0.00000000000E+00 -0.10703395946E+04  0.10703395946E+04  0.25500000920E-02 0. -1.
    10030    2    1    2    0    0  0.00000000000E+00  0.00000000000E+00  0.39466190917E+03  0.25353410984E+04  0.25044353580E+04 0.  0.
        1    1    3    3  502    0  0.90211382910E+03  0.48210408938E+03 -0.53395126938E+03  0.11538360680E+04  0.50400001928E-02 0. -1.
       -1    1    3    3    0  502 -0.90211382910E+03 -0.48210408938E+03  0.92861317855E+03  0.13815050304E+04  0.50400001928E-02 0.  1.
</event>
<event>
 5   0  0.8354653E-06  0.2501724E+04  0.7818609E-02  0.8402372E-01
        2   -1    0    0  501    0  0.00000000000E+00  0.00000000000E+00  0.15900685310E+04  0.15900685310E+04  0.25500000920E-02 0.  1.
       -2   -1    0    0    0  501  0.00000000000E+00  0.00000000000E+00 -0.98401801258E+03  0.98401801258E+03  0.25500000920E-02 0. -1.
    10030    2    1    2    0    0  0.00000000000E+00  0.00000000000E+00  0.60605051841E+03  0.25740865436E+04  0.25017242660E+04 0.  0.
        3    1    3    3  502    0 -0.18030241267E+03 -0.95285580599E+03  0.11159495099E+04  0.14784405520E+04  0.10100000352E+00 0.  1.
       -3    1    3    3    0  502  0.18030241267E+03  0.95285580599E+03 -0.50989899151E+03  0.10956459915E+04  0.10100000352E+00 0. -1.
</event>
<event>
 5   0  0.8407986E-06  0.2498612E+04  0.7818609E-02  0.8403480E-01
        2   -1    0    0  501    0  0.00000000000E+00  0.00000000000E+00  0.12911697313E+04  0.12911697313E+04  0.25500000920E-02 0.  1.
       -2   -1    0    0    0  501  0.00000000000E+00  0.00000000000E+00 -0.12087993732E+04  0.12087993732E+04  0.25500000920E-02 0. -1.
    10030    2    1    2    0    0  0.00000000000E+00  0.00000000000E+00  0.82370358081E+02  0.24999691045E+04  0.24986117441E+04 0.  0.
        5    1    3    3  502    0 -0.48475863763E+03 -0.10843960765E+04  0.42848367566E+03  0.12627454763E+04  0.46999998093E+01 0.  1.
       -5    1    3    3    0  502  0.48475863763E+03  0.10843960765E+04 -0.34611331758E+03  0.12372236282E+04  0.46999998093E+01 0. -1.
</event>
<event>
 5   0  0.8948286E-06  0.2487327E+04  0.7818609E-02  0.8407514E-01
       -2   -1    0    0    0  501  0.00000000000E+00  0.00000000000E+00  0.12483053422E+04  0.12483053422E+04  0.25500000920E-02 0. -1.
        2   -1    0    0  501    0  0.00000000000E+00  0.00000000000E+00 -0.12390384519E+04  0.12390384519E+04  0.25500000920E-02 0.  1.
    10030    2    1    2    0    0  0.00000000000E+00  0.00000000000E+00  0.92668902679E+01  0.24873437941E+04  0.24873265316E+04 0.  0.
        4    1    3    3  502    0  0.96200814868E+03  0.59837125900E+03 -0.50838947561E+03  0.12417605701E+04  0.12699999809E+01 0.  1.
       -4    1    3    3    0  502 -0.96200814868E+03 -0.59837125900E+03  0.51765636588E+03  0.12455832239E+04  0.12699999809E+01 0. -1.
</event>
<event>
 5   0  0.8579923E-06  0.2497006E+04  0.7818609E-02  0.8404053E-01
       -2   -1    0    0    0  501  0.00000000000E+00  0.00000000000E+00  0.13881328157E+04  0.13881328157E+04  0.25500000920E-02 0. -1.
        2   -1    0    0  501    0  0.00000000000E+00  0.00000000000E+00 -0.11229185436E+04  0.11229185436E+04  0.25500000920E-02 0.  1.
    10030    2    1    2    0    0  0.00000000000E+00  0.00000000000E+00  0.26521427210E+03  0.25110513594E+04  0.24970062714E+04 0.  0.
        1    1    3    3  502    0  0.91084667716E+03  0.70543139246E+03  0.61644221586E+03  0.13066277681E+04  0.50400001928E-02 0.  1.
       -1    1    3    3    0  502 -0.91084667716E+03 -0.70543139246E+03 -0.35122794375E+03  0.12044235913E+04  0.50400001928E-02 0. -1.
</event>
<event>
 5   0  0.3522870E-06  0.2473655E+04  0.7818609E-02  0.8412432E-01
       -1   -1    0    0    0  501  0.00000000000E+00  0.00000000000E+00  0.10452033570E+04  0.10452033570E+04  0.50400001928E-02 0.  1.
        1   -1    0    0  501    0  0.00000000000E+00  0.00000000000E+00 -0.14635832423E+04  0.14635832423E+04  0.50400001928E-02 0. -1.
    10030    2    1    2    0    0  0.00000000000E+00  0.00000000000E+00 -0.41837988530E+03  0.25087865994E+04  0.24736548815E+04 0.  0.
        2    1    3    3  502    0  0.25704277585E+03  0.84507637905E+03  0.66885221802E+03  0.11079658680E+04  0.25500000920E-02 0.  1.
       -2    1    3    3    0  502 -0.25704277585E+03 -0.84507637905E+03 -0.10872321033E+04  0.14008207314E+04  0.25500000920E-02 0. -1.
</event>
<event>
 5   0  0.3484857E-06  0.2507567E+04  0.7818609E-02  0.8400295E-01
       -1   -1    0    0    0  501  0.00000000000E+00  0.00000000000E+00  0.91219309545E+03  0.91219309547E+03  0.50400001928E-02 0. -1.
        1   -1    0    0  501    0  0.00000000000E+00  0.00000000000E+00 -0.17232896059E+04  0.17232896059E+04  0.50400001928E-02 0.  1.
    10030    2    1    2    0    0  0.00000000000E+00  0.00000000000E+00 -0.81109651046E+03  0.26354827014E+04  0.25075668526E+04 0.  0.
        3    1    3    3  502    0 -0.86798106877E+03  0.68040676942E+03  0.22121834389E+03  0.11248475779E+04  0.10100000352E+00 0. -1.
       -3    1    3    3    0  502  0.86798106877E+03 -0.68040676942E+03 -0.10323148544E+04  0.15106351235E+04  0.10100000352E+00 0.  1.
</event>
<event>
 5   0  0.8354653E-06  0.2505187E+04  0.7818609E-02  0.8401140E-01
       -2   -1    0    0    0  501  0.00000000000E+00  0.00000000000E+00  0.10263748152E+04  0.10263748152E+04  0.25500000920E-02 0. -1.
        2   -1    0    0  501    0  0.00000000000E+00  0.00000000000E+00 -0.15286725823E+04  0.15286725823E+04  0.25500000920E-02 0.  1.
    10030    2    1    2    0    0  0.00000000000E+00  0.00000000000E+00 -0.50229776716E+03  0.25550473975E+04  0.25051874494E+04 0.  0.
        3    1    3    3  502    0  0.30214193594E+03 -0.53899808171E+03 -0.13624134042E+04  0.14959876255E+04  0.10100000352E+00 0.  1.
       -3    1    3    3    0  502 -0.30214193594E+03  0.53899808171E+03  0.86011563701E+03  0.10590597720E+04  0.10100000352E+00 0. -1.
</event>
<event>
 5   0  0.8354653E-06  0.2390764E+04  0.7818609E-02  0.8442969E-01
       -2   -1    0    0    0  501  0.00000000000E+00  0.00000000000E+00  0.72576310524E+03  0.72576310525E+03  0.25500000920E-02 0. -1.
        2   -1    0    0  501    0  0.00000000000E+00  0.00000000000E+00 -0.19688773232E+04  0.19688773232E+04  0.25500000920E-02 0.  1.
    10030    2    1    2    0    0  0.00000000000E+00  0.00000000000E+00 -0.12431142179E+04  0.26946404284E+04  0.23907643296E+04 0.  0.
        3    1    3    3  502    0 -0.10156156892E+04 -0.56956067600E+03 -0.92621717511E+03  0.14878685619E+04  0.10100000352E+00 0.  1.
       -3    1    3    3    0  502  0.10156156892E+04  0.56956067600E+03 -0.31689704283E+03  0.12067718665E+04  0.10100000352E+00 0. -1.
</event>
<event>
 5   0  0.3522870E-06  0.2489122E+04  0.7818609E-02  0.8406871E-01
       -1   -1    0    0    0  501  0.00000000000E+00  0.00000000000E+00  0.75157216230E+03  0.75157216232E+03  0.50400001928E-02 0. -1.
        1   -1    0    0  501    0  0.00000000000E+00  0.00000000000E+00 -0.20609224264E+04  0.20609224264E+04  0.50400001928E-02 0.  1.
    10030    2    1    2    0    0  0.00000000000E+00  0.00000000000E+00 -0.13093502641E+04  0.28124945887E+04  0.24891218727E+04 0.  0.
        2    1    3    3  502    0 -0.12160897382E+04  0.42440877900E+01 -0.95370705341E+03  0.15454609045E+04  0.25500000920E-02 0. -1.
       -2    1    3    3    0  502  0.12160897382E+04 -0.42440877900E+01 -0.35564321064E+03  0.12670336842E+04  0.25500000920E-02 0.  1.
</event>
<event>
 5   0  0.3424193E-06  0.2495233E+04  0.7818609E-02  0.8404686E-01
        1   -1    0    0  501    0  0.00000000000E+00  0.00000000000E+00  0.10625478849E+04  0.10625478849E+04  0.50400001928E-02 0.  1.
       -1   -1    0    0    0  501  0.00000000000E+00  0.00000000000E+00 -0.14649192589E+04  0.14649192589E+04  0.50400001928E-02 0. -1.
    10030    2    1    2    0    0  0.00000000000E+00  0.00000000000E+00 -0.40237137392E+03  0.25274671438E+04  0.24952329431E+04 0.  0.
        1    1    3    3  502    0  0.14284753664E+03  0.44881557894E+03 -0.13714049218E+04  0.14500318280E+04  0.50400001928E-02 0. -1.
       -1    1    3    3    0  502 -0.14284753664E+03 -0.44881557894E+03  0.96903354793E+03  0.10774353158E+04  0.50400001928E-02 0.  1.
</event>
<event>
 5   0  0.8407986E-06  0.2500176E+04  0.7818609E-02  0.8402923E-01
       -2   -1    0    0    0  501  0.00000000000E+00  0.00000000000E+00  0.69740632992E+03  0.69740632992E+03  0.25500000920E-02 0.  1.
        2   -1    0    0  501    0  0.00000000000E+00  0.00000000000E+00 -0.22407593495E+04  0.22407593495E+04  0.25500000920E-02 0. -1.
    10030    2    1    2    0    0  0.00000000000E+00  0.00000000000E+00 -0.15433530196E+04  0.29381656795E+04  0.25001757972E+04 0.  0.
        5    1    3    3  502    0 -0.63405764384E+03  0.12479720512E+03 -0.20292296534E+04  0.21296475094E+04  0.46999998093E+01 0. -1.
       -5    1    3    3    0  502  0.63405764384E+03 -0.12479720512E+03  0.48587663375E+03  0.80851817007E+03  0.46999998093E+01 0.  1.
</event>
<event>
 5   0  0.3481387E-06  0.2516587E+04  0.7818609E-02  0.8397100E-01
        1   -1    0    0  501    0  0.00000000000E+00  0.00000000000E+00  0.13823572646E+04  0.13823572646E+04  0.50400001928E-02 0.  1.
       -1   -1    0    0    0  501  0.00000000000E+00  0.00000000000E+00 -0.11453643705E+04  0.11453643705E+04  0.50400001928E-02 0. -1.
    10030    2    1    2    0    0  0.00000000000E+00  0.00000000000E+00  0.23699289409E+03  0.25277216351E+04  0.25165871796E+04 0.  0.
        4    1    3    3  502    0 -0.34638295818E+03 -0.62205402567E+03  0.11605686522E+04  0.13615629159E+04  0.12699999809E+01 0.  1.
       -4    1    3    3    0  502  0.34638295818E+03  0.62205402567E+03 -0.92357575808E+03  0.11661587192E+04  0.12699999809E+01 0. -1.
</event>
<event>
 5   0  0.3424193E-06  0.2488220E+04  0.7818609E-02  0.8407194E-01
       -1   -1    0    0    0  501  0.00000000000E+00  0.00000000000E+00  0.90146511791E+03  0.90146511793E+03  0.50400001928E-02 0. -1.
        1   -1    0    0  501    0  0.00000000000E+00  0.00000000000E+00 -0.17169931821E+04  0.17169931821E+04  0.50400001928E-02 0.  1.
    10030    2    1    2    0    0  0.00000000000E+00  0.00000000000E+00 -0.81552806422E+03  0.26184583001E+04  0.24882198146E+04 0.  0.
        1    1    3    3  502    0  0.10138812414E+04 -0.45339800455E+03 -0.99771840741E+03  0.14929725190E+04  0.50400001928E-02 0. -1.
       -1    1    3    3    0  502 -0.10138812414E+04  0.45339800455E+03  0.18219034319E+03  0.11254857810E+04  0.50400001928E-02 0.  1.
</event>
<event>
 5   0  0.8948286E-06  0.2505490E+04  0.7818609E-02  0.8401032E-01
       -2   -1    0    0    0  501  0.00000000000E+00  0.00000000000E+00  0.20586871251E+04  0.20586871251E+04  0.25500000920E-02 0. -1.
        2   -1    0    0  501    0  0.00000000000E+00  0.00000000000E+00 -0.76231614437E+03  0.76231614437E+03  0.25500000920E-02 0.  1.
    10030    2    1    2    0    0  0.00000000000E+00  0.00000000000E+00  0.12963709807E+04  0.28210032695E+04  0.25054903166E+04 0.  0.
        4    1    3    3  502    0  0.32129491387E+03  0.63636272302E+03  0.18080454858E+04  0.19435066319E+04  0.12699999809E+01 0. -1.
       -4    1    3    3    0  502 -0.32129491387E+03 -0.63636272302E+03 -0.51167450501E+03  0.87749663755E+03  0.12699999809E+01 0.  1.
</event>
<event>
 5   0  0.3424193E-06  0.2522997E+04  0.7818609E-02  0.8394838E-01
        1   -1    0    0  501    0  0.00000000000E+00  0.00000000000E+00  0.19014133349E+04  0.19014133349E+04  0.50400001928E-02 0. -1.
       -1   -1    0    0    0  501  0.00000000000E+00  0.00000000000E+00 -0.83694530063E+03  0.83694530064E+03  0.50400001928E-02 0.  1.
    10030    2    1    2    0    0  0.00000000000E+00  0.00000000000E+00  0.10644680343E+04  0.27383586355E+04  0.25229973882E+04 0.  0.
        1    1    3    3  502    0 -0.10495263220E+04 -0.68238805575E+03  0.70114603800E+03  0.14348396168E+04  0.50400001928E-02 0.  1.
       -1    1    3    3    0  502  0.10495263220E+04  0.68238805575E+03  0.36332199627E+03  0.13035190188E+04  0.50400001928E-02 0. -1.
</event>
<event>
 5   0  0.3424193E-06  0.2499156E+04  0.7818609E-02  0.8403286E-01
        1   -1    0    0  501    0  0.00000000000E+00  0.00000000000E+00  0.17838227429E+04  0.17838227429E+04  0.50400001928E-02 0. -1.
       -1   -1    0    0    0  501  0.00000000000E+00  0.00000000000E+00 -0.87533667536E+03  0.87533667537E+03  0.50400001928E-02 0.  1.
    10030    2    1    2    0    0  0.00000000000E+00  0.00000000000E+00  0.90848606753E+03  0.26591594183E+04  0.24991562330E+04 0.  0.
        1    1    3    3  502    0 -0.97636022369E+03 -0.20769674118E+03 -0.34556552535E+03  0.10563298514E+04  0.50400001928E-02 0.  1.
       -1    1    3    3    0  502  0.97636022369E+03  0.20769674118E+03  0.12540515929E+04  0.16028295668E+04  0.50400001928E-02 0. -1.
</event>
<event>
 5   0  0.3424193E-06  0.2518144E+04  0.7818609E-02  0.8396550E-01
        1   -1    0    0  501    0  0.00000000000E+00  0.00000000000E+00  0.18301031420E+04  0.18301031420E+04  0.50400001928E-02 0. -1.
       -1   -1    0    0    0  501  0.00000000000E+00  0.00000000000E+00 -0.86621492221E+03  0.86621492222E+03  0.50400001928E-02 0.  1.
    10030    2    1    2    0    0  0.00000000000E+00  0.00000000000E+00  0.96388821975E+03  0.26963180642E+04  0.25181442777E+04 0.  0.
        1    1    3    3  502    0  0.11065456204E+04  0.57573637785E+03  0.66537515519E+03  0.14137325362E+04  0.50400001928E-02 0.  1.
       -1    1    3    3    0  502 -0.11065456204E+04 -0.57573637785E+03  0.29851306456E+03  0.12825855280E+04  0.50400001928E-02 0. -1.
</event>
<event>
 5   0  0.3642184E-06  0.2357053E+04  0.7818609E-02  0.8455759E-01
        1   -1    0    0  501    0  0.00000000000E+00  0.00000000000E+00  0.11857148105E+04  0.11857148105E+04  0.50400001928E-02 0.  1.
       -1   -1    0    0    0  501  0.00000000000E+00  0.00000000000E+00 -0.11713819812E+04  0.11713819812E+04  0.50400001928E-02 0. -1.
    10030    2    1    2    0    0  0.00000000000E+00  0.00000000000E+00  0.14332829303E+02  0.23570967917E+04  0.23570532144E+04 0.  0.
        5    1    3    3  502    0  0.26650607577E+03  0.43521377573E+03  0.10694790247E+04  0.11850080140E+04  0.46999998093E+01 0.  1.
       -5    1    3    3    0  502 -0.26650607577E+03 -0.43521377573E+03 -0.10551461954E+04  0.11720887777E+04  0.46999998093E+01 0. -1.
</event>
<event>
 5   0  0.3642184E-06  0.2495612E+04  0.7818609E-02  0.8404550E-01
       -1   -1    0    0    0  501  0.00000000000E+00  0.00000000000E+00  0.91879425486E+03  0.91879425488E+03  0.50400001928E-02 0. -1.
        1   -1    0    0  501    0  0.00000000000E+00  0.00000000000E+00 -0.16946337632E+04  0.16946337632E+04  0.50400001928E-02 0.  1.
    10030    2    1    2    0    0  0.00000000000E+00  0.00000000000E+00 -0.77583950832E+03  0.26134280181E+04  0.24956119616E+04 0.  0.
        5    1    3    3  502    0 -0.82446873573E+03  0.38234214269E+03 -0.12833072489E+04  0.15725246565E+04  0.46999998093E+01 0.  1.
       -5    1    3    3    0  502  0.82446873573E+03 -0.38234214269E+03  0.50746774062E+03  0.10409033615E+04  0.46999998093E+01 0. -1.
</event>
<event>
 5   0  0.3522870E-06  0.2502908E+04  0.7818609E-02  0.8401950E-01
       -1   -1    0    0    0  501  0.00000000000E+00  0.00000000000E+00  0.22066243604E+04  0.22066243604E+04  0.50400001928E-02 0. -1.
        1   -1    0    0  501    0  0.00000000000E+00  0.00000000000E+00 -0.70974333415E+03  0.70974333417E+03  0.50400001928E-02 0.  1.
    10030    2    1    2    0    0  0.00000000000E+00  0.00000000000E+00  0.14968810262E+04  0.29163676945E+04  0.25029078535E+04 0.  0.
        2    1    3    3  502    0 -0.89340867505E+02 -0.12312784492E+04  0.50933895267E+03  0.13354604370E+04  0.25500000920E-02 0.  1.
       -2    1    3    3    0  502  0.89340867505E+02  0.12312784492E+04  0.98754207353E+03  0.15809072576E+04  0.25500000920E-02 0. -1.
</event>
<event>
 5   0  0.3522870E-06  0.2496203E+04  0.7818609E-02  0.8404339E-01
        1   -1    0    0  501    0  0.00000000000E+00  0.00000000000E+00  0.15337022905E+04  0.15337022905E+04  0.50400001928E-02 0.  1.
       -1   -1    0    0    0  501  0.00000000000E+00  0.00000000000E+00 -0.10156846431E+04  0.10156846431E+04  0.50400001928E-02 0. -1.
    10030    2    1    2    0    0  0.00000000000E+00  0.00000000000E+00  0.51801764740E+03  0.25493869336E+04  0.24962034080E+04 0.  0.
        2    1    3    3  502    0  0.66707580061E+03  0.10546966310E+04  0.27898980949E+03  0.12787534638E+04  0.25500000920E-02 0.  1.
       -2    1    3    3    0  502 -0.66707580061E+03 -0.10546966310E+04  0.23902783791E+03  0.12706334698E+04  0.25500000920E-02 0. -1.
</event>
<event>
 5   0  0.3522870E-06  0.2503525E+04  0.7818609E-02  0.8401731E-01
       -1   -1    0    0    0  501  0.00000000000E+00  0.00000000000E+00  0.11724609646E+04  0.11724609646E+04  0.50400001928E-02 0. -1.
        1   -1    0    0  501    0  0.00000000000E+00  0.00000000000E+00 -0.13364279077E+04  0.13364279077E+04  0.50400001928E-02 0.  1.
    10030    2    1    2    0    0  0.00000000000E+00  0.00000000000E+00 -0.16396694311E+03  0.25088888722E+04  0.25035251576E+04 0.  0.
        2    1    3    3  502    0 -0.90974744543E+03 -0.59493070524E+03  0.54009326106E+03  0.12137889805E+04  0.25500000920E-02 0.  1.
       -2    1    3    3    0  502  0.90974744543E+03  0.59493070524E+03 -0.70406020416E+03  0.12950998917E+04  0.25500000920E-02 0. -1.
</event>
<event>
 5   0  0.8407986E-06  0.2506106E+04  0.7818609E-02  0.8400813E-01
        2   -1    0    0  501    0  0.00000000000E+00  0.00000000000E+00  0.11038211312E+04  0.11038211312E+04  0.25500000920E-02 0. -1.
       -2   -1    0    0    0  501  0.00000000000E+00  0.00000000000E+00 -0.14224608523E+04  0.14224608523E+04  0.25500000920E-02 0.  1.
    10030    2    1    2    0    0  0.00000000000E+00  0.00000000000E+00 -0.31863972115E+03  0.25262819835E+04  0.25061064200E+04 0.  0.
        5    1    3    3  502    0 -0.12463923407E+04 -0.11475701537E+03 -0.21859132666E+03  0.12706168965E+04  0.46999998093E+01 0. -1.
       -5    1    3    3    0  502  0.12463923407E+04  0.11475701537E+03 -0.10004839448E+03  0.12556650870E+04  0.46999998093E+01 0.  1.
</event>
<event>
 5   0  0.3424193E-06  0.2491247E+04  0.7818609E-02  0.8406110E-01
       -1   -1    0    0    0  501  0.00000000000E+00  0.00000000000E+00  0.10576867861E+04  0.10576867862E+04  0.50400001928E-02 0.  1.
        1   -1    0    0  501    0  0.00000000000E+00  0.00000000000E+00 -0.14669539628E+04  0.14669539628E+04  0.50400001928E-02 0. -1.
    10030    2    1    2    0    0  0.00000000000E+00  0.00000000000E+00 -0.40926717662E+03  0.25246407489E+04  0.24912469346E+04 0.  0.
        1    1    3    3  502    0  0.10459651293E+04 -0.17307135266E+03 -0.86729556100E+03  0.13697438939E+04  0.50400001928E-02 0. -1.
       -1    1    3    3    0  502 -0.10459651293E+04  0.17307135266E+03  0.45802838438E+03  0.11548968550E+04  0.50400001928E-02 0.  1.
</event>
<event>
 5   0  0.2901250E-06  0.2540471E+04  0.7818609E-02  0.8388708E-01
       -3   -1    0    0    0  501  0.00000000000E+00  0.00000000000E+00  0.16076845220E+04  0.16076845252E+04  0.10100000352E+00 0.  1.
        3   -1    0    0  501    0  0.00000000000E+00  0.00000000000E+00 -0.10036161460E+04  0.10036161511E+04  0.10100000352E+00 0. -1.
    10030    2    1    2    0    0  0.00000000000E+00  0.00000000000E+00  0.60406837602E+03  0.26113006762E+04  0.25404709443E+04 0.  0.
        1    1    3    3  502    0  0.11989659343E+04  0.10387123462E+03  0.71980107364E+03  0.14022917423E+04  0.50400001928E-02 0.  1.
       -1    1    3    3    0  502 -0.11989659343E+04 -0.10387123462E+03 -0.11573269762E+03  0.12090089339E+04  0.50400001928E-02 0. -1.
</event>
<event>
 5   0  0.8354653E-06  0.2496290E+04  0.7818609E-02  0.8404309E-01
       -2   -1    0    0    0  501  0.00000000000E+00  0.00000000000E+00  0.10231717858E+04  0.10231717858E+04  0.25500000920E-02 0. -1.
        2   -1    0    0  501    0  0.00000000000E+00  0.00000000000E+00 -0.15225845439E+04  0.15225845439E+04  0.25500000920E-02 0.  1.
    10030    2    1    2    0    0  0.00000000000E+00  0.00000000000E+00 -0.49941275803E+03  0.25457563297E+04  0.24962896842E+04 0.  0.
        3    1    3    3  502    0  0.10282360223E+04  0.49591615633E+03 -0.76434823413E+03  0.13738378307E+04  0.10100000352E+00 0.  1.
       -3    1    3    3    0  502 -0.10282360223E+04 -0.49591615633E+03  0.26493547609E+03  0.11719184991E+04  0.10100000352E+00 0. -1.
</event>
<event>
 5   0  0.3481387E-06  0.2481652E+04  0.7818609E-02  0.8409551E-01
        1   -1    0    0  501    0  0.00000000000E+00  0.00000000000E+00  0.11456496766E+04  0.11456496766E+04  0.50400001928E-02 0. -1.
       -1   -1    0    0    0  501  0.00000000000E+00  0.00000000000E+00 -0.13439090607E+04  0.13439090607E+04  0.50400001928E-02 0.  1.
    10030    2    1    2    0    0  0.00000000000E+00  0.00000000000E+00 -0.19825938415E+03  0.24895587373E+04  0.24816518537E+04 0.  0.
        4    1    3    3  502    0  0.94188094747E+03  0.59357068621E+03  0.45050416356E+03  0.12010085316E+04  0.12699999809E+01 0. -1.
       -4    1    3    3    0  502 -0.94188094747E+03 -0.59357068621E+03 -0.64876354771E+03  0.12885502056E+04  0.12699999809E+01 0.  1.
</event>
<event>
 5   0  0.8948286E-06  0.2504830E+04  0.7818609E-02  0.8401267E-01
        2   -1    0    0  501    0  0.00000000000E+00  0.00000000000E+00  0.99238773079E+03  0.99238773080E+03  0.25500000920E-02 0. -1.
       -2   -1    0    0    0  501  0.00000000000E+00  0.00000000000E+00 -0.15805749097E+04  0.15805749097E+04  0.25500000920E-02 0.  1.
    10030    2    1    2    0    0  0.00000000000E+00  0.00000000000E+00 -0.58818717894E+03  0.25729626405E+04  0.25048298529E+04 0.  0.
        4    1    3    3  502    0  0.11469815335E+04  0.12711269348E+03  0.20578199596E+03  0.11722082229E+04  0.12699999809E+01 0. -1.
       -4    1    3    3    0  502 -0.11469815335E+04 -0.12711269348E+03 -0.79396917490E+03  0.14007544177E+04  0.12699999809E+01 0.  1.
</event>
<event>
 5   0  0.8579923E-06  0.2499526E+04  0.7818609E-02  0.8403154E-01
        2   -1    0    0  501    0  0.00000000000E+00  0.00000000000E+00  0.21599355599E+04  0.21599355599E+04  0.25500000920E-02 0. -1.
       -2   -1    0    0    0  501  0.00000000000E+00  0.00000000000E+00 -0.72312706163E+03  0.72312706163E+03  0.25500000920E-02 0.  1.
    10030    2    1    2    0    0  0.00000000000E+00  0.00000000000E+00  0.14368084983E+04  0.28830626215E+04  0.24995262389E+04 0.  0.
        1    1    3    3  502    0 -0.72469869706E+03 -0.17608224735E+03 -0.43833047645E+03  0.86505882226E+03  0.50400001928E-02 0.  1.
       -1    1    3    3    0  502  0.72469869706E+03  0.17608224735E+03  0.18751389747E+04  0.20180037993E+04  0.50400001928E-02 0. -1.
</event>
<event>
 5   0  0.3484857E-06  0.2503312E+04  0.7818609E-02  0.8401807E-01
       -1   -1    0    0    0  501  0.00000000000E+00  0.00000000000E+00  0.15330108210E+04  0.15330108210E+04  0.50400001928E-02 0.  1.
        1   -1    0    0  501    0  0.00000000000E+00  0.00000000000E+00 -0.10219385041E+04  0.10219385041E+04  0.50400001928E-02 0. -1.
    10030    2    1    2    0    0  0.00000000000E+00  0.00000000000E+00  0.51107231693E+03  0.25549493251E+04  0.25033120342E+04 0.  0.
        3    1    3    3  502    0 -0.21006137752E+03  0.35731424827E+03 -0.94986068061E+03  0.10363563948E+04  0.10100000352E+00 0. -1.
       -3    1    3    3    0  502  0.21006137752E+03 -0.35731424827E+03  0.14609329975E+04  0.15185929303E+04  0.10100000352E+00 0.  1.
</event>
<event>
 5   0  0.8354653E-06  0.2506628E+04  0.7818609E-02  0.8400628E-01
        2   -1    0    0  501    0  0.00000000000E+00  0.00000000000E+00  0.10726038181E+04  0.10726038181E+04  0.25500000920E-02 0.  1.
       -2   -1    0    0    0  501  0.00000000000E+00  0.00000000000E+00 -0.14644694972E+04  0.14644694972E+04  0.25500000920E-02 0. -1.
    10030    2    1    2    0    0  0.00000000000E+00  0.00000000000E+00 -0.39186567904E+03  0.25370733153E+04  0.25066276741E+04 0.  0.
        3    1    3    3  502    0  0.82946500292E+03 -0.14892980697E+03 -0.11348876412E+04  0.14135636692E+04  0.10100000352E+00 0. -1.
       -3    1    3    3    0  502 -0.82946500292E+03  0.14892980697E+03  0.74302196215E+03  0.11235096461E+04  0.10100000352E+00 0.  1.
</event>
<event>
 5   0  0.3481387E-06  0.2508287E+04  0.7818609E-02  0.8400039E-01
        1   -1    0    0  501    0  0.00000000000E+00  0.00000000000E+00  0.11792014785E+04  0.11792014786E+04  0.50400001928E-02 0. -1.
       -1   -1    0    0    0  501  0.00000000000E+00  0.00000000000E+00 -0.13338480248E+04  0.13338480248E+04  0.50400001928E-02 0.  1.
    10030    2    1    2    0    0  0.00000000000E+00  0.00000000000E+00 -0.15464654624E+03  0.25130495034E+04  0.25082867165E+04 0.  0.
        4    1    3    3  502    0 -0.24310239228E+03 -0.44803103151E+03 -0.12253801419E+04  0.13271731927E+04  0.12699999809E+01 0.  1.
       -4    1    3    3    0  502  0.24310239228E+03  0.44803103151E+03  0.10707335957E+04  0.11858763106E+04  0.12699999809E+01 0. -1.
</event>
<event>
 5   0  0.8056723E-06  0.2502253E+04  0.7818609E-02  0.8402183E-01
       -2   -1    0    0    0  501  0.00000000000E+00  0.00000000000E+00  0.16659471712E+04  0.16659471712E+04  0.25500000920E-02 0. -1.
        2   -1    0    0  501    0  0.00000000000E+00  0.00000000000E+00 -0.93959648270E+03  0.93959648270E+03  0.25500000920E-02 0.  1.
    10030    2    1    2    0    0  0.00000000000E+00  0.00000000000E+00  0.72635068851E+03  0.26055436539E+04  0.25022534663E+04 0.  0.
        2    1    3    3  502    0  0.42714054013E+03  0.11446977604E+04  0.82732636879E+02  0.12245924599E+04  0.25500000920E-02 0. -1.
       -2    1    3    3    0  502 -0.42714054013E+03 -0.11446977604E+04  0.64361805163E+03  0.13809511940E+04  0.25500000920E-02 0.  1.
</event>
<event>
 5   0  0.3481387E-06  0.2595820E+04  0.7818609E-02  0.8369623E-01
       -1   -1    0    0    0  501  0.00000000000E+00  0.00000000000E+00  0.13439472220E+04  0.13439472220E+04  0.50400001928E-02 0.  1.
        1   -1    0    0  501    0  0.00000000000E+00  0.00000000000E+00 -0.12534493484E+04  0.12534493484E+04  0.50400001928E-02 0. -1.
    10030    2    1    2    0    0  0.00000000000E+00  0.00000000000E+00  0.90497873598E+02  0.25973965705E+04  0.25958195390E+04 0.  0.
        4    1    3    3  502    0  0.41182839056E+03  0.56849385173E+03  0.11375990603E+04  0.13367576885E+04  0.12699999809E+01 0.  1.
       -4    1    3    3    0  502 -0.41182839056E+03 -0.56849385173E+03 -0.10471011867E+04  0.12606388820E+04  0.12699999809E+01 0. -1.
</event>
<event>
 5   0  0.3481387E-06  0.2496436E+04  0.7818609E-02  0.8404256E-01
        1   -1    0    0  501    0  0.00000000000E+00  0.00000000000E+00  0.20561349712E+04  0.20561349712E+04  0.50400001928E-02 0.  1.
       -1   -1    0    0    0  501  0.00000000000E+00  0.00000000000E+00 -0.75775601581E+03  0.75775601582E+03  0.50400001928E-02 0. -1.
    10030    2    1    2    0    0  0.00000000000E+00  0.00000000000E+00  0.12983789554E+04  0.28138909870E+04  0.24964363751E+04 0.  0.
        4    1    3    3  502    0  0.83888904240E+03  0.91033936724E+03  0.46886295919E+03  0.13237396558E+04  0.12699999809E+01 0.  1.
       -4    1    3    3    0  502 -0.83888904240E+03 -0.91033936724E+03  0.82951599616E+03  0.14901513312E+04  0.12699999809E+01 0. -1.
</event>
<event>
 5   0  0.3522870E-06  0.2495571E+04  0.7818609E-02  0.8404565E-01
       -1   -1    0    0    0  501  0.00000000000E+00  0.00000000000E+00  0.10882922806E+04  0.10882922806E+04  0.50400001928E-02 0.  1.
        1   -1    0    0  501    0  0.00000000000E+00  0.00000000000E+00 -0.14306534571E+04  0.14306534571E+04  0.50400001928E-02 0. -1.
    10030    2    1    2    0    0  0.00000000000E+00  0.00000000000E+00 -0.34236117646E+03  0.25189457377E+04  0.24955713684E+04 0.  0.
        2    1    3    3  502    0 -0.22207501144E+03 -0.26500456560E+03 -0.13813364858E+04  0.14239505671E+04  0.25500000920E-02 0. -1.
       -2    1    3    3    0  502  0.22207501144E+03  0.26500456560E+03  0.10389753093E+04  0.10949951707E+04  0.25500000920E-02 0.  1.
</event>
<event>
 5   0  0.8056723E-06  0.2504921E+04  0.7818609E-02  0.8401235E-01
       -2   -1    0    0    0  501  0.00000000000E+00  0.00000000000E+00  0.10549531807E+04  0.10549531807E+04  0.25500000920E-02 0.  1.
        2   -1    0    0  501    0  0.00000000000E+00  0.00000000000E+00 -0.14869446215E+04  0.14869446215E+04  0.25500000920E-02 0. -1.
    10030    2    1    2    0    0  0.00000000000E+00  0.00000000000E+00 -0.43199144086E+03  0.25418978022E+04  0.25049207236E+04 0.  0.
        2    1    3    3  502    0 -0.89037111776E+03  0.84059978133E+03  0.51116562553E+02  0.12255535985E+04  0.25500000920E-02 0.  1.
       -2    1    3    3    0  502  0.89037111776E+03 -0.84059978133E+03 -0.48310800341E+03  0.13163442037E+04  0.25500000920E-02 0. -1.
</event>
<event>
 5   0  0.8579923E-06  0.2499617E+04  0.7818609E-02  0.8403122E-01
       -2   -1    0    0    0  501  0.00000000000E+00  0.00000000000E+00  0.12669481953E+04  0.12669481953E+04  0.25500000920E-02 0. -1.
        2   -1    0    0  501    0  0.00000000000E+00  0.00000000000E+00 -0.12329006406E+04  0.12329006406E+04  0.25500000920E-02 0.  1.
    10030    2    1    2    0    0  0.00000000000E+00  0.00000000000E+00  0.34047554704E+02  0.24998488359E+04  0.24996169639E+04 0.  0.
        1    1    3    3  502    0  0.12096354716E+04 -0.25298365302E+02  0.33036300713E+03  0.12541920498E+04  0.50400001928E-02 0. -1.
       -1    1    3    3    0  502 -0.12096354716E+04  0.25298365302E+02 -0.29631545243E+03  0.12456567861E+04  0.50400001928E-02 0.  1.
</event>
<event>
 5   0  0.8407986E-06  0.2505884E+04  0.7818609E-02  0.8400893E-01
       -2   -1    0    0    0  501  0.00000000000E+00  0.00000000000E+00  0.63169868077E+03  0.63169868077E+03  0.25500000920E-02 0. -1.
        2   -1    0    0  501    0  0.00000000000E+00  0.00000000000E+00 -0.24851453599E+04  0.24851453599E+04  0.25500000920E-02 0.  1.
    10030    2    1    2    0    0  0.00000000000E+00  0.00000000000E+00 -0.18534466791E+04  0.31168440406E+04  0.25058835131E+04 0.  0.
        5    1    3    3  502    0 -0.10382420847E+04 -0.57963909523E+03 -0.43559482958E+03  0.12663700299E+04  0.46999998093E+01 0. -1.
       -5    1    3    3    0  502  0.10382420847E+04  0.57963909523E+03 -0.14178518495E+04  0.18504740107E+04  0.46999998093E+01 0.  1.
</event>
<event>
 5   0  0.8579923E-06  0.2510897E+04  0.7818609E-02  0.8399114E-01
       -2   -1    0    0    0  501  0.00000000000E+00  0.00000000000E+00  0.93782647509E+03  0.93782647509E+03  0.25500000920E-02 0. -1.
        2   -1    0    0  501    0  0.00000000000E+00  0.00000000000E+00 -0.16806418384E+04  0.16806418384E+04  0.25500000920E-02 0.  1.
    10030    2    1    2    0    0  0.00000000000E+00  0.00000000000E+00 -0.74281536328E+03  0.26184683135E+04  0.25108965818E+04 0.  0.
        1    1    3    3  502    0  0.68264468816E+03  0.77890687103E+03 -0.11113484966E+04  0.15191429047E+04  0.50400001928E-02 0.  1.
       -1    1    3    3    0  502 -0.68264468816E+03 -0.77890687103E+03  0.36853313329E+03  0.10993254088E+04  0.50400001928E-02 0. -1.
</event>
<event>
 5   0  0.3424193E-06  0.2500870E+04  0.7818609E-02  0.8402676E-01
       -1   -1    0    0    0  501  0.00000000000E+00  0.00000000000E+00  0.12342475518E+04  0.12342475518E+04  0.50400001928E-02 0. -1.
        1   -1    0    0  501    0  0.00000000000E+00  0.00000000000E+00 -0.12668349867E+04  0.12668349867E+04  0.50400001928E-02 0.  1.
    10030    2    1    2    0    0  0.00000000000E+00  0.00000000000E+00 -0.32587434910E+02  0.25010825386E+04  0.25008702333E+04 0.  0.
        1    1    3    3  502    0  0.93740497244E+03 -0.81936416742E+03  0.99915371186E+02  0.12490271425E+04  0.50400001928E-02 0.  1.
       -1    1    3    3    0  502 -0.93740497244E+03  0.81936416742E+03 -0.13250280610E+03  0.12520553961E+04  0.50400001928E-02 0. -1.
</event>
<event>
 5   0  0.8407986E-06  0.2480954E+04  0.7818609E-02  0.8409802E-01
        2   -1    0    0  501    0  0.00000000000E+00  0.00000000000E+00  0.16783629937E+04  0.16783629937E+04  0.25500000920E-02 0. -1.
       -2   -1    0    0    0  501  0.00000000000E+00  0.00000000000E+00 -0.91683554698E+03  0.91683554698E+03  0.25500000920E-02 0.  1.
    10030    2    1    2    0    0  0.00000000000E+00  0.00000000000E+00  0.76152744672E+03  0.25951985407E+04  0.24809537306E+04 0.  0.
        5    1    3    3  502    0  0.22727271635E+03 -0.11192359236E+04  0.88722723758E+03  0.14462144382E+04  0.46999998093E+01 0. -1.
       -5    1    3    3    0  502 -0.22727271635E+03  0.11192359236E+04 -0.12569979086E+03  0.11489841024E+04  0.46999998093E+01 0.  1.
</event>
<event>
 5   0  0.2901250E-06  0.2485972E+04  0.7818609E-02  0.8408000E-01
       -3   -1    0    0    0  501  0.00000000000E+00  0.00000000000E+00  0.81317975390E+03  0.81317976017E+03  0.10100000352E+00 0. -1.
        3   -1    0    0  501    0  0.00000000000E+00  0.00000000000E+00 -0.18999660649E+04  0.18999660676E+04  0.10100000352E+00 0.  1.
    10030    2    1    2    0    0  0.00000000000E+00  0.00000000000E+00 -0.10867863110E+04  0.27131458278E+04  0.24859718013E+04 0.  0.
        5    1    3    3  502    0  0.26828952515E+03 -0.10554736425E+04  0.11051520893E+03  0.10946413023E+04  0.46999998093E+01 0. -1.
       -5    1    3    3    0  502 -0.26828952515E+03  0.10554736425E+04 -0.11973015200E+04  0.16185045255E+04  0.46999998093E+01 0.  1.
</event>
<event>
 5   0  0.8948286E-06  0.2502990E+04  0.7818609E-02  0.8401921E-01
       -2   -1    0    0    0  501  0.00000000000E+00  0.00000000000E+00  0.84548157553E+03  0.84548157554E+03  0.25500000920E-02 0. -1.
        2   -1    0    0  501    0  0.00000000000E+00  0.00000000000E+00 -0.18524829786E+04  0.18524829786E+04  0.25500000920E-02 0.  1.
    10030    2    1    2    0    0  0.00000000000E+00  0.00000000000E+00 -0.10070014031E+04  0.26979645542E+04  0.25029903935E+04 0.  0.
        4    1    3    3  502    0  0.11629461252E+04  0.44034933982E+03 -0.65550850312E+03  0.14057184077E+04  0.12699999809E+01 0.  1.
       -4    1    3    3    0  502 -0.11629461252E+04 -0.44034933982E+03 -0.35149289998E+03  0.12922461464E+04  0.12699999809E+01 0. -1.
</event>
<event>
 5   0  0.8948286E-06  0.2494510E+04  0.7818609E-02  0.8404944E-01
       -2   -1    0    0    0  501  0.00000000000E+00  0.00000000000E+00  0.56782189017E+03  0.56782189017E+03  0.25500000920E-02 0.  1.
        2   -1    0    0  501    0  0.00000000000E+00  0.00000000000E+00 -0.27396717790E+04  0.27396717790E+04  0.25500000920E-02 0. -1.
    10030    2    1    2    0    0  0.00000000000E+00  0.00000000000E+00 -0.21718498888E+04  0.33074936691E+04  0.24945104594E+04 0.  0.
        4    1    3    3  502    0 -0.12267639515E+04 -0.43712732590E+01 -0.13844020158E+04  0.18497403751E+04  0.12699999809E+01 0.  1.
       -4    1    3    3    0  502  0.12267639515E+04  0.43712732590E+01 -0.78744787298E+03  0.14577532941E+04  0.12699999809E+01 0. -1.
</event>
<event>
 5   0  0.3522870E-06  0.2520713E+04  0.7818609E-02  0.8395643E-01
        1   -1    0    0  501    0  0.00000000000E+00  0.00000000000E+00  0.18902775753E+04  0.18902775753E+04  0.50400001928E-02 0. -1.
       -1   -1    0    0    0  501  0.00000000000E+00  0.00000000000E+00 -0.84035215073E+03  0.84035215074E+03  0.50400001928E-02 0.  1.
    10030    2    1    2    0    0  0.00000000000E+00  0.00000000000E+00  0.10499254246E+04  0.27306297261E+04  0.25207132530E+04 0.  0.
        2    1    3    3  502    0 -0.64283339716E+03  0.10758653821E+04  0.38052602782E+03  0.13097790480E+04  0.25500000920E-02 0. -1.
       -2    1    3    3    0  502  0.64283339716E+03 -0.10758653821E+04  0.66939939680E+03  0.14208506780E+04  0.25500000920E-02 0.  1.
</event>
<event>
 5   0  0.3484857E-06  0.2458746E+04  0.7818609E-02  0.8417832E-01
        1   -1    0    0  501    0  0.00000000000E+00  0.00000000000E+00  0.12158284097E+04  0.12158284097E+04  0.50400001928E-02 0. -1.
       -1   -1    0    0    0  501  0.00000000000E+00  0.00000000000E+00 -0.12430682024E+04  0.12430682024E+04  0.50400001928E-02 0.  1.
    10030    2    1    2    0    0  0.00000000000E+00  0.00000000000E+00 -0.27239792691E+02  0.24588966121E+04  0.24587457255E+04 0.  0.
        3    1    3    3  502    0 -0.45488699690E+03 -0.11369049361E+04 -0.12263397873E+03  0.12306559701E+04  0.10100000352E+00 0.  1.
       -3    1    3    3    0  502  0.45488699690E+03  0.11369049361E+04  0.95394186042E+02  0.12282406420E+04  0.10100000352E+00 0. -1.
</event>
<event>
 5   0  0.3642184E-06  0.2496608E+04  0.7818609E-02  0.8404195E-01
       -1   -1    0    0    0  501  0.00000000000E+00  0.00000000000E+00  0.82196889655E+03  0.82196889656E+03  0.50400001928E-02 0.  1.
        1   -1    0    0  501    0  0.00000000000E+00  0.00000000000E+00 -0.18957683049E+04  0.18957683049E+04  0.50400001928E-02 0. -1.
    10030    2    1    2    0    0  0.00000000000E+00  0.00000000000E+00 -0.10737994083E+04  0.27177372014E+04  0.24966077639E+04 0.  0.
        5    1    3    3  502    0 -0.18848004709E+03  0.67349733885E+03 -0.16624626308E+04  0.18035873925E+04  0.46999998093E+01 0. -1.
       -5    1    3    3    0  502  0.18848004709E+03 -0.67349733885E+03  0.58866322252E+03  0.91414980891E+03  0.46999998093E+01 0.  1.
</event>
<event>
 5   0  0.8948286E-06  0.2497844E+04  0.7818609E-02  0.8403754E-01
       -2   -1    0    0    0  501  0.00000000000E+00  0.00000000000E+00  0.62236744139E+03  0.62236744140E+03  0.25500000920E-02 0.  1.
        2   -1    0    0  501    0  0.00000000000E+00  0.00000000000E+00 -0.25062458412E+04  0.25062458412E+04  0.25500000920E-02 0. -1.
    10030    2    1    2    0    0  0.00000000000E+00  0.00000000000E+00 -0.18838783998E+04  0.31286132826E+04  0.24978437194E+04 0.  0.
        4    1    3    3  502    0  0.10384964819E+04 -0.26047385532E+03 -0.17473459317E+04  0.20492781632E+04  0.12699999809E+01 0. -1.
       -4    1    3    3    0  502 -0.10384964819E+04  0.26047385532E+03 -0.13653246805E+03  0.10793351194E+04  0.12699999809E+01 0.  1.
</event>
<event>
 5   0  0.8407986E-06  0.2500619E+04  0.7818609E-02  0.8402765E-01
       -2   -1    0    0    0  501  0.00000000000E+00  0.00000000000E+00  0.94131816196E+03  0.94131816196E+03  0.25500000920E-02 0. -1.
        2   -1    0    0  501    0  0.00000000000E+00  0.00000000000E+00 -0.16607282254E+04  0.16607282254E+04  0.25500000920E-02 0.  1.
    10030    2    1    2    0    0  0.00000000000E+00  0.00000000000E+00 -0.71941006340E+03  0.26020463873E+04  0.25006188359E+04 0.  0.
        5    1    3    3  502    0 -0.78606714328E+03  0.60309636940E+02 -0.13694850217E+04  0.15802057210E+04  0.46999998093E+01 0.  1.
       -5    1    3    3    0  502  0.78606714328E+03 -0.60309636940E+02  0.65007495826E+03  0.10218406664E+04  0.46999998093E+01 0. -1.
</event>
<event>
 5   0  0.8579923E-06  0.2500457E+04  0.7818609E-02  0.8402823E-01
        2   -1    0    0  501    0  0.00000000000E+00  0.00000000000E+00  0.69548967319E+03  0.69548967319E+03  0.25500000920E-02 0.  1.
       -2   -1    0    0    0  501  0.00000000000E+00  0.00000000000E+00 -0.22474395223E+04  0.22474395223E+04  0.25500000920E-02 0. -1.
    10030    2    1    2    0    0  0.00000000000E+00  0.00000000000E+00 -0.15519498492E+04  0.29429291955E+04  0.25004567414E+04 0.  0.
        1    1    3    3  502    0  0.38526605120E+03 -0.74734309445E+03 -0.18649742831E+04  0.20457469803E+04  0.50400001928E-02 0. -1.
       -1    1    3    3    0  502 -0.38526605120E+03  0.74734309445E+03  0.31302443391E+03  0.89718221520E+03  0.50400001928E-02 0.  1.
</event>
<event>
 5   0  0.8579923E-06  0.2512444E+04  0.7818609E-02  0.8398566E-01
        2   -1    0    0  501    0  0.00000000000E+00  0.00000000000E+00  0.23085639048E+04  0.23085639048E+04  0.25500000920E-02 0. -1.
       -2   -1    0    0    0  501  0.00000000000E+00  0.00000000000E+00 -0.68358244065E+03  0.68358244066E+03  0.25500000920E-02 0.  1.
    10030    2    1    2    0    0  0.00000000000E+00  0.00000000000E+00  0.16249814641E+04  0.29921463454E+04  0.25124440280E+04 0.  0.
        1    1    3    3  502    0 -0.73310666679E+03 -0.76399602149E+03  0.74371467820E+01  0.10588628886E+04  0.50400001928E-02 0.  1.
       -1    1    3    3    0  502  0.73310666679E+03  0.76399602149E+03  0.16175443173E+04  0.19332834568E+04  0.50400001928E-02 0. -1.
</event>
<event>
 5   0  0.3642184E-06  0.2507961E+04  0.7818609E-02  0.8400155E-01
        1   -1    0    0  501    0  0.00000000000E+00  0.00000000000E+00  0.16411586147E+04  0.16411586147E+04  0.50400001928E-02 0. -1.
       -1   -1    0    0    0  501  0.00000000000E+00  0.00000000000E+00 -0.95814437459E+03  0.95814437460E+03  0.50400001928E-02 0.  1.
    10030    2    1    2    0    0  0.00000000000E+00  0.00000000000E+00  0.68301424011E+03  0.25993029893E+04  0.25079608406E+04 0.  0.
        5    1    3    3  502    0 -0.80246348801E+03  0.88258731240E+03  0.74229094279E+03  0.14049647495E+04  0.46999998093E+01 0. -1.
       -5    1    3    3    0  502  0.80246348801E+03 -0.88258731240E+03 -0.59276702672E+02  0.11943382398E+04  0.46999998093E+01 0.  1.
</event>
<event>
 5   0  0.2901250E-06  0.2500682E+04  0.7818609E-02  0.8402743E-01
       -3   -1    0    0    0  501  0.00000000000E+00  0.00000000000E+00  0.10673101972E+04  0.10673102019E+04  0.10100000352E+00 0. -1.
        3   -1    0    0  501    0  0.00000000000E+00  0.00000000000E+00 -0.14647592425E+04  0.14647592459E+04  0.10100000352E+00 0.  1.
    10030    2    1    2    0    0  0.00000000000E+00  0.00000000000E+00 -0.39744904528E+03  0.25320694479E+04  0.25006818961E+04 0.  0.
        2    1    3    3  502    0  0.94590721581E+03  0.38598479437E+03  0.53117543225E+03  0.11514651807E+04  0.25500000920E-02 0.  1.
       -2    1    3    3    0  502 -0.94590721581E+03 -0.38598479437E+03 -0.92862447754E+03  0.13806042672E+04  0.25500000920E-02 0. -1.
</event>
<event>
 5   0  0.8948286E-06  0.2466009E+04  0.7818609E-02  0.8415196E-01
       -2   -1    0    0    0  501  0.00000000000E+00  0.00000000000E+00  0.90506275065E+03  0.90506275065E+03  0.25500000920E-02 0. -1.
        2   -1    0    0  501    0  0.00000000000E+00  0.00000000000E+00 -0.16797732611E+04  0.16797732611E+04  0.25500000920E-02 0.  1.
    10030    2    1    2    0    0  0.00000000000E+00  0.00000000000E+00 -0.77471051044E+03  0.25848360117E+04  0.24660090901E+04 0.  0.
        4    1    3    3  502    0  0.13712247656E+03  0.60920431885E+03  0.72706215528E+03  0.95841195016E+03  0.12699999809E+01 0. -1.
       -4    1    3    3    0  502 -0.13712247656E+03 -0.60920431885E+03 -0.15017726657E+04  0.16264240616E+04  0.12699999809E+01 0.  1.
</event>
<event>
 5   0  0.3481387E-06  0.2502044E+04  0.7818609E-02  0.8402258E-01
        1   -1    0    0  501    0  0.00000000000E+00  0.00000000000E+00  0.11057060435E+04  0.11057060435E+04  0.50400001928E-02 0.  1.
       -1   -1    0    0    0  501  0.00000000000E+00  0.00000000000E+00 -0.14154360027E+04  0.14154360027E+04  0.50400001928E-02 0. -1.
    10030    2    1    2    0    0  0.00000000000E+00  0.00000000000E+00 -0.30972995921E+03  0.25211420462E+04  0.25020440782E+04 0.  0.
        4    1    3    3  502    0  0.12461474265E+04 -0.19243116916E+02 -0.45404205789E+02  0.12471234345E+04  0.12699999809E+01 0. -1.
       -4    1    3    3    0  502 -0.12461474265E+04  0.19243116916E+02 -0.26432575342E+03  0.12740186117E+04  0.12699999809E+01 0.  1.
</event>
<event>
 5   0  0.8948286E-06  0.2508748E+04  0.7818609E-02  0.8399876E-01
        2   -1    0    0  501    0  0.00000000000E+00  0.00000000000E+00  0.21509412055E+04  0.21509412055E+04  0.25500000920E-02 0.  1.
       -2   -1    0    0    0  501  0.00000000000E+00  0.00000000000E+00 -0.73151893287E+03  0.73151893287E+03  0.25500000920E-02 0. -1.
    10030    2    1    2    0    0  0.00000000000E+00  0.00000000000E+00  0.14194222726E+04  0.28824601383E+04  0.25087480665E+04 0.  0.
        4    1    3    3  502    0 -0.37835809471E+03  0.10912617895E+04  0.14748689875E+03  0.11643715641E+04  0.12699999809E+01 0. -1.
       -4    1    3    3    0  502  0.37835809471E+03 -0.10912617895E+04  0.12719353739E+04  0.17180885743E+04  0.12699999809E+01 0.  1.
</event>
<event>
 5   0  0.3484857E-06  0.2496974E+04  0.7818609E-02  0.8404064E-01
       -1   -1    0    0    0  501  0.00000000000E+00  0.00000000000E+00  0.10998196248E+04  0.10998196248E+04  0.50400001928E-02 0. -1.
        1   -1    0    0  501    0  0.00000000000E+00  0.00000000000E+00 -0.14172499201E+04  0.14172499201E+04  0.50400001928E-02 0.  1.
    10030    2    1    2    0    0  0.00000000000E+00  0.00000000000E+00 -0.31743029533E+03  0.25170695449E+04  0.24969735885E+04 0.  0.
        3    1    3    3  502    0  0.84322833019E+03  0.78326618168E+03 -0.64653059911E+03  0.13200536936E+04  0.10100000352E+00 0.  1.
       -3    1    3    3    0  502 -0.84322833019E+03 -0.78326618168E+03  0.32910030378E+03  0.11970158513E+04  0.10100000352E+00 0. -1.
</event>
<event>
 5   0  0.3481387E-06  0.2485965E+04  0.7818609E-02  0.8408003E-01
       -1   -1    0    0    0  501  0.00000000000E+00  0.00000000000E+00  0.97269713142E+03  0.97269713143E+03  0.50400001928E-02 0. -1.
        1   -1    0    0  501    0  0.00000000000E+00  0.00000000000E+00 -0.15883721833E+04  0.15883721833E+04  0.50400001928E-02 0.  1.
    10030    2    1    2    0    0  0.00000000000E+00  0.00000000000E+00 -0.61567505191E+03  0.25610693148E+04  0.24859646549E+04 0.  0.
        4    1    3    3  502    0  0.93685323689E+02 -0.54116852170E+03 -0.14565871390E+04  0.15566913680E+04  0.12699999809E+01 0.  1.
       -4    1    3    3    0  502 -0.93685323689E+02  0.54116852170E+03  0.84091208712E+03  0.10043779468E+04  0.12699999809E+01 0. -1.
</event>
<event>
 5   0  0.3522870E-06  0.2494332E+04  0.7818609E-02  0.8405007E-01
       -1   -1    0    0    0  501  0.00000000000E+00  0.00000000000E+00  0.12667930876E+04  0.12667930876E+04  0.50400001928E-02 0.  1.
        1   -1    0    0  501    0  0.00000000000E+00  0.00000000000E+00 -0.12278433953E+04  0.12278433953E+04  0.50400001928E-02 0. -1.
    10030    2    1    2    0    0  0.00000000000E+00  0.00000000000E+00  0.38949692244E+02  0.24946364829E+04  0.24943323963E+04 0.  0.
        2    1    3    3  502    0  0.12493327818E+03 -0.12377798083E+04  0.10732830054E+03  0.12486899303E+04  0.25500000920E-02 0. -1.
       -2    1    3    3    0  502 -0.12493327818E+03  0.12377798083E+04 -0.68378608300E+02  0.12459465526E+04  0.25500000920E-02 0.  1.
</event>
<event>
 5   0  0.8579923E-06  0.2500442E+04  0.7818609E-02  0.8402828E-01
       -2   -1    0    0    0  501  0.00000000000E+00  0.00000000000E+00  0.10717047389E+04  0.10717047389E+04  0.25500000920E-02 0.  1.
        2   -1    0    0  501    0  0.00000000000E+00  0.00000000000E+00 -0.14584734895E+04  0.14584734895E+04  0.25500000920E-02 0. -1.
    10030    2    1    2    0    0  0.00000000000E+00  0.00000000000E+00 -0.38676875062E+03  0.25301782284E+04  0.25004423211E+04 0.  0.
        1    1    3    3  502    0  0.11803318223E+04 -0.14781810193E+03  0.19592405723E+03  0.12055785492E+04  0.50400001928E-02 0.  1.
       -1    1    3    3    0  502 -0.11803318223E+04  0.14781810193E+03 -0.58269280785E+03  0.13245996793E+04  0.50400001928E-02 0. -1.
</event>
<event>
 5   0  0.3424193E-06  0.2498415E+04  0.7818609E-02  0.8403551E-01
       -1   -1    0    0    0  501  0.00000000000E+00  0.00000000000E+00  0.95337494336E+03  0.95337494337E+03  0.50400001928E-02 0.  1.
        1   -1    0    0  501    0  0.00000000000E+00  0.00000000000E+00 -0.16368365551E+04  0.16368365551E+04  0.50400001928E-02 0. -1.
    10030    2    1    2    0    0  0.00000000000E+00  0.00000000000E+00 -0.68346161178E+03  0.25902114985E+04  0.24984146638E+04 0.  0.
        1    1    3    3  502    0  0.21630439308E+02 -0.12086151806E+04 -0.15032964099E+02  0.12089021965E+04  0.50400001928E-02 0.  1.
       -1    1    3    3    0  502 -0.21630439308E+02  0.12086151806E+04 -0.66842864768E+03  0.13813093020E+04  0.50400001928E-02 0. -1.
</event>
<event>
 5   0  0.8579923E-06  0.2430677E+04  0.7818609E-02  0.8428107E-01
        2   -1    0    0  501    0  0.00000000000E+00  0.00000000000E+00  0.13178810527E+04  0.13178810527E+04  0.25500000920E-02 0.  1.
       -2   -1    0    0    0  501  0.00000000000E+00  0.00000000000E+00 -0.11207742959E+04  0.11207742959E+04  0.25500000920E-02 0. -1.
    10030    2    1    2    0    0  0.00000000000E+00  0.00000000000E+00  0.19710675681E+03  0.24386553485E+04  0.24306766209E+04 0.  0.
        1    1    3    3  502    0 -0.35558542974E+03  0.10958438122E+04 -0.28966970405E+03  0.11879491555E+04  0.50400001928E-02 0.  1.
       -1    1    3    3    0  502  0.35558542974E+03 -0.10958438122E+04  0.48677646085E+03  0.12507061931E+04  0.50400001928E-02 0. -1.
</event>
<event>
 5   0  0.8056723E-06  0.2499553E+04  0.7818609E-02  0.8403145E-01
        2   -1    0    0  501    0  0.00000000000E+00  0.00000000000E+00  0.18490032691E+04  0.18490032691E+04  0.25500000920E-02 0. -1.
       -2   -1    0    0    0  501  0.00000000000E+00  0.00000000000E+00 -0.84474766438E+03  0.84474766438E+03  0.25500000920E-02 0.  1.
    10030    2    1    2    0    0  0.00000000000E+00  0.00000000000E+00  0.10042556047E+04  0.26937509335E+04  0.24995529144E+04 0.  0.
        2    1    3    3  502    0  0.13950620156E+03  0.11464181258E+04 -0.12694543555E+02  0.11549448692E+04  0.25500000920E-02 0.  1.
       -2    1    3    3    0  502 -0.13950620156E+03 -0.11464181258E+04  0.10169501483E+04  0.15388060643E+04  0.25500000920E-02 0. -1.
</event>
<event>
 5   0  0.8948286E-06  0.2502092E+04  0.7818609E-02  0.8402241E-01
       -2   -1    0    0    0  501  0.00000000000E+00  0.00000000000E+00  0.68706470789E+03  0.68706470789E+03  0.25500000920E-02 0.  1.
        2   -1    0    0  501    0  0.00000000000E+00  0.00000000000E+00 -0.22779739511E+04  0.22779739511E+04  0.25500000920E-02 0. -1.
    10030    2    1    2    0    0  0.00000000000E+00  0.00000000000E+00 -0.15909092432E+04  0.29650386590E+04  0.25020915309E+04 0.  0.
        4    1    3    3  502    0  0.54308156603E+03  0.75425658067E+03 -0.17878182189E+04  0.20149779586E+04  0.12699999809E+01 0. -1.
       -4    1    3    3    0  502 -0.54308156603E+03 -0.75425658067E+03  0.19690897569E+03  0.95006070040E+03  0.12699999809E+01 0.  1.
</event>
<event>
 5   0  0.3481387E-06  0.2495763E+04  0.7818609E-02  0.8404497E-01
       -1   -1    0    0    0  501  0.00000000000E+00  0.00000000000E+00  0.12106071667E+04  0.12106071667E+04  0.50400001928E-02 0.  1.
        1   -1    0    0  501    0  0.00000000000E+00  0.00000000000E+00 -0.12863035757E+04  0.12863035757E+04  0.50400001928E-02 0. -1.
    10030    2    1    2    0    0  0.00000000000E+00  0.00000000000E+00 -0.75696409014E+02  0.24969107424E+04  0.24957630715E+04 0.  0.
        4    1    3    3  502    0 -0.87823345731E+03  0.84803929952E+03  0.22061543286E+03  0.12406197811E+04  0.12699999809E+01 0. -1.
       -4    1    3    3    0  502  0.87823345731E+03 -0.84803929952E+03 -0.29631184187E+03  0.12562909614E+04  0.12699999809E+01 0.  1.
</event>
<event>
 5   0  0.3424193E-06  0.2499691E+04  0.7818609E-02  0.8403096E-01
        1   -1    0    0  501    0  0.00000000000E+00  0.00000000000E+00  0.19556383031E+04  0.19556383032E+04  0.50400001928E-02 0.  1.
       -1   -1    0    0    0  501  0.00000000000E+00  0.00000000000E+00 -0.79877428583E+03  0.79877428585E+03  0.50400001928E-02 0. -1.
    10030    2    1    2    0    0  0.00000000000E+00  0.00000000000E+00  0.11568640173E+04  0.27544125890E+04  0.24996908521E+04 0.  0.
        1    1    3    3  502    0  0.70964666654E+02  0.10576724330E+04 -0.15116198526E+03  0.10707739749E+04  0.50400001928E-02 0. -1.
       -1    1    3    3    0  502 -0.70964666654E+02 -0.10576724330E+04  0.13080260026E+04  0.16836386141E+04  0.50400001928E-02 0.  1.
</event>
<event>
 5   0  0.8948286E-06  0.2504318E+04  0.7818609E-02  0.8401449E-01
        2   -1    0    0  501    0  0.00000000000E+00  0.00000000000E+00  0.30262438450E+04  0.30262438450E+04  0.25500000920E-02 0. -1.
       -2   -1    0    0    0  501  0.00000000000E+00  0.00000000000E+00 -0.51810160746E+03  0.51810160747E+03  0.25500000920E-02 0.  1.
    10030    2    1    2    0    0  0.00000000000E+00  0.00000000000E+00  0.25081422376E+04  0.35443454525E+04  0.25043177120E+04 0.  0.
        4    1    3    3  502    0 -0.77372346616E+03 -0.55087655816E+03  0.99251001377E+02  0.95496877362E+03  0.12699999809E+01 0.  1.
       -4    1    3    3    0  502  0.77372346616E+03  0.55087655816E+03  0.24088912362E+04  0.25893766789E+04  0.12699999809E+01 0. -1.
</event>
<event>
 5   0  0.8407986E-06  0.2506929E+04  0.7818609E-02  0.8400521E-01
       -2   -1    0    0    0  501  0.00000000000E+00  0.00000000000E+00  0.96637721334E+03  0.96637721334E+03  0.25500000920E-02 0.  1.
        2   -1    0    0  501    0  0.00000000000E+00  0.00000000000E+00 -0.16258385588E+04  0.16258385588E+04  0.25500000920E-02 0. -1.
    10030    2    1    2    0    0  0.00000000000E+00  0.00000000000E+00 -0.65946134543E+03  0.25922157721E+04  0.25069290662E+04 0.  0.
        5    1    3    3  502    0  0.86451681654E+03  0.51376768226E+03  0.44392438429E+03  0.10992895462E+04  0.46999998093E+01 0.  1.
       -5    1    3    3    0  502 -0.86451681654E+03 -0.51376768226E+03 -0.11033857297E+04  0.14929262259E+04  0.46999998093E+01 0. -1.
</event>
<event>
 5   0  0.3522870E-06  0.2511428E+04  0.7818609E-02  0.8398925E-01
       -1   -1    0    0    0  501  0.00000000000E+00  0.00000000000E+00  0.15004236035E+04  0.15004236035E+04  0.50400001928E-02 0.  1.
        1   -1    0    0  501    0  0.00000000000E+00  0.00000000000E+00 -0.10509151517E+04  0.10509151517E+04  0.50400001928E-02 0. -1.
    10030    2    1    2    0    0  0.00000000000E+00  0.00000000000E+00  0.44950845181E+03  0.25513387552E+04  0.25114281983E+04 0.  0.
        2    1    3    3  502    0 -0.36172384558E+03  0.88635450685E+03 -0.60077845184E+03  0.11302226331E+04  0.25500000920E-02 0. -1.
       -2    1    3    3    0  502  0.36172384558E+03 -0.88635450685E+03  0.10502869037E+04  0.14211161220E+04  0.25500000920E-02 0.  1.
</event>
<event>
 5   0  0.3484857E-06  0.2495328E+04  0.7818609E-02  0.8404652E-01
       -1   -1    0    0    0  501  0.00000000000E+00  0.00000000000E+00  0.72425349652E+03  0.72425349653E+03  0.50400001928E-02 0.  1.
        1   -1    0    0  501    0  0.00000000000E+00  0.00000000000E+00 -0.21493381099E+04  0.21493381099E+04  0.50400001928E-02 0. -1.
    10030    2    1    2    0    0  0.00000000000E+00  0.00000000000E+00 -0.14250846134E+04  0.28735916065E+04  0.24953281478E+04 0.  0.
        3    1    3    3  502    0 -0.39029440598E+03  0.29091121822E+03  0.61038527281E+03  0.78072354370E+03  0.10100000352E+00 0.  1.
       -3    1    3    3    0  502  0.39029440598E+03 -0.29091121822E+03 -0.20354698862E+04  0.20928680628E+04  0.10100000352E+00 0. -1.
</event>
<event>
 5   0  0.8056723E-06  0.2490723E+04  0.7818609E-02  0.8406298E-01
       -2   -1    0    0    0  501  0.00000000000E+00  0.00000000000E+00  0.75281800129E+03  0.75281800129E+03  0.25500000920E-02 0.  1.
        2   -1    0    0  501    0  0.00000000000E+00  0.00000000000E+00 -0.20601603665E+04  0.20601603665E+04  0.25500000920E-02 0. -1.
    10030    2    1    2    0    0  0.00000000000E+00  0.00000000000E+00 -0.13073423653E+04  0.28129783678E+04  0.24907234367E+04 0.  0.
        2    1    3    3  502    0 -0.12016266797E+04 -0.57095046987E+02 -0.28987815121E+03  0.12374149928E+04  0.25500000920E-02 0.  1.
       -2    1    3    3    0  502  0.12016266797E+04  0.57095046987E+02 -0.10174642140E+04  0.15755633750E+04  0.25500000920E-02 0. -1.
</event>
<event>
 5   0  0.8948286E-06  0.2488215E+04  0.7818609E-02  0.8407196E-01
       -2   -1    0    0    0  501  0.00000000000E+00  0.00000000000E+00  0.10330743462E+04  0.10330743462E+04  0.25500000920E-02 0.  1.
        2   -1    0    0  501    0  0.00000000000E+00  0.00000000000E+00 -0.14982497480E+04  0.14982497480E+04  0.25500000920E-02 0. -1.
    10030    2    1    2    0    0  0.00000000000E+00  0.00000000000E+00 -0.46517540181E+03  0.25313240942E+04  0.24882149255E+04 0.  0.
        4    1    3    3  502    0  0.71952304024E+03 -0.10133426014E+04 -0.29036186360E+03  0.12762790674E+04  0.12699999809E+01 0.  1.
       -4    1    3    3    0  502 -0.71952304024E+03  0.10133426014E+04 -0.17481353821E+03  0.12550450268E+04  0.12699999809E+01 0. -1.
</event>
<event>
 5   0  0.3424193E-06  0.2505527E+04  0.7818609E-02  0.8401019E-01
       -1   -1    0    0    0  501  0.00000000000E+00  0.00000000000E+00  0.10393259429E+04  0.10393259430E+04  0.50400001928E-02 0. -1.
        1   -1    0    0  501    0  0.00000000000E+00  0.00000000000E+00 -0.15100329018E+04  0.15100329018E+04  0.50400001928E-02 0.  1.
    10030    2    1    2    0    0  0.00000000000E+00  0.00000000000E+00 -0.47070695886E+03  0.25493588448E+04  0.25055269861E+04 0.  0.
        1    1    3    3  502    0 -0.43103806334E+03  0.11749954226E+04 -0.29116109786E+03  0.12849835953E+04  0.50400001928E-02 0.  1.
       -1    1    3    3    0  502  0.43103806334E+03 -0.11749954226E+04 -0.17954586100E+03  0.12643752495E+04  0.50400001928E-02 0. -1.
</event>
<event>
 5   0  0.3424193E-06  0.2485515E+04  0.7818609E-02  0.8408164E-01
       -1   -1    0    0    0  501  0.00000000000E+00  0.00000000000E+00  0.16701304762E+04  0.16701304762E+04  0.50400001928E-02 0. -1.
        1   -1    0    0  501    0  0.00000000000E+00  0.00000000000E+00 -0.92474570475E+03  0.92474570476E+03  0.50400001928E-02 0.  1.
    10030    2    1    2    0    0  0.00000000000E+00  0.00000000000E+00  0.74538477141E+03  0.25948761809E+04  0.24855148233E+04 0.  0.
        1    1    3    3  502    0  0.59035160657E+03 -0.37282921189E+03  0.14459976506E+04  0.16057477529E+04  0.50400001928E-02 0. -1.
       -1    1    3    3    0  502 -0.59035160657E+03  0.37282921189E+03 -0.70061287914E+03  0.98912842800E+03  0.50400001928E-02 0.  1.
</event>
<event>
 5   0  0.8354653E-06  0.2507051E+04  0.7818609E-02  0.8400478E-01
        2   -1    0    0  501    0  0.00000000000E+00  0.00000000000E+00  0.10546276902E+04  0.10546276902E+04  0.25500000920E-02 0. -1.
       -2   -1    0    0    0  501  0.00000000000E+00  0.00000000000E+00 -0.14899349547E+04  0.14899349547E+04  0.25500000920E-02 0.  1.
    10030    2    1    2    0    0  0.00000000000E+00  0.00000000000E+00 -0.43530726448E+03  0.25445626449E+04  0.25070513835E+04 0.  0.
        3    1    3    3  502    0 -0.22867379978E+03 -0.13586779401E+03  0.10256544273E+04  0.10595842480E+04  0.10100000352E+00 0. -1.
       -3    1    3    3    0  502  0.22867379978E+03  0.13586779401E+03 -0.14609616918E+04  0.14849783969E+04  0.10100000352E+00 0.  1.
</event>
<event>
 5   0  0.3481387E-06  0.2470191E+04  0.7818609E-02  0.8413683E-01
       -1   -1    0    0    0  501  0.00000000000E+00  0.00000000000E+00  0.61275149811E+03  0.61275149813E+03  0.50400001928E-02 0.  1.
        1   -1    0    0  501    0  0.00000000000E+00  0.00000000000E+00 -0.24895267464E+04  0.24895267464E+04  0.50400001928E-02 0. -1.
    10030    2    1    2    0    0  0.00000000000E+00  0.00000000000E+00 -0.18767752482E+04  0.31022782445E+04  0.24701912828E+04 0.  0.
        4    1    3    3  502    0 -0.42305707441E+03  0.85101006021E+03  0.52301915285E+02  0.95180487183E+03  0.12699999809E+01 0. -1.
       -4    1    3    3    0  502  0.42305707441E+03 -0.85101006021E+03 -0.19290771635E+04  0.21504733727E+04  0.12699999809E+01 0.  1.
</event>
<event>
 5   0  0.3424193E-06  0.2500694E+04  0.7818609E-02  0.8402738E-01
       -1   -1    0    0    0  501  0.00000000000E+00  0.00000000000E+00  0.16597930119E+04  0.16597930119E+04  0.50400001928E-02 0.  1.
        1   -1    0    0  501    0  0.00000000000E+00  0.00000000000E+00 -0.94190527927E+03  0.94190527928E+03  0.50400001928E-02 0. -1.
    10030    2    1    2    0    0  0.00000000000E+00  0.00000000000E+00  0.71788773259E+03  0.26016982911E+04  0.25006941439E+04 0.  0.
        1    1    3    3  502    0  0.11213226731E+04  0.43210788697E+03  0.71827194893E+03  0.13999986985E+04  0.50400001928E-02 0. -1.
       -1    1    3    3    0  502 -0.11213226731E+04 -0.43210788697E+03 -0.38421633848E+00  0.12016995926E+04  0.50400001928E-02 0.  1.
</event>
<event>
 5   0  0.3424193E-06  0.2503327E+04  0.7818609E-02  0.8401801E-01
        1   -1    0    0  501    0  0.00000000000E+00  0.00000000000E+00  0.21408974763E+04  0.21408974763E+04  0.50400001928E-02 0.  1.
       -1   -1    0    0    0  501  0.00000000000E+00  0.00000000000E+00 -0.73177806061E+03  0.73177806063E+03  0.50400001928E-02 0. -1.
    10030    2    1    2    0    0  0.00000000000E+00  0.00000000000E+00  0.14091194157E+04  0.28726755370E+04  0.25033272285E+04 0.  0.
        1    1    3    3  502    0  0.11289032595E+04  0.40297907087E+03  0.11180688201E+04  0.16391743614E+04  0.50400001928E-02 0.  1.
       -1    1    3    3    0  502 -0.11289032595E+04 -0.40297907087E+03  0.29105059565E+03  0.12335011755E+04  0.50400001928E-02 0. -1.
</event>
<event>
 5   0  0.3484857E-06  0.2502976E+04  0.7818609E-02  0.8401926E-01
       -1   -1    0    0    0  501  0.00000000000E+00  0.00000000000E+00  0.13672526988E+04  0.13672526989E+04  0.50400001928E-02 0.  1.
        1   -1    0    0  501    0  0.00000000000E+00  0.00000000000E+00 -0.11455252258E+04  0.11455252258E+04  0.50400001928E-02 0. -1.
    10030    2    1    2    0    0  0.00000000000E+00  0.00000000000E+00  0.22172747301E+03  0.25127779247E+04  0.25029761938E+04 0.  0.
        3    1    3    3  502    0  0.11340547048E+03  0.11595340436E+04 -0.34791869211E+03  0.12159060102E+04  0.10100000352E+00 0. -1.
       -3    1    3    3    0  502 -0.11340547048E+03 -0.11595340436E+04  0.56964616512E+03  0.12968719145E+04  0.10100000352E+00 0.  1.
</event>
<event>
 5   0  0.8407986E-06  0.2499514E+04  0.7818609E-02  0.8403159E-01
        2   -1    0    0  501    0  0.00000000000E+00  0.00000000000E+00  0.12129113876E+04  0.12129113876E+04  0.25500000920E-02 0.  1.
       -2   -1    0    0    0  501  0.00000000000E+00  0.00000000000E+00 -0.12877216513E+04  0.12877216513E+04  0.25500000920E-02 0. -1.
    10030    2    1    2    0    0  0.00000000000E+00  0.00000000000E+00 -0.74810263684E+02  0.25006330389E+04  0.24995137566E+04 0.  0.
        5    1    3    3  502    0 -0.63731527223E+03 -0.93047183193E+03 -0.57608991030E+03  0.12664320988E+04  0.46999998093E+01 0.  1.
       -5    1    3    3    0  502  0.63731527223E+03  0.93047183193E+03  0.50127964661E+03  0.12342009400E+04  0.46999998093E+01 0. -1.
</event>
<event>
 5   0  0.3481387E-06  0.2490435E+04  0.7818609E-02  0.8406401E-01
        1   -1    0    0  501    0  0.00000000000E+00  0.00000000000E+00  0.21558517327E+04  0.21558517327E+04  0.50400001928E-02 0. -1.
       -1   -1    0    0    0  501  0.00000000000E+00  0.00000000000E+00 -0.71923643757E+03  0.71923643759E+03  0.50400001928E-02 0.  1.
    10030    2    1    2    0    0  0.00000000000E+00  0.00000000000E+00  0.14366152951E+04  0.28750881703E+04  0.24904353998E+04 0.  0.
        4    1    3    3  502    0  0.11377613519E+03 -0.12389395884E+04  0.65888762288E+03  0.14078532683E+04  0.12699999809E+01 0.  1.
       -4    1    3    3    0  502 -0.11377613519E+03  0.12389395884E+04  0.77772767220E+03  0.14672349020E+04  0.12699999809E+01 0. -1.
</event>
<event>
 5   0  0.3424193E-06  0.2502183E+04  0.7818609E-02  0.8402208E-01
        1   -1    0    0  501    0  0.00000000000E+00  0.00000000000E+00  0.10113057658E+04  0.10113057658E+04  0.50400001928E-02 0.  1.
       -1   -1    0    0    0  501  0.00000000000E+00  0.00000000000E+00 -0.15477317224E+04  0.15477317224E+04  0.50400001928E-02 0. -1.
    10030    2    1    2    0    0  0.00000000000E+00  0.00000000000E+00 -0.53642595661E+03  0.25590374883E+04  0.25021830587E+04 0.  0.
        1    1    3    3  502    0 -0.59140171323E+03 -0.70749902202E+03 -0.11329539523E+04  0.14607859223E+04  0.50400001928E-02 0. -1.
       -1    1    3    3    0  502  0.59140171323E+03  0.70749902202E+03  0.59652799570E+03  0.10982515660E+04  0.50400001928E-02 0.  1.
</event>
<event>
 5   0  0.3424193E-06  0.2502866E+04  0.7818609E-02  0.8401965E-01
        1   -1    0    0  501    0  0.00000000000E+00  0.00000000000E+00  0.13868056312E+04  0.13868056312E+04  0.50400001928E-02 0. -1.
       -1   -1    0    0    0  501  0.00000000000E+00  0.00000000000E+00 -0.11292742933E+04  0.11292742933E+04  0.50400001928E-02 0.  1.
    10030    2    1    2    0    0  0.00000000000E+00  0.00000000000E+00  0.25753133791E+03  0.25160799246E+04  0.25028655171E+04 0.  0.
        1    1    3    3  502    0  0.43162806915E+03 -0.30389050662E+02 -0.10516817215E+04  0.11372162186E+04  0.50400001928E-02 0.  1.
       -1    1    3    3    0  502 -0.43162806915E+03  0.30389050662E+02  0.13092130594E+04  0.13788637059E+04  0.50400001928E-02 0. -1.
</event>
<event>
 5   0  0.8407986E-06  0.2495751E+04  0.7818609E-02  0.8404501E-01
       -2   -1    0    0    0  501  0.00000000000E+00  0.00000000000E+00  0.85361241466E+03  0.85361241467E+03  0.25500000920E-02 0.  1.
        2   -1    0    0  501    0  0.00000000000E+00  0.00000000000E+00 -0.18242397647E+04  0.18242397647E+04  0.25500000920E-02 0. -1.
    10030    2    1    2    0    0  0.00000000000E+00  0.00000000000E+00 -0.97062734999E+03  0.26778521793E+04  0.24957513582E+04 0.  0.
        5    1    3    3  502    0 -0.74640109719E+03  0.27826365635E+03 -0.15159328370E+04  0.17124893333E+04  0.46999998093E+01 0. -1.
       -5    1    3    3    0  502  0.74640109719E+03 -0.27826365635E+03  0.54530548701E+03  0.96536284603E+03  0.46999998093E+01 0.  1.
</event>
<event>
 5   0  0.8948286E-06  0.2494181E+04  0.7818609E-02  0.8405062E-01
       -2   -1    0    0    0  501  0.00000000000E+00  0.00000000000E+00  0.91745675958E+03  0.91745675959E+03  0.25500000920E-02 0.  1.
        2   -1    0    0  501    0  0.00000000000E+00  0.00000000000E+00 -0.16951583424E+04  0.16951583424E+04  0.25500000920E-02 0. -1.
    10030    2    1    2    0    0  0.00000000000E+00  0.00000000000E+00 -0.77770158283E+03  0.26126151020E+04  0.24941808113E+04 0.  0.
        4    1    3    3  502    0  0.48023392066E+03  0.70080643316E+03 -0.13451520422E+04  0.15909713715E+04  0.12699999809E+01 0. -1.
       -4    1    3    3    0  502 -0.48023392066E+03 -0.70080643316E+03  0.56745045940E+03  0.10216437305E+04  0.12699999809E+01 0.  1.
</event>
<event>
 5   0  0.3642184E-06  0.2498599E+04  0.7818609E-02  0.8403485E-01
       -1   -1    0    0    0  501  0.00000000000E+00  0.00000000000E+00  0.21553648377E+04  0.21553648377E+04  0.50400001928E-02 0. -1.
        1   -1    0    0  501    0  0.00000000000E+00  0.00000000000E+00 -0.72412294480E+03  0.72412294482E+03  0.50400001928E-02 0.  1.
    10030    2    1    2    0    0  0.00000000000E+00  0.00000000000E+00  0.14312418929E+04  0.28794877825E+04  0.24985989141E+04 0.  0.
        5    1    3    3  502    0  0.11663859618E+04  0.25013856549E+02  0.20069110270E+03  0.11837993553E+04  0.46999998093E+01 0.  1.
       -5    1    3    3    0  502 -0.11663859618E+04 -0.25013856549E+02  0.12305507902E+04  0.16956884272E+04  0.46999998093E+01 0. -1.
</event>
<event>
 5   0  0.8948286E-06  0.2496846E+04  0.7818609E-02  0.8404110E-01
        2   -1    0    0  501    0  0.00000000000E+00  0.00000000000E+00  0.16070823147E+04  0.16070823147E+04  0.25500000920E-02 0.  1.
       -2   -1    0    0    0  501  0.00000000000E+00  0.00000000000E+00 -0.96980684146E+03  0.96980684146E+03  0.25500000920E-02 0. -1.
    10030    2    1    2    0    0  0.00000000000E+00  0.00000000000E+00  0.63727547325E+03  0.25768891562E+04  0.24968455488E+04 0.  0.
        4    1    3    3  502    0 -0.84935747904E+03  0.88467475705E+03  0.55957464739E+03  0.13480292845E+04  0.12699999809E+01 0. -1.
       -4    1    3    3    0  502  0.84935747904E+03 -0.88467475705E+03  0.77700825859E+02  0.12288598717E+04  0.12699999809E+01 0.  1.
</event>
<event>
 5   0  0.3484857E-06  0.2498816E+04  0.7818609E-02  0.8403408E-01
       -1   -1    0    0    0  501  0.00000000000E+00  0.00000000000E+00  0.12193693260E+04  0.12193693260E+04  0.50400001928E-02 0. -1.
        1   -1    0    0  501    0  0.00000000000E+00  0.00000000000E+00 -0.12801863689E+04  0.12801863689E+04  0.50400001928E-02 0.  1.
    10030    2    1    2    0    0  0.00000000000E+00  0.00000000000E+00 -0.60817042906E+02  0.24995556949E+04  0.24988157114E+04 0.  0.
        3    1    3    3  502    0  0.73301606009E+02  0.25466184826E+03 -0.12517509291E+04  0.12794945022E+04  0.10100000352E+00 0.  1.
       -3    1    3    3    0  502 -0.73301606009E+02 -0.25466184826E+03  0.11909338862E+04  0.12200611927E+04  0.10100000352E+00 0. -1.
</event>
<event>
 5   0  0.8056723E-06  0.2502329E+04  0.7818609E-02  0.8402156E-01
        2   -1    0    0  501    0  0.00000000000E+00  0.00000000000E+00  0.16514942240E+04  0.16514942240E+04  0.25500000920E-02 0.  1.
       -2   -1    0    0    0  501  0.00000000000E+00  0.00000000000E+00 -0.94787618142E+03  0.94787618142E+03  0.25500000920E-02 0. -1.
    10030    2    1    2    0    0  0.00000000000E+00  0.00000000000E+00  0.70361804258E+03  0.25993704054E+04  0.25023285465E+04 0.  0.
        2    1    3    3  502    0 -0.81641031671E+03  0.24020101766E+03  0.13045411565E+04  0.15575782366E+04  0.25500000920E-02 0.  1.
       -2    1    3    3    0  502  0.81641031671E+03 -0.24020101766E+03 -0.60092311394E+03  0.10417921688E+04  0.25500000920E-02 0. -1.
</event>
<event>
 5   0  0.8579923E-06  0.2480726E+04  0.7818609E-02  0.8409884E-01
        2   -1    0    0  501    0  0.00000000000E+00  0.00000000000E+00  0.19205036628E+04  0.19205036628E+04  0.25500000920E-02 0. -1.
       -2   -1    0    0    0  501  0.00000000000E+00  0.00000000000E+00 -0.80109207117E+03  0.80109207117E+03  0.25500000920E-02 0.  1.
    10030    2    1    2    0    0  0.00000000000E+00  0.00000000000E+00  0.11194115916E+04  0.27215957340E+04  0.24807259074E+04 0.  0.
        1    1    3    3  502    0 -0.10186101711E+04 -0.24383641151E+02 -0.21632153631E+03  0.10416123318E+04  0.50400001928E-02 0.  1.
       -1    1    3    3    0  502  0.10186101711E+04  0.24383641151E+02  0.13357331279E+04  0.16799834022E+04  0.50400001928E-02 0. -1.
</event>
<event>
 5   0  0.3481387E-06  0.2511557E+04  0.7818609E-02  0.8398880E-01
        1   -1    0    0  501    0  0.00000000000E+00  0.00000000000E+00  0.20759011629E+04  0.20759011629E+04  0.50400001928E-02 0. -1.
       -1   -1    0    0    0  501  0.00000000000E+00  0.00000000000E+00 -0.75965998667E+03  0.75965998669E+03  0.50400001928E-02 0.  1.
    10030    2    1    2    0    0  0.00000000000E+00  0.00000000000E+00  0.13162411762E+04  0.28355611496E+04  0.25115565292E+04 0.  0.
        4    1    3    3  502    0 -0.58379371401E+03  0.10041023942E+04  0.11909793662E+03  0.11675712612E+04  0.12699999809E+01 0.  1.
       -4    1    3    3    0  502  0.58379371401E+03 -0.10041023942E+04  0.11971432396E+04  0.16679898884E+04  0.12699999809E+01 0. -1.
</event>
<event>
 5   0  0.8579923E-06  0.2497407E+04  0.7818609E-02  0.8403910E-01
       -2   -1    0    0    0  501  0.00000000000E+00  0.00000000000E+00  0.89844285482E+03  0.89844285482E+03  0.25500000920E-02 0. -1.
        2   -1    0    0  501    0  0.00000000000E+00  0.00000000000E+00 -0.17355142938E+04  0.17355142938E+04  0.25500000920E-02 0.  1.
    10030    2    1    2    0    0  0.00000000000E+00  0.00000000000E+00 -0.83707143895E+03  0.26339571486E+04  0.24974069886E+04 0.  0.
        1    1    3    3  502    0  0.48176244541E+02  0.27118327562E+02 -0.17342229356E+04  0.17351039002E+04  0.50400001928E-02 0.  1.
       -1    1    3    3    0  502 -0.48176244541E+02 -0.27118327562E+02  0.89715149662E+03  0.89885324839E+03  0.50400001928E-02 0. -1.
</event>
<event>
 5   0  0.3522870E-06  0.2498412E+04  0.7818609E-02  0.8403551E-01
       -1   -1    0    0    0  501  0.00000000000E+00  0.00000000000E+00  0.55624471018E+03  0.55624471020E+03  0.50400001928E-02 0. -1.
        1   -1    0    0  501    0  0.00000000000E+00  0.00000000000E+00 -0.28054489134E+04  0.28054489134E+04  0.50400001928E-02 0.  1.
    10030    2    1    2    0    0  0.00000000000E+00  0.00000000000E+00 -0.22492042032E+04  0.33616936236E+04  0.24984123901E+04 0.  0.
        2    1    3    3  502    0 -0.34541521460E+03 -0.82797578391E+03 -0.22942560199E+04  0.24634257151E+04  0.25500000920E-02 0.  1.
       -2    1    3    3    0  502  0.34541521460E+03  0.82797578391E+03  0.45051816650E+02  0.89826790848E+03  0.25500000920E-02 0. -1.
</event>
<event>
 5   0  0.8948286E-06  0.2500925E+04  0.7818609E-02  0.8402656E-01
        2   -1    0    0  501    0  0.00000000000E+00  0.00000000000E+00  0.19342108917E+04  0.19342108917E+04  0.25500000920E-02 0.  1.
       -2   -1    0    0    0  501  0.00000000000E+00  0.00000000000E+00 -0.80842108082E+03  0.80842108082E+03  0.25500000920E-02 0. -1.
    10030    2    1    2    0    0  0.00000000000E+00  0.00000000000E+00  0.11257898109E+04  0.27426319726E+04  0.25009253165E+04 0.  0.
        4    1    3    3  502    0  0.87801076581E+03 -0.14670813448E+03 -0.40017653866E+03  0.97599644293E+03  0.12699999809E+01 0. -1.
       -4    1    3    3    0  502 -0.87801076581E+03  0.14670813448E+03  0.15259663496E+04  0.17666355296E+04  0.12699999809E+01 0.  1.
</event>
<event>
 5   0  0.8354653E-06  0.2500038E+04  0.7818609E-02  0.8402972E-01
        2   -1    0    0  501    0  0.00000000000E+00  0.00000000000E+00  0.92917128673E+03  0.92917128673E+03  0.25500000920E-02 0.  1.
       -2   -1    0    0    0  501  0.00000000000E+00  0.00000000000E+00 -0.16816574755E+04  0.16816574755E+04  0.25500000920E-02 0. -1.
    10030    2    1    2    0    0  0.00000000000E+00  0.00000000000E+00 -0.75248618875E+03  0.26108287622E+04  0.25000382720E+04 0.  0.
        3    1    3    3  502    0  0.87315657053E+03  0.14333444591E+03 -0.12983214615E+04  0.15711733793E+04  0.10100000352E+00 0. -1.
       -3    1    3    3    0  502 -0.87315657053E+03 -0.14333444591E+03  0.54583527278E+03  0.10396553829E+04  0.10100000352E+00 0.  1.
</event>
<event>
 5   0  0.3522870E-06  0.2503745E+04  0.7818609E-02  0.8401653E-01
       -1   -1    0    0    0  501  0.00000000000E+00  0.00000000000E+00  0.90783618914E+03  0.90783618916E+03  0.50400001928E-02 0.  1.
        1   -1    0    0  501    0  0.00000000000E+00  0.00000000000E+00 -0.17262853040E+04  0.17262853040E+04  0.50400001928E-02 0. -1.
    10030    2    1    2    0    0  0.00000000000E+00  0.00000000000E+00 -0.81844911484E+03  0.26341214931E+04  0.25037446130E+04 0.  0.
        2    1    3    3  502    0  0.11634978330E+04 -0.35433110362E+03 -0.72115398696E+03  0.14139804848E+04  0.25500000920E-02 0. -1.
       -2    1    3    3    0  502 -0.11634978330E+04  0.35433110362E+03 -0.97295127880E+02  0.12201410084E+04  0.25500000920E-02 0.  1.
</event>
<event>
 5   0  0.3481387E-06  0.2518042E+04  0.7818609E-02  0.8396586E-01
        1   -1    0    0  501    0  0.00000000000E+00  0.00000000000E+00  0.23875833673E+04  0.23875833673E+04  0.50400001928E-02 0. -1.
       -1   -1    0    0    0  501  0.00000000000E+00  0.00000000000E+00 -0.66390707292E+03  0.66390707293E+03  0.50400001928E-02 0.  1.
    10030    2    1    2    0    0  0.00000000000E+00  0.00000000000E+00  0.17236762944E+04  0.30514904403E+04  0.25180416873E+04 0.  0.
        4    1    3    3  502    0  0.99362343433E+03 -0.56258018201E+03  0.21904546702E+03  0.11626549445E+04  0.12699999809E+01 0.  1.
       -4    1    3    3    0  502 -0.99362343433E+03  0.56258018201E+03  0.15046308274E+04  0.18888354958E+04  0.12699999809E+01 0. -1.
</event>
<event>
 5   0  0.3484857E-06  0.2507002E+04  0.7818609E-02  0.8400495E-01
        1   -1    0    0  501    0  0.00000000000E+00  0.00000000000E+00  0.12689844717E+04  0.12689844717E+04  0.50400001928E-02 0.  1.
       -1   -1    0    0    0  501  0.00000000000E+00  0.00000000000E+00 -0.12382068111E+04  0.12382068111E+04  0.50400001928E-02 0. -1.
    10030    2    1    2    0    0  0.00000000000E+00  0.00000000000E+00  0.30777660626E+02  0.25071912829E+04  0.25070023663E+04 0.  0.
        3    1    3    3  502    0 -0.99447629269E+03 -0.45049762965E+03  0.63133620380E+03  0.12611568592E+04  0.10100000352E+00 0. -1.
       -3    1    3    3    0  502  0.99447629269E+03  0.45049762965E+03 -0.60055854317E+03  0.12460344237E+04  0.10100000352E+00 0.  1.
</event>
<event>
 5   0  0.3484857E-06  0.2492837E+04  0.7818609E-02  0.8405542E-01
        1   -1    0    0  501    0  0.00000000000E+00  0.00000000000E+00  0.11905931069E+04  0.11905931069E+04  0.50400001928E-02 0.  1.
       -1   -1    0    0    0  501  0.00000000000E+00  0.00000000000E+00 -0.13048609596E+04  0.13048609596E+04  0.50400001928E-02 0. -1.
    10030    2    1    2    0    0  0.00000000000E+00  0.00000000000E+00 -0.11426785274E+03  0.24954540665E+04  0.24928365080E+04 0.  0.
        3    1    3    3  502    0 -0.10474062210E+04  0.64932143694E+03  0.12982495363E+03  0.12391661104E+04  0.10100000352E+00 0. -1.
       -3    1    3    3    0  502  0.10474062210E+04 -0.64932143694E+03 -0.24409280638E+03  0.12562879561E+04  0.10100000352E+00 0.  1.
</event>
<event>
 5   0  0.8579923E-06  0.2668253E+04  0.7818609E-02  0.8345380E-01
        2   -1    0    0  501    0  0.00000000000E+00  0.00000000000E+00  0.11707336313E+04  0.11707336313E+04  0.25500000920E-02 0. -1.
       -2   -1    0    0    0  501  0.00000000000E+00  0.00000000000E+00 -0.15203230211E+04  0.15203230211E+04  0.25500000920E-02 0.  1.
    10030    2    1    2    0    0  0.00000000000E+00  0.00000000000E+00 -0.34958938986E+03  0.26910566524E+04  0.26682528300E+04 0.  0.
        1    1    3    3  502    0 -0.76916130778E+03 -0.10654862546E+04  0.57440956520E+02  0.13153590915E+04  0.50400001928E-02 0. -1.
       -1    1    3    3    0  502  0.76916130778E+03  0.10654862546E+04 -0.40703034638E+03  0.13756975609E+04  0.50400001928E-02 0.  1.
</event>
<event>
 5   0  0.8407986E-06  0.2530247E+04  0.7818609E-02  0.8392289E-01
       -2   -1    0    0    0  501  0.00000000000E+00  0.00000000000E+00  0.92533810717E+03  0.92533810717E+03  0.25500000920E-02 0. -1.
        2   -1    0    0  501    0  0.00000000000E+00  0.00000000000E+00 -0.17296779535E+04  0.17296779535E+04  0.25500000920E-02 0.  1.
    10030    2    1    2    0    0  0.00000000000E+00  0.00000000000E+00 -0.80433984632E+03  0.26550160607E+04  0.25302465678E+04 0.  0.
        5    1    3    3  502    0 -0.18292824507E+03 -0.29975737289E+03  0.87316310190E+03  0.94114457868E+03  0.46999998093E+01 0. -1.
       -5    1    3    3    0  502  0.18292824507E+03  0.29975737289E+03 -0.16775029482E+04  0.17138714820E+04  0.46999998093E+01 0.  1.
</event>
<event>
 5   0  0.8056723E-06  0.2497615E+04  0.7818609E-02  0.8403836E-01
       -2   -1    0    0    0  501  0.00000000000E+00  0.00000000000E+00  0.62578631058E+03  0.62578631059E+03  0.25500000920E-02 0.  1.
        2   -1    0    0  501    0  0.00000000000E+00  0.00000000000E+00 -0.24920965136E+04  0.24920965136E+04  0.25500000920E-02 0. -1.
    10030    2    1    2    0    0  0.00000000000E+00  0.00000000000E+00 -0.18663102030E+04  0.31178828242E+04  0.24976147684E+04 0.  0.
        2    1    3    3  502    0 -0.46076775031E+02 -0.10638826484E+04 -0.11880735156E+03  0.10714870720E+04  0.25500000920E-02 0.  1.
       -2    1    3    3    0  502  0.46076775031E+02  0.10638826484E+04 -0.17475028514E+04  0.20463957522E+04  0.25500000920E-02 0. -1.
</event>
<event>
 5   0  0.3424193E-06  0.2499470E+04  0.7818609E-02  0.8403175E-01
       -1   -1    0    0    0  501  0.00000000000E+00  0.00000000000E+00  0.11094592649E+04  0.11094592649E+04  0.50400001928E-02 0. -1.
        1   -1    0    0  501    0  0.00000000000E+00  0.00000000000E+00 -0.14077462388E+04  0.14077462388E+04  0.50400001928E-02 0.  1.
    10030    2    1    2    0    0  0.00000000000E+00  0.00000000000E+00 -0.29828697389E+03  0.25172055037E+04  0.24994696296E+04 0.  0.
        1    1    3    3  502    0 -0.49470793255E+03 -0.26955047827E+03 -0.12726056144E+04  0.13917321757E+04  0.50400001928E-02 0.  1.
       -1    1    3    3    0  502  0.49470793255E+03  0.26955047827E+03  0.97431864055E+03  0.11254733281E+04  0.50400001928E-02 0. -1.
</event>
<event>
 5   0  0.8056723E-06  0.2478541E+04  0.7818609E-02  0.8410670E-01
        2   -1    0    0  501    0  0.00000000000E+00  0.00000000000E+00  0.13880541054E+04  0.13880541054E+04  0.25500000920E-02 0.  1.
       -2   -1    0    0    0  501  0.00000000000E+00  0.00000000000E+00 -0.11064349136E+04  0.11064349136E+04  0.25500000920E-02 0. -1.
    10030    2    1    2    0    0  0.00000000000E+00  0.00000000000E+00  0.28161919177E+03  0.24944890190E+04  0.24785411226E+04 0.  0.
        2    1    3    3  502    0  0.34100689535E+03  0.69386359555E+03 -0.83395685964E+03  0.11371967445E+04  0.25500000920E-02 0. -1.
       -2    1    3    3    0  502 -0.34100689535E+03 -0.69386359555E+03  0.11155760514E+04  0.13572922745E+04  0.25500000920E-02 0.  1.
</event>
<event>
 5   0  0.3424193E-06  0.2511810E+04  0.7818609E-02  0.8398790E-01
       -1   -1    0    0    0  501  0.00000000000E+00  0.00000000000E+00  0.10258213879E+04  0.10258213879E+04  0.50400001928E-02 0. -1.
        1   -1    0    0  501    0  0.00000000000E+00  0.00000000000E+00 -0.15375939893E+04  0.15375939893E+04  0.50400001928E-02 0.  1.
    10030    2    1    2    0    0  0.00000000000E+00  0.00000000000E+00 -0.51177260137E+03  0.25634153771E+04  0.25118095470E+04 0.  0.
        1    1    3    3  502    0 -0.97724506435E+03  0.36442403904E+03  0.45811915525E+03  0.11391601979E+04  0.50400001928E-02 0. -1.
       -1    1    3    3    0  502  0.97724506435E+03 -0.36442403904E+03 -0.96989175662E+03  0.14242551793E+04  0.50400001928E-02 0.  1.
</event>
<event>
 5   0  0.3642184E-06  0.2501426E+04  0.7818609E-02  0.8402478E-01
        1   -1    0    0  501    0  0.00000000000E+00  0.00000000000E+00  0.16993016981E+04  0.16993016981E+04  0.50400001928E-02 0.  1.
       -1   -1    0    0    0  501  0.00000000000E+00  0.00000000000E+00 -0.92054440254E+03  0.92054440255E+03  0.50400001928E-02 0. -1.
    10030    2    1    2    0    0  0.00000000000E+00  0.00000000000E+00  0.77875729555E+03  0.26198461006E+04  0.25014257266E+04 0.  0.
        5    1    3    3  502    0  0.79478049308E+03  0.92395789333E+03  0.68354237139E+03  0.13973641202E+04  0.46999998093E+01 0.  1.
       -5    1    3    3    0  502 -0.79478049308E+03 -0.92395789333E+03  0.95214924161E+02  0.12224819805E+04  0.46999998093E+01 0. -1.
</event>
<event>
 5   0  0.8948286E-06  0.2495872E+04  0.7818609E-02  0.8404458E-01
       -2   -1    0    0    0  501  0.00000000000E+00  0.00000000000E+00  0.89416647019E+03  0.89416647020E+03  0.25500000920E-02 0.  1.
        2   -1    0    0  501    0  0.00000000000E+00  0.00000000000E+00 -0.17416718715E+04  0.17416718715E+04  0.25500000920E-02 0. -1.
    10030    2    1    2    0    0  0.00000000000E+00  0.00000000000E+00 -0.84750540131E+03  0.26358383417E+04  0.24958722640E+04 0.  0.
        4    1    3    3  502    0  0.99956199736E+03  0.60435050262E+03  0.40176527684E+02  0.11687512494E+04  0.12699999809E+01 0.  1.
       -4    1    3    3    0  502 -0.99956199736E+03 -0.60435050262E+03 -0.88768192900E+03  0.14670870924E+04  0.12699999809E+01 0. -1.
</event>
<event>
 5   0  0.3484857E-06  0.2385924E+04  0.7818609E-02  0.8444792E-01
        1   -1    0    0  501    0  0.00000000000E+00  0.00000000000E+00  0.14524674188E+04  0.14524674188E+04  0.50400001928E-02 0. -1.
       -1   -1    0    0    0  501  0.00000000000E+00  0.00000000000E+00 -0.97982084994E+03  0.97982084996E+03  0.50400001928E-02 0.  1.
    10030    2    1    2    0    0  0.00000000000E+00  0.00000000000E+00  0.47264656889E+03  0.24322882688E+04  0.23859236039E+04 0.  0.
        3    1    3    3  502    0 -0.30265311887E+03  0.88627776286E+03 -0.51700267927E+03  0.10697564975E+04  0.10100000352E+00 0.  1.
       -3    1    3    3    0  502  0.30265311887E+03 -0.88627776286E+03  0.98964924817E+03  0.13625317713E+04  0.10100000352E+00 0. -1.
</event>
<event>
 5   0  0.2901250E-06  0.2507796E+04  0.7818609E-02  0.8400213E-01
       -3   -1    0    0    0  501  0.00000000000E+00  0.00000000000E+00  0.14255420609E+04  0.14255420645E+04  0.10100000352E+00 0.  1.
        3   -1    0    0  501    0  0.00000000000E+00  0.00000000000E+00 -0.11029211152E+04  0.11029211198E+04  0.10100000352E+00 0. -1.
    10030    2    1    2    0    0  0.00000000000E+00  0.00000000000E+00  0.32262094567E+03  0.25284631843E+04  0.25077962038E+04 0.  0.
        1    1    3    3  502    0 -0.27193316175E+03 -0.15637546635E+03  0.13853415355E+04  0.14204126516E+04  0.50400001928E-02 0.  1.
       -1    1    3    3    0  502  0.27193316175E+03  0.15637546635E+03 -0.10627205898E+04  0.11080505327E+04  0.50400001928E-02 0. -1.
</event>
<event>
 5   0  0.3424193E-06  0.2496156E+04  0.7818609E-02  0.8404356E-01
        1   -1    0    0  501    0  0.00000000000E+00  0.00000000000E+00  0.11206839123E+04  0.11206839124E+04  0.50400001928E-02 0.  1.
       -1   -1    0    0    0  501  0.00000000000E+00  0.00000000000E+00 -0.13899533953E+04  0.13899533953E+04  0.50400001928E-02 0. -1.
    10030    2    1    2    0    0  0.00000000000E+00  0.00000000000E+00 -0.26926948296E+03  0.25106373077E+04  0.24961557716E+04 0.  0.
        1    1    3    3  502    0  0.73327442105E+02  0.11768170102E+04  0.27691292089E+03  0.12111795717E+04  0.50400001928E-02 0.  1.
       -1    1    3    3    0  502 -0.73327442105E+02 -0.11768170102E+04 -0.54618240385E+03  0.12994577359E+04  0.50400001928E-02 0. -1.
</event>
<event>
 5   0  0.3522870E-06  0.2505408E+04  0.7818609E-02  0.8401061E-01
       -1   -1    0    0    0  501  0.00000000000E+00  0.00000000000E+00  0.80115099975E+03  0.80115099977E+03  0.50400001928E-02 0.  1.
        1   -1    0    0  501    0  0.00000000000E+00  0.00000000000E+00 -0.19587657656E+04  0.19587657656E+04  0.50400001928E-02 0. -1.
    10030    2    1    2    0    0  0.00000000000E+00  0.00000000000E+00 -0.11576147658E+04  0.27599167654E+04  0.25054078721E+04 0.  0.
        2    1    3    3  502    0 -0.15257068043E+03  0.72493670862E+03  0.53398645376E+03  0.91321003982E+03  0.25500000920E-02 0.  1.
       -2    1    3    3    0  502  0.15257068043E+03 -0.72493670862E+03 -0.16916012196E+04  0.18467067255E+04  0.25500000920E-02 0. -1.
</event>
<event>
 5   0  0.3481387E-06  0.2497515E+04  0.7818609E-02  0.8403871E-01
        1   -1    0    0  501    0  0.00000000000E+00  0.00000000000E+00  0.18549931873E+04  0.18549931873E+04  0.50400001928E-02 0.  1.
       -1   -1    0    0    0  501  0.00000000000E+00  0.00000000000E+00 -0.84064770724E+03  0.84064770726E+03  0.50400001928E-02 0. -1.
    10030    2    1    2    0    0  0.00000000000E+00  0.00000000000E+00  0.10143454800E+04  0.26956408945E+04  0.24975153812E+04 0.  0.
        4    1    3    3  502    0 -0.55143348117E+03  0.10842591038E+04  0.20247016224E+03  0.12331636014E+04  0.12699999809E+01 0. -1.
       -4    1    3    3    0  502  0.55143348117E+03 -0.10842591038E+04  0.81187531780E+03  0.14624772931E+04  0.12699999809E+01 0.  1.
</event>
<event>
 5   0  0.3642184E-06  0.2497684E+04  0.7818609E-02  0.8403811E-01
       -1   -1    0    0    0  501  0.00000000000E+00  0.00000000000E+00  0.10476909742E+04  0.10476909743E+04  0.50400001928E-02 0.  1.
        1   -1    0    0  501    0  0.00000000000E+00  0.00000000000E+00 -0.14886125451E+04  0.14886125451E+04  0.50400001928E-02 0. -1.
    10030    2    1    2    0    0  0.00000000000E+00  0.00000000000E+00 -0.44092157084E+03  0.25363035194E+04  0.24976836691E+04 0.  0.
        5    1    3    3  502    0  0.79984351609E+03  0.78589414973E+03  0.33777067164E+03  0.11711064774E+04  0.46999998093E+01 0.  1.
       -5    1    3    3    0  502 -0.79984351609E+03 -0.78589414973E+03 -0.77869224248E+03  0.13651970419E+04  0.46999998093E+01 0. -1.
</event>
<event>
 5   0  0.8579923E-06  0.2494387E+04  0.7818609E-02  0.8404988E-01
        2   -1    0    0  501    0  0.00000000000E+00  0.00000000000E+00  0.18165680612E+04  0.18165680612E+04  0.25500000920E-02 0.  1.
       -2   -1    0    0    0  501  0.00000000000E+00  0.00000000000E+00 -0.85628021249E+03  0.85628021249E+03  0.25500000920E-02 0. -1.
    10030    2    1    2    0    0  0.00000000000E+00  0.00000000000E+00  0.96028784872E+03  0.26728482737E+04  0.24943867266E+04 0.  0.
        1    1    3    3  502    0 -0.35176384794E+03  0.10033738579E+04  0.11787013510E+04  0.15873984308E+04  0.50400001928E-02 0.  1.
       -1    1    3    3    0  502  0.35176384794E+03 -0.10033738579E+04 -0.21841350229E+03  0.10854498429E+04  0.50400001928E-02 0. -1.
</event>
<event>
 5   0  0.3522870E-06  0.2497821E+04  0.7818609E-02  0.8403762E-01
       -1   -1    0    0    0  501  0.00000000000E+00  0.00000000000E+00  0.28991883000E+04  0.28991883000E+04  0.50400001928E-02 0.  1.
        1   -1    0    0  501    0  0.00000000000E+00  0.00000000000E+00 -0.53800488132E+03  0.53800488135E+03  0.50400001928E-02 0. -1.
    10030    2    1    2    0    0  0.00000000000E+00  0.00000000000E+00  0.23611834187E+04  0.34371931814E+04  0.24978210163E+04 0.  0.
        2    1    3    3  502    0  0.11258236655E+04 -0.22828421835E+03  0.18549883973E+04  0.21818740945E+04  0.25500000920E-02 0.  1.
       -2    1    3    3    0  502 -0.11258236655E+04  0.22828421835E+03  0.50619502140E+03  0.12553190869E+04  0.25500000920E-02 0. -1.
</event>
<event>
 5   0  0.8354653E-06  0.2516282E+04  0.7818609E-02  0.8397208E-01
        2   -1    0    0  501    0  0.00000000000E+00  0.00000000000E+00  0.19249451552E+04  0.19249451552E+04  0.25500000920E-02 0. -1.
       -2   -1    0    0    0  501  0.00000000000E+00  0.00000000000E+00 -0.82231908477E+03  0.82231908477E+03  0.25500000920E-02 0.  1.
    10030    2    1    2    0    0  0.00000000000E+00  0.00000000000E+00  0.11026260704E+04  0.27472642399E+04  0.25162822880E+04 0.  0.
        3    1    3    3  502    0  0.79710471459E+02  0.12032809297E+03 -0.81325003842E+03  0.82595898471E+03  0.10100000352E+00 0.  1.
       -3    1    3    3    0  502 -0.79710471459E+02 -0.12032809297E+03  0.19158761088E+04  0.19213052552E+04  0.10100000352E+00 0. -1.
</event>
<event>
 5   0  0.3481387E-06  0.2550701E+04  0.7818609E-02  0.8385143E-01
       -1   -1    0    0    0  501  0.00000000000E+00  0.00000000000E+00  0.17599565403E+04  0.17599565403E+04  0.50400001928E-02 0.  1.
        1   -1    0    0  501    0  0.00000000000E+00  0.00000000000E+00 -0.92418113017E+03  0.92418113018E+03  0.50400001928E-02 0. -1.
    10030    2    1    2    0    0  0.00000000000E+00  0.00000000000E+00  0.83577541013E+03  0.26841376705E+04  0.25507007857E+04 0.  0.
        4    1    3    3  502    0  0.10414547039E+04 -0.14230238020E+03  0.11779170451E+04  0.15787235495E+04  0.12699999809E+01 0.  1.
       -4    1    3    3    0  502 -0.10414547039E+04  0.14230238020E+03 -0.34214163495E+03  0.11054141210E+04  0.12699999809E+01 0. -1.
</event>
<event>
 5   0  0.8579923E-06  0.2501618E+04  0.7818609E-02  0.8402409E-01
       -2   -1    0    0    0  501  0.00000000000E+00  0.00000000000E+00  0.89022962822E+03  0.89022962822E+03  0.25500000920E-02 0. -1.
        2   -1    0    0  501    0  0.00000000000E+00  0.00000000000E+00 -0.17574381799E+04  0.17574381799E+04  0.25500000920E-02 0.  1.
    10030    2    1    2    0    0  0.00000000000E+00  0.00000000000E+00 -0.86720855167E+03  0.26476678081E+04  0.25016183062E+04 0.  0.
        1    1    3    3  502    0  0.24186479190E+03 -0.14703474264E+03  0.85588805016E+03  0.90147775765E+03  0.50400001928E-02 0. -1.
       -1    1    3    3    0  502 -0.24186479190E+03  0.14703474264E+03 -0.17230966018E+04  0.17461900505E+04  0.50400001928E-02 0.  1.
</event>
<event>
 5   0  0.3484857E-06  0.2517043E+04  0.7818609E-02  0.8396939E-01
       -1   -1    0    0    0  501  0.00000000000E+00  0.00000000000E+00  0.12012923037E+04  0.12012923038E+04  0.50400001928E-02 0.  1.
        1   -1    0    0  501    0  0.00000000000E+00  0.00000000000E+00 -0.13184773388E+04  0.13184773388E+04  0.50400001928E-02 0. -1.
    10030    2    1    2    0    0  0.00000000000E+00  0.00000000000E+00 -0.11718503501E+03  0.25197696425E+04  0.25170432493E+04 0.  0.
        3    1    3    3  502    0  0.66643987871E+03 -0.24399747954E+03 -0.10990448909E+04  0.13082723587E+04  0.10100000352E+00 0. -1.
       -3    1    3    3    0  502 -0.66643987871E+03  0.24399747954E+03  0.98185985592E+03  0.12114972839E+04  0.10100000352E+00 0.  1.
</event>
<event>
 5   0  0.8948286E-06  0.2505246E+04  0.7818609E-02  0.8401119E-01
       -2   -1    0    0    0  501  0.00000000000E+00  0.00000000000E+00  0.98258888390E+03  0.98258888390E+03  0.25500000920E-02 0. -1.
        2   -1    0    0  501    0  0.00000000000E+00  0.00000000000E+00 -0.15968676032E+04  0.15968676032E+04  0.25500000920E-02 0.  1.
    10030    2    1    2    0    0  0.00000000000E+00  0.00000000000E+00 -0.61427871927E+03  0.25794564871E+04  0.25052459807E+04 0.  0.
        4    1    3    3  502    0 -0.20682622149E+03 -0.88571589827E+03  0.57964739733E+03  0.10785464554E+04  0.12699999809E+01 0. -1.
       -4    1    3    3    0  502  0.20682622149E+03  0.88571589827E+03 -0.11939261166E+04  0.15009100317E+04  0.12699999809E+01 0.  1.
</event>
<event>
 5   0  0.8056723E-06  0.2534623E+04  0.7818609E-02  0.8390754E-01
        2   -1    0    0  501    0  0.00000000000E+00  0.00000000000E+00  0.14066819985E+04  0.14066819985E+04  0.25500000920E-02 0. -1.
       -2   -1    0    0    0  501  0.00000000000E+00  0.00000000000E+00 -0.11417494720E+04  0.11417494720E+04  0.25500000920E-02 0.  1.
    10030    2    1    2    0    0  0.00000000000E+00  0.00000000000E+00  0.26493252646E+03  0.25484314705E+04  0.25346229930E+04 0.  0.
        2    1    3    3  502    0 -0.41498337950E+03 -0.11258831055E+04  0.54243074975E+03  0.13168352557E+04  0.25500000920E-02 0. -1.
       -2    1    3    3    0  502  0.41498337950E+03  0.11258831055E+04 -0.27749822329E+03  0.12315962148E+04  0.25500000920E-02 0.  1.
</event>
<event>
 5   0  0.8407986E-06  0.2512900E+04  0.7818609E-02  0.8398404E-01
       -2   -1    0    0    0  501  0.00000000000E+00  0.00000000000E+00  0.25400750883E+04  0.25400750883E+04  0.25500000920E-02 0. -1.
        2   -1    0    0  501    0  0.00000000000E+00  0.00000000000E+00 -0.62150400695E+03  0.62150400695E+03  0.25500000920E-02 0.  1.
    10030    2    1    2    0    0  0.00000000000E+00  0.00000000000E+00  0.19185710813E+04  0.31615790952E+04  0.25129001933E+04 0.  0.
        5    1    3    3  502    0  0.24466041151E+03 -0.98128132667E+03  0.21255817356E+02  0.10115560582E+04  0.46999998093E+01 0.  1.
       -5    1    3    3    0  502 -0.24466041151E+03  0.98128132667E+03  0.18973152640E+04  0.21500230371E+04  0.46999998093E+01 0. -1.
</event>
<event>
 5   0  0.8056723E-06  0.2498016E+04  0.7818609E-02  0.8403693E-01
       -2   -1    0    0    0  501  0.00000000000E+00  0.00000000000E+00  0.98155375054E+03  0.98155375055E+03  0.25500000920E-02 0.  1.
        2   -1    0    0  501    0  0.00000000000E+00  0.00000000000E+00 -0.15893383551E+04  0.15893383551E+04  0.25500000920E-02 0. -1.
    10030    2    1    2    0    0  0.00000000000E+00  0.00000000000E+00 -0.60778460454E+03  0.25708921056E+04  0.24980160314E+04 0.  0.
        2    1    3    3  502    0  0.15680617185E+03 -0.67109554415E+03 -0.13759452382E+04  0.15388900882E+04  0.25500000920E-02 0. -1.
       -2    1    3    3    0  502 -0.15680617185E+03  0.67109554415E+03  0.76816063367E+03  0.10320020175E+04  0.25500000920E-02 0.  1.
</event>
<event>
 5   0  0.8354653E-06  0.2490178E+04  0.7818609E-02  0.8406493E-01
        2   -1    0    0  501    0  0.00000000000E+00  0.00000000000E+00  0.12919331308E+04  0.12919331308E+04  0.25500000920E-02 0.  1.
       -2   -1    0    0    0  501  0.00000000000E+00  0.00000000000E+00 -0.11999430847E+04  0.11999430847E+04  0.25500000920E-02 0. -1.
    10030    2    1    2    0    0  0.00000000000E+00  0.00000000000E+00  0.91990046088E+02  0.24918762155E+04  0.24901776854E+04 0.  0.
        3    1    3    3  502    0  0.85485351551E+03  0.89234100204E+03 -0.10642176709E+03  0.12403114930E+04  0.10100000352E+00 0.  1.
       -3    1    3    3    0  502 -0.85485351551E+03 -0.89234100204E+03  0.19841181318E+03  0.12515647225E+04  0.10100000352E+00 0. -1.
</event>
<event>
 5   0  0.8354653E-06  0.2501535E+04  0.7818609E-02  0.8402439E-01
        2   -1    0    0  501    0  0.00000000000E+00  0.00000000000E+00  0.17048001993E+04  0.17048001993E+04  0.25500000920E-02 0.  1.
       -2   -1    0    0    0  501  0.00000000000E+00  0.00000000000E+00 -0.91765545240E+03  0.91765545241E+03  0.25500000920E-02 0. -1.
    10030    2    1    2    0    0  0.00000000000E+00  0.00000000000E+00  0.78714474689E+03  0.26224556517E+04  0.25015348873E+04 0.  0.
        3    1    3    3  502    0  0.10850275632E+04  0.20529030151E+03 -0.22217846227E+03  0.11264067649E+04  0.10100000352E+00 0. -1.
       -3    1    3    3    0  502 -0.10850275632E+04 -0.20529030151E+03  0.10093232092E+04  0.14960488868E+04  0.10100000352E+00 0.  1.
</event>
<event>
 5   0  0.8056723E-06  0.2515890E+04  0.7818609E-02  0.8397347E-01
       -2   -1    0    0    0  501  0.00000000000E+00  0.00000000000E+00  0.67496345111E+03  0.67496345112E+03  0.25500000920E-02 0. -1.
        2   -1    0    0  501    0  0.00000000000E+00  0.00000000000E+00 -0.23444603239E+04  0.23444603239E+04  0.25500000920E-02 0.  1.
    10030    2    1    2    0    0  0.00000000000E+00  0.00000000000E+00 -0.16694968727E+04  0.30194237750E+04  0.25158895295E+04 0.  0.
        2    1    3    3  502    0  0.77748843857E+03  0.95700739631E+03 -0.53573825388E+03  0.13443834666E+04  0.25500000920E-02 0. -1.
       -2    1    3    3    0  502 -0.77748843857E+03 -0.95700739631E+03 -0.11337586189E+04  0.16750403083E+04  0.25500000920E-02 0.  1.
</event>
<event>
 5   0  0.2901250E-06  0.2507483E+04  0.7818609E-02  0.8400325E-01
        3   -1    0    0  501    0  0.00000000000E+00  0.00000000000E+00  0.10846891861E+04  0.10846891908E+04  0.10100000352E+00 0. -1.
       -3   -1    0    0    0  501  0.00000000000E+00  0.00000000000E+00 -0.14491411276E+04  0.14491411311E+04  0.10100000352E+00 0.  1.
    10030    2    1    2    0    0  0.00000000000E+00  0.00000000000E+00 -0.36445194154E+03  0.25338303219E+04  0.25074829775E+04 0.  0.
        5    1    3    3  502    0  0.29911125224E+03  0.11929643665E+04  0.63670410497E+02  0.12315468047E+04  0.46999998093E+01 0.  1.
       -5    1    3    3    0  502 -0.29911125224E+03 -0.11929643665E+04 -0.42812235204E+03  0.13022835172E+04  0.46999998093E+01 0. -1.
</event>
<event>
 5   0  0.8407986E-06  0.2494729E+04  0.7818609E-02  0.8404866E-01
        2   -1    0    0  501    0  0.00000000000E+00  0.00000000000E+00  0.17185217163E+04  0.17185217163E+04  0.25500000920E-02 0. -1.
       -2   -1    0    0    0  501  0.00000000000E+00  0.00000000000E+00 -0.90538192352E+03  0.90538192353E+03  0.25500000920E-02 0.  1.
    10030    2    1    2    0    0  0.00000000000E+00  0.00000000000E+00  0.81313979281E+03  0.26239036399E+04  0.24947292415E+04 0.  0.
        5    1    3    3  502    0  0.82339407709E+03 -0.62142723538E+03 -0.33098649728E+03  0.10833853268E+04  0.46999998093E+01 0.  1.
       -5    1    3    3    0  502 -0.82339407709E+03  0.62142723538E+03  0.11441262901E+04  0.15405183130E+04  0.46999998093E+01 0. -1.
</event>
<event>
 5   0  0.8354653E-06  0.2505986E+04  0.7818609E-02  0.8400856E-01
       -2   -1    0    0    0  501  0.00000000000E+00  0.00000000000E+00  0.69115131699E+03  0.69115131699E+03  0.25500000920E-02 0. -1.
        2   -1    0    0  501    0  0.00000000000E+00  0.00000000000E+00 -0.22715592098E+04  0.22715592098E+04  0.25500000920E-02 0.  1.
    10030    2    1    2    0    0  0.00000000000E+00  0.00000000000E+00 -0.15804078928E+04  0.29627105268E+04  0.25059857457E+04 0.  0.
        3    1    3    3  502    0 -0.26596605714E+03  0.61430113674E+02  0.65557155099E+03  0.71013074225E+03  0.10100000352E+00 0. -1.
       -3    1    3    3    0  502  0.26596605714E+03 -0.61430113674E+02 -0.22359794438E+04  0.22525797845E+04  0.10100000352E+00 0.  1.
</event>
<event>
 5   0  0.3481387E-06  0.2499507E+04  0.7818609E-02  0.8403161E-01
        1   -1    0    0  501    0  0.00000000000E+00  0.00000000000E+00  0.70778631927E+03  0.70778631928E+03  0.50400001928E-02 0.  1.
       -1   -1    0    0    0  501  0.00000000000E+00  0.00000000000E+00 -0.22067166471E+04  0.22067166471E+04  0.50400001928E-02 0. -1.
    10030    2    1    2    0    0  0.00000000000E+00  0.00000000000E+00 -0.14989303279E+04  0.29145029664E+04  0.24995070341E+04 0.  0.
        4    1    3    3  502    0 -0.14418665891E+03 -0.57993421994E+03 -0.20293237465E+04  0.21154833900E+04  0.12699999809E+01 0. -1.
       -4    1    3    3    0  502  0.14418665891E+03  0.57993421994E+03  0.53039341868E+03  0.79901957644E+03  0.12699999809E+01 0.  1.
</event>
<event>
 5   0  0.8579923E-06  0.2458000E+04  0.7818609E-02  0.8418103E-01
       -2   -1    0    0    0  501  0.00000000000E+00  0.00000000000E+00  0.11223008347E+04  0.11223008347E+04  0.25500000920E-02 0. -1.
        2   -1    0    0  501    0  0.00000000000E+00  0.00000000000E+00 -0.13458428493E+04  0.13458428493E+04  0.25500000920E-02 0.  1.
    10030    2    1    2    0    0  0.00000000000E+00  0.00000000000E+00 -0.22354201463E+03  0.24681436839E+04  0.24579996364E+04 0.  0.
        1    1    3    3  502    0 -0.11441376937E+04 -0.30059675720E+03  0.22281741384E+03  0.12037678648E+04  0.50400001928E-02 0. -1.
       -1    1    3    3    0  502  0.11441376937E+04  0.30059675720E+03 -0.44635942847E+03  0.12643758191E+04  0.50400001928E-02 0.  1.
</event>
<event>
 5   0  0.8056723E-06  0.2532456E+04  0.7818609E-02  0.8391513E-01
       -2   -1    0    0    0  501  0.00000000000E+00  0.00000000000E+00  0.10470516132E+04  0.10470516132E+04  0.25500000920E-02 0.  1.
        2   -1    0    0  501    0  0.00000000000E+00  0.00000000000E+00 -0.15312834059E+04  0.15312834060E+04  0.25500000920E-02 0. -1.
    10030    2    1    2    0    0  0.00000000000E+00  0.00000000000E+00 -0.48423179276E+03  0.25783350191E+04  0.25324555360E+04 0.  0.
        2    1    3    3  502    0 -0.94529098726E+03 -0.43515999786E+03 -0.97656794110E+03  0.14271034363E+04  0.25500000920E-02 0. -1.
       -2    1    3    3    0  502  0.94529098726E+03  0.43515999786E+03  0.49233614834E+03  0.11512315828E+04  0.25500000920E-02 0.  1.
</event>
<event>
 5   0  0.3522870E-06  0.2503524E+04  0.7818609E-02  0.8401731E-01
        1   -1    0    0  501    0  0.00000000000E+00  0.00000000000E+00  0.27873894937E+04  0.27873894937E+04  0.50400001928E-02 0. -1.
       -1   -1    0    0    0  501  0.00000000000E+00  0.00000000000E+00 -0.56214168345E+03  0.56214168347E+03  0.50400001928E-02 0.  1.
    10030    2    1    2    0    0  0.00000000000E+00  0.00000000000E+00  0.22252478103E+04  0.33495311772E+04  0.25035237746E+04 0.  0.
        2    1    3    3  502    0 -0.75508884071E+03  0.91776247508E+03  0.58679880874E+03  0.13254357623E+04  0.25500000920E-02 0.  1.
       -2    1    3    3    0  502  0.75508884071E+03 -0.91776247508E+03  0.16384490015E+04  0.20240954149E+04  0.25500000920E-02 0. -1.
</event>
<event>
 5   0  0.8407986E-06  0.2487858E+04  0.7818609E-02  0.8407324E-01
       -2   -1    0    0    0  501  0.00000000000E+00  0.00000000000E+00  0.72688710754E+03  0.72688710754E+03  0.25500000920E-02 0. -1.
        2   -1    0    0  501    0  0.00000000000E+00  0.00000000000E+00 -0.21287486912E+04  0.21287486912E+04  0.25500000920E-02 0.  1.
    10030    2    1    2    0    0  0.00000000000E+00  0.00000000000E+00 -0.14018615836E+04  0.28556357987E+04  0.24878584998E+04 0.  0.
        5    1    3    3  502    0  0.53034306132E+02  0.81154383689E+03 -0.17813065955E+04  0.19581857200E+04  0.46999998093E+01 0.  1.
       -5    1    3    3    0  502 -0.53034306132E+02 -0.81154383689E+03  0.37944501185E+03  0.89745007874E+03  0.46999998093E+01 0. -1.
</event>
<event>
 5   0  0.3484857E-06  0.2497241E+04  0.7818609E-02  0.8403969E-01
        1   -1    0    0  501    0  0.00000000000E+00  0.00000000000E+00  0.14836961675E+04  0.14836961675E+04  0.50400001928E-02 0.  1.
       -1   -1    0    0    0  501  0.00000000000E+00  0.00000000000E+00 -0.10507902753E+04  0.10507902753E+04  0.50400001928E-02 0. -1.
    10030    2    1    2    0    0  0.00000000000E+00  0.00000000000E+00  0.43290589219E+03  0.25344864429E+04  0.24972412814E+04 0.  0.
        3    1    3    3  502    0  0.22456977121E+02 -0.10829707242E+04 -0.41387645727E+03  0.11595790777E+04  0.10100000352E+00 0. -1.
       -3    1    3    3    0  502 -0.22456977121E+02  0.10829707242E+04  0.84678234946E+03  0.13749073652E+04  0.10100000352E+00 0.  1.
</event>
<event>
 5   0  0.3484857E-06  0.2502669E+04  0.7818609E-02  0.8402035E-01
       -1   -1    0    0    0  501  0.00000000000E+00  0.00000000000E+00  0.10836800733E+04  0.10836800733E+04  0.50400001928E-02 0. -1.
        1   -1    0    0  501    0  0.00000000000E+00  0.00000000000E+00 -0.14449267668E+04  0.14449267668E+04  0.50400001928E-02 0.  1.
    10030    2    1    2    0    0  0.00000000000E+00  0.00000000000E+00 -0.36124669351E+03  0.25286068401E+04  0.25026692507E+04 0.  0.
        3    1    3    3  502    0 -0.34141241195E+03 -0.58328007294E+03 -0.12446571418E+04  0.14163154625E+04  0.10100000352E+00 0.  1.
       -3    1    3    3    0  502  0.34141241195E+03  0.58328007294E+03  0.88341044825E+03  0.11122913777E+04  0.10100000352E+00 0. -1.
</event>
<event>
 5   0  0.3481387E-06  0.2498199E+04  0.7818609E-02  0.8403627E-01
       -1   -1    0    0    0  501  0.00000000000E+00  0.00000000000E+00  0.14538409724E+04  0.14538409724E+04  0.50400001928E-02 0.  1.
        1   -1    0    0  501    0  0.00000000000E+00  0.00000000000E+00 -0.10731915237E+04  0.10731915238E+04  0.50400001928E-02 0. -1.
    10030    2    1    2    0    0  0.00000000000E+00  0.00000000000E+00  0.38064944863E+03  0.25270324961E+04  0.24981991982E+04 0.  0.
        4    1    3    3  502    0  0.10307483248E+04 -0.31447439560E+03 -0.44855967062E+03  0.11672804485E+04  0.12699999809E+01 0. -1.
       -4    1    3    3    0  502 -0.10307483248E+04  0.31447439560E+03  0.82920911925E+03  0.13597520476E+04  0.12699999809E+01 0.  1.
</event>
<event>
 5   0  0.8948286E-06  0.2497983E+04  0.7818609E-02  0.8403705E-01
       -2   -1    0    0    0  501  0.00000000000E+00  0.00000000000E+00  0.10959168954E+04  0.10959168954E+04  0.25500000920E-02 0.  1.
        2   -1    0    0  501    0  0.00000000000E+00  0.00000000000E+00 -0.14234469514E+04  0.14234469514E+04  0.25500000920E-02 0. -1.
    10030    2    1    2    0    0  0.00000000000E+00  0.00000000000E+00 -0.32753005605E+03  0.25193638468E+04  0.24979828372E+04 0.  0.
        4    1    3    3  502    0  0.70169528140E+03  0.70628705260E+03  0.59685205163E+03  0.11607978519E+04  0.12699999809E+01 0. -1.
       -4    1    3    3    0  502 -0.70169528140E+03 -0.70628705260E+03 -0.92438210769E+03  0.13585659949E+04  0.12699999809E+01 0.  1.
</event>
<event>
 5   0  0.8056723E-06  0.2497396E+04  0.7818609E-02  0.8403914E-01
        2   -1    0    0  501    0  0.00000000000E+00  0.00000000000E+00  0.22708206995E+04  0.22708206995E+04  0.25500000920E-02 0.  1.
       -2   -1    0    0    0  501  0.00000000000E+00  0.00000000000E+00 -0.68664461751E+03  0.68664461752E+03  0.25500000920E-02 0. -1.
    10030    2    1    2    0    0  0.00000000000E+00  0.00000000000E+00  0.15841760820E+04  0.29574653170E+04  0.24973960924E+04 0.  0.
        2    1    3    3  502    0 -0.65655822408E+03  0.44139168763E+03 -0.35198787745E+03  0.86590460756E+03  0.25500000920E-02 0. -1.
       -2    1    3    3    0  502  0.65655822408E+03 -0.44139168763E+03  0.19361639594E+04  0.20915607094E+04  0.25500000920E-02 0.  1.
</event>
<event>
 5   0  0.8948286E-06  0.2499474E+04  0.7818609E-02  0.8403173E-01
        2   -1    0    0  501    0  0.00000000000E+00  0.00000000000E+00  0.20958810027E+04  0.20958810027E+04  0.25500000920E-02 0.  1.
       -2   -1    0    0    0  501  0.00000000000E+00  0.00000000000E+00 -0.74519616648E+03  0.74519616648E+03  0.25500000920E-02 0. -1.
    10030    2    1    2    0    0  0.00000000000E+00  0.00000000000E+00  0.13506848362E+04  0.28410771692E+04  0.24994739355E+04 0.  0.
        4    1    3    3  502    0 -0.25905045321E+03 -0.79669770654E+03 -0.37876600922E+03  0.91940180310E+03  0.12699999809E+01 0. -1.
       -4    1    3    3    0  502  0.25905045321E+03  0.79669770654E+03  0.17294508454E+04  0.19216753660E+04  0.12699999809E+01 0.  1.
</event>
<event>
 5   0  0.8579923E-06  0.2529530E+04  0.7818609E-02  0.8392540E-01
       -2   -1    0    0    0  501  0.00000000000E+00  0.00000000000E+00  0.83105015702E+03  0.83105015702E+03  0.25500000920E-02 0. -1.
        2   -1    0    0  501    0  0.00000000000E+00  0.00000000000E+00 -0.19248301181E+04  0.19248301181E+04  0.25500000920E-02 0.  1.
    10030    2    1    2    0    0  0.00000000000E+00  0.00000000000E+00 -0.10937799610E+04  0.27558802751E+04  0.25295298946E+04 0.  0.
        1    1    3    3  502    0  0.10959165698E+04  0.62730454716E+03 -0.46919028085E+03  0.13471019421E+04  0.50400001928E-02 0. -1.
       -1    1    3    3    0  502 -0.10959165698E+04 -0.62730454716E+03 -0.62458968019E+03  0.14087783330E+04  0.50400001928E-02 0.  1.
</event>
<event>
 5   0  0.8354653E-06  0.2489038E+04  0.7818609E-02  0.8406901E-01
       -2   -1    0    0    0  501  0.00000000000E+00  0.00000000000E+00  0.26899341474E+04  0.26899341474E+04  0.25500000920E-02 0. -1.
        2   -1    0    0  501    0  0.00000000000E+00  0.00000000000E+00 -0.57578624057E+03  0.57578624058E+03  0.25500000920E-02 0.  1.
    10030    2    1    2    0    0  0.00000000000E+00  0.00000000000E+00  0.21141479068E+04  0.32657203880E+04  0.24890376214E+04 0.  0.
        3    1    3    3  502    0 -0.11457662802E+04 -0.40394630080E+03  0.14112621390E+04  0.18621530060E+04  0.10100000352E+00 0. -1.
       -3    1    3    3    0  502  0.11457662802E+04  0.40394630080E+03  0.70288576784E+03  0.14035673819E+04  0.10100000352E+00 0.  1.
</event>
<event>
 5   0  0.3424193E-06  0.2523545E+04  0.7818609E-02  0.8394645E-01
       -1   -1    0    0    0  501  0.00000000000E+00  0.00000000000E+00  0.14125698194E+04  0.14125698194E+04  0.50400001928E-02 0. -1.
        1   -1    0    0  501    0  0.00000000000E+00  0.00000000000E+00 -0.11270736704E+04  0.11270736705E+04  0.50400001928E-02 0.  1.
    10030    2    1    2    0    0  0.00000000000E+00  0.00000000000E+00  0.28549614896E+03  0.25396434899E+04  0.25235453244E+04 0.  0.
        1    1    3    3  502    0 -0.62614208082E+03  0.27881378309E+03  0.12088828438E+04  0.13896721775E+04  0.50400001928E-02 0. -1.
       -1    1    3    3    0  502  0.62614208082E+03 -0.27881378309E+03 -0.92338669481E+03  0.11499713123E+04  0.50400001928E-02 0.  1.
</event>
<event>
 5   0  0.8056723E-06  0.2505203E+04  0.7818609E-02  0.8401134E-01
       -2   -1    0    0    0  501  0.00000000000E+00  0.00000000000E+00  0.59312340902E+03  0.59312340903E+03  0.25500000920E-02 0.  1.
        2   -1    0    0  501    0  0.00000000000E+00  0.00000000000E+00 -0.26453365962E+04  0.26453365962E+04  0.25500000920E-02 0. -1.
    10030    2    1    2    0    0  0.00000000000E+00  0.00000000000E+00 -0.20522131872E+04  0.32384600053E+04  0.25052034328E+04 0.  0.
        2    1    3    3  502    0  0.68152830027E+03  0.97310457493E+03 -0.51292566552E+03  0.12940270771E+04  0.25500000920E-02 0. -1.
       -2    1    3    3    0  502 -0.68152830027E+03 -0.97310457493E+03 -0.15392875217E+04  0.19444329282E+04  0.25500000920E-02 0.  1.
</event>
<event>
 5   0  0.3522870E-06  0.2504459E+04  0.7818609E-02  0.8401399E-01
       -1   -1    0    0    0  501  0.00000000000E+00  0.00000000000E+00  0.20075918727E+04  0.20075918727E+04  0.50400001928E-02 0. -1.
        1   -1    0    0  501    0  0.00000000000E+00  0.00000000000E+00 -0.78107443131E+03  0.78107443133E+03  0.50400001928E-02 0.  1.
    10030    2    1    2    0    0  0.00000000000E+00  0.00000000000E+00  0.12265174413E+04  0.27886663040E+04  0.25044589677E+04 0.  0.
        2    1    3    3  502    0 -0.57111163168E+03 -0.11108500672E+04  0.51415074278E+03  0.13507432598E+04  0.25500000920E-02 0.  1.
       -2    1    3    3    0  502  0.57111163168E+03  0.11108500672E+04  0.71236669856E+03  0.14379230442E+04  0.25500000920E-02 0. -1.
</event>
<event>
 5   0  0.8056723E-06  0.2488275E+04  0.7818609E-02  0.8407174E-01
        2   -1    0    0  501    0  0.00000000000E+00  0.00000000000E+00  0.11913299295E+04  0.11913299295E+04  0.25500000920E-02 0.  1.
       -2   -1    0    0    0  501  0.00000000000E+00  0.00000000000E+00 -0.12992862894E+04  0.12992862894E+04  0.25500000920E-02 0. -1.
    10030    2    1    2    0    0  0.00000000000E+00  0.00000000000E+00 -0.10795635996E+03  0.24906162189E+04  0.24882754217E+04 0.  0.
        2    1    3    3  502    0 -0.54588484299E+03 -0.10140329788E+04 -0.52519222426E+03  0.12657329957E+04  0.25500000920E-02 0. -1.
       -2    1    3    3    0  502  0.54588484299E+03  0.10140329788E+04  0.41723586430E+03  0.12248832232E+04  0.25500000920E-02 0.  1.
</event>
<event>
 5   0  0.8948286E-06  0.2493468E+04  0.7818609E-02  0.8405316E-01
        2   -1    0    0  501    0  0.00000000000E+00  0.00000000000E+00  0.21225278940E+04  0.21225278940E+04  0.25500000920E-02 0. -1.
       -2   -1    0    0    0  501  0.00000000000E+00  0.00000000000E+00 -0.73230885933E+03  0.73230885934E+03  0.25500000920E-02 0.  1.
    10030    2    1    2    0    0  0.00000000000E+00  0.00000000000E+00  0.13902190347E+04  0.28548367533E+04  0.24934682520E+04 0.  0.
        4    1    3    3  502    0  0.11866033903E+04 -0.12676681839E+03  0.28190867903E+03  0.12262020830E+04  0.12699999809E+01 0. -1.
       -4    1    3    3    0  502 -0.11866033903E+04  0.12676681839E+03  0.11083103556E+04  0.16286346703E+04  0.12699999809E+01 0.  1.
</event>
<event>
 5   0  0.3424193E-06  0.2459773E+04  0.7818609E-02  0.8417458E-01
        1   -1    0    0  501    0  0.00000000000E+00  0.00000000000E+00  0.21591395563E+04  0.21591395564E+04  0.50400001928E-02 0.  1.
       -1   -1    0    0    0  501  0.00000000000E+00  0.00000000000E+00 -0.70056629819E+03  0.70056629821E+03  0.50400001928E-02 0. -1.
    10030    2    1    2    0    0  0.00000000000E+00  0.00000000000E+00  0.14585732582E+04  0.28597058546E+04  0.24597726776E+04 0.  0.
        1    1    3    3  502    0  0.23982478595E+03  0.54547868724E+03  0.19801148587E+04  0.20678292434E+04  0.50400001928E-02 0.  1.
       -1    1    3    3    0  502 -0.23982478595E+03 -0.54547868724E+03 -0.52154160054E+03  0.79187661117E+03  0.50400001928E-02 0. -1.
</event>
<event>
 5   0  0.3484857E-06  0.2496832E+04  0.7818609E-02  0.8404115E-01
        1   -1    0    0  501    0  0.00000000000E+00  0.00000000000E+00  0.18650435802E+04  0.18650435802E+04  0.50400001928E-02 0. -1.
       -1   -1    0    0    0  501  0.00000000000E+00  0.00000000000E+00 -0.83565997912E+03  0.83565997914E+03  0.50400001928E-02 0.  1.
    10030    2    1    2    0    0  0.00000000000E+00  0.00000000000E+00  0.10293836011E+04  0.27007035594E+04  0.24968318160E+04 0.  0.
        3    1    3    3  502    0  0.66134568606E+03 -0.82814215739E+03  0.12283730189E+04  0.16223741348E+04  0.10100000352E+00 0. -1.
       -3    1    3    3    0  502 -0.66134568606E+03  0.82814215739E+03 -0.19898941784E+03  0.10783294246E+04  0.10100000352E+00 0.  1.
</event>
<event>
 5   0  0.8354653E-06  0.2532844E+04  0.7818609E-02  0.8391377E-01
        2   -1    0    0  501    0  0.00000000000E+00  0.00000000000E+00  0.18266264194E+04  0.18266264194E+04  0.25500000920E-02 0. -1.
       -2   -1    0    0    0  501  0.00000000000E+00  0.00000000000E+00 -0.87802545102E+03  0.87802545102E+03  0.25500000920E-02 0.  1.
    10030    2    1    2    0    0  0.00000000000E+00  0.00000000000E+00  0.94860096839E+03  0.27046518704E+04  0.25328438450E+04 0.  0.
        3    1    3    3  502    0  0.10265335175E+04 -0.61865089457E+03  0.91110055904E+03  0.15055245700E+04  0.10100000352E+00 0. -1.
       -3    1    3    3    0  502 -0.10265335175E+04  0.61865089457E+03  0.37500409355E+02  0.11991273005E+04  0.10100000352E+00 0.  1.
</event>
<event>
 5   0  0.3642184E-06  0.2483372E+04  0.7818609E-02  0.8408933E-01
       -1   -1    0    0    0  501  0.00000000000E+00  0.00000000000E+00  0.13431828264E+04  0.13431828265E+04  0.50400001928E-02 0.  1.
        1   -1    0    0  501    0  0.00000000000E+00  0.00000000000E+00 -0.11478587475E+04  0.11478587475E+04  0.50400001928E-02 0. -1.
    10030    2    1    2    0    0  0.00000000000E+00  0.00000000000E+00  0.19532407898E+03  0.24910415739E+04  0.24833720275E+04 0.  0.
        5    1    3    3  502    0  0.26733596340E+03  0.11171593835E+03 -0.11134661560E+04  0.11505554914E+04  0.46999998093E+01 0. -1.
       -5    1    3    3    0  502 -0.26733596340E+03 -0.11171593835E+03  0.13087902350E+04  0.13404860825E+04  0.46999998093E+01 0.  1.
</event>
<event>
 5   0  0.3481387E-06  0.2496827E+04  0.7818609E-02  0.8404117E-01
        1   -1    0    0  501    0  0.00000000000E+00  0.00000000000E+00  0.14007216542E+04  0.14007216542E+04  0.50400001928E-02 0. -1.
       -1   -1    0    0    0  501  0.00000000000E+00  0.00000000000E+00 -0.11126669995E+04  0.11126669995E+04  0.50400001928E-02 0.  1.
    10030    2    1    2    0    0  0.00000000000E+00  0.00000000000E+00  0.28805465476E+03  0.25133886537E+04  0.24968273950E+04 0.  0.
        4    1    3    3  502    0  0.37264685972E+03  0.11547960911E+04  0.43942813270E+03  0.12905496468E+04  0.12699999809E+01 0.  1.
       -4    1    3    3    0  502 -0.37264685972E+03 -0.11547960911E+04 -0.15137347794E+03  0.12228390069E+04  0.12699999809E+01 0. -1.
</event>
<event>
 5   0  0.8948286E-06  0.2510869E+04  0.7818609E-02  0.8399124E-01
        2   -1    0    0  501    0  0.00000000000E+00  0.00000000000E+00  0.17518212741E+04  0.17518212741E+04  0.25500000920E-02 0.  1.
       -2   -1    0    0    0  501  0.00000000000E+00  0.00000000000E+00 -0.89970100193E+03  0.89970100194E+03  0.25500000920E-02 0. -1.
    10030    2    1    2    0    0  0.00000000000E+00  0.00000000000E+00  0.85212027219E+03  0.26515222761E+04  0.25108686589E+04 0.  0.
        4    1    3    3  502    0  0.41409311961E+03 -0.10096379815E+04  0.10815332499E+04  0.15364106706E+04  0.12699999809E+01 0.  1.
       -4    1    3    3    0  502 -0.41409311961E+03  0.10096379815E+04 -0.22941297769E+03  0.11151116054E+04  0.12699999809E+01 0. -1.
</event>
<event>
 5   0  0.8579923E-06  0.2499906E+04  0.7818609E-02  0.8403019E-01
       -2   -1    0    0    0  501  0.00000000000E+00  0.00000000000E+00  0.96694830660E+03  0.96694830660E+03  0.25500000920E-02 0. -1.
        2   -1    0    0  501    0  0.00000000000E+00  0.00000000000E+00 -0.16157873553E+04  0.16157873553E+04  0.25500000920E-02 0.  1.
    10030    2    1    2    0    0  0.00000000000E+00  0.00000000000E+00 -0.64883904867E+03  0.25827356619E+04  0.24999062759E+04 0.  0.
        1    1    3    3  502    0  0.10497128745E+04 -0.44487811322E+03  0.20497338084E+03  0.11583728853E+04  0.50400001928E-02 0. -1.
       -1    1    3    3    0  502 -0.10497128745E+04  0.44487811322E+03 -0.85381242952E+03  0.14243627766E+04  0.50400001928E-02 0.  1.
</event>
<event>
 5   0  0.3522870E-06  0.2493324E+04  0.7818609E-02  0.8405368E-01
        1   -1    0    0  501    0  0.00000000000E+00  0.00000000000E+00  0.11963165673E+04  0.11963165673E+04  0.50400001928E-02 0.  1.
       -1   -1    0    0    0  501  0.00000000000E+00  0.00000000000E+00 -0.12991260424E+04  0.12991260424E+04  0.50400001928E-02 0. -1.
    10030    2    1    2    0    0  0.00000000000E+00  0.00000000000E+00 -0.10280947509E+03  0.24954426096E+04  0.24933238919E+04 0.  0.
        2    1    3    3  502    0  0.30905562320E+03 -0.10770374468E+04  0.49554016577E+03  0.12251877798E+04  0.25500000920E-02 0. -1.
       -2    1    3    3    0  502 -0.30905562320E+03  0.10770374468E+04 -0.59834964086E+03  0.12702548298E+04  0.25500000920E-02 0.  1.
</event>
<event>
 5   0  0.8056723E-06  0.2450254E+04  0.7818609E-02  0.8420925E-01
       -2   -1    0    0    0  501  0.00000000000E+00  0.00000000000E+00  0.70618185179E+03  0.70618185180E+03  0.25500000920E-02 0.  1.
        2   -1    0    0  501    0  0.00000000000E+00  0.00000000000E+00 -0.21254241514E+04  0.21254241514E+04  0.25500000920E-02 0. -1.
    10030    2    1    2    0    0  0.00000000000E+00  0.00000000000E+00 -0.14192422996E+04  0.28316060032E+04  0.24502538342E+04 0.  0.
        2    1    3    3  502    0  0.57156578934E+03  0.33695721232E+02 -0.19612964753E+04  0.20431609622E+04  0.25500000920E-02 0. -1.
       -2    1    3    3    0  502 -0.57156578934E+03 -0.33695721232E+02  0.54205417577E+03  0.78844504098E+03  0.25500000920E-02 0.  1.
</event>
<event>
 5   0  0.8579923E-06  0.2461854E+04  0.7818609E-02  0.8416703E-01
        2   -1    0    0  501    0  0.00000000000E+00  0.00000000000E+00  0.19677087716E+04  0.19677087716E+04  0.25500000920E-02 0. -1.
       -2   -1    0    0    0  501  0.00000000000E+00  0.00000000000E+00 -0.77002322351E+03  0.77002322351E+03  0.25500000920E-02 0.  1.
    10030    2    1    2    0    0  0.00000000000E+00  0.00000000000E+00  0.11976855481E+04  0.27377319951E+04  0.24618541397E+04 0.  0.
        1    1    3    3  502    0  0.67314115688E+03 -0.86252511266E+03 -0.28376259887E+02  0.10944742113E+04  0.50400001928E-02 0.  1.
       -1    1    3    3    0  502 -0.67314115688E+03  0.86252511266E+03  0.12260618080E+04  0.16432577838E+04  0.50400001928E-02 0. -1.
</event>
<event>
 5   0  0.8354653E-06  0.2498949E+04  0.7818609E-02  0.8403360E-01
        2   -1    0    0  501    0  0.00000000000E+00  0.00000000000E+00  0.21640413299E+04  0.21640413299E+04  0.25500000920E-02 0. -1.
       -2   -1    0    0    0  501  0.00000000000E+00  0.00000000000E+00 -0.72142150655E+03  0.72142150655E+03  0.25500000920E-02 0.  1.
    10030    2    1    2    0    0  0.00000000000E+00  0.00000000000E+00  0.14426198234E+04  0.28854628365E+04  0.24989485441E+04 0.  0.
        3    1    3    3  502    0 -0.47337270049E+03 -0.22833328074E+03 -0.58758371287E+03  0.78833522723E+03  0.10100000352E+00 0.  1.
       -3    1    3    3    0  502  0.47337270049E+03  0.22833328074E+03  0.20302035363E+04  0.20971276093E+04  0.10100000352E+00 0. -1.
</event>
<event>
 5   0  0.8056723E-06  0.2484380E+04  0.7818609E-02  0.8408571E-01
       -2   -1    0    0    0  501  0.00000000000E+00  0.00000000000E+00  0.12853829563E+04  0.12853829563E+04  0.25500000920E-02 0.  1.
        2   -1    0    0  501    0  0.00000000000E+00  0.00000000000E+00 -0.12004483727E+04  0.12004483727E+04  0.25500000920E-02 0. -1.
    10030    2    1    2    0    0  0.00000000000E+00  0.00000000000E+00  0.84934583568E+02  0.24858313290E+04  0.24843799051E+04 0.  0.
        2    1    3    3  502    0  0.18322759714E+03 -0.34394315751E+03 -0.11376990521E+04  0.12025923587E+04  0.25500000920E-02 0. -1.
       -2    1    3    3    0  502 -0.18322759714E+03  0.34394315751E+03  0.12226336357E+04  0.12832389704E+04  0.25500000920E-02 0.  1.
</event>
<event>
 5   0  0.3642184E-06  0.2497986E+04  0.7818609E-02  0.8403703E-01
        1   -1    0    0  501    0  0.00000000000E+00  0.00000000000E+00  0.12439492954E+04  0.12439492954E+04  0.50400001928E-02 0.  1.
       -1   -1    0    0    0  501  0.00000000000E+00  0.00000000000E+00 -0.12540575262E+04  0.12540575262E+04  0.50400001928E-02 0. -1.
    10030    2    1    2    0    0  0.00000000000E+00  0.00000000000E+00 -0.10108230750E+02  0.24980068216E+04  0.24979863700E+04 0.  0.
        5    1    3    3  502    0  0.10338049458E+04  0.49463165248E+03  0.49148670431E+03  0.12469941492E+04  0.46999998093E+01 0.  1.
       -5    1    3    3    0  502 -0.10338049458E+04 -0.49463165248E+03 -0.50159493506E+03  0.12510126724E+04  0.46999998093E+01 0. -1.
</event>
<event>
 5   0  0.8948286E-06  0.2485267E+04  0.7818609E-02  0.8408253E-01
        2   -1    0    0  501    0  0.00000000000E+00  0.00000000000E+00  0.18715446416E+04  0.18715446416E+04  0.25500000920E-02 0. -1.
       -2   -1    0    0    0  501  0.00000000000E+00  0.00000000000E+00 -0.82506097455E+03  0.82506097455E+03  0.25500000920E-02 0.  1.
    10030    2    1    2    0    0  0.00000000000E+00  0.00000000000E+00  0.10464836671E+04  0.26966056162E+04  0.24852673465E+04 0.  0.
        4    1    3    3  502    0  0.56445690984E+03  0.10898250037E+04  0.73421569696E+03  0.14301763683E+04  0.12699999809E+01 0. -1.
       -4    1    3    3    0  502 -0.56445690984E+03 -0.10898250037E+04  0.31226797011E+03  0.12664292479E+04  0.12699999809E+01 0.  1.
</event>
<event>
 5   0  0.3484857E-06  0.2456631E+04  0.7818609E-02  0.8418601E-01
       -1   -1    0    0    0  501  0.00000000000E+00  0.00000000000E+00  0.79095111131E+03  0.79095111133E+03  0.50400001928E-02 0. -1.
        1   -1    0    0  501    0  0.00000000000E+00  0.00000000000E+00 -0.19075245189E+04  0.19075245189E+04  0.50400001928E-02 0.  1.
    10030    2    1    2    0    0  0.00000000000E+00  0.00000000000E+00 -0.11165734076E+04  0.26984756302E+04  0.24566307318E+04 0.  0.
        3    1    3    3  502    0 -0.32989203557E+02 -0.97909835522E+03  0.25562881257E+03  0.10124564073E+04  0.10100000352E+00 0. -1.
       -3    1    3    3    0  502  0.32989203557E+02  0.97909835522E+03 -0.13722022201E+04  0.16860192229E+04  0.10100000352E+00 0.  1.
</event>
<event>
 5   0  0.3424193E-06  0.2503289E+04  0.7818609E-02  0.8401815E-01
       -1   -1    0    0    0  501  0.00000000000E+00  0.00000000000E+00  0.17389930475E+04  0.17389930475E+04  0.50400001928E-02 0. -1.
        1   -1    0    0  501    0  0.00000000000E+00  0.00000000000E+00 -0.90087401806E+03  0.90087401808E+03  0.50400001928E-02 0.  1.
    10030    2    1    2    0    0  0.00000000000E+00  0.00000000000E+00  0.83811902945E+03  0.26398670656E+04  0.25032887601E+04 0.  0.
        1    1    3    3  502    0  0.11867117103E+04  0.35020810106E+03  0.21985308549E+03  0.12566884167E+04  0.50400001928E-02 0.  1.
       -1    1    3    3    0  502 -0.11867117103E+04 -0.35020810106E+03  0.61826594396E+03  0.13831786489E+04  0.50400001928E-02 0. -1.
</event>
<event>
 5   0  0.8354653E-06  0.2501431E+04  0.7818609E-02  0.8402476E-01
        2   -1    0    0  501    0  0.00000000000E+00  0.00000000000E+00  0.11346014161E+04  0.11346014161E+04  0.25500000920E-02 0. -1.
       -2   -1    0    0    0  501  0.00000000000E+00  0.00000000000E+00 -0.13787123392E+04  0.13787123392E+04  0.25500000920E-02 0.  1.
    10030    2    1    2    0    0  0.00000000000E+00  0.00000000000E+00 -0.24411092311E+03  0.25133137553E+04  0.25014307686E+04 0.  0.
        3    1    3    3  502    0  0.31021993418E+03  0.11723504223E+04 -0.42952723513E+03  0.12865207251E+04  0.10100000352E+00 0.  1.
       -3    1    3    3    0  502 -0.31021993418E+03 -0.11723504223E+04  0.18541631202E+03  0.12267930303E+04  0.10100000352E+00 0. -1.
</event>
<event>
 5   0  0.2901250E-06  0.2500730E+04  0.7818609E-02  0.8402725E-01
        3   -1    0    0  501    0  0.00000000000E+00  0.00000000000E+00  0.10522072849E+04  0.10522072898E+04  0.10100000352E+00 0.  1.
       -3   -1    0    0    0  501  0.00000000000E+00  0.00000000000E+00 -0.14858410576E+04  0.14858410611E+04  0.10100000352E+00 0. -1.
    10030    2    1    2    0    0  0.00000000000E+00  0.00000000000E+00 -0.43363377271E+03  0.25380483508E+04  0.25007301299E+04 0.  0.
        1    1    3    3  502    0  0.87703083045E+03 -0.57767416013E+03  0.47192800248E+03  0.11513498827E+04  0.50400001928E-02 0.  1.
       -1    1    3    3    0  502 -0.87703083045E+03  0.57767416013E+03 -0.90556177520E+03  0.13866984681E+04  0.50400001928E-02 0. -1.
</event>
<event>
 5   0  0.3484857E-06  0.2491790E+04  0.7818609E-02  0.8405916E-01
        1   -1    0    0  501    0  0.00000000000E+00  0.00000000000E+00  0.13688524619E+04  0.13688524619E+04  0.50400001928E-02 0. -1.
       -1   -1    0    0    0  501  0.00000000000E+00  0.00000000000E+00 -0.11339826686E+04  0.11339826686E+04  0.50400001928E-02 0.  1.
    10030    2    1    2    0    0  0.00000000000E+00  0.00000000000E+00  0.23486979331E+03  0.25028351306E+04  0.24917904950E+04 0.  0.
        3    1    3    3  502    0  0.87055515932E+03 -0.49243030685E+03  0.86362817639E+03  0.13214414591E+04  0.10100000352E+00 0. -1.
       -3    1    3    3    0  502 -0.87055515932E+03  0.49243030685E+03 -0.62875838308E+03  0.11813936715E+04  0.10100000352E+00 0.  1.
</event>
<event>
 5   0  0.3481387E-06  0.2496241E+04  0.7818609E-02  0.8404326E-01
        1   -1    0    0  501    0  0.00000000000E+00  0.00000000000E+00  0.16722725048E+04  0.16722725048E+04  0.50400001928E-02 0. -1.
       -1   -1    0    0    0  501  0.00000000000E+00  0.00000000000E+00 -0.93154974658E+03  0.93154974660E+03  0.50400001928E-02 0.  1.
    10030    2    1    2    0    0  0.00000000000E+00  0.00000000000E+00  0.74072275818E+03  0.26038222514E+04  0.24962411967E+04 0.  0.
        4    1    3    3  502    0 -0.66462343142E+03 -0.51389721299E+03  0.13331738822E+04  0.15758073690E+04  0.12699999809E+01 0.  1.
       -4    1    3    3    0  502  0.66462343142E+03  0.51389721299E+03 -0.59245112402E+03  0.10280148824E+04  0.12699999809E+01 0. -1.
</event>
<event>
 5   0  0.3642184E-06  0.2503052E+04  0.7818609E-02  0.8401899E-01
        1   -1    0    0  501    0  0.00000000000E+00  0.00000000000E+00  0.15650430191E+04  0.15650430191E+04  0.50400001928E-02 0. -1.
       -1   -1    0    0    0  501  0.00000000000E+00  0.00000000000E+00 -0.10008138374E+04  0.10008138374E+04  0.50400001928E-02 0.  1.
    10030    2    1    2    0    0  0.00000000000E+00  0.00000000000E+00  0.56422918169E+03  0.25658568565E+04  0.25030515054E+04 0.  0.
        5    1    3    3  502    0  0.61563844881E+03 -0.10165642457E+04 -0.12000498401E+03  0.11945027633E+04  0.46999998093E+01 0.  1.
       -5    1    3    3    0  502 -0.61563844881E+03  0.10165642457E+04  0.68423416571E+03  0.13713540932E+04  0.46999998093E+01 0. -1.
</event>
<event>
 5   0  0.3481387E-06  0.2517348E+04  0.7818609E-02  0.8396831E-01
        1   -1    0    0  501    0  0.00000000000E+00  0.00000000000E+00  0.81369810344E+03  0.81369810345E+03  0.50400001928E-02 0.  1.
       -1   -1    0    0    0  501  0.00000000000E+00  0.00000000000E+00 -0.19469871329E+04  0.19469871329E+04  0.50400001928E-02 0. -1.
    10030    2    1    2    0    0  0.00000000000E+00  0.00000000000E+00 -0.11332890294E+04  0.27606852363E+04  0.25173476021E+04 0.  0.
        4    1    3    3  502    0  0.77298638533E+03  0.97555212450E+03 -0.36133611456E+03  0.12960614569E+04  0.12699999809E+01 0.  1.
       -4    1    3    3    0  502 -0.77298638533E+03 -0.97555212450E+03 -0.77195291487E+03  0.14646237794E+04  0.12699999809E+01 0. -1.
</event>
<event>
 5   0  0.8354653E-06  0.2513857E+04  0.7818609E-02  0.8398065E-01
       -2   -1    0    0    0  501  0.00000000000E+00  0.00000000000E+00  0.13155528056E+04  0.13155528056E+04  0.25500000920E-02 0.  1.
        2   -1    0    0  501    0  0.00000000000E+00  0.00000000000E+00 -0.12009168129E+04  0.12009168129E+04  0.25500000920E-02 0. -1.
    10030    2    1    2    0    0  0.00000000000E+00  0.00000000000E+00  0.11463599273E+03  0.25164696185E+04  0.25138571817E+04 0.  0.
        3    1    3    3  502    0 -0.45423117197E+03 -0.48705569324E+03  0.11244090209E+04  0.13068453858E+04  0.10100000352E+00 0.  1.
       -3    1    3    3    0  502  0.45423117197E+03  0.48705569324E+03 -0.10097730281E+04  0.12096242328E+04  0.10100000352E+00 0. -1.
</event>
<event>
 5   0  0.3424193E-06  0.2500913E+04  0.7818609E-02  0.8402660E-01
        1   -1    0    0  501    0  0.00000000000E+00  0.00000000000E+00  0.20912236153E+04  0.20912236153E+04  0.50400001928E-02 0. -1.
       -1   -1    0    0    0  501  0.00000000000E+00  0.00000000000E+00 -0.74771634654E+03  0.74771634656E+03  0.50400001928E-02 0.  1.
    10030    2    1    2    0    0  0.00000000000E+00  0.00000000000E+00  0.13435072687E+04  0.28389399618E+04  0.25009134982E+04 0.  0.
        1    1    3    3  502    0  0.89785235651E+03 -0.31140237795E+03  0.15943344050E+04  0.18560744840E+04  0.50400001928E-02 0. -1.
       -1    1    3    3    0  502 -0.89785235651E+03  0.31140237795E+03 -0.25082713634E+03  0.98286547779E+03  0.50400001928E-02 0.  1.
</event>
<event>
 5   0  0.8354653E-06  0.2495967E+04  0.7818609E-02  0.8404424E-01
        2   -1    0    0  501    0  0.00000000000E+00  0.00000000000E+00  0.18737164687E+04  0.18737164687E+04  0.25500000920E-02 0.  1.
       -2   -1    0    0    0  501  0.00000000000E+00  0.00000000000E+00 -0.83121601710E+03  0.83121601710E+03  0.25500000920E-02 0. -1.
    10030    2    1    2    0    0  0.00000000000E+00  0.00000000000E+00  0.10425004516E+04  0.27049324858E+04  0.24959672596E+04 0.  0.
        3    1    3    3  502    0 -0.20742231511E+02  0.11564836228E+04  0.10290733492E+04  0.15481849302E+04  0.10100000352E+00 0. -1.
       -3    1    3    3    0  502  0.20742231511E+02 -0.11564836228E+04  0.13427102373E+02  0.11567475555E+04  0.10100000352E+00 0.  1.
</event>
<event>
 5   0  0.8948286E-06  0.2505300E+04  0.7818609E-02  0.8401100E-01
        2   -1    0    0  501    0  0.00000000000E+00  0.00000000000E+00  0.17529890121E+04  0.17529890121E+04  0.25500000920E-02 0. -1.
       -2   -1    0    0    0  501  0.00000000000E+00  0.00000000000E+00 -0.89511819591E+03  0.89511819592E+03  0.25500000920E-02 0.  1.
    10030    2    1    2    0    0  0.00000000000E+00  0.00000000000E+00  0.85787081621E+03  0.26481072080E+04  0.25053002710E+04 0.  0.
        4    1    3    3  502    0 -0.10790204707E+04 -0.60193823853E+03  0.64688277140E+03  0.13946590092E+04  0.12699999809E+01 0. -1.
       -4    1    3    3    0  502  0.10790204707E+04  0.60193823853E+03  0.21098804481E+03  0.12534481988E+04  0.12699999809E+01 0.  1.
</event>
<event>
 5   0  0.3481387E-06  0.2478710E+04  0.7818609E-02  0.8410610E-01
        1   -1    0    0  501    0  0.00000000000E+00  0.00000000000E+00  0.10374981888E+04  0.10374981888E+04  0.50400001928E-02 0.  1.
       -1   -1    0    0    0  501  0.00000000000E+00  0.00000000000E+00 -0.14804849477E+04  0.14804849477E+04  0.50400001928E-02 0. -1.
    10030    2    1    2    0    0  0.00000000000E+00  0.00000000000E+00 -0.44298675890E+03  0.25179831366E+04  0.24787097062E+04 0.  0.
        4    1    3    3  502    0  0.12223835939E+04  0.20317532764E+03 -0.19884723529E+03  0.12550074503E+04  0.12699999809E+01 0. -1.
       -4    1    3    3    0  502 -0.12223835939E+04 -0.20317532764E+03 -0.24413952361E+03  0.12629756863E+04  0.12699999809E+01 0.  1.
</event>
<event>
 5   0  0.3424193E-06  0.2491058E+04  0.7818609E-02  0.8406178E-01
       -1   -1    0    0    0  501  0.00000000000E+00  0.00000000000E+00  0.13429499105E+04  0.13429499105E+04  0.50400001928E-02 0.  1.
        1   -1    0    0  501    0  0.00000000000E+00  0.00000000000E+00 -0.11551749676E+04  0.11551749676E+04  0.50400001928E-02 0. -1.
    10030    2    1    2    0    0  0.00000000000E+00  0.00000000000E+00  0.18777494290E+03  0.24981248781E+04  0.24910577025E+04 0.  0.
        1    1    3    3  502    0 -0.81660400980E+03  0.19721047804E+03  0.10160657917E+04  0.13183792226E+04  0.50400001928E-02 0.  1.
       -1    1    3    3    0  502  0.81660400980E+03 -0.19721047804E+03 -0.82829084879E+03  0.11797456555E+04  0.50400001928E-02 0. -1.
</event>
<event>
 5   0  0.8056723E-06  0.2471518E+04  0.7818609E-02  0.8413203E-01
        2   -1    0    0  501    0  0.00000000000E+00  0.00000000000E+00  0.17691016620E+04  0.17691016620E+04  0.25500000920E-02 0. -1.
       -2   -1    0    0    0  501  0.00000000000E+00  0.00000000000E+00 -0.86320656619E+03  0.86320656619E+03  0.25500000920E-02 0.  1.
    10030    2    1    2    0    0  0.00000000000E+00  0.00000000000E+00  0.90589509581E+03  0.26323082282E+04  0.24715178906E+04 0.  0.
        2    1    3    3  502    0  0.11407287007E+04 -0.45028917530E+03  0.61474465754E+03  0.13718357423E+04  0.25500000920E-02 0. -1.
       -2    1    3    3    0  502 -0.11407287007E+04  0.45028917530E+03  0.29115043827E+03  0.12604724859E+04  0.25500000920E-02 0.  1.
</event>
<event>
 5   0  0.8354653E-06  0.2497773E+04  0.7818609E-02  0.8403779E-01
       -2   -1    0    0    0  501  0.00000000000E+00  0.00000000000E+00  0.97116666465E+03  0.97116666465E+03  0.25500000920E-02 0.  1.
        2   -1    0    0  501    0  0.00000000000E+00  0.00000000000E+00 -0.16060251499E+04  0.16060251499E+04  0.25500000920E-02 0. -1.
    10030    2    1    2    0    0  0.00000000000E+00  0.00000000000E+00 -0.63485848521E+03  0.25771918145E+04  0.24977734790E+04 0.  0.
        3    1    3    3  502    0  0.51148769242E+03  0.11357639954E+04 -0.41051165162E+03  0.13115255770E+04  0.10100000352E+00 0. -1.
       -3    1    3    3    0  502 -0.51148769242E+03 -0.11357639954E+04 -0.22434683358E+03  0.12656662375E+04  0.10100000352E+00 0.  1.
</event>
<event>
 5   0  0.3481387E-06  0.2501333E+04  0.7818609E-02  0.8402511E-01
        1   -1    0    0  501    0  0.00000000000E+00  0.00000000000E+00  0.17373464538E+04  0.17373464538E+04  0.50400001928E-02 0.  1.
       -1   -1    0    0    0  501  0.00000000000E+00  0.00000000000E+00 -0.90031939731E+03  0.90031939732E+03  0.50400001928E-02 0. -1.
    10030    2    1    2    0    0  0.00000000000E+00  0.00000000000E+00  0.83702705647E+03  0.26376658511E+04  0.25013330144E+04 0.  0.
        4    1    3    3  502    0  0.86749036323E+03 -0.85518711615E+03  0.11973218688E+03  0.12240187676E+04  0.12699999809E+01 0.  1.
       -4    1    3    3    0  502 -0.86749036323E+03  0.85518711615E+03  0.71729486959E+03  0.14136470835E+04  0.12699999809E+01 0. -1.
</event>
<event>
 5   0  0.3522870E-06  0.2501030E+04  0.7818609E-02  0.8402619E-01
        1   -1    0    0  501    0  0.00000000000E+00  0.00000000000E+00  0.17760803657E+04  0.17760803657E+04  0.50400001928E-02 0.  1.
       -1   -1    0    0    0  501  0.00000000000E+00  0.00000000000E+00 -0.88047150643E+03  0.88047150644E+03  0.50400001928E-02 0. -1.
    10030    2    1    2    0    0  0.00000000000E+00  0.00000000000E+00  0.89560885928E+03  0.26565518722E+04  0.25010303118E+04 0.  0.
        2    1    3    3  502    0  0.11495990172E+04 -0.42839364328E+03  0.70512720230E+03  0.14150276978E+04  0.25500000920E-02 0. -1.
       -2    1    3    3    0  502 -0.11495990172E+04  0.42839364328E+03  0.19048165698E+03  0.12415241744E+04  0.25500000920E-02 0.  1.
</event>
<event>
 5   0  0.3424193E-06  0.2498240E+04  0.7818609E-02  0.8403613E-01
        1   -1    0    0  501    0  0.00000000000E+00  0.00000000000E+00  0.12580246732E+04  0.12580246732E+04  0.50400001928E-02 0.  1.
       -1   -1    0    0    0  501  0.00000000000E+00  0.00000000000E+00 -0.12402778814E+04  0.12402778815E+04  0.50400001928E-02 0. -1.
    10030    2    1    2    0    0  0.00000000000E+00  0.00000000000E+00  0.17746791731E+02  0.24983025546E+04  0.24982395213E+04 0.  0.
        1    1    3    3  502    0  0.15529896950E+03 -0.39956681851E+02  0.12476886806E+04  0.12579512511E+04  0.50400001928E-02 0.  1.
       -1    1    3    3    0  502 -0.15529896950E+03  0.39956681851E+02 -0.12299418888E+04  0.12403513036E+04  0.50400001928E-02 0. -1.
</event>
<event>
 5   0  0.8056723E-06  0.2497677E+04  0.7818609E-02  0.8403814E-01
        2   -1    0    0  501    0  0.00000000000E+00  0.00000000000E+00  0.28301543095E+04  0.28301543095E+04  0.25500000920E-02 0. -1.
       -2   -1    0    0    0  501  0.00000000000E+00  0.00000000000E+00 -0.55106450438E+03  0.55106450438E+03  0.25500000920E-02 0.  1.
    10030    2    1    2    0    0  0.00000000000E+00  0.00000000000E+00  0.22790898051E+04  0.33812188139E+04  0.24976769862E+04 0.  0.
        2    1    3    3  502    0  0.57066720273E+03 -0.14082586891E+03 -0.35209865563E+03  0.68517621451E+03  0.25500000920E-02 0.  1.
       -2    1    3    3    0  502 -0.57066720273E+03  0.14082586891E+03  0.26311884608E+04  0.26960425994E+04  0.25500000920E-02 0. -1.
</event>
<event>
 5   0  0.3642184E-06  0.2495756E+04  0.7818609E-02  0.8404499E-01
       -1   -1    0    0    0  501  0.00000000000E+00  0.00000000000E+00  0.16600524986E+04  0.16600524986E+04  0.50400001928E-02 0.  1.
        1   -1    0    0  501    0  0.00000000000E+00  0.00000000000E+00 -0.93804224055E+03  0.93804224056E+03  0.50400001928E-02 0. -1.
    10030    2    1    2    0    0  0.00000000000E+00  0.00000000000E+00  0.72201025802E+03  0.25980947391E+04  0.24957558897E+04 0.  0.
        5    1    3    3  502    0 -0.37387385527E+02 -0.90325301477E+03  0.12564592506E+04  0.15478939769E+04  0.46999998093E+01 0.  1.
       -5    1    3    3    0  502  0.37387385527E+02  0.90325301477E+03 -0.53444899260E+03  0.10502007622E+04  0.46999998093E+01 0. -1.
</event>
<event>
 5   0  0.3484857E-06  0.2455468E+04  0.7818609E-02  0.8419024E-01
       -1   -1    0    0    0  501  0.00000000000E+00  0.00000000000E+00  0.11271240040E+04  0.11271240041E+04  0.50400001928E-02 0. -1.
        1   -1    0    0  501    0  0.00000000000E+00  0.00000000000E+00 -0.13373251374E+04  0.13373251374E+04  0.50400001928E-02 0.  1.
    10030    2    1    2    0    0  0.00000000000E+00  0.00000000000E+00 -0.21020113335E+03  0.24644491415E+04  0.24554683982E+04 0.  0.
        3    1    3    3  502    0  0.45155776997E+03 -0.10425171605E+04  0.36198828510E+03  0.11923849959E+04  0.10100000352E+00 0. -1.
       -3    1    3    3    0  502 -0.45155776997E+03  0.10425171605E+04 -0.57218941845E+03  0.12720641456E+04  0.10100000352E+00 0.  1.
</event>
<event>
 5   0  0.8354653E-06  0.2499676E+04  0.7818609E-02  0.8403101E-01
        2   -1    0    0  501    0  0.00000000000E+00  0.00000000000E+00  0.25435901888E+04  0.25435901888E+04  0.25500000920E-02 0.  1.
       -2   -1    0    0    0  501  0.00000000000E+00  0.00000000000E+00 -0.61412975385E+03  0.61412975385E+03  0.25500000920E-02 0. -1.
    10030    2    1    2    0    0  0.00000000000E+00  0.00000000000E+00  0.19294604350E+04  0.31577199427E+04  0.24996755122E+04 0.  0.
        3    1    3    3  502    0 -0.29294465641E+03 -0.60778680086E+03  0.22937727476E+04  0.23909443312E+04  0.10100000352E+00 0.  1.
       -3    1    3    3    0  502  0.29294465641E+03  0.60778680086E+03 -0.36431231263E+03  0.76677561148E+03  0.10100000352E+00 0. -1.
</event>
<event>
 5   0  0.8354653E-06  0.2493679E+04  0.7818609E-02  0.8405241E-01
       -2   -1    0    0    0  501  0.00000000000E+00  0.00000000000E+00  0.99569687896E+03  0.99569687896E+03  0.25500000920E-02 0. -1.
        2   -1    0    0  501    0  0.00000000000E+00  0.00000000000E+00 -0.15613277615E+04  0.15613277615E+04  0.25500000920E-02 0.  1.
    10030    2    1    2    0    0  0.00000000000E+00  0.00000000000E+00 -0.56563088256E+03  0.25570246405E+04  0.24936793532E+04 0.  0.
        3    1    3    3  502    0  0.10425189910E+04  0.26367096900E+03  0.36427838618E+03  0.11353708554E+04  0.10100000352E+00 0. -1.
       -3    1    3    3    0  502 -0.10425189910E+04 -0.26367096900E+03 -0.92990926874E+03  0.14216537851E+04  0.10100000352E+00 0.  1.
</event>
<event>
 5   0  0.3424193E-06  0.2499026E+04  0.7818609E-02  0.8403333E-01
        1   -1    0    0  501    0  0.00000000000E+00  0.00000000000E+00  0.13760101822E+04  0.13760101822E+04  0.50400001928E-02 0. -1.
       -1   -1    0    0    0  501  0.00000000000E+00  0.00000000000E+00 -0.11346449813E+04  0.11346449813E+04  0.50400001928E-02 0.  1.
    10030    2    1    2    0    0  0.00000000000E+00  0.00000000000E+00  0.24136520085E+03  0.25106551635E+04  0.24990262484E+04 0.  0.
        1    1    3    3  502    0 -0.32493075411E+03 -0.44311374018E+03  0.12481137649E+04  0.13637146886E+04  0.50400001928E-02 0. -1.
       -1    1    3    3    0  502  0.32493075411E+03  0.44311374018E+03 -0.10067485641E+04  0.11469404749E+04  0.50400001928E-02 0.  1.
</event>
<event>
 5   0  0.8579923E-06  0.2500877E+04  0.7818609E-02  0.8402673E-01
       -2   -1    0    0    0  501  0.00000000000E+00  0.00000000000E+00  0.95845043396E+03  0.95845043396E+03  0.25500000920E-02 0. -1.
        2   -1    0    0  501    0  0.00000000000E+00  0.00000000000E+00 -0.16313793676E+04  0.16313793676E+04  0.25500000920E-02 0.  1.
    10030    2    1    2    0    0  0.00000000000E+00  0.00000000000E+00 -0.67292893368E+03  0.25898298016E+04  0.25008768565E+04 0.  0.
        1    1    3    3  502    0  0.67136618614E+03  0.10548913450E+04 -0.34500130276E+03  0.12971330712E+04  0.50400001928E-02 0. -1.
       -1    1    3    3    0  502 -0.67136618614E+03 -0.10548913450E+04 -0.32792763092E+03  0.12926967304E+04  0.50400001928E-02 0.  1.
</event>
<event>
 5   0  0.3522870E-06  0.2503375E+04  0.7818609E-02  0.8401784E-01
        1   -1    0    0  501    0  0.00000000000E+00  0.00000000000E+00  0.25811323845E+04  0.25811323845E+04  0.50400001928E-02 0. -1.
       -1   -1    0    0    0  501  0.00000000000E+00  0.00000000000E+00 -0.60699015543E+03  0.60699015545E+03  0.50400001928E-02 0.  1.
    10030    2    1    2    0    0  0.00000000000E+00  0.00000000000E+00  0.19741422290E+04  0.31881225399E+04  0.25033752793E+04 0.  0.
        2    1    3    3  502    0 -0.75939648083E+03 -0.53165377068E+03 -0.84044664751E+02  0.93080731232E+03  0.25500000920E-02 0.  1.
       -2    1    3    3    0  502  0.75939648083E+03  0.53165377068E+03  0.20581868938E+04  0.22573152276E+04  0.25500000920E-02 0. -1.
</event>
<event>
 5   0  0.3424193E-06  0.2477837E+04  0.7818609E-02  0.8410924E-01
       -1   -1    0    0    0  501  0.00000000000E+00  0.00000000000E+00  0.14287479700E+04  0.14287479700E+04  0.50400001928E-02 0. -1.
        1   -1    0    0  501    0  0.00000000000E+00  0.00000000000E+00 -0.10743109453E+04  0.10743109453E+04  0.50400001928E-02 0.  1.
    10030    2    1    2    0    0  0.00000000000E+00  0.00000000000E+00  0.35443702470E+03  0.25030589154E+04  0.24778374300E+04 0.  0.
        1    1    3    3  502    0 -0.44573519422E+03 -0.11529853035E+04  0.93522230711E+02  0.12396779344E+04  0.50400001928E-02 0.  1.
       -1    1    3    3    0  502  0.44573519422E+03  0.11529853035E+04  0.26091479399E+03  0.12633809810E+04  0.50400001928E-02 0. -1.
</event>
<event>
 5   0  0.2901250E-06  0.2501912E+04  0.7818609E-02  0.8402305E-01
        4   -1    0    0  501    0  0.00000000000E+00  0.00000000000E+00  0.18074319953E+04  0.18074324415E+04  0.12699999809E+01 0. -1.
       -4   -1    0    0    0  501  0.00000000000E+00  0.00000000000E+00 -0.86580825978E+03  0.86580919122E+03  0.12699999809E+01 0.  1.
    10030    2    1    2    0    0  0.00000000000E+00  0.00000000000E+00  0.94162373551E+03  0.26732416327E+04  0.25019123821E+04 0.  0.
        4    1    3    3  502    0 -0.44864458877E+03 -0.18506569386E+03  0.17027451212E+04  0.17705574938E+04  0.12699999809E+01 0. -1.
       -4    1    3    3    0  502  0.44864458877E+03  0.18506569386E+03 -0.76112138567E+03  0.90268413895E+03  0.12699999809E+01 0.  1.
</event>
<event>
 5   0  0.8579923E-06  0.2496117E+04  0.7818609E-02  0.8404370E-01
       -2   -1    0    0    0  501  0.00000000000E+00  0.00000000000E+00  0.10311853587E+04  0.10311853587E+04  0.25500000920E-02 0.  1.
        2   -1    0    0  501    0  0.00000000000E+00  0.00000000000E+00 -0.15105434747E+04  0.15105434747E+04  0.25500000920E-02 0. -1.
    10030    2    1    2    0    0  0.00000000000E+00  0.00000000000E+00 -0.47935811597E+03  0.25417288333E+04  0.24961172366E+04 0.  0.
        1    1    3    3  502    0 -0.10312966268E+04  0.68108119471E+03 -0.62704530046E+02  0.12374878522E+04  0.50400001928E-02 0.  1.
       -1    1    3    3    0  502  0.10312966268E+04 -0.68108119471E+03 -0.41665358593E+03  0.13042409811E+04  0.50400001928E-02 0. -1.
</event>
<event>
 5   0  0.3522870E-06  0.2500931E+04  0.7818609E-02  0.8402654E-01
        1   -1    0    0  501    0  0.00000000000E+00  0.00000000000E+00  0.17214939921E+04  0.17214939921E+04  0.50400001928E-02 0.  1.
       -1   -1    0    0    0  501  0.00000000000E+00  0.00000000000E+00 -0.90831823800E+03  0.90831823801E+03  0.50400001928E-02 0. -1.
    10030    2    1    2    0    0  0.00000000000E+00  0.00000000000E+00  0.81317575410E+03  0.26298122301E+04  0.25009313382E+04 0.  0.
        2    1    3    3  502    0  0.11375802523E+04 -0.22491828348E+02 -0.13886263131E+03  0.11462449752E+04  0.25500000920E-02 0. -1.
       -2    1    3    3    0  502 -0.11375802523E+04  0.22491828348E+02  0.95203838540E+03  0.14835672550E+04  0.25500000920E-02 0.  1.
</event>
<event>
 5   0  0.3522870E-06  0.2502445E+04  0.7818609E-02  0.8402115E-01
       -1   -1    0    0    0  501  0.00000000000E+00  0.00000000000E+00  0.87846336551E+03  0.87846336552E+03  0.50400001928E-02 0. -1.
        1   -1    0    0  501    0  0.00000000000E+00  0.00000000000E+00 -0.17821544300E+04  0.17821544300E+04  0.50400001928E-02 0.  1.
    10030    2    1    2    0    0  0.00000000000E+00  0.00000000000E+00 -0.90369106451E+03  0.26606177955E+04  0.25024447075E+04 0.  0.
        2    1    3    3  502    0 -0.70022601683E+03  0.89842408959E+03 -0.10023314409E+04  0.15172839671E+04  0.25500000920E-02 0. -1.
       -2    1    3    3    0  502  0.70022601683E+03 -0.89842408959E+03  0.98640376389E+02  0.11433338284E+04  0.25500000920E-02 0.  1.
</event>
<event>
 5   0  0.8056723E-06  0.2502047E+04  0.7818609E-02  0.8402257E-01
       -2   -1    0    0    0  501  0.00000000000E+00  0.00000000000E+00  0.86218107558E+03  0.86218107558E+03  0.25500000920E-02 0. -1.
        2   -1    0    0  501    0  0.00000000000E+00  0.00000000000E+00 -0.18152327420E+04  0.18152327420E+04  0.25500000920E-02 0.  1.
    10030    2    1    2    0    0  0.00000000000E+00  0.00000000000E+00 -0.95305166646E+03  0.26774138176E+04  0.25020466166E+04 0.  0.
        2    1    3    3  502    0  0.61517589274E+03 -0.99026324491E+03  0.91541185420E+01  0.11658243740E+04  0.25500000920E-02 0. -1.
       -2    1    3    3    0  502 -0.61517589274E+03  0.99026324491E+03 -0.96220578500E+03  0.15115894436E+04  0.25500000920E-02 0.  1.
</event>
<event>
 5   0  0.3484857E-06  0.2499214E+04  0.7818609E-02  0.8403266E-01
        1   -1    0    0  501    0  0.00000000000E+00  0.00000000000E+00  0.13419039071E+04  0.13419039071E+04  0.50400001928E-02 0.  1.
       -1   -1    0    0    0  501  0.00000000000E+00  0.00000000000E+00 -0.11636585652E+04  0.11636585652E+04  0.50400001928E-02 0. -1.
    10030    2    1    2    0    0  0.00000000000E+00  0.00000000000E+00  0.17824534192E+03  0.25055624723E+04  0.24992142566E+04 0.  0.
        3    1    3    3  502    0 -0.83954905202E+03 -0.89277109782E+03 -0.15570065788E+03  0.12353645409E+04  0.10100000352E+00 0. -1.
       -3    1    3    3    0  502  0.83954905202E+03  0.89277109782E+03  0.33394599980E+03  0.12701979314E+04  0.10100000352E+00 0.  1.
</event>
<event>
 5   0  0.8407986E-06  0.2501142E+04  0.7818609E-02  0.8402579E-01
       -2   -1    0    0    0  501  0.00000000000E+00  0.00000000000E+00  0.89138355016E+03  0.89138355016E+03  0.25500000920E-02 0. -1.
        2   -1    0    0  501    0  0.00000000000E+00  0.00000000000E+00 -0.17544954630E+04  0.17544954630E+04  0.25500000920E-02 0.  1.
    10030    2    1    2    0    0  0.00000000000E+00  0.00000000000E+00 -0.86311191282E+03  0.26458790131E+04  0.25011424546E+04 0.  0.
        5    1    3    3  502    0  0.95013470553E+03 -0.76434181247E+03 -0.72497270106E+03  0.14186549518E+04  0.46999998093E+01 0.  1.
       -5    1    3    3    0  502 -0.95013470553E+03  0.76434181247E+03 -0.13813921176E+03  0.12272240614E+04  0.46999998093E+01 0. -1.
</event>
<event>
 5   0  0.3484857E-06  0.2488730E+04  0.7818609E-02  0.8407011E-01
       -1   -1    0    0    0  501  0.00000000000E+00  0.00000000000E+00  0.12748888933E+04  0.12748888933E+04  0.50400001928E-02 0.  1.
        1   -1    0    0  501    0  0.00000000000E+00  0.00000000000E+00 -0.12145722402E+04  0.12145722402E+04  0.50400001928E-02 0. -1.
    10030    2    1    2    0    0  0.00000000000E+00  0.00000000000E+00  0.60316653118E+02  0.24894611334E+04  0.24887303261E+04 0.  0.
        3    1    3    3  502    0  0.15806170767E+03  0.77660317728E+03  0.98978806996E+03  0.12679812428E+04  0.10100000352E+00 0.  1.
       -3    1    3    3    0  502 -0.15806170767E+03 -0.77660317728E+03 -0.92947141684E+03  0.12214798907E+04  0.10100000352E+00 0. -1.
</event>
<event>
 5   0  0.8056723E-06  0.2416551E+04  0.7818609E-02  0.8433333E-01
        2   -1    0    0  501    0  0.00000000000E+00  0.00000000000E+00  0.19949613431E+04  0.19949613431E+04  0.25500000920E-02 0.  1.
       -2   -1    0    0    0  501  0.00000000000E+00  0.00000000000E+00 -0.73180826712E+03  0.73180826713E+03  0.25500000920E-02 0. -1.
    10030    2    1    2    0    0  0.00000000000E+00  0.00000000000E+00  0.12631530759E+04  0.27267696102E+04  0.24165506024E+04 0.  0.
        2    1    3    3  502    0 -0.42138263731E+03 -0.76832758434E+03 -0.30710377787E+03  0.92854904785E+03  0.25500000920E-02 0. -1.
       -2    1    3    3    0  502  0.42138263731E+03  0.76832758434E+03  0.15702568538E+04  0.17982205623E+04  0.25500000920E-02 0.  1.
</event>
<event>
 5   0  0.8056723E-06  0.2625570E+04  0.7818609E-02  0.8359567E-01
       -2   -1    0    0    0  501  0.00000000000E+00  0.00000000000E+00  0.12711428231E+04  0.12711428231E+04  0.25500000920E-02 0.  1.
        2   -1    0    0  501    0  0.00000000000E+00  0.00000000000E+00 -0.13557915143E+04  0.13557915143E+04  0.25500000920E-02 0. -1.
    10030    2    1    2    0    0  0.00000000000E+00  0.00000000000E+00 -0.84648691170E+02  0.26269343375E+04  0.26255701500E+04 0.  0.
        2    1    3    3  502    0 -0.71784976150E+03  0.57707742643E+03 -0.97826643517E+03  0.13436263820E+04  0.25500000920E-02 0. -1.
       -2    1    3    3    0  502  0.71784976150E+03 -0.57707742643E+03  0.89361774400E+03  0.12833079555E+04  0.25500000920E-02 0.  1.
</event>
<event>
 5   0  0.3424193E-06  0.2463597E+04  0.7818609E-02  0.8416070E-01
       -1   -1    0    0    0  501  0.00000000000E+00  0.00000000000E+00  0.66795651929E+03  0.66795651930E+03  0.50400001928E-02 0. -1.
        1   -1    0    0  501    0  0.00000000000E+00  0.00000000000E+00 -0.22715955371E+04  0.22715955371E+04  0.50400001928E-02 0.  1.
    10030    2    1    2    0    0  0.00000000000E+00  0.00000000000E+00 -0.16036390178E+04  0.29395520564E+04  0.24635965970E+04 0.  0.
        1    1    3    3  502    0 -0.72697478062E+03 -0.88620750500E+01  0.38464886279E+03  0.82251177238E+03  0.50400001928E-02 0. -1.
       -1    1    3    3    0  502  0.72697478062E+03  0.88620750500E+01 -0.19882878806E+04  0.21170402841E+04  0.50400001928E-02 0.  1.
</event>
<event>
 5   0  0.8354653E-06  0.2511472E+04  0.7818609E-02  0.8398910E-01
        2   -1    0    0  501    0  0.00000000000E+00  0.00000000000E+00  0.16063403478E+04  0.16063403478E+04  0.25500000920E-02 0. -1.
       -2   -1    0    0    0  501  0.00000000000E+00  0.00000000000E+00 -0.98165587611E+03  0.98165587611E+03  0.25500000920E-02 0.  1.
    10030    2    1    2    0    0  0.00000000000E+00  0.00000000000E+00  0.62468447167E+03  0.25879962239E+04  0.25114724298E+04 0.  0.
        3    1    3    3  502    0  0.79126976757E+03 -0.62306715048E+03 -0.46054638269E+03  0.11074400660E+04  0.10100000352E+00 0.  1.
       -3    1    3    3    0  502 -0.79126976757E+03  0.62306715048E+03  0.10852308544E+04  0.14805561578E+04  0.10100000352E+00 0. -1.
</event>
<event>
 5   0  0.8056723E-06  0.2500976E+04  0.7818609E-02  0.8402638E-01
        2   -1    0    0  501    0  0.00000000000E+00  0.00000000000E+00  0.25440214158E+04  0.25440214158E+04  0.25500000920E-02 0. -1.
       -2   -1    0    0    0  501  0.00000000000E+00  0.00000000000E+00 -0.61466451715E+03  0.61466451716E+03  0.25500000920E-02 0.  1.
    10030    2    1    2    0    0  0.00000000000E+00  0.00000000000E+00  0.19293568987E+04  0.31586859330E+04  0.25009755658E+04 0.  0.
        2    1    3    3  502    0 -0.11447832048E+04 -0.15822228628E+03  0.36140567977E+03  0.12108579368E+04  0.25500000920E-02 0.  1.
       -2    1    3    3    0  502  0.11447832048E+04  0.15822228628E+03  0.15679512189E+04  0.19478279962E+04  0.25500000920E-02 0. -1.
</event>
<event>
 5   0  0.3484857E-06  0.2506264E+04  0.7818609E-02  0.8400757E-01
        1   -1    0    0  501    0  0.00000000000E+00  0.00000000000E+00  0.18697602743E+04  0.18697602743E+04  0.50400001928E-02 0. -1.
       -1   -1    0    0    0  501  0.00000000000E+00  0.00000000000E+00 -0.83986168330E+03  0.83986168331E+03  0.50400001928E-02 0.  1.
    10030    2    1    2    0    0  0.00000000000E+00  0.00000000000E+00  0.10298985910E+04  0.27096219576E+04  0.25062641611E+04 0.  0.
        3    1    3    3  502    0 -0.11558040991E+04  0.14253736066E+02  0.10382184132E+04  0.15537000251E+04  0.10100000352E+00 0. -1.
       -3    1    3    3    0  502  0.11558040991E+04 -0.14253736066E+02 -0.83198221564E+01  0.11559219325E+04  0.10100000352E+00 0.  1.
</event>
<event>
 5   0  0.3484857E-06  0.2499523E+04  0.7818609E-02  0.8403155E-01
       -1   -1    0    0    0  501  0.00000000000E+00  0.00000000000E+00  0.65155153521E+03  0.65155153523E+03  0.50400001928E-02 0. -1.
        1   -1    0    0  501    0  0.00000000000E+00  0.00000000000E+00 -0.23972073121E+04  0.23972073121E+04  0.50400001928E-02 0.  1.
    10030    2    1    2    0    0  0.00000000000E+00  0.00000000000E+00 -0.17456557769E+04  0.30487588473E+04  0.24995232381E+04 0.  0.
        3    1    3    3  502    0  0.94625217995E+02 -0.11557167717E+04 -0.30428309909E+03  0.11988425263E+04  0.10100000352E+00 0. -1.
       -3    1    3    3    0  502 -0.94625217995E+02  0.11557167717E+04 -0.14413726778E+04  0.18499163210E+04  0.10100000352E+00 0.  1.
</event>
<event>
 5   0  0.3481387E-06  0.2524766E+04  0.7818609E-02  0.8394215E-01
        1   -1    0    0  501    0  0.00000000000E+00  0.00000000000E+00  0.17075329299E+04  0.17075329299E+04  0.50400001928E-02 0.  1.
       -1   -1    0    0    0  501  0.00000000000E+00  0.00000000000E+00 -0.93328256768E+03  0.93328256770E+03  0.50400001928E-02 0. -1.
    10030    2    1    2    0    0  0.00000000000E+00  0.00000000000E+00  0.77425036223E+03  0.26408154976E+04  0.25247659038E+04 0.  0.
        4    1    3    3  502    0 -0.10524361914E+04  0.94321937845E+01  0.11162293627E+04  0.15341709508E+04  0.12699999809E+01 0.  1.
       -4    1    3    3    0  502  0.10524361914E+04 -0.94321937845E+01 -0.34197900044E+03  0.11066445468E+04  0.12699999809E+01 0. -1.
</event>
<event>
 5   0  0.8354653E-06  0.2507710E+04  0.7818609E-02  0.8400244E-01
       -2   -1    0    0    0  501  0.00000000000E+00  0.00000000000E+00  0.60438862589E+03  0.60438862589E+03  0.25500000920E-02 0. -1.
        2   -1    0    0  501    0  0.00000000000E+00  0.00000000000E+00 -0.26012285234E+04  0.26012285234E+04  0.25500000920E-02 0.  1.
    10030    2    1    2    0    0  0.00000000000E+00  0.00000000000E+00 -0.19968398975E+04  0.32056171493E+04  0.25077104561E+04 0.  0.
        3    1    3    3  502    0 -0.11224614998E+04  0.36113000344E+03 -0.15434908133E+04  0.19423435842E+04  0.10100000352E+00 0.  1.
       -3    1    3    3    0  502  0.11224614998E+04 -0.36113000344E+03 -0.45334908420E+03  0.12632735651E+04  0.10100000352E+00 0. -1.
</event>
<event>
 5   0  0.8056723E-06  0.2503498E+04  0.7818609E-02  0.8401740E-01
       -2   -1    0    0    0  501  0.00000000000E+00  0.00000000000E+00  0.12046538056E+04  0.12046538056E+04  0.25500000920E-02 0. -1.
        2   -1    0    0  501    0  0.00000000000E+00  0.00000000000E+00 -0.13006852633E+04  0.13006852633E+04  0.25500000920E-02 0.  1.
    10030    2    1    2    0    0  0.00000000000E+00  0.00000000000E+00 -0.96031457772E+02  0.25053390689E+04  0.25034979148E+04 0.  0.
        2    1    3    3  502    0  0.28113158748E+03  0.11979379826E+04  0.18190325870E+03  0.12438565734E+04  0.25500000920E-02 0. -1.
       -2    1    3    3    0  502 -0.28113158748E+03 -0.11979379826E+04 -0.27793471647E+03  0.12614824955E+04  0.25500000920E-02 0.  1.
</event>
<event>
 5   0  0.8948286E-06  0.2495082E+04  0.7818609E-02  0.8404740E-01
        2   -1    0    0  501    0  0.00000000000E+00  0.00000000000E+00  0.14737824944E+04  0.14737824944E+04  0.25500000920E-02 0. -1.
       -2   -1    0    0    0  501  0.00000000000E+00  0.00000000000E+00 -0.10560295917E+04  0.10560295917E+04  0.25500000920E-02 0.  1.
    10030    2    1    2    0    0  0.00000000000E+00  0.00000000000E+00  0.41775290262E+03  0.25298120861E+04  0.24950815023E+04 0.  0.
        4    1    3    3  502    0  0.62946585401E+02 -0.58092485474E+03 -0.90870048478E+03  0.10803583403E+04  0.12699999809E+01 0.  1.
       -4    1    3    3    0  502 -0.62946585401E+02  0.58092485474E+03  0.13264533874E+04  0.14494537458E+04  0.12699999809E+01 0. -1.
</event>
<event>
 5   0  0.3522870E-06  0.2497375E+04  0.7818609E-02  0.8403921E-01
        1   -1    0    0  501    0  0.00000000000E+00  0.00000000000E+00  0.22798808998E+04  0.22798808998E+04  0.50400001928E-02 0. -1.
       -1   -1    0    0    0  501  0.00000000000E+00  0.00000000000E+00 -0.68390455909E+03  0.68390455911E+03  0.50400001928E-02 0.  1.
    10030    2    1    2    0    0  0.00000000000E+00  0.00000000000E+00  0.15959763408E+04  0.29637854590E+04  0.24973753756E+04 0.  0.
        2    1    3    3  502    0  0.13111674324E+03 -0.52689233538E+03  0.21324542920E+04  0.22004927723E+04  0.25500000920E-02 0. -1.
       -2    1    3    3    0  502 -0.13111674324E+03  0.52689233538E+03 -0.53647795121E+03  0.76329268670E+03  0.25500000920E-02 0.  1.
</event>
<event>
 5   0  0.2901250E-06  0.2500799E+04  0.7818609E-02  0.8402701E-01
        3   -1    0    0  501    0  0.00000000000E+00  0.00000000000E+00  0.87105298995E+03  0.87105299581E+03  0.10100000352E+00 0.  1.
       -3   -1    0    0    0  501  0.00000000000E+00  0.00000000000E+00 -0.17949523488E+04  0.17949523517E+04  0.10100000352E+00 0. -1.
    10030    2    1    2    0    0  0.00000000000E+00  0.00000000000E+00 -0.92389935887E+03  0.26660053475E+04  0.25007987699E+04 0.  0.
        3    1    3    3  502    0 -0.10269051279E+04  0.64378539604E+03 -0.13422489962E+03  0.12194302406E+04  0.10100000352E+00 0. -1.
       -3    1    3    3    0  502  0.10269051279E+04 -0.64378539604E+03 -0.78967445925E+03  0.14465751068E+04  0.10100000352E+00 0.  1.
</event>
<event>
 5   0  0.8579923E-06  0.2500664E+04  0.7818609E-02  0.8402749E-01
       -2   -1    0    0    0  501  0.00000000000E+00  0.00000000000E+00  0.10463736385E+04  0.10463736385E+04  0.25500000920E-02 0.  1.
        2   -1    0    0  501    0  0.00000000000E+00  0.00000000000E+00 -0.14940455169E+04  0.14940455169E+04  0.25500000920E-02 0. -1.
    10030    2    1    2    0    0  0.00000000000E+00  0.00000000000E+00 -0.44767187839E+03  0.25404191553E+04  0.25006637867E+04 0.  0.
        1    1    3    3  502    0 -0.75054317617E+01 -0.92302266278E+03 -0.10806316725E+04  0.14211938570E+04  0.50400001928E-02 0. -1.
       -1    1    3    3    0  502  0.75054317617E+01  0.92302266278E+03  0.63295979410E+03  0.11192252984E+04  0.50400001928E-02 0.  1.
</event>
<event>
 5   0  0.8056723E-06  0.2501975E+04  0.7818609E-02  0.8402282E-01
       -2   -1    0    0    0  501  0.00000000000E+00  0.00000000000E+00  0.11436761269E+04  0.11436761269E+04  0.25500000920E-02 0.  1.
        2   -1    0    0  501    0  0.00000000000E+00  0.00000000000E+00 -0.13683682383E+04  0.13683682383E+04  0.25500000920E-02 0. -1.
    10030    2    1    2    0    0  0.00000000000E+00  0.00000000000E+00 -0.22469211143E+03  0.25120443652E+04  0.25019752892E+04 0.  0.
        2    1    3    3  502    0 -0.62582152794E+03  0.48736046206E+03 -0.10836053303E+04  0.13428973589E+04  0.25500000920E-02 0. -1.
       -2    1    3    3    0  502  0.62582152794E+03 -0.48736046206E+03  0.85891321883E+03  0.11691470063E+04  0.25500000920E-02 0.  1.
</event>
<event>
 5   0  0.3424193E-06  0.2496673E+04  0.7818609E-02  0.8404172E-01
       -1   -1    0    0    0  501  0.00000000000E+00  0.00000000000E+00  0.11644450691E+04  0.11644450691E+04  0.50400001928E-02 0.  1.
        1   -1    0    0  501    0  0.00000000000E+00  0.00000000000E+00 -0.13382722088E+04  0.13382722088E+04  0.50400001928E-02 0. -1.
    10030    2    1    2    0    0  0.00000000000E+00  0.00000000000E+00 -0.17382713974E+03  0.25027172779E+04  0.24966733665E+04 0.  0.
        1    1    3    3  502    0  0.28781817249E+03 -0.11289754625E+04  0.36241206171E+03  0.12201505636E+04  0.50400001928E-02 0.  1.
       -1    1    3    3    0  502 -0.28781817249E+03  0.11289754625E+04 -0.53623920145E+03  0.12825667143E+04  0.50400001928E-02 0. -1.
</event>
<event>
 5   0  0.3484857E-06  0.2503063E+04  0.7818609E-02  0.8401895E-01
        1   -1    0    0  501    0  0.00000000000E+00  0.00000000000E+00  0.14318411887E+04  0.14318411887E+04  0.50400001928E-02 0. -1.
       -1   -1    0    0    0  501  0.00000000000E+00  0.00000000000E+00 -0.10939283549E+04  0.10939283549E+04  0.50400001928E-02 0.  1.
    10030    2    1    2    0    0  0.00000000000E+00  0.00000000000E+00  0.33791283380E+03  0.25257695437E+04  0.25030634640E+04 0.  0.
        3    1    3    3  502    0  0.10787650030E+03 -0.11277584406E+04 -0.36770943863E+03  0.11910863449E+04  0.10100000352E+00 0.  1.
       -3    1    3    3    0  502 -0.10787650030E+03  0.11277584406E+04  0.70562227243E+03  0.13346831988E+04  0.10100000352E+00 0. -1.
</event>
<event>
 5   0  0.3481387E-06  0.2501544E+04  0.7818609E-02  0.8402436E-01
       -1   -1    0    0    0  501  0.00000000000E+00  0.00000000000E+00  0.59571766566E+03  0.59571766568E+03  0.50400001928E-02 0.  1.
        1   -1    0    0  501    0  0.00000000000E+00  0.00000000000E+00 -0.26261275680E+04  0.26261275680E+04  0.50400001928E-02 0. -1.
    10030    2    1    2    0    0  0.00000000000E+00  0.00000000000E+00 -0.20304099023E+04  0.32218452337E+04  0.25015439909E+04 0.  0.
        4    1    3    3  502    0  0.60954583501E+03  0.93077669981E+03 -0.27922985987E+03  0.11471104208E+04  0.12699999809E+01 0.  1.
       -4    1    3    3    0  502 -0.60954583501E+03 -0.93077669981E+03 -0.17511800424E+04  0.20747348129E+04  0.12699999809E+01 0. -1.
</event>
<event>
 5   0  0.3424193E-06  0.2527318E+04  0.7818609E-02  0.8393318E-01
        1   -1    0    0  501    0  0.00000000000E+00  0.00000000000E+00  0.11543054554E+04  0.11543054554E+04  0.50400001928E-02 0. -1.
       -1   -1    0    0    0  501  0.00000000000E+00  0.00000000000E+00 -0.13833717815E+04  0.13833717815E+04  0.50400001928E-02 0.  1.
    10030    2    1    2    0    0  0.00000000000E+00  0.00000000000E+00 -0.22906632613E+03  0.25376772369E+04  0.25273176249E+04 0.  0.
        1    1    3    3  502    0  0.15899629090E+03 -0.60079308608E+03 -0.12193165917E+04  0.13685631529E+04  0.50400001928E-02 0.  1.
       -1    1    3    3    0  502 -0.15899629090E+03  0.60079308608E+03  0.99025026557E+03  0.11691140839E+04  0.50400001928E-02 0. -1.
</event>
<event>
 5   0  0.8354653E-06  0.2468916E+04  0.7818609E-02  0.8414144E-01
        2   -1    0    0  501    0  0.00000000000E+00  0.00000000000E+00  0.14808420784E+04  0.14808420784E+04  0.25500000920E-02 0.  1.
       -2   -1    0    0    0  501  0.00000000000E+00  0.00000000000E+00 -0.10290677954E+04  0.10290677954E+04  0.25500000920E-02 0. -1.
    10030    2    1    2    0    0  0.00000000000E+00  0.00000000000E+00  0.45177428301E+03  0.25099098737E+04  0.24689162747E+04 0.  0.
        3    1    3    3  502    0  0.19805709668E+03 -0.87872128587E+03 -0.63223082287E+03  0.11004969493E+04  0.10100000352E+00 0. -1.
       -3    1    3    3    0  502 -0.19805709668E+03  0.87872128587E+03  0.10840051059E+04  0.14094129244E+04  0.10100000352E+00 0.  1.
</event>
<event>
 5   0  0.3522870E-06  0.2496708E+04  0.7818609E-02  0.8404159E-01
       -1   -1    0    0    0  501  0.00000000000E+00  0.00000000000E+00  0.11851471019E+04  0.11851471019E+04  0.50400001928E-02 0. -1.
        1   -1    0    0  501    0  0.00000000000E+00  0.00000000000E+00 -0.13149315945E+04  0.13149315945E+04  0.50400001928E-02 0.  1.
    10030    2    1    2    0    0  0.00000000000E+00  0.00000000000E+00 -0.12978449260E+03  0.25000786964E+04  0.24967077269E+04 0.  0.
        2    1    3    3  502    0  0.12793567150E+03 -0.12375829456E+04 -0.16705099507E+03  0.12553426298E+04  0.25500000920E-02 0. -1.
       -2    1    3    3    0  502 -0.12793567150E+03  0.12375829456E+04  0.37266502464E+02  0.12447360666E+04  0.25500000920E-02 0.  1.
</event>
<event>
 5   0  0.8579923E-06  0.2501009E+04  0.7818609E-02  0.8402626E-01
        2   -1    0    0  501    0  0.00000000000E+00  0.00000000000E+00  0.23390681282E+04  0.23390681282E+04  0.25500000920E-02 0. -1.
       -2   -1    0    0    0  501  0.00000000000E+00  0.00000000000E+00 -0.66854053184E+03  0.66854053184E+03  0.25500000920E-02 0.  1.
    10030    2    1    2    0    0  0.00000000000E+00  0.00000000000E+00  0.16705275964E+04  0.30076086600E+04  0.25010092766E+04 0.  0.
        1    1    3    3  502    0  0.73159485194E+03  0.41248647780E+03 -0.27889544689E+03  0.88496259361E+03  0.50400001928E-02 0.  1.
       -1    1    3    3    0  502 -0.73159485194E+03 -0.41248647780E+03  0.19494230432E+04  0.21226460664E+04  0.50400001928E-02 0. -1.
</event>
<event>
 5   0  0.3522870E-06  0.2498189E+04  0.7818609E-02  0.8403631E-01
        1   -1    0    0  501    0  0.00000000000E+00  0.00000000000E+00  0.17150578744E+04  0.17150578744E+04  0.50400001928E-02 0.  1.
       -1   -1    0    0    0  501  0.00000000000E+00  0.00000000000E+00 -0.90972879318E+03  0.90972879320E+03  0.50400001928E-02 0. -1.
    10030    2    1    2    0    0  0.00000000000E+00  0.00000000000E+00  0.80532908119E+03  0.26247866676E+04  0.24981893686E+04 0.  0.
        2    1    3    3  502    0 -0.21549312242E+03 -0.87991305245E+03 -0.50088794482E+03  0.10351681018E+04  0.25500000920E-02 0. -1.
       -2    1    3    3    0  502  0.21549312242E+03  0.87991305245E+03  0.13062170260E+04  0.15896185658E+04  0.25500000920E-02 0.  1.
</event>
<event>
 5   0  0.3484857E-06  0.2490202E+04  0.7818609E-02  0.8406485E-01
        1   -1    0    0  501    0  0.00000000000E+00  0.00000000000E+00  0.14483004070E+04  0.14483004070E+04  0.50400001928E-02 0. -1.
       -1   -1    0    0    0  501  0.00000000000E+00  0.00000000000E+00 -0.10704106432E+04  0.10704106432E+04  0.50400001928E-02 0.  1.
    10030    2    1    2    0    0  0.00000000000E+00  0.00000000000E+00  0.37788976384E+03  0.25187110502E+04  0.24902017350E+04 0.  0.
        3    1    3    3  502    0 -0.91069678800E+03  0.58248924486E+03 -0.43587645506E+03  0.11656117082E+04  0.10100000352E+00 0.  1.
       -3    1    3    3    0  502  0.91069678800E+03 -0.58248924486E+03  0.81376621890E+03  0.13530993420E+04  0.10100000352E+00 0. -1.
</event>
<event>
 5   0  0.8948286E-06  0.2522992E+04  0.7818609E-02  0.8394840E-01
        2   -1    0    0  501    0  0.00000000000E+00  0.00000000000E+00  0.11595930344E+04  0.11595930344E+04  0.25500000920E-02 0. -1.
       -2   -1    0    0    0  501  0.00000000000E+00  0.00000000000E+00 -0.13723535345E+04  0.13723535345E+04  0.25500000920E-02 0.  1.
    10030    2    1    2    0    0  0.00000000000E+00  0.00000000000E+00 -0.21276050008E+03  0.25319465689E+04  0.25229915571E+04 0.  0.
        4    1    3    3  502    0  0.13216538832E+03  0.61789862069E+02  0.11510972592E+04  0.11603069379E+04  0.12699999809E+01 0. -1.
       -4    1    3    3    0  502 -0.13216538832E+03 -0.61789862069E+02 -0.13638577593E+04  0.13716396310E+04  0.12699999809E+01 0.  1.
</event>
<event>
 5   0  0.3481387E-06  0.2498081E+04  0.7818609E-02  0.8403670E-01
       -1   -1    0    0    0  501  0.00000000000E+00  0.00000000000E+00  0.15850931644E+04  0.15850931644E+04  0.50400001928E-02 0.  1.
        1   -1    0    0  501    0  0.00000000000E+00  0.00000000000E+00 -0.98423345516E+03  0.98423345517E+03  0.50400001928E-02 0. -1.
    10030    2    1    2    0    0  0.00000000000E+00  0.00000000000E+00  0.60085970925E+03  0.25693266196E+04  0.24980806408E+04 0.  0.
        4    1    3    3  502    0  0.10318496368E+04  0.38661029748E+02 -0.42238780302E+03  0.11156260203E+04  0.12699999809E+01 0. -1.
       -4    1    3    3    0  502 -0.10318496368E+04 -0.38661029748E+02  0.10232475123E+04  0.14537005993E+04  0.12699999809E+01 0.  1.
</event>
<event>
 5   0  0.8056723E-06  0.2497949E+04  0.7818609E-02  0.8403717E-01
        2   -1    0    0  501    0  0.00000000000E+00  0.00000000000E+00  0.60817721524E+03  0.60817721524E+03  0.25500000920E-02 0.  1.
       -2   -1    0    0    0  501  0.00000000000E+00  0.00000000000E+00 -0.25649388740E+04  0.25649388740E+04  0.25500000920E-02 0. -1.
    10030    2    1    2    0    0  0.00000000000E+00  0.00000000000E+00 -0.19567616587E+04  0.31731160892E+04  0.24979490640E+04 0.  0.
        2    1    3    3  502    0  0.63171488808E+03 -0.10434641025E+04 -0.63739329061E+03  0.13762816717E+04  0.25500000920E-02 0.  1.
       -2    1    3    3    0  502 -0.63171488808E+03  0.10434641025E+04 -0.13193683681E+04  0.17968344175E+04  0.25500000920E-02 0. -1.
</event>
<event>
 5   0  0.3642184E-06  0.2495684E+04  0.7818609E-02  0.8404525E-01
        1   -1    0    0  501    0  0.00000000000E+00  0.00000000000E+00  0.12101557452E+04  0.12101557452E+04  0.50400001928E-02 0.  1.
       -1   -1    0    0    0  501  0.00000000000E+00  0.00000000000E+00 -0.12867020302E+04  0.12867020302E+04  0.50400001928E-02 0. -1.
    10030    2    1    2    0    0  0.00000000000E+00  0.00000000000E+00 -0.76546285026E+02  0.24968577755E+04  0.24956841581E+04 0.  0.
        5    1    3    3  502    0  0.19653542605E+02 -0.15889002499E+03 -0.12763749808E+04  0.12863854334E+04  0.46999998093E+01 0. -1.
       -5    1    3    3    0  502 -0.19653542605E+02  0.15889002499E+03  0.11998286957E+04  0.12104723421E+04  0.46999998093E+01 0.  1.
</event>
<event>
 5   0  0.8354653E-06  0.2500402E+04  0.7818609E-02  0.8402842E-01
       -2   -1    0    0    0  501  0.00000000000E+00  0.00000000000E+00  0.11130981438E+04  0.11130981438E+04  0.25500000920E-02 0.  1.
        2   -1    0    0  501    0  0.00000000000E+00  0.00000000000E+00 -0.14041911003E+04  0.14041911003E+04  0.25500000920E-02 0. -1.
    10030    2    1    2    0    0  0.00000000000E+00  0.00000000000E+00 -0.29109295653E+03  0.25172892441E+04  0.25004019735E+04 0.  0.
        3    1    3    3  502    0  0.75245178654E+03 -0.33170574508E+03 -0.10936018566E+04  0.13682753463E+04  0.10100000352E+00 0. -1.
       -3    1    3    3    0  502 -0.75245178654E+03  0.33170574508E+03  0.80250890007E+03  0.11490138978E+04  0.10100000352E+00 0.  1.
</event>
<event>
 5   0  0.3522870E-06  0.2517527E+04  0.7818609E-02  0.8396768E-01
        1   -1    0    0  501    0  0.00000000000E+00  0.00000000000E+00  0.16008192788E+04  0.16008192788E+04  0.50400001928E-02 0. -1.
       -1   -1    0    0    0  501  0.00000000000E+00  0.00000000000E+00 -0.98979691224E+03  0.98979691225E+03  0.50400001928E-02 0.  1.
    10030    2    1    2    0    0  0.00000000000E+00  0.00000000000E+00  0.61102236653E+03  0.25906161910E+04  0.25175273418E+04 0.  0.
        2    1    3    3  502    0 -0.95496131858E+03  0.56019328911E+03 -0.31080797638E+03  0.11499431461E+04  0.25500000920E-02 0.  1.
       -2    1    3    3    0  502  0.95496131858E+03 -0.56019328911E+03  0.92183034291E+03  0.14406730449E+04  0.25500000920E-02 0. -1.
</event>
<event>
 5   0  0.8056723E-06  0.2500155E+04  0.7818609E-02  0.8402930E-01
        2   -1    0    0  501    0  0.00000000000E+00  0.00000000000E+00  0.14065039528E+04  0.14065039528E+04  0.25500000920E-02 0.  1.
       -2   -1    0    0    0  501  0.00000000000E+00  0.00000000000E+00 -0.11110484183E+04  0.11110484183E+04  0.25500000920E-02 0. -1.
    10030    2    1    2    0    0  0.00000000000E+00  0.00000000000E+00  0.29545553444E+03  0.25175523711E+04  0.25001551888E+04 0.  0.
        2    1    3    3  502    0  0.31408668121E+03 -0.56627051747E+03  0.12244584271E+04  0.13851394089E+04  0.25500000920E-02 0.  1.
       -2    1    3    3    0  502 -0.31408668121E+03  0.56627051747E+03 -0.92900289270E+03  0.11324129622E+04  0.25500000920E-02 0. -1.
</event>
<event>
 5   0  0.8579923E-06  0.2498411E+04  0.7818609E-02  0.8403552E-01
       -2   -1    0    0    0  501  0.00000000000E+00  0.00000000000E+00  0.90813585170E+03  0.90813585171E+03  0.25500000920E-02 0.  1.
        2   -1    0    0  501    0  0.00000000000E+00  0.00000000000E+00 -0.17183714026E+04  0.17183714026E+04  0.25500000920E-02 0. -1.
    10030    2    1    2    0    0  0.00000000000E+00  0.00000000000E+00 -0.81023555089E+03  0.26265072543E+04  0.24984112370E+04 0.  0.
        1    1    3    3  502    0  0.11275652732E+04 -0.46546985696E+03 -0.68808166068E+03  0.14005434677E+04  0.50400001928E-02 0.  1.
       -1    1    3    3    0  502 -0.11275652732E+04  0.46546985696E+03 -0.12215389021E+03  0.12259637866E+04  0.50400001928E-02 0. -1.
</event>
<event>
 5   0  0.3484857E-06  0.2510498E+04  0.7818609E-02  0.8399255E-01
        1   -1    0    0  501    0  0.00000000000E+00  0.00000000000E+00  0.25881307723E+04  0.25881307723E+04  0.50400001928E-02 0.  1.
       -1   -1    0    0    0  501  0.00000000000E+00  0.00000000000E+00 -0.60879864300E+03  0.60879864302E+03  0.50400001928E-02 0. -1.
    10030    2    1    2    0    0  0.00000000000E+00  0.00000000000E+00  0.19793321293E+04  0.31969294153E+04  0.25104983586E+04 0.  0.
        3    1    3    3  502    0 -0.25850679545E+02  0.10595129743E+04  0.18461936604E+04  0.21287712517E+04  0.10100000352E+00 0. -1.
       -3    1    3    3    0  502  0.25850679545E+02 -0.10595129743E+04  0.13313846888E+03  0.10681581636E+04  0.10100000352E+00 0.  1.
</event>
<event>
 5   0  0.3481387E-06  0.2520100E+04  0.7818609E-02  0.8395860E-01
        1   -1    0    0  501    0  0.00000000000E+00  0.00000000000E+00  0.18733757031E+04  0.18733757032E+04  0.50400001928E-02 0. -1.
       -1   -1    0    0    0  501  0.00000000000E+00  0.00000000000E+00 -0.84752115191E+03  0.84752115192E+03  0.50400001928E-02 0.  1.
    10030    2    1    2    0    0  0.00000000000E+00  0.00000000000E+00  0.10258545512E+04  0.27208968551E+04  0.25200996281E+04 0.  0.
        4    1    3    3  502    0 -0.88806931878E+03  0.45195796849E+03 -0.31974957299E+03  0.10465058636E+04  0.12699999809E+01 0.  1.
       -4    1    3    3    0  502  0.88806931878E+03 -0.45195796849E+03  0.13456041242E+04  0.16743909915E+04  0.12699999809E+01 0. -1.
</event>
<event>
 5   0  0.8056723E-06  0.2509915E+04  0.7818609E-02  0.8399462E-01
       -2   -1    0    0    0  501  0.00000000000E+00  0.00000000000E+00  0.23164389867E+04  0.23164389867E+04  0.25500000920E-02 0.  1.
        2   -1    0    0  501    0  0.00000000000E+00  0.00000000000E+00 -0.67988742344E+03  0.67988742345E+03  0.25500000920E-02 0. -1.
    10030    2    1    2    0    0  0.00000000000E+00  0.00000000000E+00  0.16365515632E+04  0.29963264101E+04  0.25099145278E+04 0.  0.
        2    1    3    3  502    0 -0.32635281739E+02  0.10752134938E+04  0.46665341277E+02  0.10767203782E+04  0.25500000920E-02 0.  1.
       -2    1    3    3    0  502  0.32635281739E+02 -0.10752134938E+04  0.15898862220E+04  0.19196060319E+04  0.25500000920E-02 0. -1.
</event>
<event>
 5   0  0.8948286E-06  0.2502587E+04  0.7818609E-02  0.8402064E-01
       -2   -1    0    0    0  501  0.00000000000E+00  0.00000000000E+00  0.10182326889E+04  0.10182326889E+04  0.25500000920E-02 0. -1.
        2   -1    0    0  501    0  0.00000000000E+00  0.00000000000E+00 -0.15376990812E+04  0.15376990812E+04  0.25500000920E-02 0.  1.
    10030    2    1    2    0    0  0.00000000000E+00  0.00000000000E+00 -0.51946639228E+03  0.25559317701E+04  0.25025870376E+04 0.  0.
        4    1    3    3  502    0  0.59885470207E+03  0.10196853070E+04 -0.67753598821E+03  0.13628799315E+04  0.12699999809E+01 0.  1.
       -4    1    3    3    0  502 -0.59885470207E+03 -0.10196853070E+04  0.15806959594E+03  0.11930518386E+04  0.12699999809E+01 0. -1.
</event>
<event>
 5   0  0.8354653E-06  0.2500355E+04  0.7818609E-02  0.8402859E-01
       -2   -1    0    0    0  501  0.00000000000E+00  0.00000000000E+00  0.19064481747E+04  0.19064481747E+04  0.25500000920E-02 0.  1.
        2   -1    0    0  501    0  0.00000000000E+00  0.00000000000E+00 -0.81981995339E+03  0.81981995340E+03  0.25500000920E-02 0. -1.
    10030    2    1    2    0    0  0.00000000000E+00  0.00000000000E+00  0.10866282213E+04  0.27262681281E+04  0.25003553777E+04 0.  0.
        3    1    3    3  502    0  0.17796972166E+03  0.54324970726E+03 -0.66896479937E+03  0.87994737300E+03  0.10100000352E+00 0. -1.
       -3    1    3    3    0  502 -0.17796972166E+03 -0.54324970726E+03  0.17555930207E+04  0.18463207551E+04  0.10100000352E+00 0.  1.
</event>
<event>
 5   0  0.8407986E-06  0.2483439E+04  0.7818609E-02  0.8408909E-01
        2   -1    0    0  501    0  0.00000000000E+00  0.00000000000E+00  0.12524569876E+04  0.12524569876E+04  0.25500000920E-02 0.  1.
       -2   -1    0    0    0  501  0.00000000000E+00  0.00000000000E+00 -0.12310736967E+04  0.12310736967E+04  0.25500000920E-02 0. -1.
    10030    2    1    2    0    0  0.00000000000E+00  0.00000000000E+00  0.21383290939E+02  0.24835306843E+04  0.24834386271E+04 0.  0.
        5    1    3    3  502    0  0.48584064497E+03  0.74311800879E+03 -0.85742996203E+03  0.12342907830E+04  0.46999998093E+01 0. -1.
       -5    1    3    3    0  502 -0.48584064497E+03 -0.74311800879E+03  0.87881325297E+03  0.12492399013E+04  0.46999998093E+01 0.  1.
</event>
<event>
 5   0  0.3481387E-06  0.2497218E+04  0.7818609E-02  0.8403977E-01
       -1   -1    0    0    0  501  0.00000000000E+00  0.00000000000E+00  0.67404092927E+03  0.67404092929E+03  0.50400001928E-02 0. -1.
        1   -1    0    0  501    0  0.00000000000E+00  0.00000000000E+00 -0.23129524509E+04  0.23129524509E+04  0.50400001928E-02 0.  1.
    10030    2    1    2    0    0  0.00000000000E+00  0.00000000000E+00 -0.16389115216E+04  0.29869933802E+04  0.24972181478E+04 0.  0.
        4    1    3    3  502    0 -0.45638919161E+03 -0.82436013864E+03  0.16046632531E+03  0.95583041742E+03  0.12699999809E+01 0. -1.
       -4    1    3    3    0  502  0.45638919161E+03  0.82436013864E+03 -0.17993778469E+04  0.20311629627E+04  0.12699999809E+01 0.  1.
</event>
<event>
 5   0  0.3642184E-06  0.2494803E+04  0.7818609E-02  0.8404839E-01
       -1   -1    0    0    0  501  0.00000000000E+00  0.00000000000E+00  0.63845423664E+03  0.63845423666E+03  0.50400001928E-02 0.  1.
        1   -1    0    0  501    0  0.00000000000E+00  0.00000000000E+00 -0.24371537212E+04  0.24371537213E+04  0.50400001928E-02 0. -1.
    10030    2    1    2    0    0  0.00000000000E+00  0.00000000000E+00 -0.17986994846E+04  0.30756079579E+04  0.24948034942E+04 0.  0.
        5    1    3    3  502    0  0.69626344812E+03  0.66102463776E+03  0.82456487786E+02  0.96361689653E+03  0.46999998093E+01 0.  1.
       -5    1    3    3    0  502 -0.69626344812E+03 -0.66102463776E+03 -0.18811559724E+04  0.21119910614E+04  0.46999998093E+01 0. -1.
</event>
<event>
 5   0  0.3424193E-06  0.2493278E+04  0.7818609E-02  0.8405384E-01
        1   -1    0    0  501    0  0.00000000000E+00  0.00000000000E+00  0.20815685413E+04  0.20815685413E+04  0.50400001928E-02 0. -1.
       -1   -1    0    0    0  501  0.00000000000E+00  0.00000000000E+00 -0.74660479371E+03  0.74660479373E+03  0.50400001928E-02 0.  1.
    10030    2    1    2    0    0  0.00000000000E+00  0.00000000000E+00  0.13349637475E+04  0.28281733350E+04  0.24932782046E+04 0.  0.
        1    1    3    3  502    0 -0.53795107824E+03 -0.10788973048E+04  0.10274353235E+04  0.15839930874E+04  0.50400001928E-02 0. -1.
       -1    1    3    3    0  502  0.53795107824E+03  0.10788973048E+04  0.30752842404E+03  0.12441802476E+04  0.50400001928E-02 0.  1.
</event>
<event>
 5   0  0.8948286E-06  0.2503309E+04  0.7818609E-02  0.8401808E-01
        2   -1    0    0  501    0  0.00000000000E+00  0.00000000000E+00  0.13454609181E+04  0.13454609181E+04  0.25500000920E-02 0. -1.
       -2   -1    0    0    0  501  0.00000000000E+00  0.00000000000E+00 -0.11643882464E+04  0.11643882464E+04  0.25500000920E-02 0.  1.
    10030    2    1    2    0    0  0.00000000000E+00  0.00000000000E+00  0.18107267172E+03  0.25098491646E+04  0.25033089135E+04 0.  0.
        4    1    3    3  502    0 -0.83638791365E+02  0.73526766713E+03 -0.92156786782E+03  0.11819064843E+04  0.12699999809E+01 0. -1.
       -4    1    3    3    0  502  0.83638791365E+02 -0.73526766713E+03  0.11026405395E+04  0.13279426803E+04  0.12699999809E+01 0.  1.
</event>
<event>
 5   0  0.8948286E-06  0.2518486E+04  0.7818609E-02  0.8396429E-01
       -2   -1    0    0    0  501  0.00000000000E+00  0.00000000000E+00  0.15967838054E+04  0.15967838054E+04  0.25500000920E-02 0.  1.
        2   -1    0    0  501    0  0.00000000000E+00  0.00000000000E+00 -0.99305418187E+03  0.99305418187E+03  0.25500000920E-02 0. -1.
    10030    2    1    2    0    0  0.00000000000E+00  0.00000000000E+00  0.60372962349E+03  0.25898379872E+04  0.25184859225E+04 0.  0.
        4    1    3    3  502    0 -0.52483282681E+03  0.11937370936E+03 -0.86880432748E+03  0.10220186647E+04  0.12699999809E+01 0. -1.
       -4    1    3    3    0  502  0.52483282681E+03 -0.11937370936E+03  0.14725339510E+04  0.15678193226E+04  0.12699999809E+01 0.  1.
</event>
<event>
 5   0  0.2901250E-06  0.2521389E+04  0.7818609E-02  0.8395405E-01
       -3   -1    0    0    0  501  0.00000000000E+00  0.00000000000E+00  0.16055592672E+04  0.16055592703E+04  0.10100000352E+00 0. -1.
        3   -1    0    0  501    0  0.00000000000E+00  0.00000000000E+00 -0.98990435017E+03  0.98990435533E+03  0.10100000352E+00 0.  1.
    10030    2    1    2    0    0  0.00000000000E+00  0.00000000000E+00  0.61565491699E+03  0.25954636257E+04  0.25213885967E+04 0.  0.
        4    1    3    3  502    0  0.73583729538E+02  0.68274095130E+03  0.13961483555E+04  0.15558861190E+04  0.12699999809E+01 0. -1.
       -4    1    3    3    0  502 -0.73583729538E+02 -0.68274095130E+03 -0.78049343853E+03  0.10395775066E+04  0.12699999809E+01 0.  1.
</event>
<event>
 5   0  0.8056723E-06  0.2484549E+04  0.7818609E-02  0.8408511E-01
        2   -1    0    0  501    0  0.00000000000E+00  0.00000000000E+00  0.16040929694E+04  0.16040929694E+04  0.25500000920E-02 0. -1.
       -2   -1    0    0    0  501  0.00000000000E+00  0.00000000000E+00 -0.96206783148E+03  0.96206783149E+03  0.25500000920E-02 0.  1.
    10030    2    1    2    0    0  0.00000000000E+00  0.00000000000E+00  0.64202513795E+03  0.25661608009E+04  0.24845492506E+04 0.  0.
        2    1    3    3  502    0  0.27172783218E+03  0.71464561171E+02 -0.92881971777E+03  0.97038614294E+03  0.25500000920E-02 0.  1.
       -2    1    3    3    0  502 -0.27172783218E+03 -0.71464561171E+02  0.15708448557E+04  0.15957746580E+04  0.25500000920E-02 0. -1.
</event>
<event>
 5   0  0.3522870E-06  0.2500778E+04  0.7818609E-02  0.8402709E-01
        1   -1    0    0  501    0  0.00000000000E+00  0.00000000000E+00  0.11136950629E+04  0.11136950629E+04  0.50400001928E-02 0.  1.
       -1   -1    0    0    0  501  0.00000000000E+00  0.00000000000E+00 -0.14038600842E+04  0.14038600842E+04  0.50400001928E-02 0. -1.
    10030    2    1    2    0    0  0.00000000000E+00  0.00000000000E+00 -0.29016502135E+03  0.25175551471E+04  0.25007775149E+04 0.  0.
        2    1    3    3  502    0  0.20723911891E+03 -0.89713829628E+02 -0.13831607762E+04  0.14014743509E+04  0.25500000920E-02 0. -1.
       -2    1    3    3    0  502 -0.20723911891E+03  0.89713829628E+02  0.10929957548E+04  0.11160807962E+04  0.25500000920E-02 0.  1.
</event>
<event>
 5   0  0.3484857E-06  0.2494057E+04  0.7818609E-02  0.8405106E-01
        1   -1    0    0  501    0  0.00000000000E+00  0.00000000000E+00  0.11405343530E+04  0.11405343530E+04  0.50400001928E-02 0. -1.
       -1   -1    0    0    0  501  0.00000000000E+00  0.00000000000E+00 -0.13634662764E+04  0.13634662764E+04  0.50400001928E-02 0.  1.
    10030    2    1    2    0    0  0.00000000000E+00  0.00000000000E+00 -0.22293192345E+03  0.25040006294E+04  0.24940570381E+04 0.  0.
        3    1    3    3  502    0  0.17133386734E+03  0.17708871099E+03  0.11158497965E+04  0.11427320264E+04  0.10100000352E+00 0. -1.
       -3    1    3    3    0  502 -0.17133386734E+03 -0.17708871099E+03 -0.13387817199E+04  0.13612686030E+04  0.10100000352E+00 0.  1.
</event>
<event>
 5   0  0.8407986E-06  0.2519385E+04  0.7818609E-02  0.8396112E-01
       -2   -1    0    0    0  501  0.00000000000E+00  0.00000000000E+00  0.72175568081E+03  0.72175568081E+03  0.25500000920E-02 0.  1.
        2   -1    0    0  501    0  0.00000000000E+00  0.00000000000E+00 -0.21985631171E+04  0.21985631171E+04  0.25500000920E-02 0. -1.
    10030    2    1    2    0    0  0.00000000000E+00  0.00000000000E+00 -0.14768074363E+04  0.29203187979E+04  0.25193851785E+04 0.  0.
        5    1    3    3  502    0  0.29811252378E+03  0.75354312636E+03  0.37949301136E+03  0.89483817296E+03  0.46999998093E+01 0.  1.
       -5    1    3    3    0  502 -0.29811252378E+03 -0.75354312636E+03 -0.18563004476E+04  0.20254806250E+04  0.46999998093E+01 0. -1.
</event>
<event>
 5   0  0.8579923E-06  0.2502194E+04  0.7818609E-02  0.8402204E-01
        2   -1    0    0  501    0  0.00000000000E+00  0.00000000000E+00  0.15638818799E+04  0.15638818799E+04  0.25500000920E-02 0. -1.
       -2   -1    0    0    0  501  0.00000000000E+00  0.00000000000E+00 -0.10008708469E+04  0.10008708469E+04  0.25500000920E-02 0.  1.
    10030    2    1    2    0    0  0.00000000000E+00  0.00000000000E+00  0.56301103296E+03  0.25647527268E+04  0.25021940625E+04 0.  0.
        1    1    3    3  502    0  0.57137427235E+02 -0.96422132399E+03  0.10965308451E+04  0.14612896159E+04  0.50400001928E-02 0. -1.
       -1    1    3    3    0  502 -0.57137427235E+02  0.96422132399E+03 -0.53351981214E+03  0.11034631109E+04  0.50400001928E-02 0.  1.
</event>
<event>
 5   0  0.3481387E-06  0.2501051E+04  0.7818609E-02  0.8402611E-01
        1   -1    0    0  501    0  0.00000000000E+00  0.00000000000E+00  0.13841166900E+04  0.13841166900E+04  0.50400001928E-02 0.  1.
       -1   -1    0    0    0  501  0.00000000000E+00  0.00000000000E+00 -0.11298281074E+04  0.11298281075E+04  0.50400001928E-02 0. -1.
    10030    2    1    2    0    0  0.00000000000E+00  0.00000000000E+00  0.25428858258E+03  0.25139447975E+04  0.25010509314E+04 0.  0.
        4    1    3    3  502    0 -0.20612810890E+03  0.77046086113E+03 -0.84100016032E+03  0.11590434066E+04  0.12699999809E+01 0. -1.
       -4    1    3    3    0  502  0.20612810890E+03 -0.77046086113E+03  0.10952887429E+04  0.13549013909E+04  0.12699999809E+01 0.  1.
</event>
<event>
 5   0  0.3481387E-06  0.2506411E+04  0.7818609E-02  0.8400705E-01
        1   -1    0    0  501    0  0.00000000000E+00  0.00000000000E+00  0.16809016334E+04  0.16809016334E+04  0.50400001928E-02 0. -1.
       -1   -1    0    0    0  501  0.00000000000E+00  0.00000000000E+00 -0.93433446267E+03  0.93433446268E+03  0.50400001928E-02 0.  1.
    10030    2    1    2    0    0  0.00000000000E+00  0.00000000000E+00  0.74656717073E+03  0.26152360961E+04  0.25064112388E+04 0.  0.
        4    1    3    3  502    0 -0.83870078572E+03 -0.54798747574E+03  0.11588422777E+04  0.15318702030E+04  0.12699999809E+01 0. -1.
       -4    1    3    3    0  502  0.83870078572E+03  0.54798747574E+03 -0.41227510693E+03  0.10833658931E+04  0.12699999809E+01 0.  1.
</event>
<event>
 5   0  0.3642184E-06  0.2497164E+04  0.7818609E-02  0.8403997E-01
        1   -1    0    0  501    0  0.00000000000E+00  0.00000000000E+00  0.17509240146E+04  0.17509240146E+04  0.50400001928E-02 0.  1.
       -1   -1    0    0    0  501  0.00000000000E+00  0.00000000000E+00 -0.89036242357E+03  0.89036242359E+03  0.50400001928E-02 0. -1.
    10030    2    1    2    0    0  0.00000000000E+00  0.00000000000E+00  0.86056159105E+03  0.26412864382E+04  0.24971639507E+04 0.  0.
        5    1    3    3  502    0 -0.61000605239E+03  0.75820816984E+03 -0.39713851061E+03  0.10510604642E+04  0.46999998093E+01 0. -1.
       -5    1    3    3    0  502  0.61000605239E+03 -0.75820816984E+03  0.12577001017E+04  0.15902259740E+04  0.46999998093E+01 0.  1.
</event>
<event>
 5   0  0.8948286E-06  0.2500559E+04  0.7818609E-02  0.8402786E-01
        2   -1    0    0  501    0  0.00000000000E+00  0.00000000000E+00  0.76666531607E+03  0.76666531608E+03  0.25500000920E-02 0. -1.
       -2   -1    0    0    0  501  0.00000000000E+00  0.00000000000E+00 -0.20389582462E+04  0.20389582462E+04  0.25500000920E-02 0.  1.
    10030    2    1    2    0    0  0.00000000000E+00  0.00000000000E+00 -0.12722929301E+04  0.28056235622E+04  0.25005587922E+04 0.  0.
        4    1    3    3  502    0  0.10234624910E+04  0.58715057538E+03 -0.17220893231E+03  0.11924255943E+04  0.12699999809E+01 0. -1.
       -4    1    3    3    0  502 -0.10234624910E+04 -0.58715057538E+03 -0.11000839978E+04  0.16131979679E+04  0.12699999809E+01 0.  1.
</event>
<event>
 5   0  0.3642184E-06  0.2500814E+04  0.7818609E-02  0.8402696E-01
        1   -1    0    0  501    0  0.00000000000E+00  0.00000000000E+00  0.16680234422E+04  0.16680234423E+04  0.50400001928E-02 0.  1.
       -1   -1    0    0    0  501  0.00000000000E+00  0.00000000000E+00 -0.93734766834E+03  0.93734766835E+03  0.50400001928E-02 0. -1.
    10030    2    1    2    0    0  0.00000000000E+00  0.00000000000E+00  0.73067577391E+03  0.26053711106E+04  0.25008141749E+04 0.  0.
        5    1    3    3  502    0 -0.35795484198E+02  0.65697903037E+03  0.14730867757E+04  0.16133534956E+04  0.46999998093E+01 0.  1.
       -5    1    3    3    0  502  0.35795484198E+02 -0.65697903037E+03 -0.74241100175E+03  0.99201761504E+03  0.46999998093E+01 0. -1.
</event>
<event>
 5   0  0.8354653E-06  0.2438868E+04  0.7818609E-02  0.8425094E-01
        2   -1    0    0  501    0  0.00000000000E+00  0.00000000000E+00  0.12764237112E+04  0.12764237112E+04  0.25500000920E-02 0. -1.
       -2   -1    0    0    0  501  0.00000000000E+00  0.00000000000E+00 -0.11649883755E+04  0.11649883755E+04  0.25500000920E-02 0.  1.
    10030    2    1    2    0    0  0.00000000000E+00  0.00000000000E+00  0.11143533571E+03  0.24414120868E+04  0.24388675945E+04 0.  0.
        3    1    3    3  502    0  0.38382630854E+03  0.84074055875E+03 -0.74063191705E+03  0.11843576187E+04  0.10100000352E+00 0.  1.
       -3    1    3    3    0  502 -0.38382630854E+03 -0.84074055875E+03  0.85206725276E+03  0.12570544681E+04  0.10100000352E+00 0. -1.
</event>
<event>
 5   0  0.8354653E-06  0.2512047E+04  0.7818609E-02  0.8398706E-01
        2   -1    0    0  501    0  0.00000000000E+00  0.00000000000E+00  0.20448215464E+04  0.20448215464E+04  0.25500000920E-02 0. -1.
       -2   -1    0    0    0  501  0.00000000000E+00  0.00000000000E+00 -0.77150741311E+03  0.77150741312E+03  0.25500000920E-02 0.  1.
    10030    2    1    2    0    0  0.00000000000E+00  0.00000000000E+00  0.12733141333E+04  0.28163289595E+04  0.25120469594E+04 0.  0.
        3    1    3    3  502    0 -0.71185518776E+03 -0.22001476916E+02  0.17965642015E+04  0.19325798337E+04  0.10100000352E+00 0. -1.
       -3    1    3    3    0  502  0.71185518776E+03  0.22001476916E+02 -0.52325006820E+03  0.88374912583E+03  0.10100000352E+00 0.  1.
</event>
<event>
 5   0  0.2901250E-06  0.2490902E+04  0.7818609E-02  0.8406234E-01
       -3   -1    0    0    0  501  0.00000000000E+00  0.00000000000E+00  0.75203193861E+03  0.75203194539E+03  0.10100000352E+00 0. -1.
        3   -1    0    0  501    0  0.00000000000E+00  0.00000000000E+00 -0.20626086533E+04  0.20626086557E+04  0.10100000352E+00 0.  1.
    10030    2    1    2    0    0  0.00000000000E+00  0.00000000000E+00 -0.13105767146E+04  0.28146406011E+04  0.24909015212E+04 0.  0.
        1    1    3    3  502    0  0.10444975958E+04  0.67068237720E+03 -0.77028740574E+03  0.14608671282E+04  0.50400001928E-02 0. -1.
       -1    1    3    3    0  502 -0.10444975958E+04 -0.67068237720E+03 -0.54028930890E+03  0.13537734729E+04  0.50400001928E-02 0.  1.
</event>
<event>
 5   0  0.3642184E-06  0.2503826E+04  0.7818609E-02  0.8401624E-01
        1   -1    0    0  501    0  0.00000000000E+00  0.00000000000E+00  0.11631516430E+04  0.11631516430E+04  0.50400001928E-02 0.  1.
       -1   -1    0    0    0  501  0.00000000000E+00  0.00000000000E+00 -0.13474478557E+04  0.13474478557E+04  0.50400001928E-02 0. -1.
    10030    2    1    2    0    0  0.00000000000E+00  0.00000000000E+00 -0.18429621272E+03  0.25105994987E+04  0.25038260220E+04 0.  0.
        5    1    3    3  502    0  0.61501138070E+03 -0.78888661963E+03  0.66267186310E+03  0.11998904888E+04  0.46999998093E+01 0.  1.
       -5    1    3    3    0  502 -0.61501138070E+03  0.78888661963E+03 -0.84696807582E+03  0.13107090098E+04  0.46999998093E+01 0. -1.
</event>
<event>
 5   0  0.8354653E-06  0.2499132E+04  0.7818609E-02  0.8403295E-01
        2   -1    0    0  501    0  0.00000000000E+00  0.00000000000E+00  0.18058794570E+04  0.18058794570E+04  0.25500000920E-02 0.  1.
       -2   -1    0    0    0  501  0.00000000000E+00  0.00000000000E+00 -0.86462887295E+03  0.86462887295E+03  0.25500000920E-02 0. -1.
    10030    2    1    2    0    0  0.00000000000E+00  0.00000000000E+00  0.94125058403E+03  0.26705083299E+04  0.24991322651E+04 0.  0.
        3    1    3    3  502    0  0.49155275494E+03  0.36871957439E+03 -0.69202927105E+03  0.92546353662E+03  0.10100000352E+00 0. -1.
       -3    1    3    3    0  502 -0.49155275494E+03 -0.36871957439E+03  0.16332798551E+04  0.17450447933E+04  0.10100000352E+00 0.  1.
</event>
<event>
 5   0  0.2901250E-06  0.2510209E+04  0.7818609E-02  0.8399357E-01
       -3   -1    0    0    0  501  0.00000000000E+00  0.00000000000E+00  0.13815957083E+04  0.13815957120E+04  0.10100000352E+00 0.  1.
        3   -1    0    0  501    0  0.00000000000E+00  0.00000000000E+00 -0.11401945439E+04  0.11401945483E+04  0.10100000352E+00 0. -1.
    10030    2    1    2    0    0  0.00000000000E+00  0.00000000000E+00  0.24140116445E+03  0.25217902604E+04  0.25102094723E+04 0.  0.
        5    1    3    3  502    0 -0.18214425125E+03 -0.66858763480E+03  0.11719890343E+04  0.13615308811E+04  0.46999998093E+01 0.  1.
       -5    1    3    3    0  502  0.18214425125E+03  0.66858763480E+03 -0.93058786984E+03  0.11602593793E+04  0.46999998093E+01 0. -1.
</event>
<event>
 5   0  0.8056723E-06  0.2499109E+04  0.7818609E-02  0.8403303E-01
        2   -1    0    0  501    0  0.00000000000E+00  0.00000000000E+00  0.10567979652E+04  0.10567979652E+04  0.25500000920E-02 0.  1.
       -2   -1    0    0    0  501  0.00000000000E+00  0.00000000000E+00 -0.14774696578E+04  0.14774696578E+04  0.25500000920E-02 0. -1.
    10030    2    1    2    0    0  0.00000000000E+00  0.00000000000E+00 -0.42067169264E+03  0.25342676230E+04  0.24991093837E+04 0.  0.
        2    1    3    3  502    0 -0.89322416159E+03  0.40225523524E+02 -0.10954957545E+04  0.14140645119E+04  0.25500000920E-02 0. -1.
       -2    1    3    3    0  502  0.89322416159E+03 -0.40225523524E+02  0.67482406187E+03  0.11202031111E+04  0.25500000920E-02 0.  1.
</event>
<event>
 5   0  0.8579923E-06  0.2495050E+04  0.7818609E-02  0.8404751E-01
        2   -1    0    0  501    0  0.00000000000E+00  0.00000000000E+00  0.16184104276E+04  0.16184104276E+04  0.25500000920E-02 0.  1.
       -2   -1    0    0    0  501  0.00000000000E+00  0.00000000000E+00 -0.96163397616E+03  0.96163397616E+03  0.25500000920E-02 0. -1.
    10030    2    1    2    0    0  0.00000000000E+00  0.00000000000E+00  0.65677645140E+03  0.25800444037E+04  0.24950498628E+04 0.  0.
        1    1    3    3  502    0  0.14150477947E+03  0.95405948037E+03 -0.48980859686E+03  0.10817419084E+04  0.50400001928E-02 0. -1.
       -1    1    3    3    0  502 -0.14150477947E+03 -0.95405948037E+03  0.11465850483E+04  0.14983024954E+04  0.50400001928E-02 0.  1.
</event>
<event>
 5   0  0.3424193E-06  0.2480284E+04  0.7818609E-02  0.8410043E-01
        1   -1    0    0  501    0  0.00000000000E+00  0.00000000000E+00  0.94528858985E+03  0.94528858986E+03  0.50400001928E-02 0.  1.
       -1   -1    0    0    0  501  0.00000000000E+00  0.00000000000E+00 -0.16269657301E+04  0.16269657301E+04  0.50400001928E-02 0. -1.
    10030    2    1    2    0    0  0.00000000000E+00  0.00000000000E+00 -0.68167714020E+03  0.25722543199E+04  0.24802839682E+04 0.  0.
        1    1    3    3  502    0 -0.14278708303E+03 -0.90962582480E+02 -0.16149247866E+04  0.16237747408E+04  0.50400001928E-02 0. -1.
       -1    1    3    3    0  502  0.14278708303E+03  0.90962582480E+02  0.93324764639E+03  0.94847957912E+03  0.50400001928E-02 0.  1.
</event>
<event>
 5   0  0.8948286E-06  0.2506393E+04  0.7818609E-02  0.8400712E-01
       -2   -1    0    0    0  501  0.00000000000E+00  0.00000000000E+00  0.84120758856E+03  0.84120758857E+03  0.25500000920E-02 0. -1.
        2   -1    0    0  501    0  0.00000000000E+00  0.00000000000E+00 -0.18669607553E+04  0.18669607553E+04  0.25500000920E-02 0.  1.
    10030    2    1    2    0    0  0.00000000000E+00  0.00000000000E+00 -0.10257531667E+04  0.27081683438E+04  0.25063930696E+04 0.  0.
        4    1    3    3  502    0 -0.11756836236E+03 -0.34308528753E+03  0.78326475615E+03  0.86315417249E+03  0.12699999809E+01 0. -1.
       -4    1    3    3    0  502  0.11756836236E+03  0.34308528753E+03 -0.18090179229E+04  0.18450141713E+04  0.12699999809E+01 0.  1.
</event>
<event>
 5   0  0.8948286E-06  0.2485528E+04  0.7818609E-02  0.8408159E-01
        2   -1    0    0  501    0  0.00000000000E+00  0.00000000000E+00  0.16562180346E+04  0.16562180346E+04  0.25500000920E-02 0.  1.
       -2   -1    0    0    0  501  0.00000000000E+00  0.00000000000E+00 -0.93252369104E+03  0.93252369105E+03  0.25500000920E-02 0. -1.
    10030    2    1    2    0    0  0.00000000000E+00  0.00000000000E+00  0.72369434355E+03  0.25887417256E+04  0.24855281570E+04 0.  0.
        4    1    3    3  502    0 -0.10144281986E+04 -0.30336355311E+03  0.10395331506E+04  0.14838210134E+04  0.12699999809E+01 0.  1.
       -4    1    3    3    0  502  0.10144281986E+04  0.30336355311E+03 -0.31583880709E+03  0.11049207123E+04  0.12699999809E+01 0. -1.
</event>
<event>
 5   0  0.8407986E-06  0.2507076E+04  0.7818609E-02  0.8400469E-01
        2   -1    0    0  501    0  0.00000000000E+00  0.00000000000E+00  0.15822543828E+04  0.15822543828E+04  0.25500000920E-02 0. -1.
       -2   -1    0    0    0  501  0.00000000000E+00  0.00000000000E+00 -0.99311271147E+03  0.99311271147E+03  0.25500000920E-02 0.  1.
    10030    2    1    2    0    0  0.00000000000E+00  0.00000000000E+00  0.58914167130E+03  0.25753670942E+04  0.25070755396E+04 0.  0.
        5    1    3    3  502    0  0.92339823034E+03  0.58355414128E+03 -0.33710640829E+03  0.11431808904E+04  0.46999998093E+01 0.  1.
       -5    1    3    3    0  502 -0.92339823034E+03 -0.58355414128E+03  0.92624807959E+03  0.14321862039E+04  0.46999998093E+01 0. -1.
</event>
<event>
 5   0  0.3481387E-06  0.2486161E+04  0.7818609E-02  0.8407932E-01
        1   -1    0    0  501    0  0.00000000000E+00  0.00000000000E+00  0.21258532732E+04  0.21258532732E+04  0.50400001928E-02 0.  1.
       -1   -1    0    0    0  501  0.00000000000E+00  0.00000000000E+00 -0.72688439220E+03  0.72688439222E+03  0.50400001928E-02 0. -1.
    10030    2    1    2    0    0  0.00000000000E+00  0.00000000000E+00  0.13989688810E+04  0.28527376654E+04  0.24861613499E+04 0.  0.
        4    1    3    3  502    0  0.64851644174E+03 -0.91184409694E+03  0.13208188558E+04  0.17310682526E+04  0.12699999809E+01 0.  1.
       -4    1    3    3    0  502 -0.64851644174E+03  0.91184409694E+03  0.78150025169E+02  0.11216694128E+04  0.12699999809E+01 0. -1.
</event>
<event>
 5   0  0.3522870E-06  0.2644930E+04  0.7818609E-02  0.8353098E-01
        1   -1    0    0  501    0  0.00000000000E+00  0.00000000000E+00  0.10295989680E+04  0.10295989680E+04  0.50400001928E-02 0. -1.
       -1   -1    0    0    0  501  0.00000000000E+00  0.00000000000E+00 -0.16986360174E+04  0.16986360175E+04  0.50400001928E-02 0.  1.
    10030    2    1    2    0    0  0.00000000000E+00  0.00000000000E+00 -0.66903704943E+03  0.27282349855E+04  0.26449301621E+04 0.  0.
        2    1    3    3  502    0 -0.49374335629E+03  0.12145262469E+04 -0.51334966933E+03  0.14079717289E+04  0.25500000920E-02 0. -1.
       -2    1    3    3    0  502  0.49374335629E+03 -0.12145262469E+04 -0.15568738011E+03  0.13202632566E+04  0.25500000920E-02 0.  1.
</event>
<event>
 5   0  0.8354653E-06  0.2493928E+04  0.7818609E-02  0.8405152E-01
        2   -1    0    0  501    0  0.00000000000E+00  0.00000000000E+00  0.15794434494E+04  0.15794434494E+04  0.25500000920E-02 0.  1.
       -2   -1    0    0    0  501  0.00000000000E+00  0.00000000000E+00 -0.98447301013E+03  0.98447301014E+03  0.25500000920E-02 0. -1.
    10030    2    1    2    0    0  0.00000000000E+00  0.00000000000E+00  0.59497043922E+03  0.25639164595E+04  0.24939281842E+04 0.  0.
        3    1    3    3  502    0 -0.11201156378E+03 -0.83517433518E+03 -0.64747047653E+03  0.10626762389E+04  0.10100000352E+00 0. -1.
       -3    1    3    3    0  502  0.11201156378E+03  0.83517433518E+03  0.12424409158E+04  0.15012402206E+04  0.10100000352E+00 0.  1.
</event>
<event>
 5   0  0.8948286E-06  0.2536166E+04  0.7818609E-02  0.8390213E-01
        2   -1    0    0  501    0  0.00000000000E+00  0.00000000000E+00  0.15094472183E+04  0.15094472183E+04  0.25500000920E-02 0.  1.
       -2   -1    0    0    0  501  0.00000000000E+00  0.00000000000E+00 -0.10653137644E+04  0.10653137644E+04  0.25500000920E-02 0. -1.
    10030    2    1    2    0    0  0.00000000000E+00  0.00000000000E+00  0.44413345386E+03  0.25747609828E+04  0.25361663182E+04 0.  0.
        4    1    3    3  502    0  0.57805820037E+01  0.12248081535E+04  0.55546159405E+03  0.13448894465E+04  0.12699999809E+01 0.  1.
       -4    1    3    3    0  502 -0.57805820037E+01 -0.12248081535E+04 -0.11132814019E+03  0.12298715362E+04  0.12699999809E+01 0. -1.
</event>
<event>
 5   0  0.8948286E-06  0.2492656E+04  0.7818609E-02  0.8405607E-01
       -2   -1    0    0    0  501  0.00000000000E+00  0.00000000000E+00  0.21106770419E+04  0.21106770419E+04  0.25500000920E-02 0. -1.
        2   -1    0    0  501    0  0.00000000000E+00  0.00000000000E+00 -0.73594060189E+03  0.73594060190E+03  0.25500000920E-02 0.  1.
    10030    2    1    2    0    0  0.00000000000E+00  0.00000000000E+00  0.13747364400E+04  0.28466176438E+04  0.24926555579E+04 0.  0.
        4    1    3    3  502    0 -0.11745310618E+04  0.34318919729E+03  0.41705058157E+03  0.12927624843E+04  0.12699999809E+01 0.  1.
       -4    1    3    3    0  502  0.11745310618E+04 -0.34318919729E+03  0.95768585840E+03  0.15538551595E+04  0.12699999809E+01 0. -1.
</event>
<event>
 5   0  0.3484857E-06  0.2491245E+04  0.7818609E-02  0.8406111E-01
        1   -1    0    0  501    0  0.00000000000E+00  0.00000000000E+00  0.92813687519E+03  0.92813687520E+03  0.50400001928E-02 0.  1.
       -1   -1    0    0    0  501  0.00000000000E+00  0.00000000000E+00 -0.16717099070E+04  0.16717099070E+04  0.50400001928E-02 0. -1.
    10030    2    1    2    0    0  0.00000000000E+00  0.00000000000E+00 -0.74357303177E+03  0.25998467822E+04  0.24912451580E+04 0.  0.
        3    1    3    3  502    0  0.11104490428E+04 -0.53771297451E+03 -0.55055279961E+03  0.13510517070E+04  0.10100000352E+00 0.  1.
       -3    1    3    3    0  502 -0.11104490428E+04  0.53771297451E+03 -0.19302023216E+03  0.12487950752E+04  0.10100000352E+00 0. -1.
</event>
<event>
 5   0  0.3424193E-06  0.2601539E+04  0.7818609E-02  0.8367679E-01
       -1   -1    0    0    0  501  0.00000000000E+00  0.00000000000E+00  0.81299331160E+03  0.81299331162E+03  0.50400001928E-02 0. -1.
        1   -1    0    0  501    0  0.00000000000E+00  0.00000000000E+00 -0.20812000620E+04  0.20812000620E+04  0.50400001928E-02 0.  1.
    10030    2    1    2    0    0  0.00000000000E+00  0.00000000000E+00 -0.12682067504E+04  0.28941933736E+04  0.26015393370E+04 0.  0.
        1    1    3    3  502    0 -0.12614969347E+04 -0.38386397936E+02 -0.28379412351E+03  0.12935946569E+04  0.50400001928E-02 0. -1.
       -1    1    3    3    0  502  0.12614969347E+04  0.38386397936E+02 -0.98441262688E+03  0.16005987167E+04  0.50400001928E-02 0.  1.
</event>
<event>
 5   0  0.3522870E-06  0.2489638E+04  0.7818609E-02  0.8406686E-01
        1   -1    0    0  501    0  0.00000000000E+00  0.00000000000E+00  0.91739143521E+03  0.91739143523E+03  0.50400001928E-02 0. -1.
       -1   -1    0    0    0  501  0.00000000000E+00  0.00000000000E+00 -0.16891088020E+04  0.16891088020E+04  0.50400001928E-02 0.  1.
    10030    2    1    2    0    0  0.00000000000E+00  0.00000000000E+00 -0.77171736678E+03  0.26065002372E+04  0.24896376830E+04 0.  0.
        2    1    3    3  502    0 -0.38354132254E+03 -0.26727534902E+03 -0.15937175081E+04  0.16608659048E+04  0.25500000920E-02 0.  1.
       -2    1    3    3    0  502  0.38354132254E+03  0.26727534902E+03  0.82200014130E+03  0.94563433239E+03  0.25500000920E-02 0. -1.
</event>
<event>
 5   0  0.8579923E-06  0.2495130E+04  0.7818609E-02  0.8404723E-01
        2   -1    0    0  501    0  0.00000000000E+00  0.00000000000E+00  0.19301781645E+04  0.19301781645E+04  0.25500000920E-02 0. -1.
       -2   -1    0    0    0  501  0.00000000000E+00  0.00000000000E+00 -0.80635977527E+03  0.80635977528E+03  0.25500000920E-02 0.  1.
    10030    2    1    2    0    0  0.00000000000E+00  0.00000000000E+00  0.11238183893E+04  0.27365379398E+04  0.24951296808E+04 0.  0.
        1    1    3    3  502    0  0.38567982681E+03 -0.11651561009E+04  0.80734735303E+03  0.14690634489E+04  0.50400001928E-02 0. -1.
       -1    1    3    3    0  502 -0.38567982681E+03  0.11651561009E+04  0.31647103624E+03  0.12674744909E+04  0.50400001928E-02 0.  1.
</event>
<event>
 5   0  0.8948286E-06  0.2491519E+04  0.7818609E-02  0.8406013E-01
       -2   -1    0    0    0  501  0.00000000000E+00  0.00000000000E+00  0.88925110779E+03  0.88925110779E+03  0.25500000920E-02 0. -1.
        2   -1    0    0  501    0  0.00000000000E+00  0.00000000000E+00 -0.17451954862E+04  0.17451954862E+04  0.25500000920E-02 0.  1.
    10030    2    1    2    0    0  0.00000000000E+00  0.00000000000E+00 -0.85594437843E+03  0.26344465940E+04  0.24915192309E+04 0.  0.
        4    1    3    3  502    0 -0.11894672934E+04 -0.31513913299E+03 -0.22247763257E+03  0.12504571265E+04  0.12699999809E+01 0. -1.
       -4    1    3    3    0  502  0.11894672934E+04  0.31513913299E+03 -0.63346674586E+03  0.13839894675E+04  0.12699999809E+01 0.  1.
</event>
<event>
 5   0  0.3642184E-06  0.2506864E+04  0.7818609E-02  0.8400544E-01
       -1   -1    0    0    0  501  0.00000000000E+00  0.00000000000E+00  0.54159860615E+03  0.54159860617E+03  0.50400001928E-02 0. -1.
        1   -1    0    0  501    0  0.00000000000E+00  0.00000000000E+00 -0.29008424034E+04  0.29008424034E+04  0.50400001928E-02 0.  1.
    10030    2    1    2    0    0  0.00000000000E+00  0.00000000000E+00 -0.23592437972E+04  0.34424410095E+04  0.25068643381E+04 0.  0.
        5    1    3    3  502    0 -0.40047936822E+02 -0.83220991804E+03  0.10628331826E+03  0.83993774690E+03  0.46999998093E+01 0. -1.
       -5    1    3    3    0  502  0.40047936822E+02  0.83220991804E+03 -0.24655271155E+04  0.26025032626E+04  0.46999998093E+01 0.  1.
</event>
<event>
 5   0  0.8579923E-06  0.2497508E+04  0.7818609E-02  0.8403874E-01
       -2   -1    0    0    0  501  0.00000000000E+00  0.00000000000E+00  0.79152536344E+03  0.79152536344E+03  0.25500000920E-02 0.  1.
        2   -1    0    0  501    0  0.00000000000E+00  0.00000000000E+00 -0.19701030833E+04  0.19701030833E+04  0.25500000920E-02 0. -1.
    10030    2    1    2    0    0  0.00000000000E+00  0.00000000000E+00 -0.11785777199E+04  0.27616284467E+04  0.24975080052E+04 0.  0.
        1    1    3    3  502    0 -0.73379845172E+03  0.10021290995E+04 -0.44654956580E+03  0.13198975016E+04  0.50400001928E-02 0. -1.
       -1    1    3    3    0  502  0.73379845172E+03 -0.10021290995E+04 -0.73202815406E+03  0.14417309452E+04  0.50400001928E-02 0.  1.
</event>
<event>
 5   0  0.3484857E-06  0.2493674E+04  0.7818609E-02  0.8405243E-01
        1   -1    0    0  501    0  0.00000000000E+00  0.00000000000E+00  0.99636231282E+03  0.99636231283E+03  0.50400001928E-02 0. -1.
       -1   -1    0    0    0  501  0.00000000000E+00  0.00000000000E+00 -0.15602778389E+04  0.15602778390E+04  0.50400001928E-02 0.  1.
    10030    2    1    2    0    0  0.00000000000E+00  0.00000000000E+00 -0.56391552613E+03  0.25566401518E+04  0.24936736244E+04 0.  0.
        3    1    3    3  502    0  0.85144638497E+03 -0.48018495648E+03 -0.10754933694E+04  0.14533494200E+04  0.10100000352E+00 0.  1.
       -3    1    3    3    0  502 -0.85144638497E+03  0.48018495648E+03  0.51157784324E+03  0.11032907318E+04  0.10100000352E+00 0. -1.
</event>
<event>
 5   0  0.3642184E-06  0.2347347E+04  0.7818609E-02  0.8459483E-01
       -1   -1    0    0    0  501  0.00000000000E+00  0.00000000000E+00  0.77569009506E+03  0.77569009508E+03  0.50400001928E-02 0. -1.
        1   -1    0    0  501    0  0.00000000000E+00  0.00000000000E+00 -0.17758504369E+04  0.17758504369E+04  0.50400001928E-02 0.  1.
    10030    2    1    2    0    0  0.00000000000E+00  0.00000000000E+00 -0.10001603419E+04  0.25515405320E+04  0.23473470934E+04 0.  0.
        5    1    3    3  502    0 -0.27225516604E+03 -0.82871681899E+03  0.35346100499E+03  0.94119669228E+03  0.46999998093E+01 0. -1.
       -5    1    3    3    0  502  0.27225516604E+03  0.82871681899E+03 -0.13536213469E+04  0.16103438397E+04  0.46999998093E+01 0.  1.
</event>
<event>
 5   0  0.3642184E-06  0.2495359E+04  0.7818609E-02  0.8404641E-01
       -1   -1    0    0    0  501  0.00000000000E+00  0.00000000000E+00  0.11554304808E+04  0.11554304808E+04  0.50400001928E-02 0.  1.
        1   -1    0    0  501    0  0.00000000000E+00  0.00000000000E+00 -0.13472934316E+04  0.13472934316E+04  0.50400001928E-02 0. -1.
    10030    2    1    2    0    0  0.00000000000E+00  0.00000000000E+00 -0.19186295081E+03  0.25027239125E+04  0.24953588099E+04 0.  0.
        5    1    3    3  502    0  0.95272341060E+03 -0.67978477482E+03  0.33765523217E+03  0.12181224828E+04  0.46999998093E+01 0.  1.
       -5    1    3    3    0  502 -0.95272341060E+03  0.67978477482E+03 -0.52951818298E+03  0.12846014297E+04  0.46999998093E+01 0. -1.
</event>
<event>
 5   0  0.8407986E-06  0.2483809E+04  0.7818609E-02  0.8408776E-01
       -2   -1    0    0    0  501  0.00000000000E+00  0.00000000000E+00  0.76479871571E+03  0.76479871572E+03  0.25500000920E-02 0. -1.
        2   -1    0    0  501    0  0.00000000000E+00  0.00000000000E+00 -0.20166440012E+04  0.20166440013E+04  0.25500000920E-02 0.  1.
    10030    2    1    2    0    0  0.00000000000E+00  0.00000000000E+00 -0.12518452855E+04  0.27814427170E+04  0.24838089638E+04 0.  0.
        5    1    3    3  502    0 -0.63848078192E+02 -0.76408477126E+03  0.46807836680E+03  0.89834378844E+03  0.46999998093E+01 0. -1.
       -5    1    3    3    0  502  0.63848078192E+02  0.76408477126E+03 -0.17199236523E+04  0.18830989285E+04  0.46999998093E+01 0.  1.
</event>
<event>
 5   0  0.8407986E-06  0.2504223E+04  0.7818609E-02  0.8401483E-01
       -2   -1    0    0    0  501  0.00000000000E+00  0.00000000000E+00  0.76463499580E+03  0.76463499580E+03  0.25500000920E-02 0.  1.
        2   -1    0    0  501    0  0.00000000000E+00  0.00000000000E+00 -0.20503680905E+04  0.20503680905E+04  0.25500000920E-02 0. -1.
    10030    2    1    2    0    0  0.00000000000E+00  0.00000000000E+00 -0.12857330947E+04  0.28150030863E+04  0.25042229903E+04 0.  0.
        5    1    3    3  502    0  0.52128714816E+03 -0.97252497062E+03  0.22366578035E+02  0.11036609367E+04  0.46999998093E+01 0.  1.
       -5    1    3    3    0  502 -0.52128714816E+03  0.97252497062E+03 -0.13080996728E+04  0.17113421497E+04  0.46999998093E+01 0. -1.
</event>
<event>
 5   0  0.8056723E-06  0.2503999E+04  0.7818609E-02  0.8401562E-01
       -2   -1    0    0    0  501  0.00000000000E+00  0.00000000000E+00  0.53636230809E+03  0.53636230810E+03  0.25500000920E-02 0. -1.
        2   -1    0    0  501    0  0.00000000000E+00  0.00000000000E+00 -0.29224688356E+04  0.29224688356E+04  0.25500000920E-02 0.  1.
    10030    2    1    2    0    0  0.00000000000E+00  0.00000000000E+00 -0.23861065275E+04  0.34588311437E+04  0.25039985064E+04 0.  0.
        2    1    3    3  502    0 -0.18832251875E+03  0.86022749304E+03  0.36281996902E+02  0.88134731755E+03  0.25500000920E-02 0. -1.
       -2    1    3    3    0  502  0.18832251875E+03 -0.86022749304E+03 -0.24223885244E+04  0.25774838262E+04  0.25500000920E-02 0.  1.
</event>
<event>
 5   0  0.3424193E-06  0.2483136E+04  0.7818609E-02  0.8409018E-01
       -1   -1    0    0    0  501  0.00000000000E+00  0.00000000000E+00  0.82687180393E+03  0.82687180394E+03  0.50400001928E-02 0. -1.
        1   -1    0    0  501    0  0.00000000000E+00  0.00000000000E+00 -0.18642439714E+04  0.18642439714E+04  0.50400001928E-02 0.  1.
    10030    2    1    2    0    0  0.00000000000E+00  0.00000000000E+00 -0.10373721674E+04  0.26911157753E+04  0.24831357398E+04 0.  0.
        1    1    3    3  502    0 -0.10970872933E+04  0.51332643196E+03 -0.22310395758E+03  0.12316167954E+04  0.50400001928E-02 0. -1.
       -1    1    3    3    0  502  0.10970872933E+04 -0.51332643196E+03 -0.81426820986E+03  0.14594989799E+04  0.50400001928E-02 0.  1.
</event>
<event>
 5   0  0.8407986E-06  0.2503968E+04  0.7818609E-02  0.8401573E-01
       -2   -1    0    0    0  501  0.00000000000E+00  0.00000000000E+00  0.10347584906E+04  0.10347584906E+04  0.25500000920E-02 0.  1.
        2   -1    0    0  501    0  0.00000000000E+00  0.00000000000E+00 -0.15148109883E+04  0.15148109883E+04  0.25500000920E-02 0. -1.
    10030    2    1    2    0    0  0.00000000000E+00  0.00000000000E+00 -0.48005249772E+03  0.25495694789E+04  0.25039676770E+04 0.  0.
        5    1    3    3  502    0 -0.29668652202E+03 -0.78195381703E+03 -0.11886405863E+04  0.14533971232E+04  0.46999998093E+01 0. -1.
       -5    1    3    3    0  502  0.29668652202E+03  0.78195381703E+03  0.70858808855E+03  0.10961723558E+04  0.46999998093E+01 0.  1.
</event>
<event>
 5   0  0.3642184E-06  0.2502855E+04  0.7818609E-02  0.8401969E-01
       -1   -1    0    0    0  501  0.00000000000E+00  0.00000000000E+00  0.84093442573E+03  0.84093442574E+03  0.50400001928E-02 0.  1.
        1   -1    0    0  501    0  0.00000000000E+00  0.00000000000E+00 -0.18622977163E+04  0.18622977163E+04  0.50400001928E-02 0. -1.
    10030    2    1    2    0    0  0.00000000000E+00  0.00000000000E+00 -0.10213632906E+04  0.27032321421E+04  0.25028545788E+04 0.  0.
        5    1    3    3  502    0 -0.65478204664E+03  0.50100293898E+03 -0.15274903401E+04  0.17357973103E+04  0.46999998093E+01 0. -1.
       -5    1    3    3    0  502  0.65478204664E+03 -0.50100293898E+03  0.50612704948E+03  0.96743483175E+03  0.46999998093E+01 0.  1.
</event>
<event>
 5   0  0.8354653E-06  0.2495923E+04  0.7818609E-02  0.8404440E-01
        2   -1    0    0  501    0  0.00000000000E+00  0.00000000000E+00  0.21017806371E+04  0.21017806371E+04  0.25500000920E-02 0. -1.
       -2   -1    0    0    0  501  0.00000000000E+00  0.00000000000E+00 -0.74099423400E+03  0.74099423400E+03  0.25500000920E-02 0.  1.
    10030    2    1    2    0    0  0.00000000000E+00  0.00000000000E+00  0.13607864031E+04  0.28427748711E+04  0.24959225415E+04 0.  0.
        3    1    3    3  502    0  0.58505432209E+03 -0.84459835764E+02  0.19322140755E+04  0.20206121022E+04  0.10100000352E+00 0. -1.
       -3    1    3    3    0  502 -0.58505432209E+03  0.84459835764E+02 -0.57142767240E+03  0.82216276894E+03  0.10100000352E+00 0.  1.
</event>
<event>
 5   0  0.8407986E-06  0.2492631E+04  0.7818609E-02  0.8405616E-01
       -2   -1    0    0    0  501  0.00000000000E+00  0.00000000000E+00  0.12456668330E+04  0.12456668330E+04  0.25500000920E-02 0. -1.
        2   -1    0    0  501    0  0.00000000000E+00  0.00000000000E+00 -0.12469641996E+04  0.12469641997E+04  0.25500000920E-02 0.  1.
    10030    2    1    2    0    0  0.00000000000E+00  0.00000000000E+00 -0.12973666961E+01  0.24926310326E+04  0.24926306950E+04 0.  0.
        5    1    3    3  502    0  0.72994961763E+03  0.87550416967E+03  0.50328179676E+03  0.12460532301E+04  0.46999998093E+01 0. -1.
       -5    1    3    3    0  502 -0.72994961763E+03 -0.87550416967E+03 -0.50457916346E+03  0.12465778025E+04  0.46999998093E+01 0.  1.
</event>
<event>
 5   0  0.3481387E-06  0.2495770E+04  0.7818609E-02  0.8404494E-01
        1   -1    0    0  501    0  0.00000000000E+00  0.00000000000E+00  0.93256567783E+03  0.93256567784E+03  0.50400001928E-02 0.  1.
       -1   -1    0    0    0  501  0.00000000000E+00  0.00000000000E+00 -0.16698207735E+04  0.16698207735E+04  0.50400001928E-02 0. -1.
    10030    2    1    2    0    0  0.00000000000E+00  0.00000000000E+00 -0.73725509564E+03  0.26023864513E+04  0.24957704554E+04 0.  0.
        4    1    3    3  502    0 -0.59387181546E+03 -0.10127950555E+04  0.72256756123E+02  0.11762908694E+04  0.12699999809E+01 0.  1.
       -4    1    3    3    0  502  0.59387181546E+03  0.10127950555E+04 -0.80951185176E+03  0.14260955819E+04  0.12699999809E+01 0. -1.
</event>
<event>
 5   0  0.8354653E-06  0.2499744E+04  0.7818609E-02  0.8403077E-01
       -2   -1    0    0    0  501  0.00000000000E+00  0.00000000000E+00  0.14511625429E+04  0.14511625429E+04  0.25500000920E-02 0. -1.
        2   -1    0    0  501    0  0.00000000000E+00  0.00000000000E+00 -0.10765024996E+04  0.10765024996E+04  0.25500000920E-02 0.  1.
    10030    2    1    2    0    0  0.00000000000E+00  0.00000000000E+00  0.37466004325E+03  0.25276650425E+04  0.24997440707E+04 0.  0.
        3    1    3    3  502    0  0.38175782694E+03  0.32729646785E+03 -0.96970514099E+03  0.10923324068E+04  0.10100000352E+00 0.  1.
       -3    1    3    3    0  502 -0.38175782694E+03 -0.32729646785E+03  0.13443651842E+04  0.14353326357E+04  0.10100000352E+00 0. -1.
</event>
<event>
 5   0  0.8056723E-06  0.2497252E+04  0.7818609E-02  0.8403965E-01
       -2   -1    0    0    0  501  0.00000000000E+00  0.00000000000E+00  0.62997589007E+03  0.62997589007E+03  0.25500000920E-02 0. -1.
        2   -1    0    0  501    0  0.00000000000E+00  0.00000000000E+00 -0.24748031919E+04  0.24748031919E+04  0.25500000920E-02 0.  1.
    10030    2    1    2    0    0  0.00000000000E+00  0.00000000000E+00 -0.18448273018E+04  0.31047790820E+04  0.24972515641E+04 0.  0.
        2    1    3    3  502    0 -0.60835979521E+03  0.40990075416E+02  0.43229471284E+03  0.74743598085E+03  0.25500000920E-02 0. -1.
       -2    1    3    3    0  502  0.60835979521E+03 -0.40990075416E+02 -0.22771220146E+04  0.23573431011E+04  0.25500000920E-02 0.  1.
</event>
<event>
 5   0  0.8948286E-06  0.2498117E+04  0.7818609E-02  0.8403657E-01
       -2   -1    0    0    0  501  0.00000000000E+00  0.00000000000E+00  0.77164941327E+03  0.77164941328E+03  0.25500000920E-02 0.  1.
        2   -1    0    0  501    0  0.00000000000E+00  0.00000000000E+00 -0.20218340674E+04  0.20218340674E+04  0.25500000920E-02 0. -1.
    10030    2    1    2    0    0  0.00000000000E+00  0.00000000000E+00 -0.12501846541E+04  0.27934834807E+04  0.24981169483E+04 0.  0.
        4    1    3    3  502    0  0.92264314490E+03 -0.19925981553E+03  0.28965631103E+03  0.98735871816E+03  0.12699999809E+01 0.  1.
       -4    1    3    3    0  502 -0.92264314490E+03  0.19925981553E+03 -0.15398409651E+04  0.18061247625E+04  0.12699999809E+01 0. -1.
</event>
<event>
 5   0  0.8354653E-06  0.2500487E+04  0.7818609E-02  0.8402812E-01
        2   -1    0    0  501    0  0.00000000000E+00  0.00000000000E+00  0.14022509853E+04  0.14022509853E+04  0.25500000920E-02 0. -1.
       -2   -1    0    0    0  501  0.00000000000E+00  0.00000000000E+00 -0.11147137178E+04  0.11147137178E+04  0.25500000920E-02 0.  1.
    10030    2    1    2    0    0  0.00000000000E+00  0.00000000000E+00  0.28753726746E+03  0.25169647031E+04  0.25004866799E+04 0.  0.
        3    1    3    3  502    0  0.69348321331E+03 -0.19106339572E+03  0.11730944255E+04  0.13760722109E+04  0.10100000352E+00 0. -1.
       -3    1    3    3    0  502 -0.69348321331E+03  0.19106339572E+03 -0.88555715805E+03  0.11408924922E+04  0.10100000352E+00 0.  1.
</event>
<event>
 5   0  0.8579923E-06  0.2498184E+04  0.7818609E-02  0.8403633E-01
        2   -1    0    0  501    0  0.00000000000E+00  0.00000000000E+00  0.83436913175E+03  0.83436913176E+03  0.25500000920E-02 0. -1.
       -2   -1    0    0    0  501  0.00000000000E+00  0.00000000000E+00 -0.18699523936E+04  0.18699523936E+04  0.25500000920E-02 0.  1.
    10030    2    1    2    0    0  0.00000000000E+00  0.00000000000E+00 -0.10355832618E+04  0.27043215253E+04  0.24981837843E+04 0.  0.
        1    1    3    3  502    0  0.10683132774E+04  0.11663587459E+03 -0.12069834589E+04  0.16160774288E+04  0.50400001928E-02 0.  1.
       -1    1    3    3    0  502 -0.10683132774E+04 -0.11663587459E+03  0.17140019708E+03  0.10882440965E+04  0.50400001928E-02 0. -1.
</event>
<event>
 5   0  0.8579923E-06  0.2490409E+04  0.7818609E-02  0.8406410E-01
       -2   -1    0    0    0  501  0.00000000000E+00  0.00000000000E+00  0.89843570871E+03  0.89843570871E+03  0.25500000920E-02 0. -1.
        2   -1    0    0  501    0  0.00000000000E+00  0.00000000000E+00 -0.17258149682E+04  0.17258149682E+04  0.25500000920E-02 0.  1.
    10030    2    1    2    0    0  0.00000000000E+00  0.00000000000E+00 -0.82737925952E+03  0.26242506769E+04  0.24904086364E+04 0.  0.
        1    1    3    3  502    0 -0.24800277330E+03  0.96644991299E+03  0.37133333802E+03  0.10646216501E+04  0.50400001928E-02 0. -1.
       -1    1    3    3    0  502  0.24800277330E+03 -0.96644991299E+03 -0.11987125975E+04  0.15596290269E+04  0.50400001928E-02 0.  1.
</event>
<event>
 5   0  0.3424193E-06  0.2496301E+04  0.7818609E-02  0.8404304E-01
        1   -1    0    0  501    0  0.00000000000E+00  0.00000000000E+00  0.21855661283E+04  0.21855661283E+04  0.50400001928E-02 0.  1.
       -1   -1    0    0    0  501  0.00000000000E+00  0.00000000000E+00 -0.71280397373E+03  0.71280397375E+03  0.50400001928E-02 0. -1.
    10030    2    1    2    0    0  0.00000000000E+00  0.00000000000E+00  0.14727621546E+04  0.28983701020E+04  0.24963014410E+04 0.  0.
        1    1    3    3  502    0  0.16574493912E+03 -0.46305553108E+03 -0.59555335490E+03  0.77238307094E+03  0.50400001928E-02 0. -1.
       -1    1    3    3    0  502 -0.16574493912E+03  0.46305553108E+03  0.20683155095E+04  0.21259870311E+04  0.50400001928E-02 0.  1.
</event>
<event>
 5   0  0.3522870E-06  0.2490604E+04  0.7818609E-02  0.8406341E-01
       -1   -1    0    0    0  501  0.00000000000E+00  0.00000000000E+00  0.11668646929E+04  0.11668646929E+04  0.50400001928E-02 0. -1.
        1   -1    0    0  501    0  0.00000000000E+00  0.00000000000E+00 -0.13290115351E+04  0.13290115351E+04  0.50400001928E-02 0.  1.
    10030    2    1    2    0    0  0.00000000000E+00  0.00000000000E+00 -0.16214684225E+03  0.24958762280E+04  0.24906036511E+04 0.  0.
        2    1    3    3  502    0 -0.11879148300E+04 -0.16318452119E+03 -0.41794843582E+03  0.12698235021E+04  0.25500000920E-02 0. -1.
       -2    1    3    3    0  502  0.11879148300E+04  0.16318452119E+03  0.25580159358E+03  0.12260527259E+04  0.25500000920E-02 0.  1.
</event>
<event>
 5   0  0.8579923E-06  0.2495640E+04  0.7818609E-02  0.8404540E-01
       -2   -1    0    0    0  501  0.00000000000E+00  0.00000000000E+00  0.12058450683E+04  0.12058450683E+04  0.25500000920E-02 0. -1.
        2   -1    0    0  501    0  0.00000000000E+00  0.00000000000E+00 -0.12912563716E+04  0.12912563716E+04  0.25500000920E-02 0.  1.
    10030    2    1    2    0    0  0.00000000000E+00  0.00000000000E+00 -0.85411303315E+02  0.24971014399E+04  0.24956403007E+04 0.  0.
        1    1    3    3  502    0 -0.12385296885E+04  0.81068038095E+02  0.85928207791E+02  0.12441509045E+04  0.50400001928E-02 0.  1.
       -1    1    3    3    0  502  0.12385296885E+04 -0.81068038095E+02 -0.17133951111E+03  0.12529505354E+04  0.50400001928E-02 0. -1.
</event>
<event>
 5   0  0.3642184E-06  0.2469290E+04  0.7818609E-02  0.8414008E-01
       -1   -1    0    0    0  501  0.00000000000E+00  0.00000000000E+00  0.96795988935E+03  0.96795988936E+03  0.50400001928E-02 0. -1.
        1   -1    0    0  501    0  0.00000000000E+00  0.00000000000E+00 -0.15748053300E+04  0.15748053300E+04  0.50400001928E-02 0.  1.
    10030    2    1    2    0    0  0.00000000000E+00  0.00000000000E+00 -0.60684544065E+03  0.25427652194E+04  0.24692900947E+04 0.  0.
        5    1    3    3  502    0  0.61721455224E+03 -0.10322280383E+04 -0.16053056828E+02  0.12028001984E+04  0.46999998093E+01 0.  1.
       -5    1    3    3    0  502 -0.61721455224E+03  0.10322280383E+04 -0.59079238382E+03  0.13399650210E+04  0.46999998093E+01 0. -1.
</event>
<event>
 5   0  0.8407986E-06  0.2529602E+04  0.7818609E-02  0.8392515E-01
        2   -1    0    0  501    0  0.00000000000E+00  0.00000000000E+00  0.97296861514E+03  0.97296861515E+03  0.25500000920E-02 0.  1.
       -2   -1    0    0    0  501  0.00000000000E+00  0.00000000000E+00 -0.16441662211E+04  0.16441662211E+04  0.25500000920E-02 0. -1.
    10030    2    1    2    0    0  0.00000000000E+00  0.00000000000E+00 -0.67119760597E+03  0.26171348363E+04  0.25296024440E+04 0.  0.
        5    1    3    3  502    0 -0.65573877445E+03  0.99037064513E+02  0.77865414930E+03  0.10228030381E+04  0.46999998093E+01 0.  1.
       -5    1    3    3    0  502  0.65573877445E+03 -0.99037064513E+02 -0.14498517553E+04  0.15943317982E+04  0.46999998093E+01 0. -1.
</event>
<event>
 5   0  0.3484857E-06  0.2502562E+04  0.7818609E-02  0.8402073E-01
        1   -1    0    0  501    0  0.00000000000E+00  0.00000000000E+00  0.26533787101E+04  0.26533787101E+04  0.50400001928E-02 0.  1.
       -1   -1    0    0    0  501  0.00000000000E+00  0.00000000000E+00 -0.59007963550E+03  0.59007963553E+03  0.50400001928E-02 0. -1.
    10030    2    1    2    0    0  0.00000000000E+00  0.00000000000E+00  0.20632990746E+04  0.32434583456E+04  0.25025624804E+04 0.  0.
        3    1    3    3  502    0 -0.52453935590E+03  0.10936734203E+04  0.14299448256E+04  0.18751014107E+04  0.10100000352E+00 0.  1.
       -3    1    3    3    0  502  0.52453935590E+03 -0.10936734203E+04  0.63335424899E+03  0.13683569348E+04  0.10100000352E+00 0. -1.
</event>
<event>
 5   0  0.8056723E-06  0.2493993E+04  0.7818609E-02  0.8405129E-01
        2   -1    0    0  501    0  0.00000000000E+00  0.00000000000E+00  0.12044520187E+04  0.12044520187E+04  0.25500000920E-02 0. -1.
       -2   -1    0    0    0  501  0.00000000000E+00  0.00000000000E+00 -0.12910438741E+04  0.12910438741E+04  0.25500000920E-02 0.  1.
    10030    2    1    2    0    0  0.00000000000E+00  0.00000000000E+00 -0.86591855386E+02  0.24954958929E+04  0.24939931038E+04 0.  0.
        2    1    3    3  502    0  0.25753653781E+03  0.48069191578E+03 -0.11654040558E+04  0.12866842657E+04  0.25500000920E-02 0.  1.
       -2    1    3    3    0  502 -0.25753653781E+03 -0.48069191578E+03  0.10788122004E+04  0.12088116272E+04  0.25500000920E-02 0. -1.
</event>
<event>
 5   0  0.3481387E-06  0.2522491E+04  0.7818609E-02  0.8395016E-01
        1   -1    0    0  501    0  0.00000000000E+00  0.00000000000E+00  0.13189415694E+04  0.13189415694E+04  0.50400001928E-02 0. -1.
       -1   -1    0    0    0  501  0.00000000000E+00  0.00000000000E+00 -0.12060737351E+04  0.12060737351E+04  0.50400001928E-02 0.  1.
    10030    2    1    2    0    0  0.00000000000E+00  0.00000000000E+00  0.11286783426E+03  0.25250153045E+04  0.25224914549E+04 0.  0.
        4    1    3    3  502    0 -0.16352383923E+03 -0.79670936846E+02  0.13057418087E+04  0.13183515419E+04  0.12699999809E+01 0. -1.
       -4    1    3    3    0  502  0.16352383923E+03  0.79670936846E+02 -0.11928739744E+04  0.12066637626E+04  0.12699999809E+01 0.  1.
</event>
<event>
 5   0  0.3642184E-06  0.2508952E+04  0.7818609E-02  0.8399803E-01
        1   -1    0    0  501    0  0.00000000000E+00  0.00000000000E+00  0.91407538217E+03  0.91407538218E+03  0.50400001928E-02 0.  1.
       -1   -1    0    0    0  501  0.00000000000E+00  0.00000000000E+00 -0.17216409867E+04  0.17216409867E+04  0.50400001928E-02 0. -1.
    10030    2    1    2    0    0  0.00000000000E+00  0.00000000000E+00 -0.80756560451E+03  0.26357163689E+04  0.25089516878E+04 0.  0.
        5    1    3    3  502    0 -0.49626359119E+03  0.46197616184E+03  0.70500039676E+03  0.97813453853E+03  0.46999998093E+01 0.  1.
       -5    1    3    3    0  502  0.49626359119E+03 -0.46197616184E+03 -0.15125660013E+04  0.16575818303E+04  0.46999998093E+01 0. -1.
</event>
<event>
 5   0  0.3424193E-06  0.2499250E+04  0.7818609E-02  0.8403253E-01
        1   -1    0    0  501    0  0.00000000000E+00  0.00000000000E+00  0.12065415113E+04  0.12065415114E+04  0.50400001928E-02 0.  1.
       -1   -1    0    0    0  501  0.00000000000E+00  0.00000000000E+00 -0.12942470610E+04  0.12942470610E+04  0.50400001928E-02 0. -1.
    10030    2    1    2    0    0  0.00000000000E+00  0.00000000000E+00 -0.87705549601E+02  0.25007885723E+04  0.24992501315E+04 0.  0.
        1    1    3    3  502    0 -0.67392113163E+03 -0.34546032387E+03  0.95076627924E+03  0.12155118448E+04  0.50400001928E-02 0.  1.
       -1    1    3    3    0  502  0.67392113163E+03  0.34546032387E+03 -0.10384718288E+04  0.12852767275E+04  0.50400001928E-02 0. -1.
</event>
<event>
 5   0  0.3522870E-06  0.2532722E+04  0.7818609E-02  0.8391420E-01
       -1   -1    0    0    0  501  0.00000000000E+00  0.00000000000E+00  0.11841578207E+04  0.11841578207E+04  0.50400001928E-02 0.  1.
        1   -1    0    0  501    0  0.00000000000E+00  0.00000000000E+00 -0.13542707996E+04  0.13542707997E+04  0.50400001928E-02 0. -1.
    10030    2    1    2    0    0  0.00000000000E+00  0.00000000000E+00 -0.17011297892E+03  0.25384286204E+04  0.25327221394E+04 0.  0.
        2    1    3    3  502    0  0.71678301240E+03 -0.56018877188E+03 -0.96799597252E+03  0.13283845640E+04  0.25500000920E-02 0. -1.
       -2    1    3    3    0  502 -0.71678301240E+03  0.56018877188E+03  0.79788299360E+03  0.12100440564E+04  0.25500000920E-02 0.  1.
</event>
<event>
 5   0  0.8354653E-06  0.2484250E+04  0.7818609E-02  0.8408618E-01
       -2   -1    0    0    0  501  0.00000000000E+00  0.00000000000E+00  0.10129530244E+04  0.10129530244E+04  0.25500000920E-02 0.  1.
        2   -1    0    0  501    0  0.00000000000E+00  0.00000000000E+00 -0.15231456795E+04  0.15231456795E+04  0.25500000920E-02 0. -1.
    10030    2    1    2    0    0  0.00000000000E+00  0.00000000000E+00 -0.51019265508E+03  0.25360987039E+04  0.24842504082E+04 0.  0.
        3    1    3    3  502    0 -0.46177805782E+03 -0.11458695230E+04 -0.12349078111E+03  0.12415739695E+04  0.10100000352E+00 0.  1.
       -3    1    3    3    0  502  0.46177805782E+03  0.11458695230E+04 -0.38670187397E+03  0.12945247344E+04  0.10100000352E+00 0. -1.
</event>
<event>
 5   0  0.8579923E-06  0.2498455E+04  0.7818609E-02  0.8403536E-01
       -2   -1    0    0    0  501  0.00000000000E+00  0.00000000000E+00  0.11151881700E+04  0.11151881700E+04  0.25500000920E-02 0.  1.
        2   -1    0    0  501    0  0.00000000000E+00  0.00000000000E+00 -0.13993780949E+04  0.13993780949E+04  0.25500000920E-02 0. -1.
    10030    2    1    2    0    0  0.00000000000E+00  0.00000000000E+00 -0.28418992485E+03  0.25145662649E+04  0.24984554403E+04 0.  0.
        1    1    3    3  502    0 -0.99230952919E+03 -0.32322993004E+03  0.54892845341E+03  0.11791854122E+04  0.50400001928E-02 0.  1.
       -1    1    3    3    0  502  0.99230952919E+03  0.32322993004E+03 -0.83311837826E+03  0.13353808526E+04  0.50400001928E-02 0. -1.
</event>
<event>
 5   0  0.3522870E-06  0.2499554E+04  0.7818609E-02  0.8403145E-01
        1   -1    0    0  501    0  0.00000000000E+00  0.00000000000E+00  0.15510496904E+04  0.15510496904E+04  0.50400001928E-02 0.  1.
       -1   -1    0    0    0  501  0.00000000000E+00  0.00000000000E+00 -0.10070227406E+04  0.10070227406E+04  0.50400001928E-02 0. -1.
    10030    2    1    2    0    0  0.00000000000E+00  0.00000000000E+00  0.54402694980E+03  0.25580724310E+04  0.24995538082E+04 0.  0.
        2    1    3    3  502    0  0.11462138089E+04 -0.44865211086E+03  0.50503368012E+02  0.12319275151E+04  0.25500000920E-02 0. -1.
       -2    1    3    3    0  502 -0.11462138089E+04  0.44865211086E+03  0.49352358179E+03  0.13261449159E+04  0.25500000920E-02 0.  1.
</event>
<event>
 5   0  0.3481387E-06  0.2511736E+04  0.7818609E-02  0.8398816E-01
       -1   -1    0    0    0  501  0.00000000000E+00  0.00000000000E+00  0.11122682043E+04  0.11122682043E+04  0.50400001928E-02 0.  1.
        1   -1    0    0  501    0  0.00000000000E+00  0.00000000000E+00 -0.14180076079E+04  0.14180076079E+04  0.50400001928E-02 0. -1.
    10030    2    1    2    0    0  0.00000000000E+00  0.00000000000E+00 -0.30573940361E+03  0.25302758123E+04  0.25117362726E+04 0.  0.
        4    1    3    3  502    0 -0.11090191639E+04 -0.49975692856E+03 -0.46746093554E+03  0.13031507329E+04  0.12699999809E+01 0.  1.
       -4    1    3    3    0  502  0.11090191639E+04  0.49975692856E+03  0.16172153192E+03  0.12271250793E+04  0.12699999809E+01 0. -1.
</event>
<event>
 5   0  0.3484857E-06  0.2504317E+04  0.7818609E-02  0.8401449E-01
       -1   -1    0    0    0  501  0.00000000000E+00  0.00000000000E+00  0.86294394334E+03  0.86294394336E+03  0.50400001928E-02 0.  1.
        1   -1    0    0  501    0  0.00000000000E+00  0.00000000000E+00 -0.18169211291E+04  0.18169211291E+04  0.50400001928E-02 0. -1.
    10030    2    1    2    0    0  0.00000000000E+00  0.00000000000E+00 -0.95397718574E+03  0.26798650725E+04  0.25043171396E+04 0.  0.
        3    1    3    3  502    0 -0.49139607699E+03  0.91459507194E+03  0.27203944700E+03  0.10732938652E+04  0.10100000352E+00 0.  1.
       -3    1    3    3    0  502  0.49139607699E+03 -0.91459507194E+03 -0.12260166327E+04  0.16065712073E+04  0.10100000352E+00 0. -1.
</event>
<event>
 5   0  0.3481387E-06  0.2496108E+04  0.7818609E-02  0.8404373E-01
       -1   -1    0    0    0  501  0.00000000000E+00  0.00000000000E+00  0.19583957863E+04  0.19583957864E+04  0.50400001928E-02 0. -1.
        1   -1    0    0  501    0  0.00000000000E+00  0.00000000000E+00 -0.79536493332E+03  0.79536493334E+03  0.50400001928E-02 0.  1.
    10030    2    1    2    0    0  0.00000000000E+00  0.00000000000E+00  0.11630308530E+04  0.27537607197E+04  0.24961084384E+04 0.  0.
        4    1    3    3  502    0  0.36242651548E+03 -0.55104997300E+03 -0.58739388097E+03  0.88319999783E+03  0.12699999809E+01 0.  1.
       -4    1    3    3    0  502 -0.36242651548E+03  0.55104997300E+03  0.17504247340E+04  0.18705607219E+04  0.12699999809E+01 0. -1.
</event>
<event>
 5   0  0.8056723E-06  0.2493881E+04  0.7818609E-02  0.8405169E-01
       -2   -1    0    0    0  501  0.00000000000E+00  0.00000000000E+00  0.96702822455E+03  0.96702822455E+03  0.25500000920E-02 0. -1.
        2   -1    0    0  501    0  0.00000000000E+00  0.00000000000E+00 -0.16078756615E+04  0.16078756615E+04  0.25500000920E-02 0.  1.
    10030    2    1    2    0    0  0.00000000000E+00  0.00000000000E+00 -0.64084743696E+03  0.25749038861E+04  0.24938814296E+04 0.  0.
        2    1    3    3  502    0  0.75931198806E+03 -0.39497916943E+02 -0.13408370485E+04  0.15414145359E+04  0.25500000920E-02 0.  1.
       -2    1    3    3    0  502 -0.75931198806E+03  0.39497916943E+02  0.69998961157E+03  0.10334893502E+04  0.25500000920E-02 0. -1.
</event>
<event>
 5   0  0.8579923E-06  0.2497905E+04  0.7818609E-02  0.8403732E-01
       -2   -1    0    0    0  501  0.00000000000E+00  0.00000000000E+00  0.16409343973E+04  0.16409343973E+04  0.25500000920E-02 0. -1.
        2   -1    0    0  501    0  0.00000000000E+00  0.00000000000E+00 -0.95060595119E+03  0.95060595119E+03  0.25500000920E-02 0.  1.
    10030    2    1    2    0    0  0.00000000000E+00  0.00000000000E+00  0.69032844609E+03  0.25915403485E+04  0.24979047248E+04 0.  0.
        1    1    3    3  502    0 -0.87565034189E+03  0.77631581735E+03  0.79793161441E+03  0.14163772911E+04  0.50400001928E-02 0. -1.
       -1    1    3    3    0  502  0.87565034189E+03 -0.77631581735E+03 -0.10760316832E+03  0.11751630574E+04  0.50400001928E-02 0.  1.
</event>
<event>
 5   0  0.3424193E-06  0.2497904E+04  0.7818609E-02  0.8403732E-01
        1   -1    0    0  501    0  0.00000000000E+00  0.00000000000E+00  0.14620922584E+04  0.14620922584E+04  0.50400001928E-02 0. -1.
       -1   -1    0    0    0  501  0.00000000000E+00  0.00000000000E+00 -0.10668831545E+04  0.10668831545E+04  0.50400001928E-02 0.  1.
    10030    2    1    2    0    0  0.00000000000E+00  0.00000000000E+00  0.39520910384E+03  0.25289754129E+04  0.24979044023E+04 0.  0.
        1    1    3    3  502    0  0.70585933738E+03 -0.39953392793E+03 -0.76395484355E+03  0.11142224943E+04  0.50400001928E-02 0.  1.
       -1    1    3    3    0  502 -0.70585933738E+03  0.39953392793E+03  0.11591639474E+04  0.14147529186E+04  0.50400001928E-02 0. -1.
</event>
<event>
 5   0  0.8056723E-06  0.2494037E+04  0.7818609E-02  0.8405113E-01
        2   -1    0    0  501    0  0.00000000000E+00  0.00000000000E+00  0.19115843291E+04  0.19115843291E+04  0.25500000920E-02 0. -1.
       -2   -1    0    0    0  501  0.00000000000E+00  0.00000000000E+00 -0.81349022226E+03  0.81349022226E+03  0.25500000920E-02 0.  1.
    10030    2    1    2    0    0  0.00000000000E+00  0.00000000000E+00  0.10980941069E+04  0.27250745514E+04  0.24940370172E+04 0.  0.
        2    1    3    3  502    0 -0.82386914469E+03  0.12254271747E+03  0.15630686133E+04  0.17711466837E+04  0.25500000920E-02 0. -1.
       -2    1    3    3    0  502  0.82386914469E+03 -0.12254271747E+03 -0.46497450643E+03  0.95392786772E+03  0.25500000920E-02 0.  1.
</event>
<event>
 5   0  0.3484857E-06  0.2449601E+04  0.7818609E-02  0.8421164E-01
       -1   -1    0    0    0  501  0.00000000000E+00  0.00000000000E+00  0.15463551156E+04  0.15463551156E+04  0.50400001928E-02 0. -1.
        1   -1    0    0  501    0  0.00000000000E+00  0.00000000000E+00 -0.97011122640E+03  0.97011122641E+03  0.50400001928E-02 0.  1.
    10030    2    1    2    0    0  0.00000000000E+00  0.00000000000E+00  0.57624388922E+03  0.25164663420E+04  0.24496011575E+04 0.  0.
        3    1    3    3  502    0 -0.32757128564E+03  0.11611122756E+04  0.71044273317E+02  0.12085247050E+04  0.10100000352E+00 0.  1.
       -3    1    3    3    0  502  0.32757128564E+03 -0.11611122756E+04  0.50519961590E+03  0.13079416370E+04  0.10100000352E+00 0. -1.
</event>
<event>
 5   0  0.8579923E-06  0.2489224E+04  0.7818609E-02  0.8406835E-01
       -2   -1    0    0    0  501  0.00000000000E+00  0.00000000000E+00  0.11478583227E+04  0.11478583227E+04  0.25500000920E-02 0.  1.
        2   -1    0    0  501    0  0.00000000000E+00  0.00000000000E+00 -0.13495205971E+04  0.13495205971E+04  0.25500000920E-02 0. -1.
    10030    2    1    2    0    0  0.00000000000E+00  0.00000000000E+00 -0.20166227432E+03  0.24973789198E+04  0.24892235328E+04 0.  0.
        1    1    3    3  502    0 -0.67899656972E+03 -0.82098940195E+02 -0.11440850069E+04  0.13329317615E+04  0.50400001928E-02 0. -1.
       -1    1    3    3    0  502  0.67899656972E+03  0.82098940195E+02  0.94242273259E+03  0.11644471584E+04  0.50400001928E-02 0.  1.
</event>
<event>
 5   0  0.3484857E-06  0.2502597E+04  0.7818609E-02  0.8402061E-01
        1   -1    0    0  501    0  0.00000000000E+00  0.00000000000E+00  0.12958023132E+04  0.12958023132E+04  0.50400001928E-02 0. -1.
       -1   -1    0    0    0  501  0.00000000000E+00  0.00000000000E+00 -0.12083227397E+04  0.12083227397E+04  0.50400001928E-02 0.  1.
    10030    2    1    2    0    0  0.00000000000E+00  0.00000000000E+00  0.87479573525E+02  0.25041250529E+04  0.25025965725E+04 0.  0.
        3    1    3    3  502    0  0.24413762495E+03 -0.67654816550E+02  0.12698726444E+04  0.12948964813E+04  0.10100000352E+00 0. -1.
       -3    1    3    3    0  502 -0.24413762495E+03  0.67654816550E+02 -0.11823930709E+04  0.12092285716E+04  0.10100000352E+00 0.  1.
</event>
<event>
 5   0  0.8407986E-06  0.2504571E+04  0.7818609E-02  0.8401359E-01
        2   -1    0    0  501    0  0.00000000000E+00  0.00000000000E+00  0.16556790419E+04  0.16556790419E+04  0.25500000920E-02 0.  1.
       -2   -1    0    0    0  501  0.00000000000E+00  0.00000000000E+00 -0.94717576724E+03  0.94717576725E+03  0.25500000920E-02 0. -1.
    10030    2    1    2    0    0  0.00000000000E+00  0.00000000000E+00  0.70850327468E+03  0.26028548092E+04  0.25045710745E+04 0.  0.
        5    1    3    3  502    0 -0.67261258148E+03  0.69043990061E+03  0.11850485761E+04  0.15275723089E+04  0.46999998093E+01 0.  1.
       -5    1    3    3    0  502  0.67261258148E+03 -0.69043990061E+03 -0.47654530142E+03  0.10752825003E+04  0.46999998093E+01 0. -1.
</event>
<event>
 5   0  0.8579923E-06  0.2494620E+04  0.7818609E-02  0.8404905E-01
       -2   -1    0    0    0  501  0.00000000000E+00  0.00000000000E+00  0.62332051901E+03  0.62332051902E+03  0.25500000920E-02 0.  1.
        2   -1    0    0  501    0  0.00000000000E+00  0.00000000000E+00 -0.24959591956E+04  0.24959591956E+04  0.25500000920E-02 0. -1.
    10030    2    1    2    0    0  0.00000000000E+00  0.00000000000E+00 -0.18726386766E+04  0.31192797147E+04  0.24946202767E+04 0.  0.
        1    1    3    3  502    0 -0.40207118751E+03 -0.93516258001E+03 -0.18376439333E+04  0.21007440388E+04  0.50400001928E-02 0. -1.
       -1    1    3    3    0  502  0.40207118751E+03  0.93516258001E+03 -0.34994743296E+02  0.10185356758E+04  0.50400001928E-02 0.  1.
</event>
<event>
 5   0  0.3522870E-06  0.2496090E+04  0.7818609E-02  0.8404380E-01
        1   -1    0    0  501    0  0.00000000000E+00  0.00000000000E+00  0.82834872102E+03  0.82834872103E+03  0.50400001928E-02 0.  1.
       -1   -1    0    0    0  501  0.00000000000E+00  0.00000000000E+00 -0.18803869863E+04  0.18803869863E+04  0.50400001928E-02 0. -1.
    10030    2    1    2    0    0  0.00000000000E+00  0.00000000000E+00 -0.10520382653E+04  0.27087357073E+04  0.24960898663E+04 0.  0.
        2    1    3    3  502    0 -0.98788791351E+03 -0.64681085686E+03 -0.96458872834E+03  0.15247026691E+04  0.25500000920E-02 0. -1.
       -2    1    3    3    0  502  0.98788791351E+03  0.64681085686E+03 -0.87449536934E+02  0.11840330383E+04  0.25500000920E-02 0.  1.
</event>
<event>
 5   0  0.8056723E-06  0.2506285E+04  0.7818609E-02  0.8400750E-01
        2   -1    0    0  501    0  0.00000000000E+00  0.00000000000E+00  0.16604332778E+04  0.16604332778E+04  0.25500000920E-02 0.  1.
       -2   -1    0    0    0  501  0.00000000000E+00  0.00000000000E+00 -0.94575653884E+03  0.94575653884E+03  0.25500000920E-02 0. -1.
    10030    2    1    2    0    0  0.00000000000E+00  0.00000000000E+00  0.71467673899E+03  0.26061898167E+04  0.25062846046E+04 0.  0.
        2    1    3    3  502    0  0.43566423331E+02  0.10924727438E+04 -0.27941967468E+03  0.11284813174E+04  0.25500000920E-02 0. -1.
       -2    1    3    3    0  502 -0.43566423331E+02 -0.10924727438E+04  0.99409641367E+03  0.14777084993E+04  0.25500000920E-02 0.  1.
</event>
<event>
 5   0  0.8579923E-06  0.2502513E+04  0.7818609E-02  0.8402091E-01
        2   -1    0    0  501    0  0.00000000000E+00  0.00000000000E+00  0.16900524106E+04  0.16900524106E+04  0.25500000920E-02 0.  1.
       -2   -1    0    0    0  501  0.00000000000E+00  0.00000000000E+00 -0.92638739221E+03  0.92638739221E+03  0.25500000920E-02 0. -1.
    10030    2    1    2    0    0  0.00000000000E+00  0.00000000000E+00  0.76366501844E+03  0.26164398029E+04  0.25025133330E+04 0.  0.
        1    1    3    3  502    0 -0.62133890263E+02 -0.78647602542E+03 -0.63358585039E+03  0.10118479079E+04  0.50400001928E-02 0. -1.
       -1    1    3    3    0  502  0.62133890263E+02  0.78647602542E+03  0.13972508688E+04  0.16045918950E+04  0.50400001928E-02 0.  1.
</event>
<event>
 5   0  0.3522870E-06  0.2503740E+04  0.7818609E-02  0.8401654E-01
       -1   -1    0    0    0  501  0.00000000000E+00  0.00000000000E+00  0.74557026195E+03  0.74557026197E+03  0.50400001928E-02 0.  1.
        1   -1    0    0  501    0  0.00000000000E+00  0.00000000000E+00 -0.21019869164E+04  0.21019869164E+04  0.50400001928E-02 0. -1.
    10030    2    1    2    0    0  0.00000000000E+00  0.00000000000E+00 -0.13564166545E+04  0.28475571784E+04  0.25037403507E+04 0.  0.
        2    1    3    3  502    0 -0.52420296047E+03 -0.91752795281E+03  0.85181377579E+02  0.10601425164E+04  0.25500000920E-02 0.  1.
       -2    1    3    3    0  502  0.52420296047E+03  0.91752795281E+03 -0.14415980320E+04  0.17874146620E+04  0.25500000920E-02 0. -1.
</event>
<event>
 5   0  0.3481387E-06  0.2511235E+04  0.7818609E-02  0.8398994E-01
       -1   -1    0    0    0  501  0.00000000000E+00  0.00000000000E+00  0.73933951048E+03  0.73933951050E+03  0.50400001928E-02 0.  1.
        1   -1    0    0  501    0  0.00000000000E+00  0.00000000000E+00 -0.21324105612E+04  0.21324105612E+04  0.50400001928E-02 0. -1.
    10030    2    1    2    0    0  0.00000000000E+00  0.00000000000E+00 -0.13930710507E+04  0.28717500717E+04  0.25112350591E+04 0.  0.
        4    1    3    3  502    0  0.15257497392E+03  0.32511509695E+03 -0.20724225806E+04  0.21033107033E+04  0.12699999809E+01 0. -1.
       -4    1    3    3    0  502 -0.15257497392E+03 -0.32511509695E+03  0.67935152988E+03  0.76843936845E+03  0.12699999809E+01 0.  1.
</event>
<event>
 5   0  0.8407986E-06  0.2502239E+04  0.7818609E-02  0.8402188E-01
       -2   -1    0    0    0  501  0.00000000000E+00  0.00000000000E+00  0.92065524568E+03  0.92065524569E+03  0.25500000920E-02 0.  1.
        2   -1    0    0  501    0  0.00000000000E+00  0.00000000000E+00 -0.17002027873E+04  0.17002027873E+04  0.25500000920E-02 0. -1.
    10030    2    1    2    0    0  0.00000000000E+00  0.00000000000E+00 -0.77954754165E+03  0.26208580330E+04  0.25022394888E+04 0.  0.
        5    1    3    3  502    0  0.76723717614E+03  0.76243057825E+03 -0.10483285447E+04  0.15063094299E+04  0.46999998093E+01 0. -1.
       -5    1    3    3    0  502 -0.76723717614E+03 -0.76243057825E+03  0.26878100300E+03  0.11145486031E+04  0.46999998093E+01 0.  1.
</event>
<event>
 5   0  0.3484857E-06  0.2489625E+04  0.7818609E-02  0.8406691E-01
        1   -1    0    0  501    0  0.00000000000E+00  0.00000000000E+00  0.84309994304E+03  0.84309994305E+03  0.50400001928E-02 0. -1.
       -1   -1    0    0    0  501  0.00000000000E+00  0.00000000000E+00 -0.18379295865E+04  0.18379295865E+04  0.50400001928E-02 0.  1.
    10030    2    1    2    0    0  0.00000000000E+00  0.00000000000E+00 -0.99482964346E+03  0.26810295296E+04  0.24896251362E+04 0.  0.
        3    1    3    3  502    0  0.65578864985E+03 -0.97937819800E+03 -0.92859487380E+03  0.15005095327E+04  0.10100000352E+00 0.  1.
       -3    1    3    3    0  502 -0.65578864985E+03  0.97937819800E+03 -0.66234769656E+02  0.11805199968E+04  0.10100000352E+00 0. -1.
</event>
<event>
 5   0  0.3484857E-06  0.2511543E+04  0.7818609E-02  0.8398885E-01
       -1   -1    0    0    0  501  0.00000000000E+00  0.00000000000E+00  0.89948508824E+03  0.89948508825E+03  0.50400001928E-02 0.  1.
        1   -1    0    0  501    0  0.00000000000E+00  0.00000000000E+00 -0.17531825679E+04  0.17531825679E+04  0.50400001928E-02 0. -1.
    10030    2    1    2    0    0  0.00000000000E+00  0.00000000000E+00 -0.85369747961E+03  0.26526676561E+04  0.25115426150E+04 0.  0.
        3    1    3    3  502    0  0.11385018829E+03 -0.14221250786E+03  0.88545490523E+03  0.90400036624E+03  0.10100000352E+00 0.  1.
       -3    1    3    3    0  502 -0.11385018829E+03  0.14221250786E+03 -0.17391523848E+04  0.17486672899E+04  0.10100000352E+00 0. -1.
</event>
<event>
 5   0  0.8354653E-06  0.2497991E+04  0.7818609E-02  0.8403701E-01
        2   -1    0    0  501    0  0.00000000000E+00  0.00000000000E+00  0.13352047033E+04  0.13352047033E+04  0.25500000920E-02 0. -1.
       -2   -1    0    0    0  501  0.00000000000E+00  0.00000000000E+00 -0.11683529132E+04  0.11683529133E+04  0.25500000920E-02 0.  1.
    10030    2    1    2    0    0  0.00000000000E+00  0.00000000000E+00  0.16685179005E+03  0.25035576166E+04  0.24979914371E+04 0.  0.
        3    1    3    3  502    0 -0.98196874290E+03  0.74762060871E+03  0.27566338154E+03  0.12645906439E+04  0.10100000352E+00 0.  1.
       -3    1    3    3    0  502  0.98196874290E+03 -0.74762060871E+03 -0.10881159148E+03  0.12389669726E+04  0.10100000352E+00 0. -1.
</event>
<event>
 5   0  0.8407986E-06  0.2554410E+04  0.7818609E-02  0.8383854E-01
       -2   -1    0    0    0  501  0.00000000000E+00  0.00000000000E+00  0.12202118920E+04  0.12202118920E+04  0.25500000920E-02 0. -1.
        2   -1    0    0  501    0  0.00000000000E+00  0.00000000000E+00 -0.13368599854E+04  0.13368599854E+04  0.25500000920E-02 0.  1.
    10030    2    1    2    0    0  0.00000000000E+00  0.00000000000E+00 -0.11664809347E+03  0.25570718774E+04  0.25544098748E+04 0.  0.
        5    1    3    3  502    0 -0.47301547393E+03  0.20800723169E+03 -0.12275394071E+04  0.13318730169E+04  0.46999998093E+01 0.  1.
       -5    1    3    3    0  502  0.47301547393E+03 -0.20800723169E+03  0.11108913137E+04  0.12251988605E+04  0.46999998093E+01 0. -1.
</event>
<event>
 5   0  0.3642184E-06  0.2503863E+04  0.7818609E-02  0.8401611E-01
        1   -1    0    0  501    0  0.00000000000E+00  0.00000000000E+00  0.22568939936E+04  0.22568939936E+04  0.50400001928E-02 0. -1.
       -1   -1    0    0    0  501  0.00000000000E+00  0.00000000000E+00 -0.69446429009E+03  0.69446429011E+03  0.50400001928E-02 0.  1.
    10030    2    1    2    0    0  0.00000000000E+00  0.00000000000E+00  0.15624297035E+04  0.29513582837E+04  0.25038628438E+04 0.  0.
        5    1    3    3  502    0  0.65815585437E+02 -0.48293719675E+03  0.21404557258E+04  0.21952523389E+04  0.46999998093E+01 0. -1.
       -5    1    3    3    0  502 -0.65815585437E+02  0.48293719675E+03 -0.57802602232E+03  0.75610594480E+03  0.46999998093E+01 0.  1.
</event>
<event>
 5   0  0.3522870E-06  0.2499090E+04  0.7818609E-02  0.8403310E-01
        1   -1    0    0  501    0  0.00000000000E+00  0.00000000000E+00  0.80993588290E+03  0.80993588292E+03  0.50400001928E-02 0.  1.
       -1   -1    0    0    0  501  0.00000000000E+00  0.00000000000E+00 -0.19277605548E+04  0.19277605548E+04  0.50400001928E-02 0. -1.
    10030    2    1    2    0    0  0.00000000000E+00  0.00000000000E+00 -0.11178246719E+04  0.27376964378E+04  0.24990897919E+04 0.  0.
        2    1    3    3  502    0  0.35473677671E+03 -0.11580901143E+04 -0.89540682665E+03  0.15062417730E+04  0.25500000920E-02 0. -1.
       -2    1    3    3    0  502 -0.35473677671E+03  0.11580901143E+04 -0.22241784528E+03  0.12314546648E+04  0.25500000920E-02 0.  1.
</event>
<event>
 5   0  0.8948286E-06  0.2407564E+04  0.7818609E-02  0.8436677E-01
       -2   -1    0    0    0  501  0.00000000000E+00  0.00000000000E+00  0.14750817241E+04  0.14750817241E+04  0.25500000920E-02 0.  1.
        2   -1    0    0  501    0  0.00000000000E+00  0.00000000000E+00 -0.98237993030E+03  0.98237993030E+03  0.25500000920E-02 0. -1.
    10030    2    1    2    0    0  0.00000000000E+00  0.00000000000E+00  0.49270179378E+03  0.24574616544E+04  0.24075636492E+04 0.  0.
        4    1    3    3  502    0 -0.57416201402E+03  0.48187626297E+02  0.13251882400E+04  0.14450292558E+04  0.12699999809E+01 0.  1.
       -4    1    3    3    0  502  0.57416201402E+03 -0.48187626297E+02 -0.83248644624E+03  0.10124323986E+04  0.12699999809E+01 0. -1.
</event>
<event>
 5   0  0.8407986E-06  0.2499481E+04  0.7818609E-02  0.8403170E-01
       -2   -1    0    0    0  501  0.00000000000E+00  0.00000000000E+00  0.71461173823E+03  0.71461173823E+03  0.25500000920E-02 0. -1.
        2   -1    0    0  501    0  0.00000000000E+00  0.00000000000E+00 -0.21855946202E+04  0.21855946202E+04  0.25500000920E-02 0.  1.
    10030    2    1    2    0    0  0.00000000000E+00  0.00000000000E+00 -0.14709828820E+04  0.29002063584E+04  0.24994812027E+04 0.  0.
        5    1    3    3  502    0  0.10673228250E+04 -0.64954156522E+03 -0.76720931804E+03  0.14661904670E+04  0.46999998093E+01 0. -1.
       -5    1    3    3    0  502 -0.10673228250E+04  0.64954156522E+03 -0.70377356393E+03  0.14340158915E+04  0.46999998093E+01 0.  1.
</event>
<event>
 5   0  0.3424193E-06  0.2491344E+04  0.7818609E-02  0.8406076E-01
       -1   -1    0    0    0  501  0.00000000000E+00  0.00000000000E+00  0.75133339550E+03  0.75133339552E+03  0.50400001928E-02 0. -1.
        1   -1    0    0  501    0  0.00000000000E+00  0.00000000000E+00 -0.20652607089E+04  0.20652607089E+04  0.50400001928E-02 0.  1.
    10030    2    1    2    0    0  0.00000000000E+00  0.00000000000E+00 -0.13139273134E+04  0.28165941045E+04  0.24913444893E+04 0.  0.
        1    1    3    3  502    0 -0.53412960426E+03 -0.15558701266E+03 -0.19170079833E+04  0.19961015407E+04  0.50400001928E-02 0.  1.
       -1    1    3    3    0  502  0.53412960426E+03  0.15558701266E+03  0.60308066992E+03  0.82049256372E+03  0.50400001928E-02 0. -1.
</event>
<event>
 5   0  0.8056723E-06  0.2497458E+04  0.7818609E-02  0.8403892E-01
        2   -1    0    0  501    0  0.00000000000E+00  0.00000000000E+00  0.11819986475E+04  0.11819986475E+04  0.25500000920E-02 0. -1.
       -2   -1    0    0    0  501  0.00000000000E+00  0.00000000000E+00 -0.13192263889E+04  0.13192263889E+04  0.25500000920E-02 0.  1.
    10030    2    1    2    0    0  0.00000000000E+00  0.00000000000E+00 -0.13722774136E+03  0.25012250364E+04  0.24974577533E+04 0.  0.
        2    1    3    3  502    0  0.91684480841E+03 -0.13800623565E+03  0.76911288502E+03  0.12046512996E+04  0.25500000920E-02 0. -1.
       -2    1    3    3    0  502 -0.91684480841E+03  0.13800623565E+03 -0.90634062638E+03  0.12965737367E+04  0.25500000920E-02 0.  1.
</event>
<event>
 5   0  0.3522870E-06  0.2506244E+04  0.7818609E-02  0.8400765E-01
        1   -1    0    0  501    0  0.00000000000E+00  0.00000000000E+00  0.87044193467E+03  0.87044193468E+03  0.50400001928E-02 0. -1.
       -1   -1    0    0    0  501  0.00000000000E+00  0.00000000000E+00 -0.18040424333E+04  0.18040424333E+04  0.50400001928E-02 0.  1.
    10030    2    1    2    0    0  0.00000000000E+00  0.00000000000E+00 -0.93360049862E+03  0.26744843680E+04  0.25062435523E+04 0.  0.
        2    1    3    3  502    0 -0.33259205589E+03  0.11066461155E+04 -0.98414428198E+03  0.15178349938E+04  0.25500000920E-02 0.  1.
       -2    1    3    3    0  502  0.33259205589E+03 -0.11066461155E+04  0.50543783359E+02  0.11566493742E+04  0.25500000920E-02 0. -1.
</event>
<event>
 5   0  0.8579923E-06  0.2506239E+04  0.7818609E-02  0.8400766E-01
       -2   -1    0    0    0  501  0.00000000000E+00  0.00000000000E+00  0.81228458883E+03  0.81228458884E+03  0.25500000920E-02 0. -1.
        2   -1    0    0  501    0  0.00000000000E+00  0.00000000000E+00 -0.19331995221E+04  0.19331995221E+04  0.25500000920E-02 0.  1.
    10030    2    1    2    0    0  0.00000000000E+00  0.00000000000E+00 -0.11209149332E+04  0.27454841109E+04  0.25062387587E+04 0.  0.
        1    1    3    3  502    0 -0.77792206578E+03 -0.68593551626E+03 -0.13308998926E+04  0.16872951126E+04  0.50400001928E-02 0. -1.
       -1    1    3    3    0  502  0.77792206578E+03  0.68593551626E+03  0.20998495938E+03  0.10581889983E+04  0.50400001928E-02 0.  1.
</event>
<event>
 5   0  0.3484857E-06  0.2497001E+04  0.7818609E-02  0.8404055E-01
       -1   -1    0    0    0  501  0.00000000000E+00  0.00000000000E+00  0.62928789074E+03  0.62928789076E+03  0.50400001928E-02 0. -1.
        1   -1    0    0  501    0  0.00000000000E+00  0.00000000000E+00 -0.24770123560E+04  0.24770123560E+04  0.50400001928E-02 0.  1.
    10030    2    1    2    0    0  0.00000000000E+00  0.00000000000E+00 -0.18477244653E+04  0.31063002468E+04  0.24970013063E+04 0.  0.
        3    1    3    3  502    0 -0.96565166927E+03  0.57318275603E+03 -0.24506884480E+03  0.11493826026E+04  0.10100000352E+00 0. -1.
       -3    1    3    3    0  502  0.96565166927E+03 -0.57318275603E+03 -0.16026556205E+04  0.19569176442E+04  0.10100000352E+00 0.  1.
</event>
<event>
 5   0  0.3484857E-06  0.2496757E+04  0.7818609E-02  0.8404142E-01
        1   -1    0    0  501    0  0.00000000000E+00  0.00000000000E+00  0.11370741220E+04  0.11370741220E+04  0.50400001928E-02 0.  1.
       -1   -1    0    0    0  501  0.00000000000E+00  0.00000000000E+00 -0.13705785183E+04  0.13705785183E+04  0.50400001928E-02 0. -1.
    10030    2    1    2    0    0  0.00000000000E+00  0.00000000000E+00 -0.23350439634E+03  0.25076526403E+04  0.24967573893E+04 0.  0.
        3    1    3    3  502    0  0.53121907946E+03 -0.13276462068E+03  0.10100298926E+04  0.11489040643E+04  0.10100000352E+00 0.  1.
       -3    1    3    3    0  502 -0.53121907946E+03  0.13276462068E+03 -0.12435342889E+04  0.13587485760E+04  0.10100000352E+00 0. -1.
</event>
<event>
 5   0  0.8948286E-06  0.2513029E+04  0.7818609E-02  0.8398358E-01
        2   -1    0    0  501    0  0.00000000000E+00  0.00000000000E+00  0.87722333641E+03  0.87722333641E+03  0.25500000920E-02 0.  1.
       -2   -1    0    0    0  501  0.00000000000E+00  0.00000000000E+00 -0.17998026533E+04  0.17998026533E+04  0.25500000920E-02 0. -1.
    10030    2    1    2    0    0  0.00000000000E+00  0.00000000000E+00 -0.92257931692E+03  0.26770259897E+04  0.25130291590E+04 0.  0.
        4    1    3    3  502    0  0.44141079773E+03 -0.80769099619E+03  0.44987645268E+03  0.10244992305E+04  0.12699999809E+01 0.  1.
       -4    1    3    3    0  502 -0.44141079773E+03  0.80769099619E+03 -0.13724557696E+04  0.16525267593E+04  0.12699999809E+01 0. -1.
</event>
<event>
 5   0  0.8579923E-06  0.2498017E+04  0.7818609E-02  0.8403692E-01
        2   -1    0    0  501    0  0.00000000000E+00  0.00000000000E+00  0.17392710094E+04  0.17392710094E+04  0.25500000920E-02 0.  1.
       -2   -1    0    0    0  501  0.00000000000E+00  0.00000000000E+00 -0.89693998810E+03  0.89693998810E+03  0.25500000920E-02 0. -1.
    10030    2    1    2    0    0  0.00000000000E+00  0.00000000000E+00  0.84233102130E+03  0.26362109975E+04  0.24980165880E+04 0.  0.
        1    1    3    3  502    0 -0.87148029773E+03 -0.37501826853E+02  0.13645648845E+04  0.16195436457E+04  0.50400001928E-02 0.  1.
       -1    1    3    3    0  502  0.87148029773E+03  0.37501826853E+02 -0.52223386317E+03  0.10166673518E+04  0.50400001928E-02 0. -1.
</event>
<event>
 5   0  0.2901250E-06  0.2476361E+04  0.7818609E-02  0.8411456E-01
        4   -1    0    0  501    0  0.00000000000E+00  0.00000000000E+00  0.12828374084E+04  0.12828380371E+04  0.12699999809E+01 0.  1.
       -4   -1    0    0    0  501  0.00000000000E+00  0.00000000000E+00 -0.11950765994E+04  0.11950772742E+04  0.12699999809E+01 0. -1.
    10030    2    1    2    0    0  0.00000000000E+00  0.00000000000E+00  0.87760809008E+02  0.24779153113E+04  0.24763607028E+04 0.  0.
        4    1    3    3  502    0  0.95712458998E+03 -0.77541411145E+02  0.82602885067E+03  0.12666591594E+04  0.12699999809E+01 0.  1.
       -4    1    3    3    0  502 -0.95712458998E+03  0.77541411145E+02 -0.73826804166E+03  0.12112561519E+04  0.12699999809E+01 0. -1.
</event>
<event>
 5   0  0.3481387E-06  0.2494005E+04  0.7818609E-02  0.8405124E-01
       -1   -1    0    0    0  501  0.00000000000E+00  0.00000000000E+00  0.75549072350E+03  0.75549072352E+03  0.50400001928E-02 0.  1.
        1   -1    0    0  501    0  0.00000000000E+00  0.00000000000E+00 -0.20582850651E+04  0.20582850651E+04  0.50400001928E-02 0. -1.
    10030    2    1    2    0    0  0.00000000000E+00  0.00000000000E+00 -0.13027943416E+04  0.28137757887E+04  0.24940050305E+04 0.  0.
        4    1    3    3  502    0 -0.80735195542E+02 -0.42385503980E+03 -0.19713818388E+04  0.20180483725E+04  0.12699999809E+01 0. -1.
       -4    1    3    3    0  502  0.80735195542E+02  0.42385503980E+03  0.66858749716E+03  0.79572741615E+03  0.12699999809E+01 0.  1.
</event>
<event>
 5   0  0.3642184E-06  0.2484522E+04  0.7818609E-02  0.8408521E-01
       -1   -1    0    0    0  501  0.00000000000E+00  0.00000000000E+00  0.11076102015E+04  0.11076102015E+04  0.50400001928E-02 0.  1.
        1   -1    0    0  501    0  0.00000000000E+00  0.00000000000E+00 -0.13932806566E+04  0.13932806566E+04  0.50400001928E-02 0. -1.
    10030    2    1    2    0    0  0.00000000000E+00  0.00000000000E+00 -0.28567045503E+03  0.25008908581E+04  0.24845215788E+04 0.  0.
        5    1    3    3  502    0 -0.23968244023E+03 -0.44741531607E+03  0.99846109718E+03  0.11200780284E+04  0.46999998093E+01 0.  1.
       -5    1    3    3    0  502  0.23968244023E+03  0.44741531607E+03 -0.12841315522E+04  0.13808128297E+04  0.46999998093E+01 0. -1.
</event>
<event>
 5   0  0.8056723E-06  0.2487496E+04  0.7818609E-02  0.8407454E-01
       -2   -1    0    0    0  501  0.00000000000E+00  0.00000000000E+00  0.15145196258E+04  0.15145196258E+04  0.25500000920E-02 0.  1.
        2   -1    0    0  501    0  0.00000000000E+00  0.00000000000E+00 -0.10213857527E+04  0.10213857527E+04  0.25500000920E-02 0. -1.
    10030    2    1    2    0    0  0.00000000000E+00  0.00000000000E+00  0.49313387308E+03  0.25359053784E+04  0.24874957430E+04 0.  0.
        2    1    3    3  502    0 -0.10996830176E+04 -0.11410571778E+03 -0.33424499979E+03  0.11550076077E+04  0.25500000920E-02 0. -1.
       -2    1    3    3    0  502  0.10996830176E+04  0.11410571778E+03  0.82737887288E+03  0.13808977707E+04  0.25500000920E-02 0.  1.
</event>
<event>
 5   0  0.3481387E-06  0.2530803E+04  0.7818609E-02  0.8392093E-01
       -1   -1    0    0    0  501  0.00000000000E+00  0.00000000000E+00  0.20282808575E+04  0.20282808575E+04  0.50400001928E-02 0.  1.
        1   -1    0    0  501    0  0.00000000000E+00  0.00000000000E+00 -0.78945743223E+03  0.78945743225E+03  0.50400001928E-02 0. -1.
    10030    2    1    2    0    0  0.00000000000E+00  0.00000000000E+00  0.12388234253E+04  0.28177382898E+04  0.25308033489E+04 0.  0.
        4    1    3    3  502    0  0.62957222165E+03 -0.72639589744E+03  0.15356524107E+04  0.18116959241E+04  0.12699999809E+01 0.  1.
       -4    1    3    3    0  502 -0.62957222165E+03  0.72639589744E+03 -0.29682898538E+03  0.10060423657E+04  0.12699999809E+01 0. -1.
</event>
<event>
 5   0  0.8407986E-06  0.2500936E+04  0.7818609E-02  0.8402652E-01
        2   -1    0    0  501    0  0.00000000000E+00  0.00000000000E+00  0.13580564903E+04  0.13580564903E+04  0.25500000920E-02 0.  1.
       -2   -1    0    0    0  501  0.00000000000E+00  0.00000000000E+00 -0.11514032906E+04  0.11514032906E+04  0.25500000920E-02 0. -1.
    10030    2    1    2    0    0  0.00000000000E+00  0.00000000000E+00  0.20665319971E+03  0.25094597810E+04  0.25009363941E+04 0.  0.
        5    1    3    3  502    0 -0.94156472537E+03 -0.39663539765E+03 -0.62009155258E+03  0.11951566401E+04  0.46999998093E+01 0. -1.
       -5    1    3    3    0  502  0.94156472537E+03  0.39663539765E+03  0.82674475229E+03  0.13143031409E+04  0.46999998093E+01 0.  1.
</event>
<event>
 5   0  0.3642184E-06  0.2496902E+04  0.7818609E-02  0.8404090E-01
        1   -1    0    0  501    0  0.00000000000E+00  0.00000000000E+00  0.17010769860E+04  0.17010769860E+04  0.50400001928E-02 0. -1.
       -1   -1    0    0    0  501  0.00000000000E+00  0.00000000000E+00 -0.91626051513E+03  0.91626051514E+03  0.50400001928E-02 0.  1.
    10030    2    1    2    0    0  0.00000000000E+00  0.00000000000E+00  0.78481647085E+03  0.26173375011E+04  0.24969018206E+04 0.  0.
        5    1    3    3  502    0  0.77839206427E+02 -0.31236365642E+03 -0.87199737377E+03  0.92953295034E+03  0.46999998093E+01 0.  1.
       -5    1    3    3    0  502 -0.77839206427E+02  0.31236365642E+03  0.16568138446E+04  0.16878045508E+04  0.46999998093E+01 0. -1.
</event>
<event>
 5   0  0.3424193E-06  0.2510329E+04  0.7818609E-02  0.8399315E-01
        1   -1    0    0  501    0  0.00000000000E+00  0.00000000000E+00  0.10193156869E+04  0.10193156870E+04  0.50400001928E-02 0.  1.
       -1   -1    0    0    0  501  0.00000000000E+00  0.00000000000E+00 -0.15455833301E+04  0.15455833301E+04  0.50400001928E-02 0. -1.
    10030    2    1    2    0    0  0.00000000000E+00  0.00000000000E+00 -0.52626764313E+03  0.25648990170E+04  0.25103285314E+04 0.  0.
        1    1    3    3  502    0  0.37597854256E+03  0.47806060621E+02 -0.14857205648E+04  0.15333006491E+04  0.50400001928E-02 0. -1.
       -1    1    3    3    0  502 -0.37597854256E+03 -0.47806060621E+02  0.95945292164E+03  0.10315983679E+04  0.50400001928E-02 0.  1.
</event>
<event>
 5   0  0.8056723E-06  0.2473270E+04  0.7818609E-02  0.8412571E-01
        2   -1    0    0  501    0  0.00000000000E+00  0.00000000000E+00  0.18132157367E+04  0.18132157367E+04  0.25500000920E-02 0.  1.
       -2   -1    0    0    0  501  0.00000000000E+00  0.00000000000E+00 -0.84339996103E+03  0.84339996103E+03  0.25500000920E-02 0. -1.
    10030    2    1    2    0    0  0.00000000000E+00  0.00000000000E+00  0.96981577565E+03  0.26566156977E+04  0.24732699664E+04 0.  0.
        2    1    3    3  502    0 -0.11800908971E+04 -0.31627476048E+03  0.27935326695E+03  0.12532687251E+04  0.25500000920E-02 0.  1.
       -2    1    3    3    0  502  0.11800908971E+04  0.31627476048E+03  0.69046250870E+03  0.14033469726E+04  0.25500000920E-02 0. -1.
</event>
<event>
 5   0  0.3642184E-06  0.2529088E+04  0.7818609E-02  0.8392695E-01
       -1   -1    0    0    0  501  0.00000000000E+00  0.00000000000E+00  0.63514132116E+03  0.63514132118E+03  0.50400001928E-02 0.  1.
        1   -1    0    0  501    0  0.00000000000E+00  0.00000000000E+00 -0.25176626572E+04  0.25176626572E+04  0.50400001928E-02 0. -1.
    10030    2    1    2    0    0  0.00000000000E+00  0.00000000000E+00 -0.18825213360E+04  0.31528039784E+04  0.25290880462E+04 0.  0.
        5    1    3    3  502    0 -0.37513128032E+03 -0.10950314512E+04 -0.30654759518E+03  0.11974184209E+04  0.46999998093E+01 0.  1.
       -5    1    3    3    0  502  0.37513128032E+03  0.10950314512E+04 -0.15759737409E+04  0.19553855575E+04  0.46999998093E+01 0. -1.
</event>
<event>
 5   0  0.8579923E-06  0.2498702E+04  0.7818609E-02  0.8403448E-01
       -2   -1    0    0    0  501  0.00000000000E+00  0.00000000000E+00  0.12075708387E+04  0.12075708387E+04  0.25500000920E-02 0. -1.
        2   -1    0    0  501    0  0.00000000000E+00  0.00000000000E+00 -0.12925771695E+04  0.12925771695E+04  0.25500000920E-02 0.  1.
    10030    2    1    2    0    0  0.00000000000E+00  0.00000000000E+00 -0.85006330741E+02  0.25001480082E+04  0.24987024606E+04 0.  0.
        1    1    3    3  502    0  0.35323714057E+03  0.81245730562E+03 -0.92393001140E+03  0.12800429746E+04  0.50400001928E-02 0.  1.
       -1    1    3    3    0  502 -0.35323714057E+03 -0.81245730562E+03  0.83892368066E+03  0.12201050336E+04  0.50400001928E-02 0. -1.
</event>
<event>
 5   0  0.3424193E-06  0.2492074E+04  0.7818609E-02  0.8405815E-01
       -1   -1    0    0    0  501  0.00000000000E+00  0.00000000000E+00  0.74734392503E+03  0.74734392505E+03  0.50400001928E-02 0.  1.
        1   -1    0    0  501    0  0.00000000000E+00  0.00000000000E+00 -0.20775022843E+04  0.20775022843E+04  0.50400001928E-02 0. -1.
    10030    2    1    2    0    0  0.00000000000E+00  0.00000000000E+00 -0.13301583593E+04  0.28248462094E+04  0.24920744062E+04 0.  0.
        1    1    3    3  502    0  0.14201726027E+03 -0.39020695234E+03  0.66660551466E+03  0.78536187842E+03  0.50400001928E-02 0.  1.
       -1    1    3    3    0  502 -0.14201726027E+03  0.39020695234E+03 -0.19967638739E+04  0.20394843310E+04  0.50400001928E-02 0. -1.
</event>
<event>
 5   0  0.3522870E-06  0.2506214E+04  0.7818609E-02  0.8400775E-01
        1   -1    0    0  501    0  0.00000000000E+00  0.00000000000E+00  0.97873382555E+03  0.97873382557E+03  0.50400001928E-02 0. -1.
       -1   -1    0    0    0  501  0.00000000000E+00  0.00000000000E+00 -0.16043964912E+04  0.16043964912E+04  0.50400001928E-02 0.  1.
    10030    2    1    2    0    0  0.00000000000E+00  0.00000000000E+00 -0.62566266560E+03  0.25831303167E+04  0.25062139697E+04 0.  0.
        2    1    3    3  502    0  0.71063155451E+03  0.99102886084E+03 -0.61002368991E+03  0.13635484266E+04  0.25500000920E-02 0.  1.
       -2    1    3    3    0  502 -0.71063155451E+03 -0.99102886084E+03 -0.15638975691E+02  0.12195818902E+04  0.25500000920E-02 0. -1.
</event>
<event>
 5   0  0.8948286E-06  0.2489582E+04  0.7818609E-02  0.8406706E-01
       -2   -1    0    0    0  501  0.00000000000E+00  0.00000000000E+00  0.90256027785E+03  0.90256027785E+03  0.25500000920E-02 0. -1.
        2   -1    0    0  501    0  0.00000000000E+00  0.00000000000E+00 -0.17167883736E+04  0.17167883736E+04  0.25500000920E-02 0.  1.
    10030    2    1    2    0    0  0.00000000000E+00  0.00000000000E+00 -0.81422809575E+03  0.26193486515E+04  0.24895822874E+04 0.  0.
        4    1    3    3  502    0 -0.77037675362E+03 -0.49609856307E+03 -0.12935926196E+04  0.15852373971E+04  0.12699999809E+01 0.  1.
       -4    1    3    3    0  502  0.77037675362E+03  0.49609856307E+03  0.47936452382E+03  0.10341112544E+04  0.12699999809E+01 0. -1.
</event>
<event>
 5   0  0.8056723E-06  0.2499977E+04  0.7818609E-02  0.8402994E-01
        2   -1    0    0  501    0  0.00000000000E+00  0.00000000000E+00  0.17854183442E+04  0.17854183442E+04  0.25500000920E-02 0. -1.
       -2   -1    0    0    0  501  0.00000000000E+00  0.00000000000E+00 -0.87512866859E+03  0.87512866859E+03  0.25500000920E-02 0.  1.
    10030    2    1    2    0    0  0.00000000000E+00  0.00000000000E+00  0.91028967564E+03  0.26605470128E+04  0.24999766227E+04 0.  0.
        2    1    3    3  502    0 -0.72011034217E+03  0.78691527241E+02 -0.62896923576E+03  0.95935059332E+03  0.25500000920E-02 0.  1.
       -2    1    3    3    0  502  0.72011034217E+03 -0.78691527241E+02  0.15392589114E+04  0.17011964195E+04  0.25500000920E-02 0. -1.
</event>
<event>
 5   0  0.8948286E-06  0.2488435E+04  0.7818609E-02  0.8407117E-01
       -2   -1    0    0    0  501  0.00000000000E+00  0.00000000000E+00  0.76675099836E+03  0.76675099836E+03  0.25500000920E-02 0.  1.
        2   -1    0    0  501    0  0.00000000000E+00  0.00000000000E+00 -0.20190085278E+04  0.20190085278E+04  0.25500000920E-02 0. -1.
    10030    2    1    2    0    0  0.00000000000E+00  0.00000000000E+00 -0.12522575295E+04  0.27857595262E+04  0.24884346923E+04 0.  0.
        4    1    3    3  502    0 -0.15772742344E+03  0.10376932132E+04 -0.13740823154E+04  0.17291006238E+04  0.12699999809E+01 0. -1.
       -4    1    3    3    0  502  0.15772742344E+03 -0.10376932132E+04  0.12182478591E+03  0.10566589024E+04  0.12699999809E+01 0.  1.
</event>
<event>
 5   0  0.3522870E-06  0.2499949E+04  0.7818609E-02  0.8403004E-01
        1   -1    0    0  501    0  0.00000000000E+00  0.00000000000E+00  0.21617490944E+04  0.21617490944E+04  0.50400001928E-02 0.  1.
       -1   -1    0    0    0  501  0.00000000000E+00  0.00000000000E+00 -0.72276483556E+03  0.72276483558E+03  0.50400001928E-02 0. -1.
    10030    2    1    2    0    0  0.00000000000E+00  0.00000000000E+00  0.14389842588E+04  0.28845139300E+04  0.24999489825E+04 0.  0.
        2    1    3    3  502    0  0.12264849455E+04 -0.24055940468E+03  0.73954619586E+03  0.14522612453E+04  0.25500000920E-02 0. -1.
       -2    1    3    3    0  502 -0.12264849455E+04  0.24055940468E+03  0.69943806297E+03  0.14322526847E+04  0.25500000920E-02 0.  1.
</event>
<event>
 5   0  0.8579923E-06  0.2501574E+04  0.7818609E-02  0.8402425E-01
        2   -1    0    0  501    0  0.00000000000E+00  0.00000000000E+00  0.15923882303E+04  0.15923882303E+04  0.25500000920E-02 0.  1.
       -2   -1    0    0    0  501  0.00000000000E+00  0.00000000000E+00 -0.98246628531E+03  0.98246628531E+03  0.25500000920E-02 0. -1.
    10030    2    1    2    0    0  0.00000000000E+00  0.00000000000E+00  0.60992194494E+03  0.25748545156E+04  0.25015737042E+04 0.  0.
        1    1    3    3  502    0 -0.11772228475E+03 -0.20565763520E+03 -0.95915027403E+03  0.98798929520E+03  0.50400001928E-02 0. -1.
       -1    1    3    3    0  502  0.11772228475E+03  0.20565763520E+03  0.15690722190E+04  0.15868652204E+04  0.50400001928E-02 0.  1.
</event>
<event>
 5   0  0.3481387E-06  0.2497112E+04  0.7818609E-02  0.8404015E-01
       -1   -1    0    0    0  501  0.00000000000E+00  0.00000000000E+00  0.13875762614E+04  0.13875762614E+04  0.50400001928E-02 0. -1.
        1   -1    0    0  501    0  0.00000000000E+00  0.00000000000E+00 -0.11234643638E+04  0.11234643638E+04  0.50400001928E-02 0.  1.
    10030    2    1    2    0    0  0.00000000000E+00  0.00000000000E+00  0.26411189759E+03  0.25110406252E+04  0.24971123177E+04 0.  0.
        4    1    3    3  502    0  0.79973508403E+03  0.19818242092E+02 -0.83189506280E+03  0.11541316978E+04  0.12699999809E+01 0.  1.
       -4    1    3    3    0  502 -0.79973508403E+03 -0.19818242092E+02  0.10960069604E+04  0.13569089275E+04  0.12699999809E+01 0. -1.
</event>
<event>
 5   0  0.3522870E-06  0.2511222E+04  0.7818609E-02  0.8398998E-01
       -1   -1    0    0    0  501  0.00000000000E+00  0.00000000000E+00  0.16275028650E+04  0.16275028650E+04  0.50400001928E-02 0.  1.
        1   -1    0    0  501    0  0.00000000000E+00  0.00000000000E+00 -0.96869842784E+03  0.96869842785E+03  0.50400001928E-02 0. -1.
    10030    2    1    2    0    0  0.00000000000E+00  0.00000000000E+00  0.65880443711E+03  0.25962012928E+04  0.25112223849E+04 0.  0.
        2    1    3    3  502    0 -0.10343914499E+04  0.60643274856E+03 -0.55809707322E+02  0.12003503962E+04  0.25500000920E-02 0. -1.
       -2    1    3    3    0  502  0.10343914499E+04 -0.60643274856E+03  0.71461414443E+03  0.13958508966E+04  0.25500000920E-02 0.  1.
</event>
<event>
 5   0  0.3424193E-06  0.2498970E+04  0.7818609E-02  0.8403353E-01
        1   -1    0    0  501    0  0.00000000000E+00  0.00000000000E+00  0.16563374308E+04  0.16563374308E+04  0.50400001928E-02 0.  1.
       -1   -1    0    0    0  501  0.00000000000E+00  0.00000000000E+00 -0.94256908627E+03  0.94256908629E+03  0.50400001928E-02 0. -1.
    10030    2    1    2    0    0  0.00000000000E+00  0.00000000000E+00  0.71376834453E+03  0.25989065171E+04  0.24989697547E+04 0.  0.
        1    1    3    3  502    0  0.10197773871E+04 -0.21783453737E+03 -0.35898539856E+03  0.11028455564E+04  0.50400001928E-02 0. -1.
       -1    1    3    3    0  502 -0.10197773871E+04  0.21783453737E+03  0.10727537431E+04  0.14960609607E+04  0.50400001928E-02 0.  1.
</event>
<event>
 5   0  0.8579923E-06  0.2489045E+04  0.7818609E-02  0.8406899E-01
       -2   -1    0    0    0  501  0.00000000000E+00  0.00000000000E+00  0.81096917143E+03  0.81096917144E+03  0.25500000920E-02 0.  1.
        2   -1    0    0  501    0  0.00000000000E+00  0.00000000000E+00 -0.19098582319E+04  0.19098582319E+04  0.25500000920E-02 0. -1.
    10030    2    1    2    0    0  0.00000000000E+00  0.00000000000E+00 -0.10988890605E+04  0.27208274034E+04  0.24890449155E+04 0.  0.
        1    1    3    3  502    0 -0.41356187482E+03  0.10013047612E+04 -0.12190126296E+04  0.16308391828E+04  0.50400001928E-02 0.  1.
       -1    1    3    3    0  502  0.41356187482E+03 -0.10013047612E+04  0.12012356912E+03  0.10899882205E+04  0.50400001928E-02 0. -1.
</event>
<event>
 5   0  0.3484857E-06  0.2489341E+04  0.7818609E-02  0.8406793E-01
       -1   -1    0    0    0  501  0.00000000000E+00  0.00000000000E+00  0.10438184478E+04  0.10438184478E+04  0.50400001928E-02 0.  1.
        1   -1    0    0  501    0  0.00000000000E+00  0.00000000000E+00 -0.14841703819E+04  0.14841703820E+04  0.50400001928E-02 0. -1.
    10030    2    1    2    0    0  0.00000000000E+00  0.00000000000E+00 -0.44035193411E+03  0.25279888298E+04  0.24893408159E+04 0.  0.
        3    1    3    3  502    0 -0.10705717497E+04 -0.63415081146E+03 -0.25120008303E+03  0.12693985248E+04  0.10100000352E+00 0. -1.
       -3    1    3    3    0  502  0.10705717497E+04  0.63415081146E+03 -0.18915185108E+03  0.12585903050E+04  0.10100000352E+00 0.  1.
</event>
<event>
 5   0  0.3642184E-06  0.2505976E+04  0.7818609E-02  0.8400860E-01
       -1   -1    0    0    0  501  0.00000000000E+00  0.00000000000E+00  0.13351730290E+04  0.13351730290E+04  0.50400001928E-02 0. -1.
        1   -1    0    0  501    0  0.00000000000E+00  0.00000000000E+00 -0.11758619710E+04  0.11758619710E+04  0.50400001928E-02 0.  1.
    10030    2    1    2    0    0  0.00000000000E+00  0.00000000000E+00  0.15931105800E+03  0.25110350001E+04  0.25059762087E+04 0.  0.
        5    1    3    3  502    0  0.10260346227E+04  0.41651036232E+03 -0.50781220402E+03  0.12182459741E+04  0.46999998093E+01 0. -1.
       -5    1    3    3    0  502 -0.10260346227E+04 -0.41651036232E+03  0.66712326202E+03  0.12927890260E+04  0.46999998093E+01 0.  1.
</event>
<event>
 5   0  0.3484857E-06  0.2509490E+04  0.7818609E-02  0.8399613E-01
       -1   -1    0    0    0  501  0.00000000000E+00  0.00000000000E+00  0.71203064095E+03  0.71203064096E+03  0.50400001928E-02 0.  1.
        1   -1    0    0  501    0  0.00000000000E+00  0.00000000000E+00 -0.22111194027E+04  0.22111194027E+04  0.50400001928E-02 0. -1.
    10030    2    1    2    0    0  0.00000000000E+00  0.00000000000E+00 -0.14990887618E+04  0.29231500437E+04  0.25094898012E+04 0.  0.
        3    1    3    3  502    0  0.11189044594E+04 -0.44821168242E+03 -0.34344514331E+03  0.12533137988E+04  0.10100000352E+00 0. -1.
       -3    1    3    3    0  502 -0.11189044594E+04  0.44821168242E+03 -0.11556436185E+04  0.16698362449E+04  0.10100000352E+00 0.  1.
</event>
<event>
 5   0  0.8056723E-06  0.2515149E+04  0.7818609E-02  0.8397608E-01
       -2   -1    0    0    0  501  0.00000000000E+00  0.00000000000E+00  0.94952763779E+03  0.94952763780E+03  0.25500000920E-02 0.  1.
        2   -1    0    0  501    0  0.00000000000E+00  0.00000000000E+00 -0.16655581418E+04  0.16655581418E+04  0.25500000920E-02 0. -1.
    10030    2    1    2    0    0  0.00000000000E+00  0.00000000000E+00 -0.71603050399E+03  0.26150857796E+04  0.25151488926E+04 0.  0.
        2    1    3    3  502    0 -0.54633882986E+02  0.98429025013E+02 -0.16603086744E+04  0.16641207974E+04  0.25500000920E-02 0. -1.
       -2    1    3    3    0  502  0.54633882986E+02 -0.98429025013E+02  0.94427817042E+03  0.95096498215E+03  0.25500000920E-02 0.  1.
</event>
<event>
 5   0  0.8056723E-06  0.2498537E+04  0.7818609E-02  0.8403507E-01
        2   -1    0    0  501    0  0.00000000000E+00  0.00000000000E+00  0.73970254869E+03  0.73970254869E+03  0.25500000920E-02 0.  1.
       -2   -1    0    0    0  501  0.00000000000E+00  0.00000000000E+00 -0.21098640058E+04  0.21098640058E+04  0.25500000920E-02 0. -1.
    10030    2    1    2    0    0  0.00000000000E+00  0.00000000000E+00 -0.13701614571E+04  0.28495665544E+04  0.24985369979E+04 0.  0.
        2    1    3    3  502    0  0.67472775842E+03  0.35147524782E+03  0.44503284431E+03  0.88138903461E+03  0.25500000920E-02 0.  1.
       -2    1    3    3    0  502 -0.67472775842E+03 -0.35147524782E+03 -0.18151943014E+04  0.19681775198E+04  0.25500000920E-02 0. -1.
</event>
<event>
 5   0  0.8948286E-06  0.2500329E+04  0.7818609E-02  0.8402868E-01
       -2   -1    0    0    0  501  0.00000000000E+00  0.00000000000E+00  0.94953519008E+03  0.94953519008E+03  0.25500000920E-02 0.  1.
        2   -1    0    0  501    0  0.00000000000E+00  0.00000000000E+00 -0.16459746341E+04  0.16459746341E+04  0.25500000920E-02 0. -1.
    10030    2    1    2    0    0  0.00000000000E+00  0.00000000000E+00 -0.69643944397E+03  0.25955098241E+04  0.25003286480E+04 0.  0.
        4    1    3    3  502    0  0.42817897232E+03  0.43038847757E+03  0.78624020542E+03  0.99335127094E+03  0.12699999809E+01 0.  1.
       -4    1    3    3    0  502 -0.42817897232E+03 -0.43038847757E+03 -0.14826796494E+04  0.16021585532E+04  0.12699999809E+01 0. -1.
</event>
<event>
 5   0  0.2901250E-06  0.2522287E+04  0.7818609E-02  0.8395088E-01
        3   -1    0    0  501    0  0.00000000000E+00  0.00000000000E+00  0.16789949716E+04  0.16789949747E+04  0.10100000352E+00 0. -1.
       -3   -1    0    0    0  501  0.00000000000E+00  0.00000000000E+00 -0.94728271062E+03  0.94728271600E+03  0.10100000352E+00 0.  1.
    10030    2    1    2    0    0  0.00000000000E+00  0.00000000000E+00  0.73171226101E+03  0.26262776907E+04  0.25222869931E+04 0.  0.
        1    1    3    3  502    0  0.57117630753E+02 -0.38436188773E+03 -0.88339552147E+03  0.96508244822E+03  0.50400001928E-02 0.  1.
       -1    1    3    3    0  502 -0.57117630753E+02  0.38436188773E+03  0.16151077825E+04  0.16611952425E+04  0.50400001928E-02 0. -1.
</event>
<event>
 5   0  0.3484857E-06  0.2494094E+04  0.7818609E-02  0.8405093E-01
       -1   -1    0    0    0  501  0.00000000000E+00  0.00000000000E+00  0.26196343464E+04  0.26196343464E+04  0.50400001928E-02 0.  1.
        1   -1    0    0  501    0  0.00000000000E+00  0.00000000000E+00 -0.59364257538E+03  0.59364257540E+03  0.50400001928E-02 0. -1.
    10030    2    1    2    0    0  0.00000000000E+00  0.00000000000E+00  0.20259917710E+04  0.32132769218E+04  0.24940942083E+04 0.  0.
        3    1    3    3  502    0 -0.13638015494E+03  0.37883586156E+03 -0.50759529375E+03  0.64789594003E+03  0.10100000352E+00 0. -1.
       -3    1    3    3    0  502  0.13638015494E+03 -0.37883586156E+03  0.25335870648E+04  0.25653809818E+04  0.10100000352E+00 0.  1.
</event>
<event>
 5   0  0.3481387E-06  0.2466809E+04  0.7818609E-02  0.8414906E-01
        1   -1    0    0  501    0  0.00000000000E+00  0.00000000000E+00  0.16860045642E+04  0.16860045642E+04  0.50400001928E-02 0.  1.
       -1   -1    0    0    0  501  0.00000000000E+00  0.00000000000E+00 -0.90230266753E+03  0.90230266755E+03  0.50400001928E-02 0. -1.
    10030    2    1    2    0    0  0.00000000000E+00  0.00000000000E+00  0.78370189662E+03  0.25883072317E+04  0.24668088015E+04 0.  0.
        4    1    3    3  502    0  0.28964891562E+03  0.11775042764E+04  0.62850813038E+03  0.13658099788E+04  0.12699999809E+01 0.  1.
       -4    1    3    3    0  502 -0.28964891562E+03 -0.11775042764E+04  0.15519376624E+03  0.12224972529E+04  0.12699999809E+01 0. -1.
</event>
<event>
 5   0  0.8407986E-06  0.2494345E+04  0.7818609E-02  0.8405003E-01
       -2   -1    0    0    0  501  0.00000000000E+00  0.00000000000E+00  0.17048208188E+04  0.17048208188E+04  0.25500000920E-02 0.  1.
        2   -1    0    0  501    0  0.00000000000E+00  0.00000000000E+00 -0.91237710952E+03  0.91237710953E+03  0.25500000920E-02 0. -1.
    10030    2    1    2    0    0  0.00000000000E+00  0.00000000000E+00  0.79244370923E+03  0.26171979283E+04  0.24943451973E+04 0.  0.
        5    1    3    3  502    0 -0.27264303436E+03 -0.92937481392E+03  0.12206336587E+04  0.15582170541E+04  0.46999998093E+01 0.  1.
       -5    1    3    3    0  502  0.27264303436E+03  0.92937481392E+03 -0.42818994951E+03  0.10589808741E+04  0.46999998093E+01 0. -1.
</event>
<event>
 5   0  0.3484857E-06  0.2500638E+04  0.7818609E-02  0.8402758E-01
        1   -1    0    0  501    0  0.00000000000E+00  0.00000000000E+00  0.23865631913E+04  0.23865631913E+04  0.50400001928E-02 0.  1.
       -1   -1    0    0    0  501  0.00000000000E+00  0.00000000000E+00 -0.65504125479E+03  0.65504125481E+03  0.50400001928E-02 0. -1.
    10030    2    1    2    0    0  0.00000000000E+00  0.00000000000E+00  0.17315219365E+04  0.30416044461E+04  0.25006377966E+04 0.  0.
        3    1    3    3  502    0 -0.43803660330E+03 -0.26479582876E+03 -0.52176589190E+03  0.73091213761E+03  0.10100000352E+00 0. -1.
       -3    1    3    3    0  502  0.43803660330E+03  0.26479582876E+03  0.22532878284E+04  0.23106923085E+04  0.10100000352E+00 0.  1.
</event>
<event>
 5   0  0.3522870E-06  0.2518160E+04  0.7818609E-02  0.8396544E-01
       -1   -1    0    0    0  501  0.00000000000E+00  0.00000000000E+00  0.49489826370E+03  0.49489826372E+03  0.50400001928E-02 0.  1.
        1   -1    0    0  501    0  0.00000000000E+00  0.00000000000E+00 -0.32032483951E+04  0.32032483951E+04  0.50400001928E-02 0. -1.
    10030    2    1    2    0    0  0.00000000000E+00  0.00000000000E+00 -0.27083501314E+04  0.36981466588E+04  0.25181597002E+04 0.  0.
        2    1    3    3  502    0 -0.41846423954E+03  0.16169861909E+03  0.37354175894E+03  0.58377410774E+03  0.25500000920E-02 0.  1.
       -2    1    3    3    0  502  0.41846423954E+03 -0.16169861909E+03 -0.30818918903E+04  0.31143725511E+04  0.25500000920E-02 0. -1.
</event>
<event>
 5   0  0.8354653E-06  0.2497032E+04  0.7818609E-02  0.8404044E-01
        2   -1    0    0  501    0  0.00000000000E+00  0.00000000000E+00  0.68729842260E+03  0.68729842261E+03  0.25500000920E-02 0.  1.
       -2   -1    0    0    0  501  0.00000000000E+00  0.00000000000E+00 -0.22679986780E+04  0.22679986780E+04  0.25500000920E-02 0. -1.
    10030    2    1    2    0    0  0.00000000000E+00  0.00000000000E+00 -0.15807002554E+04  0.29552971006E+04  0.24970317690E+04 0.  0.
        3    1    3    3  502    0  0.49491500634E+03 -0.89232008587E+03  0.61142487970E+02  0.10222105523E+04  0.10100000352E+00 0.  1.
       -3    1    3    3    0  502 -0.49491500634E+03  0.89232008587E+03 -0.16418427433E+04  0.19330865483E+04  0.10100000352E+00 0. -1.
</event>
<event>
 5   0  0.3484857E-06  0.2500261E+04  0.7818609E-02  0.8402893E-01
        1   -1    0    0  501    0  0.00000000000E+00  0.00000000000E+00  0.27606584475E+04  0.27606584475E+04  0.50400001928E-02 0.  1.
       -1   -1    0    0    0  501  0.00000000000E+00  0.00000000000E+00 -0.56610612392E+03  0.56610612394E+03  0.50400001928E-02 0. -1.
    10030    2    1    2    0    0  0.00000000000E+00  0.00000000000E+00  0.21945523236E+04  0.33267645715E+04  0.25002605090E+04 0.  0.
        3    1    3    3  502    0 -0.31339098603E+03 -0.57232900171E+03  0.25160946069E+04  0.25993280819E+04  0.10100000352E+00 0.  1.
       -3    1    3    3    0  502  0.31339098603E+03  0.57232900171E+03 -0.32154228324E+03  0.72743648962E+03  0.10100000352E+00 0. -1.
</event>
<event>
 5   0  0.3484857E-06  0.2503383E+04  0.7818609E-02  0.8401781E-01
        1   -1    0    0  501    0  0.00000000000E+00  0.00000000000E+00  0.22819246113E+04  0.22819246113E+04  0.50400001928E-02 0.  1.
       -1   -1    0    0    0  501  0.00000000000E+00  0.00000000000E+00 -0.68658316901E+03  0.68658316903E+03  0.50400001928E-02 0. -1.
    10030    2    1    2    0    0  0.00000000000E+00  0.00000000000E+00  0.15953414423E+04  0.29685077803E+04  0.25033825366E+04 0.  0.
        3    1    3    3  502    0  0.11036298311E+04  0.23006862162E+03  0.15274376085E+03  0.11376559416E+04  0.10100000352E+00 0. -1.
       -3    1    3    3    0  502 -0.11036298311E+04 -0.23006862162E+03  0.14425976814E+04  0.18308518387E+04  0.10100000352E+00 0.  1.
</event>
<event>
 5   0  0.3484857E-06  0.2495019E+04  0.7818609E-02  0.8404762E-01
        1   -1    0    0  501    0  0.00000000000E+00  0.00000000000E+00  0.22398095591E+04  0.22398095591E+04  0.50400001928E-02 0.  1.
       -1   -1    0    0    0  501  0.00000000000E+00  0.00000000000E+00 -0.69482707454E+03  0.69482707456E+03  0.50400001928E-02 0. -1.
    10030    2    1    2    0    0  0.00000000000E+00  0.00000000000E+00  0.15449824846E+04  0.29346366336E+04  0.24950192973E+04 0.  0.
        3    1    3    3  502    0 -0.12209964751E+04 -0.24788382383E+03  0.84689476789E+03  0.15064891438E+04  0.10100000352E+00 0. -1.
       -3    1    3    3    0  502  0.12209964751E+04  0.24788382383E+03  0.69808771666E+03  0.14281474898E+04  0.10100000352E+00 0.  1.
</event>
<event>
 5   0  0.2901250E-06  0.2503209E+04  0.7818609E-02  0.8401843E-01
       -4   -1    0    0    0  501  0.00000000000E+00  0.00000000000E+00  0.17563601937E+04  0.17563606529E+04  0.12699999809E+01 0. -1.
        4   -1    0    0  501    0  0.00000000000E+00  0.00000000000E+00 -0.89190810093E+03  0.89190900511E+03  0.12699999809E+01 0.  1.
    10030    2    1    2    0    0  0.00000000000E+00  0.00000000000E+00  0.86445209277E+03  0.26482696580E+04  0.25032088927E+04 0.  0.
        1    1    3    3  502    0 -0.12254858765E+03  0.68130936306E+03 -0.67094389294E+03  0.96403646821E+03  0.50400001928E-02 0.  1.
       -1    1    3    3    0  502  0.12254858765E+03 -0.68130936306E+03  0.15353959857E+04  0.16842331898E+04  0.50400001928E-02 0. -1.
</event>
<event>
 5   0  0.3481387E-06  0.2496593E+04  0.7818609E-02  0.8404200E-01
        1   -1    0    0  501    0  0.00000000000E+00  0.00000000000E+00  0.12300195525E+04  0.12300195525E+04  0.50400001928E-02 0.  1.
       -1   -1    0    0    0  501  0.00000000000E+00  0.00000000000E+00 -0.12668453576E+04  0.12668453576E+04  0.50400001928E-02 0. -1.
    10030    2    1    2    0    0  0.00000000000E+00  0.00000000000E+00 -0.36825805083E+02  0.24968649101E+04  0.24965933268E+04 0.  0.
        4    1    3    3  502    0 -0.39012340490E+03  0.57413035150E+03  0.10192070749E+04  0.12331287873E+04  0.12699999809E+01 0.  1.
       -4    1    3    3    0  502  0.39012340490E+03 -0.57413035150E+03 -0.10560328800E+04  0.12637361228E+04  0.12699999809E+01 0. -1.
</event>
<event>
 5   0  0.3481387E-06  0.2496166E+04  0.7818609E-02  0.8404353E-01
       -1   -1    0    0    0  501  0.00000000000E+00  0.00000000000E+00  0.11388432577E+04  0.11388432577E+04  0.50400001928E-02 0.  1.
        1   -1    0    0  501    0  0.00000000000E+00  0.00000000000E+00 -0.13678014058E+04  0.13678014058E+04  0.50400001928E-02 0. -1.
    10030    2    1    2    0    0  0.00000000000E+00  0.00000000000E+00 -0.22895814806E+03  0.25066446635E+04  0.24961661875E+04 0.  0.
        4    1    3    3  502    0  0.12052840397E+04 -0.25985507207E+03 -0.30887766745E+03  0.12710787942E+04  0.12699999809E+01 0.  1.
       -4    1    3    3    0  502 -0.12052840397E+04  0.25985507207E+03  0.79919519386E+02  0.12355658693E+04  0.12699999809E+01 0. -1.
</event>
<event>
 5   0  0.8354653E-06  0.2502691E+04  0.7818609E-02  0.8402027E-01
       -2   -1    0    0    0  501  0.00000000000E+00  0.00000000000E+00  0.13750447375E+04  0.13750447375E+04  0.25500000920E-02 0. -1.
        2   -1    0    0  501    0  0.00000000000E+00  0.00000000000E+00 -0.11387743576E+04  0.11387743576E+04  0.25500000920E-02 0.  1.
    10030    2    1    2    0    0  0.00000000000E+00  0.00000000000E+00  0.23627037991E+03  0.25138190951E+04  0.25026911017E+04 0.  0.
        3    1    3    3  502    0  0.84981658092E+03  0.50488397465E+03  0.88886023319E+03  0.13293489284E+04  0.10100000352E+00 0. -1.
       -3    1    3    3    0  502 -0.84981658092E+03 -0.50488397465E+03 -0.65258985328E+03  0.11844701667E+04  0.10100000352E+00 0.  1.
</event>
<event>
 5   0  0.8948286E-06  0.2499549E+04  0.7818609E-02  0.8403146E-01
       -2   -1    0    0    0  501  0.00000000000E+00  0.00000000000E+00  0.92128420686E+03  0.92128420686E+03  0.25500000920E-02 0.  1.
        2   -1    0    0  501    0  0.00000000000E+00  0.00000000000E+00 -0.16953904992E+04  0.16953904992E+04  0.25500000920E-02 0. -1.
    10030    2    1    2    0    0  0.00000000000E+00  0.00000000000E+00 -0.77410629233E+03  0.26166747060E+04  0.24995491524E+04 0.  0.
        4    1    3    3  502    0  0.55085926205E+03 -0.10202367942E+04 -0.87539429879E+03  0.14528061929E+04  0.12699999809E+01 0. -1.
       -4    1    3    3    0  502 -0.55085926205E+03  0.10202367942E+04  0.10128800647E+03  0.11638685132E+04  0.12699999809E+01 0.  1.
</event>
<event>
 5   0  0.8948286E-06  0.2445656E+04  0.7818609E-02  0.8422606E-01
        2   -1    0    0  501    0  0.00000000000E+00  0.00000000000E+00  0.18540377951E+04  0.18540377951E+04  0.25500000920E-02 0.  1.
       -2   -1    0    0    0  501  0.00000000000E+00  0.00000000000E+00 -0.80651428234E+03  0.80651428234E+03  0.25500000920E-02 0. -1.
    10030    2    1    2    0    0  0.00000000000E+00  0.00000000000E+00  0.10475235128E+04  0.26605520774E+04  0.24456557090E+04 0.  0.
        4    1    3    3  502    0 -0.81123257256E+03  0.89620485685E+03  0.72442830474E+03  0.14092832979E+04  0.12699999809E+01 0.  1.
       -4    1    3    3    0  502  0.81123257256E+03 -0.89620485685E+03  0.32309520803E+03  0.12512687795E+04  0.12699999809E+01 0. -1.
</event>
<event>
 5   0  0.3642184E-06  0.2496601E+04  0.7818609E-02  0.8404197E-01
        1   -1    0    0  501    0  0.00000000000E+00  0.00000000000E+00  0.15465303323E+04  0.15465303323E+04  0.50400001928E-02 0.  1.
       -1   -1    0    0    0  501  0.00000000000E+00  0.00000000000E+00 -0.10075807718E+04  0.10075807718E+04  0.50400001928E-02 0. -1.
    10030    2    1    2    0    0  0.00000000000E+00  0.00000000000E+00  0.53894956045E+03  0.25541111041E+04  0.24966010701E+04 0.  0.
        5    1    3    3  502    0  0.53119193639E+03  0.89612352536E+03 -0.43413995311E+03  0.11285839955E+04  0.46999998093E+01 0. -1.
       -5    1    3    3    0  502 -0.53119193639E+03 -0.89612352536E+03  0.97308951356E+03  0.14255271086E+04  0.46999998093E+01 0.  1.
</event>
<event>
 5   0  0.3484857E-06  0.2499455E+04  0.7818609E-02  0.8403180E-01
        1   -1    0    0  501    0  0.00000000000E+00  0.00000000000E+00  0.15467383374E+04  0.15467383374E+04  0.50400001928E-02 0.  1.
       -1   -1    0    0    0  501  0.00000000000E+00  0.00000000000E+00 -0.10097498621E+04  0.10097498621E+04  0.50400001928E-02 0. -1.
    10030    2    1    2    0    0  0.00000000000E+00  0.00000000000E+00  0.53698847535E+03  0.25564881995E+04  0.24994549989E+04 0.  0.
        3    1    3    3  502    0  0.83468972912E+03  0.11545654858E+03 -0.67548536753E+03  0.10799618745E+04  0.10100000352E+00 0. -1.
       -3    1    3    3    0  502 -0.83468972912E+03 -0.11545654858E+03  0.12124738429E+04  0.14765263250E+04  0.10100000352E+00 0.  1.
</event>
<event>
 5   0  0.8948286E-06  0.2494071E+04  0.7818609E-02  0.8405101E-01
       -2   -1    0    0    0  501  0.00000000000E+00  0.00000000000E+00  0.85418426533E+03  0.85418426533E+03  0.25500000920E-02 0. -1.
        2   -1    0    0  501    0  0.00000000000E+00  0.00000000000E+00 -0.18205637676E+04  0.18205637676E+04  0.25500000920E-02 0.  1.
    10030    2    1    2    0    0  0.00000000000E+00  0.00000000000E+00 -0.96637950225E+03  0.26747480329E+04  0.24940705077E+04 0.  0.
        4    1    3    3  502    0  0.14376500229E+03  0.92746399779E+03 -0.13637936248E+04  0.16555339039E+04  0.12699999809E+01 0.  1.
       -4    1    3    3    0  502 -0.14376500229E+03 -0.92746399779E+03  0.39741412254E+03  0.10192141290E+04  0.12699999809E+01 0. -1.
</event>
<event>
 5   0  0.8407986E-06  0.2509319E+04  0.7818609E-02  0.8399673E-01
        2   -1    0    0  501    0  0.00000000000E+00  0.00000000000E+00  0.28699666039E+04  0.28699666039E+04  0.25500000920E-02 0. -1.
       -2   -1    0    0    0  501  0.00000000000E+00  0.00000000000E+00 -0.54849791999E+03  0.54849792000E+03  0.25500000920E-02 0.  1.
    10030    2    1    2    0    0  0.00000000000E+00  0.00000000000E+00  0.23214686840E+04  0.34184645239E+04  0.25093192007E+04 0.  0.
        5    1    3    3  502    0 -0.47918788720E+03  0.48385967537E+02 -0.41753668045E+03  0.63743329267E+03  0.46999998093E+01 0.  1.
       -5    1    3    3    0  502  0.47918788720E+03 -0.48385967537E+02  0.27390053644E+04  0.27810312313E+04  0.46999998093E+01 0. -1.
</event>
<event>
 5   0  0.3642184E-06  0.2492384E+04  0.7818609E-02  0.8405704E-01
        1   -1    0    0  501    0  0.00000000000E+00  0.00000000000E+00  0.12002802121E+04  0.12002802121E+04  0.50400001928E-02 0.  1.
       -1   -1    0    0    0  501  0.00000000000E+00  0.00000000000E+00 -0.12938602740E+04  0.12938602740E+04  0.50400001928E-02 0. -1.
    10030    2    1    2    0    0  0.00000000000E+00  0.00000000000E+00 -0.93580061911E+02  0.24941404862E+04  0.24923843076E+04 0.  0.
        5    1    3    3  502    0 -0.12066651723E+04 -0.27616065458E+03 -0.19065241052E+03  0.12524679544E+04  0.46999998093E+01 0.  1.
       -5    1    3    3    0  502  0.12066651723E+04  0.27616065458E+03  0.97072348610E+02  0.12416725317E+04  0.46999998093E+01 0. -1.
</event>
<event>
 5   0  0.3484857E-06  0.2495033E+04  0.7818609E-02  0.8404757E-01
       -1   -1    0    0    0  501  0.00000000000E+00  0.00000000000E+00  0.60293224974E+03  0.60293224976E+03  0.50400001928E-02 0.  1.
        1   -1    0    0  501    0  0.00000000000E+00  0.00000000000E+00 -0.25812153360E+04  0.25812153360E+04  0.50400001928E-02 0. -1.
    10030    2    1    2    0    0  0.00000000000E+00  0.00000000000E+00 -0.19782830863E+04  0.31841475858E+04  0.24950334424E+04 0.  0.
        3    1    3    3  502    0  0.17330849913E+01  0.10832484960E+04 -0.17788033903E+04  0.20826838020E+04  0.10100000352E+00 0. -1.
       -3    1    3    3    0  502 -0.17330849913E+01 -0.10832484960E+04 -0.19947969600E+03  0.11014637838E+04  0.10100000352E+00 0.  1.
</event>
<event>
 5   0  0.8056723E-06  0.2512020E+04  0.7818609E-02  0.8398716E-01
       -2   -1    0    0    0  501  0.00000000000E+00  0.00000000000E+00  0.71751976617E+03  0.71751976617E+03  0.25500000920E-02 0.  1.
        2   -1    0    0  501    0  0.00000000000E+00  0.00000000000E+00 -0.21986304230E+04  0.21986304230E+04  0.25500000920E-02 0. -1.
    10030    2    1    2    0    0  0.00000000000E+00  0.00000000000E+00 -0.14811106568E+04  0.29161501891E+04  0.25120197348E+04 0.  0.
        2    1    3    3  502    0  0.29962444781E+03 -0.12167697212E+04 -0.83945117496E+03  0.15083042264E+04  0.25500000920E-02 0. -1.
       -2    1    3    3    0  502 -0.29962444781E+03  0.12167697212E+04 -0.64165948185E+03  0.14078459628E+04  0.25500000920E-02 0.  1.
</event>
<event>
 5   0  0.8407986E-06  0.2510640E+04  0.7818609E-02  0.8399205E-01
        2   -1    0    0  501    0  0.00000000000E+00  0.00000000000E+00  0.14301174043E+04  0.14301174043E+04  0.25500000920E-02 0.  1.
       -2   -1    0    0    0  501  0.00000000000E+00  0.00000000000E+00 -0.11018877626E+04  0.11018877626E+04  0.25500000920E-02 0. -1.
    10030    2    1    2    0    0  0.00000000000E+00  0.00000000000E+00  0.32822964174E+03  0.25320051669E+04  0.25106404496E+04 0.  0.
        5    1    3    3  502    0  0.18176075893E+03 -0.12080418647E+04  0.45537104502E+03  0.13037587963E+04  0.46999998093E+01 0.  1.
       -5    1    3    3    0  502 -0.18176075893E+03  0.12080418647E+04 -0.12714140328E+03  0.12282463705E+04  0.46999998093E+01 0. -1.
</event>
<event>
 5   0  0.8579923E-06  0.2506091E+04  0.7818609E-02  0.8400819E-01
       -2   -1    0    0    0  501  0.00000000000E+00  0.00000000000E+00  0.11714183561E+04  0.11714183561E+04  0.25500000920E-02 0.  1.
        2   -1    0    0  501    0  0.00000000000E+00  0.00000000000E+00 -0.13403608647E+04  0.13403608647E+04  0.25500000920E-02 0. -1.
    10030    2    1    2    0    0  0.00000000000E+00  0.00000000000E+00 -0.16894250858E+03  0.25117792208E+04  0.25060912360E+04 0.  0.
        1    1    3    3  502    0 -0.10665541003E+04  0.61539724894E+03 -0.31710125582E+03  0.12715363264E+04  0.50400001928E-02 0. -1.
       -1    1    3    3    0  502  0.10665541003E+04 -0.61539724894E+03  0.14815874724E+03  0.12402428945E+04  0.50400001928E-02 0.  1.
</event>
<event>
 5   0  0.8948286E-06  0.2494471E+04  0.7818609E-02  0.8404958E-01
       -2   -1    0    0    0  501  0.00000000000E+00  0.00000000000E+00  0.95499506607E+03  0.95499506607E+03  0.25500000920E-02 0. -1.
        2   -1    0    0  501    0  0.00000000000E+00  0.00000000000E+00 -0.16289055292E+04  0.16289055292E+04  0.25500000920E-02 0.  1.
    10030    2    1    2    0    0  0.00000000000E+00  0.00000000000E+00 -0.67391046314E+03  0.25839005953E+04  0.24944712814E+04 0.  0.
        4    1    3    3  502    0 -0.66531212011E+03  0.40543202204E+03 -0.13458229533E+04  0.15550743957E+04  0.12699999809E+01 0.  1.
       -4    1    3    3    0  502  0.66531212011E+03 -0.40543202204E+03  0.67191249014E+03  0.10288261996E+04  0.12699999809E+01 0. -1.
</event>
<event>
 5   0  0.8407986E-06  0.2501552E+04  0.7818609E-02  0.8402433E-01
       -2   -1    0    0    0  501  0.00000000000E+00  0.00000000000E+00  0.66918023431E+03  0.66918023431E+03  0.25500000920E-02 0. -1.
        2   -1    0    0  501    0  0.00000000000E+00  0.00000000000E+00 -0.23378471699E+04  0.23378471699E+04  0.25500000920E-02 0.  1.
    10030    2    1    2    0    0  0.00000000000E+00  0.00000000000E+00 -0.16686669356E+04  0.30070274042E+04  0.25015524116E+04 0.  0.
        5    1    3    3  502    0 -0.26156295995E+03  0.92887219235E+02 -0.23003475311E+04  0.23170377795E+04  0.46999998093E+01 0.  1.
       -5    1    3    3    0  502  0.26156295995E+03 -0.92887219235E+02  0.63168059553E+03  0.68998962476E+03  0.46999998093E+01 0. -1.
</event>
<event>
 5   0  0.8354653E-06  0.2513152E+04  0.7818609E-02  0.8398315E-01
       -2   -1    0    0    0  501  0.00000000000E+00  0.00000000000E+00  0.14594508190E+04  0.14594508190E+04  0.25500000920E-02 0.  1.
        2   -1    0    0  501    0  0.00000000000E+00  0.00000000000E+00 -0.10819027197E+04  0.10819027197E+04  0.25500000920E-02 0. -1.
    10030    2    1    2    0    0  0.00000000000E+00  0.00000000000E+00  0.37754809929E+03  0.25413535387E+04  0.25131524508E+04 0.  0.
        3    1    3    3  502    0 -0.32819611943E+03  0.92169651517E+03  0.98613135123E+03  0.13891336188E+04  0.10100000352E+00 0.  1.
       -3    1    3    3    0  502  0.32819611943E+03 -0.92169651517E+03 -0.60858325194E+03  0.11522199198E+04  0.10100000352E+00 0. -1.
</event>
<event>
 5   0  0.3481387E-06  0.2495481E+04  0.7818609E-02  0.8404597E-01
        1   -1    0    0  501    0  0.00000000000E+00  0.00000000000E+00  0.14540437697E+04  0.14540437698E+04  0.50400001928E-02 0.  1.
       -1   -1    0    0    0  501  0.00000000000E+00  0.00000000000E+00 -0.10707076250E+04  0.10707076250E+04  0.50400001928E-02 0. -1.
    10030    2    1    2    0    0  0.00000000000E+00  0.00000000000E+00  0.38333614479E+03  0.25247513947E+04  0.24954805159E+04 0.  0.
        4    1    3    3  502    0  0.67109146844E+03 -0.79214667433E+03 -0.50854382524E+03  0.11560616540E+04  0.12699999809E+01 0. -1.
       -4    1    3    3    0  502 -0.67109146844E+03  0.79214667433E+03  0.89187997003E+03  0.13686897408E+04  0.12699999809E+01 0.  1.
</event>
<event>
 5   0  0.8407986E-06  0.2472078E+04  0.7818609E-02  0.8413001E-01
       -2   -1    0    0    0  501  0.00000000000E+00  0.00000000000E+00  0.94373770155E+03  0.94373770156E+03  0.25500000920E-02 0. -1.
        2   -1    0    0  501    0  0.00000000000E+00  0.00000000000E+00 -0.16188744762E+04  0.16188744762E+04  0.25500000920E-02 0.  1.
    10030    2    1    2    0    0  0.00000000000E+00  0.00000000000E+00 -0.67513677468E+03  0.25626121778E+04  0.24720783785E+04 0.  0.
        5    1    3    3  502    0 -0.26113512495E+03 -0.43746571609E+03 -0.15049558755E+04  0.15888618831E+04  0.46999998093E+01 0.  1.
       -5    1    3    3    0  502  0.26113512495E+03  0.43746571609E+03  0.82981910087E+03  0.97375029468E+03  0.46999998093E+01 0. -1.
</event>
<event>
 5   0  0.3642184E-06  0.2530152E+04  0.7818609E-02  0.8392322E-01
       -1   -1    0    0    0  501  0.00000000000E+00  0.00000000000E+00  0.10033041947E+04  0.10033041947E+04  0.50400001928E-02 0. -1.
        1   -1    0    0  501    0  0.00000000000E+00  0.00000000000E+00 -0.15951468835E+04  0.15951468835E+04  0.50400001928E-02 0.  1.
    10030    2    1    2    0    0  0.00000000000E+00  0.00000000000E+00 -0.59184268881E+03  0.25984510782E+04  0.25301522163E+04 0.  0.
        5    1    3    3  502    0 -0.13633272923E+03  0.32956155232E+03  0.95059638885E+03  0.10153093195E+04  0.46999998093E+01 0. -1.
       -5    1    3    3    0  502  0.13633272923E+03 -0.32956155232E+03 -0.15424390777E+04  0.15831417587E+04  0.46999998093E+01 0.  1.
</event>
<event>
 5   0  0.3642184E-06  0.2495332E+04  0.7818609E-02  0.8404650E-01
        1   -1    0    0  501    0  0.00000000000E+00  0.00000000000E+00  0.28614198454E+04  0.28614198454E+04  0.50400001928E-02 0. -1.
       -1   -1    0    0    0  501  0.00000000000E+00  0.00000000000E+00 -0.54402030184E+03  0.54402030186E+03  0.50400001928E-02 0.  1.
    10030    2    1    2    0    0  0.00000000000E+00  0.00000000000E+00  0.23173995435E+04  0.34054401472E+04  0.24953320324E+04 0.  0.
        5    1    3    3  502    0 -0.10799341998E+04 -0.51987006792E+03  0.16317015325E+04  0.20245974278E+04  0.46999998093E+01 0.  1.
       -5    1    3    3    0  502  0.10799341998E+04  0.51987006792E+03  0.68569801103E+03  0.13808427194E+04  0.46999998093E+01 0. -1.
</event>
<event>
 5   0  0.3642184E-06  0.2491597E+04  0.7818609E-02  0.8405985E-01
       -1   -1    0    0    0  501  0.00000000000E+00  0.00000000000E+00  0.11072051517E+04  0.11072051517E+04  0.50400001928E-02 0. -1.
        1   -1    0    0  501    0  0.00000000000E+00  0.00000000000E+00 -0.14017403374E+04  0.14017403374E+04  0.50400001928E-02 0.  1.
    10030    2    1    2    0    0  0.00000000000E+00  0.00000000000E+00 -0.29453518573E+03  0.25089454891E+04  0.24915971768E+04 0.  0.
        5    1    3    3  502    0 -0.35628025120E+03  0.68427442899E+03  0.83771744774E+03  0.11388413954E+04  0.46999998093E+01 0. -1.
       -5    1    3    3    0  502  0.35628025120E+03 -0.68427442899E+03 -0.11322526335E+04  0.13701040937E+04  0.46999998093E+01 0.  1.
</event>
<event>
 5   0  0.3424193E-06  0.2502178E+04  0.7818609E-02  0.8402210E-01
        1   -1    0    0  501    0  0.00000000000E+00  0.00000000000E+00  0.95545196060E+03  0.95545196062E+03  0.50400001928E-02 0.  1.
       -1   -1    0    0    0  501  0.00000000000E+00  0.00000000000E+00 -0.16382022121E+04  0.16382022121E+04  0.50400001928E-02 0. -1.
    10030    2    1    2    0    0  0.00000000000E+00  0.00000000000E+00 -0.68275025151E+03  0.25936541727E+04  0.25021778637E+04 0.  0.
        1    1    3    3  502    0 -0.10236069481E+04  0.51596407245E+03  0.17818113794E+03  0.11600597511E+04  0.50400001928E-02 0.  1.
       -1    1    3    3    0  502  0.10236069481E+04 -0.51596407245E+03 -0.86093138945E+03  0.14335944216E+04  0.50400001928E-02 0. -1.
</event>
<event>
 5   0  0.8354653E-06  0.2489208E+04  0.7818609E-02  0.8406840E-01
       -2   -1    0    0    0  501  0.00000000000E+00  0.00000000000E+00  0.72483042728E+03  0.72483042728E+03  0.25500000920E-02 0.  1.
        2   -1    0    0  501    0  0.00000000000E+00  0.00000000000E+00 -0.21371058368E+04  0.21371058368E+04  0.25500000920E-02 0. -1.
    10030    2    1    2    0    0  0.00000000000E+00  0.00000000000E+00 -0.14122754095E+04  0.28619362641E+04  0.24892081768E+04 0.  0.
        3    1    3    3  502    0  0.19387615549E+03 -0.11698173122E+04 -0.11408827003E+04  0.16455010950E+04  0.10100000352E+00 0. -1.
       -3    1    3    3    0  502 -0.19387615549E+03  0.11698173122E+04 -0.27139270920E+03  0.12164351690E+04  0.10100000352E+00 0.  1.
</event>
<event>
 5   0  0.8407986E-06  0.2507446E+04  0.7818609E-02  0.8400338E-01
        2   -1    0    0  501    0  0.00000000000E+00  0.00000000000E+00  0.12688571249E+04  0.12688571249E+04  0.25500000920E-02 0.  1.
       -2   -1    0    0    0  501  0.00000000000E+00  0.00000000000E+00 -0.12387697295E+04  0.12387697295E+04  0.25500000920E-02 0. -1.
    10030    2    1    2    0    0  0.00000000000E+00  0.00000000000E+00  0.30087395371E+02  0.25076268544E+04  0.25074463483E+04 0.  0.
        5    1    3    3  502    0  0.80201232680E+02 -0.39172234675E+03  0.12033720878E+04  0.12680714122E+04  0.46999998093E+01 0.  1.
       -5    1    3    3    0  502 -0.80201232680E+02  0.39172234675E+03 -0.11732846925E+04  0.12395554422E+04  0.46999998093E+01 0. -1.
</event>
<event>
 5   0  0.3481387E-06  0.2499004E+04  0.7818609E-02  0.8403341E-01
        1   -1    0    0  501    0  0.00000000000E+00  0.00000000000E+00  0.11192301196E+04  0.11192301196E+04  0.50400001928E-02 0. -1.
       -1   -1    0    0    0  501  0.00000000000E+00  0.00000000000E+00 -0.13949363166E+04  0.13949363166E+04  0.50400001928E-02 0.  1.
    10030    2    1    2    0    0  0.00000000000E+00  0.00000000000E+00 -0.27570619699E+03  0.25141664362E+04  0.24990035938E+04 0.  0.
        4    1    3    3  502    0  0.17306316045E+03 -0.23443894376E+03 -0.13602730592E+04  0.13911351065E+04  0.12699999809E+01 0.  1.
       -4    1    3    3    0  502 -0.17306316045E+03  0.23443894376E+03  0.10845668623E+04  0.11230313297E+04  0.12699999809E+01 0. -1.
</event>
<event>
 5   0  0.8056723E-06  0.2504305E+04  0.7818609E-02  0.8401453E-01
        2   -1    0    0  501    0  0.00000000000E+00  0.00000000000E+00  0.19893012476E+04  0.19893012476E+04  0.25500000920E-02 0.  1.
       -2   -1    0    0    0  501  0.00000000000E+00  0.00000000000E+00 -0.78815906936E+03  0.78815906937E+03  0.25500000920E-02 0. -1.
    10030    2    1    2    0    0  0.00000000000E+00  0.00000000000E+00  0.12011421782E+04  0.27774603169E+04  0.25043049495E+04 0.  0.
        2    1    3    3  502    0 -0.12756356536E+03 -0.12451394138E+04  0.63964446987E+03  0.14056278565E+04  0.25500000920E-02 0.  1.
       -2    1    3    3    0  502  0.12756356536E+03  0.12451394138E+04  0.56149770831E+03  0.13718324604E+04  0.25500000920E-02 0. -1.
</event>
<event>
 5   0  0.8056723E-06  0.2501799E+04  0.7818609E-02  0.8402345E-01
       -2   -1    0    0    0  501  0.00000000000E+00  0.00000000000E+00  0.12119339539E+04  0.12119339539E+04  0.25500000920E-02 0.  1.
        2   -1    0    0  501    0  0.00000000000E+00  0.00000000000E+00 -0.12911176583E+04  0.12911176583E+04  0.25500000920E-02 0. -1.
    10030    2    1    2    0    0  0.00000000000E+00  0.00000000000E+00 -0.79183704465E+02  0.25030516122E+04  0.25017988157E+04 0.  0.
        2    1    3    3  502    0  0.41272727938E+03 -0.11541416020E+04  0.21025841681E+03  0.12436218261E+04  0.25500000920E-02 0.  1.
       -2    1    3    3    0  502 -0.41272727938E+03  0.11541416020E+04 -0.28944212128E+03  0.12594297861E+04  0.25500000920E-02 0. -1.
</event>
<event>
 5   0  0.3424193E-06  0.2501949E+04  0.7818609E-02  0.8402292E-01
        1   -1    0    0  501    0  0.00000000000E+00  0.00000000000E+00  0.20576025487E+04  0.20576025487E+04  0.50400001928E-02 0. -1.
       -1   -1    0    0    0  501  0.00000000000E+00  0.00000000000E+00 -0.76056320892E+03  0.76056320893E+03  0.50400001928E-02 0.  1.
    10030    2    1    2    0    0  0.00000000000E+00  0.00000000000E+00  0.12970393398E+04  0.28181657577E+04  0.25019486783E+04 0.  0.
        1    1    3    3  502    0  0.27933943166E+03  0.33060631117E+03 -0.67353863777E+03  0.80061560543E+03  0.50400001928E-02 0.  1.
       -1    1    3    3    0  502 -0.27933943166E+03 -0.33060631117E+03  0.19705779776E+04  0.20175501522E+04  0.50400001928E-02 0. -1.
</event>
<event>
 5   0  0.8407986E-06  0.2497414E+04  0.7818609E-02  0.8403907E-01
        2   -1    0    0  501    0  0.00000000000E+00  0.00000000000E+00  0.92435080132E+03  0.92435080132E+03  0.25500000920E-02 0.  1.
       -2   -1    0    0    0  501  0.00000000000E+00  0.00000000000E+00 -0.16868806042E+04  0.16868806042E+04  0.25500000920E-02 0. -1.
    10030    2    1    2    0    0  0.00000000000E+00  0.00000000000E+00 -0.76252980293E+03  0.26112314056E+04  0.24974142134E+04 0.  0.
        5    1    3    3  502    0  0.37334715778E+03 -0.85184555565E+03 -0.12524347595E+04  0.15600140601E+04  0.46999998093E+01 0. -1.
       -5    1    3    3    0  502 -0.37334715778E+03  0.85184555565E+03  0.48990495658E+03  0.10512173455E+04  0.46999998093E+01 0.  1.
</event>
<event>
 5   0  0.3484857E-06  0.2496150E+04  0.7818609E-02  0.8404358E-01
        1   -1    0    0  501    0  0.00000000000E+00  0.00000000000E+00  0.14209273412E+04  0.14209273412E+04  0.50400001928E-02 0.  1.
       -1   -1    0    0    0  501  0.00000000000E+00  0.00000000000E+00 -0.10962495813E+04  0.10962495813E+04  0.50400001928E-02 0. -1.
    10030    2    1    2    0    0  0.00000000000E+00  0.00000000000E+00  0.32467775989E+03  0.25171769225E+04  0.24961498375E+04 0.  0.
        3    1    3    3  502    0 -0.70800441782E+03 -0.22022267453E+03 -0.85007177119E+03  0.11280027963E+04  0.10100000352E+00 0. -1.
       -3    1    3    3    0  502  0.70800441782E+03  0.22022267453E+03  0.11747495311E+04  0.13891741262E+04  0.10100000352E+00 0.  1.
</event>
<event>
 5   0  0.8948286E-06  0.2496786E+04  0.7818609E-02  0.8404131E-01
        2   -1    0    0  501    0  0.00000000000E+00  0.00000000000E+00  0.18166347860E+04  0.18166347860E+04  0.25500000920E-02 0. -1.
       -2   -1    0    0    0  501  0.00000000000E+00  0.00000000000E+00 -0.85789666769E+03  0.85789666769E+03  0.25500000920E-02 0.  1.
    10030    2    1    2    0    0  0.00000000000E+00  0.00000000000E+00  0.95873811831E+03  0.26745314537E+04  0.24967858773E+04 0.  0.
        4    1    3    3  502    0 -0.15774254890E+03 -0.96646833716E+03 -0.35005252388E+03  0.10399433354E+04  0.12699999809E+01 0.  1.
       -4    1    3    3    0  502  0.15774254890E+03  0.96646833716E+03  0.13087906422E+04  0.16345881183E+04  0.12699999809E+01 0. -1.
</event>
<event>
 5   0  0.8407986E-06  0.2510941E+04  0.7818609E-02  0.8399098E-01
        2   -1    0    0  501    0  0.00000000000E+00  0.00000000000E+00  0.21704874077E+04  0.21704874077E+04  0.25500000920E-02 0.  1.
       -2   -1    0    0    0  501  0.00000000000E+00  0.00000000000E+00 -0.72619900612E+03  0.72619900612E+03  0.25500000920E-02 0. -1.
    10030    2    1    2    0    0  0.00000000000E+00  0.00000000000E+00  0.14442884016E+04  0.28966864138E+04  0.25109406988E+04 0.  0.
        5    1    3    3  502    0  0.66009679745E+03  0.58379070325E+03  0.17537492531E+04  0.19627016839E+04  0.46999998093E+01 0.  1.
       -5    1    3    3    0  502 -0.66009679745E+03 -0.58379070325E+03 -0.30946085148E+03  0.93398472996E+03  0.46999998093E+01 0. -1.
</event>
<event>
 5   0  0.3424193E-06  0.2503924E+04  0.7818609E-02  0.8401589E-01
       -1   -1    0    0    0  501  0.00000000000E+00  0.00000000000E+00  0.93850099001E+03  0.93850099002E+03  0.50400001928E-02 0.  1.
        1   -1    0    0  501    0  0.00000000000E+00  0.00000000000E+00 -0.16701193162E+04  0.16701193162E+04  0.50400001928E-02 0. -1.
    10030    2    1    2    0    0  0.00000000000E+00  0.00000000000E+00 -0.73161832616E+03  0.26086203062E+04  0.25039238261E+04 0.  0.
        1    1    3    3  502    0 -0.71139227672E+03 -0.74899509147E+03 -0.11027296659E+04  0.15109881980E+04  0.50400001928E-02 0. -1.
       -1    1    3    3    0  502  0.71139227672E+03  0.74899509147E+03  0.37111133974E+03  0.10976321082E+04  0.50400001928E-02 0.  1.
</event>
<event>
 5   0  0.3424193E-06  0.2456673E+04  0.7818609E-02  0.8418586E-01
       -1   -1    0    0    0  501  0.00000000000E+00  0.00000000000E+00  0.98257371433E+03  0.98257371434E+03  0.50400001928E-02 0.  1.
        1   -1    0    0  501    0  0.00000000000E+00  0.00000000000E+00 -0.15355695827E+04  0.15355695827E+04  0.50400001928E-02 0. -1.
    10030    2    1    2    0    0  0.00000000000E+00  0.00000000000E+00 -0.55299586836E+03  0.25181432970E+04  0.24566727975E+04 0.  0.
        1    1    3    3  502    0  0.32376590961E+02  0.12074222446E+04 -0.50545575981E+03  0.13093518418E+04  0.50400001928E-02 0.  1.
       -1    1    3    3    0  502 -0.32376590961E+02 -0.12074222446E+04 -0.47540108550E+02  0.12087914553E+04  0.50400001928E-02 0. -1.
</event>
<event>
 5   0  0.3484857E-06  0.2508188E+04  0.7818609E-02  0.8400074E-01
       -1   -1    0    0    0  501  0.00000000000E+00  0.00000000000E+00  0.17914268939E+04  0.17914268939E+04  0.50400001928E-02 0. -1.
        1   -1    0    0  501    0  0.00000000000E+00  0.00000000000E+00 -0.87793232786E+03  0.87793232788E+03  0.50400001928E-02 0.  1.
    10030    2    1    2    0    0  0.00000000000E+00  0.00000000000E+00  0.91349456607E+03  0.26693592218E+04  0.25081878584E+04 0.  0.
        3    1    3    3  502    0  0.10087052757E+04 -0.35218821246E+03  0.11556243514E+04  0.15738457745E+04  0.10100000352E+00 0. -1.
       -3    1    3    3    0  502 -0.10087052757E+04  0.35218821246E+03 -0.24212978531E+03  0.10955134473E+04  0.10100000352E+00 0.  1.
</event>
<event>
 5   0  0.8948286E-06  0.2504835E+04  0.7818609E-02  0.8401265E-01
       -2   -1    0    0    0  501  0.00000000000E+00  0.00000000000E+00  0.14163425962E+04  0.14163425963E+04  0.25500000920E-02 0. -1.
        2   -1    0    0  501    0  0.00000000000E+00  0.00000000000E+00 -0.11074651041E+04  0.11074651041E+04  0.25500000920E-02 0.  1.
    10030    2    1    2    0    0  0.00000000000E+00  0.00000000000E+00  0.30887749212E+03  0.25238077004E+04  0.25048353246E+04 0.  0.
        4    1    3    3  502    0 -0.61790339220E+03 -0.56556412916E+02  0.12505875096E+04  0.13960565755E+04  0.12699999809E+01 0. -1.
       -4    1    3    3    0  502  0.61790339220E+03  0.56556412916E+02 -0.94171001743E+03  0.11277511249E+04  0.12699999809E+01 0.  1.
</event>
<event>
 5   0  0.8579923E-06  0.2523689E+04  0.7818609E-02  0.8394595E-01
        2   -1    0    0  501    0  0.00000000000E+00  0.00000000000E+00  0.22478352400E+04  0.22478352400E+04  0.25500000920E-02 0. -1.
       -2   -1    0    0    0  501  0.00000000000E+00  0.00000000000E+00 -0.70834882402E+03  0.70834882403E+03  0.25500000920E-02 0.  1.
    10030    2    1    2    0    0  0.00000000000E+00  0.00000000000E+00  0.15394864160E+04  0.29561840640E+04  0.25236889260E+04 0.  0.
        1    1    3    3  502    0 -0.51324133851E+03  0.11498382003E+04  0.67381280748E+03  0.14281345377E+04  0.50400001928E-02 0.  1.
       -1    1    3    3    0  502  0.51324133851E+03 -0.11498382003E+04  0.86567360849E+03  0.15280495263E+04  0.50400001928E-02 0. -1.
</event>
<event>
 5   0  0.2901250E-06  0.2500553E+04  0.7818609E-02  0.8402789E-01
        4   -1    0    0  501    0  0.00000000000E+00  0.00000000000E+00  0.89079195525E+03  0.89079286057E+03  0.12699999809E+01 0.  1.
       -4   -1    0    0    0  501  0.00000000000E+00  0.00000000000E+00 -0.17548305847E+04  0.17548310443E+04  0.12699999809E+01 0. -1.
    10030    2    1    2    0    0  0.00000000000E+00  0.00000000000E+00 -0.86403862948E+03  0.26456239049E+04  0.25005525575E+04 0.  0.
        2    1    3    3  502    0 -0.23715042673E+03  0.12101113542E+04 -0.21369614092E+03  0.12515094307E+04  0.25500000920E-02 0.  1.
       -2    1    3    3    0  502  0.23715042673E+03 -0.12101113542E+04 -0.65034248856E+03  0.13941144741E+04  0.25500000920E-02 0. -1.
</event>
<event>
 5   0  0.3522870E-06  0.2496355E+04  0.7818609E-02  0.8404285E-01
        1   -1    0    0  501    0  0.00000000000E+00  0.00000000000E+00  0.14507630539E+04  0.14507630539E+04  0.50400001928E-02 0. -1.
       -1   -1    0    0    0  501  0.00000000000E+00  0.00000000000E+00 -0.10738810343E+04  0.10738810343E+04  0.50400001928E-02 0.  1.
    10030    2    1    2    0    0  0.00000000000E+00  0.00000000000E+00  0.37688201963E+03  0.25246440882E+04  0.24963548857E+04 0.  0.
        2    1    3    3  502    0  0.11830138163E+04  0.15532190888E+03  0.55906403711E+03  0.13176491120E+04  0.25500000920E-02 0.  1.
       -2    1    3    3    0  502 -0.11830138163E+04 -0.15532190888E+03 -0.18218201748E+03  0.12069949761E+04  0.25500000920E-02 0. -1.
</event>
<event>
 5   0  0.3642184E-06  0.2489005E+04  0.7818609E-02  0.8406913E-01
        1   -1    0    0  501    0  0.00000000000E+00  0.00000000000E+00  0.22124675901E+04  0.22124675901E+04  0.50400001928E-02 0.  1.
       -1   -1    0    0    0  501  0.00000000000E+00  0.00000000000E+00 -0.70002682114E+03  0.70002682115E+03  0.50400001928E-02 0. -1.
    10030    2    1    2    0    0  0.00000000000E+00  0.00000000000E+00  0.15124407689E+04  0.29124944112E+04  0.24890051458E+04 0.  0.
        5    1    3    3  502    0 -0.22975216391E+03  0.11139722652E+04  0.13471654584E+04  0.17631214158E+04  0.46999998093E+01 0.  1.
       -5    1    3    3    0  502  0.22975216391E+03 -0.11139722652E+04  0.16527531056E+03  0.11493729955E+04  0.46999998093E+01 0. -1.
</event>
<event>
 5   0  0.8948286E-06  0.2507869E+04  0.7818609E-02  0.8400187E-01
        2   -1    0    0  501    0  0.00000000000E+00  0.00000000000E+00  0.10927524161E+04  0.10927524161E+04  0.25500000920E-02 0. -1.
       -2   -1    0    0    0  501  0.00000000000E+00  0.00000000000E+00 -0.14388915926E+04  0.14388915926E+04  0.25500000920E-02 0.  1.
    10030    2    1    2    0    0  0.00000000000E+00  0.00000000000E+00 -0.34613917646E+03  0.25316440086E+04  0.25078694258E+04 0.  0.
        4    1    3    3  502    0 -0.32232602899E+03 -0.44887416596E+03  0.96319804432E+03  0.11104657452E+04  0.12699999809E+01 0. -1.
       -4    1    3    3    0  502  0.32232602899E+03  0.44887416596E+03 -0.13093372208E+04  0.14211782634E+04  0.12699999809E+01 0.  1.
</event>
<event>
 5   0  0.3484857E-06  0.2504953E+04  0.7818609E-02  0.8401223E-01
        1   -1    0    0  501    0  0.00000000000E+00  0.00000000000E+00  0.13714573504E+04  0.13714573504E+04  0.50400001928E-02 0. -1.
       -1   -1    0    0    0  501  0.00000000000E+00  0.00000000000E+00 -0.11438177321E+04  0.11438177321E+04  0.50400001928E-02 0.  1.
    10030    2    1    2    0    0  0.00000000000E+00  0.00000000000E+00  0.22763961834E+03  0.25152750825E+04  0.25049528828E+04 0.  0.
        3    1    3    3  502    0  0.63312676629E+02 -0.18617575134E+03  0.13558596304E+04  0.13700457120E+04  0.10100000352E+00 0. -1.
       -3    1    3    3    0  502 -0.63312676629E+02  0.18617575134E+03 -0.11282200120E+04  0.11452293706E+04  0.10100000352E+00 0.  1.
</event>
<event>
 5   0  0.8948286E-06  0.2485035E+04  0.7818609E-02  0.8408336E-01
       -2   -1    0    0    0  501  0.00000000000E+00  0.00000000000E+00  0.89810789596E+03  0.89810789597E+03  0.25500000920E-02 0. -1.
        2   -1    0    0  501    0  0.00000000000E+00  0.00000000000E+00 -0.17190031742E+04  0.17190031742E+04  0.25500000920E-02 0.  1.
    10030    2    1    2    0    0  0.00000000000E+00  0.00000000000E+00 -0.82089527822E+03  0.26171110701E+04  0.24850354717E+04 0.  0.
        4    1    3    3  502    0  0.23263359451E+03  0.61891031168E+03  0.69745261288E+03  0.96104636897E+03  0.12699999809E+01 0. -1.
       -4    1    3    3    0  502 -0.23263359451E+03 -0.61891031168E+03 -0.15183478911E+04  0.16560647012E+04  0.12699999809E+01 0.  1.
</event>
<event>
 5   0  0.3484857E-06  0.2460374E+04  0.7818609E-02  0.8417240E-01
        1   -1    0    0  501    0  0.00000000000E+00  0.00000000000E+00  0.95365510440E+03  0.95365510441E+03  0.50400001928E-02 0. -1.
       -1   -1    0    0    0  501  0.00000000000E+00  0.00000000000E+00 -0.15869050455E+04  0.15869050455E+04  0.50400001928E-02 0.  1.
    10030    2    1    2    0    0  0.00000000000E+00  0.00000000000E+00 -0.63324994108E+03  0.25405601499E+04  0.24603740340E+04 0.  0.
        3    1    3    3  502    0  0.66508028967E+03 -0.71266180803E+03  0.45825973873E+03  0.10771353873E+04  0.10100000352E+00 0.  1.
       -3    1    3    3    0  502 -0.66508028967E+03  0.71266180803E+03 -0.10915096798E+04  0.14634247626E+04  0.10100000352E+00 0. -1.
</event>
<event>
 5   0  0.3424193E-06  0.2497477E+04  0.7818609E-02  0.8403885E-01
       -1   -1    0    0    0  501  0.00000000000E+00  0.00000000000E+00  0.99096988853E+03  0.99096988854E+03  0.50400001928E-02 0.  1.
        1   -1    0    0  501    0  0.00000000000E+00  0.00000000000E+00 -0.15735571656E+04  0.15735571656E+04  0.50400001928E-02 0. -1.
    10030    2    1    2    0    0  0.00000000000E+00  0.00000000000E+00 -0.58258727711E+03  0.25645270542E+04  0.24974769421E+04 0.  0.
        1    1    3    3  502    0  0.36128667435E+03  0.93501508775E+03  0.47339143131E+03  0.11085489266E+04  0.50400001928E-02 0.  1.
       -1    1    3    3    0  502 -0.36128667435E+03 -0.93501508775E+03 -0.10559787084E+04  0.14559781276E+04  0.50400001928E-02 0. -1.
</event>
<event>
 5   0  0.8948286E-06  0.2514738E+04  0.7818609E-02  0.8397754E-01
       -2   -1    0    0    0  501  0.00000000000E+00  0.00000000000E+00  0.70533957567E+03  0.70533957567E+03  0.25500000920E-02 0. -1.
        2   -1    0    0  501    0  0.00000000000E+00  0.00000000000E+00 -0.22414411337E+04  0.22414411337E+04  0.25500000920E-02 0.  1.
    10030    2    1    2    0    0  0.00000000000E+00  0.00000000000E+00 -0.15361015580E+04  0.29467807094E+04  0.25147382672E+04 0.  0.
        4    1    3    3  502    0 -0.42228598847E+03  0.24443698955E+03 -0.21259794748E+04  0.21812531348E+04  0.12699999809E+01 0.  1.
       -4    1    3    3    0  502  0.42228598847E+03 -0.24443698955E+03  0.58987791673E+03  0.76552757460E+03  0.12699999809E+01 0. -1.
</event>
<event>
 5   0  0.8579923E-06  0.2509623E+04  0.7818609E-02  0.8399565E-01
       -2   -1    0    0    0  501  0.00000000000E+00  0.00000000000E+00  0.17611902459E+04  0.17611902459E+04  0.25500000920E-02 0. -1.
        2   -1    0    0  501    0  0.00000000000E+00  0.00000000000E+00 -0.89402720684E+03  0.89402720684E+03  0.25500000920E-02 0.  1.
    10030    2    1    2    0    0  0.00000000000E+00  0.00000000000E+00  0.86716303910E+03  0.26552174528E+04  0.25096230763E+04 0.  0.
        1    1    3    3  502    0  0.61715909201E+03  0.18812513619E+03 -0.70508760795E+03  0.95573267530E+03  0.50400001928E-02 0.  1.
       -1    1    3    3    0  502 -0.61715909201E+03 -0.18812513619E+03  0.15722506470E+04  0.16994847775E+04  0.50400001928E-02 0. -1.
</event>
<event>
 5   0  0.8056723E-06  0.2458127E+04  0.7818609E-02  0.8418057E-01
        2   -1    0    0  501    0  0.00000000000E+00  0.00000000000E+00  0.19404092087E+04  0.19404092087E+04  0.25500000920E-02 0.  1.
       -2   -1    0    0    0  501  0.00000000000E+00  0.00000000000E+00 -0.77849408553E+03  0.77849408553E+03  0.25500000920E-02 0. -1.
    10030    2    1    2    0    0  0.00000000000E+00  0.00000000000E+00  0.11619151231E+04  0.27189032942E+04  0.24581270044E+04 0.  0.
        2    1    3    3  502    0 -0.95072009643E+03  0.80372807736E+02  0.14379209278E+04  0.17256723572E+04  0.25500000920E-02 0. -1.
       -2    1    3    3    0  502  0.95072009643E+03 -0.80372807736E+02 -0.27600580462E+03  0.99323093698E+03  0.25500000920E-02 0.  1.
</event>
<event>
 5   0  0.8948286E-06  0.2498591E+04  0.7818609E-02  0.8403488E-01
        2   -1    0    0  501    0  0.00000000000E+00  0.00000000000E+00  0.15205239683E+04  0.15205239683E+04  0.25500000920E-02 0.  1.
       -2   -1    0    0    0  501  0.00000000000E+00  0.00000000000E+00 -0.10264479841E+04  0.10264479841E+04  0.25500000920E-02 0. -1.
    10030    2    1    2    0    0  0.00000000000E+00  0.00000000000E+00  0.49407598423E+03  0.25469719524E+04  0.24985906123E+04 0.  0.
        4    1    3    3  502    0 -0.43920395661E+02  0.69919159087E+03  0.13014458210E+04  0.14780259537E+04  0.12699999809E+01 0.  1.
       -4    1    3    3    0  502  0.43920395661E+02 -0.69919159087E+03 -0.80736983678E+03  0.10689459987E+04  0.12699999809E+01 0. -1.
</event>
<event>
 5   0  0.3424193E-06  0.2506097E+04  0.7818609E-02  0.8400817E-01
        1   -1    0    0  501    0  0.00000000000E+00  0.00000000000E+00  0.13372292387E+04  0.13372292387E+04  0.50400001928E-02 0.  1.
       -1   -1    0    0    0  501  0.00000000000E+00  0.00000000000E+00 -0.11741666870E+04  0.11741666870E+04  0.50400001928E-02 0. -1.
    10030    2    1    2    0    0  0.00000000000E+00  0.00000000000E+00  0.16306255177E+03  0.25113959257E+04  0.25060965863E+04 0.  0.
        1    1    3    3  502    0  0.58407195827E+03  0.10708369410E+04 -0.20595200804E+03  0.12370319463E+04  0.50400001928E-02 0. -1.
       -1    1    3    3    0  502 -0.58407195827E+03 -0.10708369410E+04  0.36901455981E+03  0.12743639794E+04  0.50400001928E-02 0.  1.
</event>
<event>
 5   0  0.3484857E-06  0.2490194E+04  0.7818609E-02  0.8406487E-01
        1   -1    0    0  501    0  0.00000000000E+00  0.00000000000E+00  0.28127683306E+04  0.28127683306E+04  0.50400001928E-02 0. -1.
       -1   -1    0    0    0  501  0.00000000000E+00  0.00000000000E+00 -0.55115309765E+03  0.55115309768E+03  0.50400001928E-02 0.  1.
    10030    2    1    2    0    0  0.00000000000E+00  0.00000000000E+00  0.22616152330E+04  0.33639214283E+04  0.24901935495E+04 0.  0.
        3    1    3    3  502    0 -0.95767619351E+03 -0.64701917646E+02  0.22021195569E+04  0.24022199281E+04  0.10100000352E+00 0. -1.
       -3    1    3    3    0  502  0.95767619351E+03  0.64701917646E+02  0.59495676010E+02  0.96170150017E+03  0.10100000352E+00 0.  1.
</event>
<event>
 5   0  0.8056723E-06  0.2493785E+04  0.7818609E-02  0.8405203E-01
       -2   -1    0    0    0  501  0.00000000000E+00  0.00000000000E+00  0.86602612122E+03  0.86602612122E+03  0.25500000920E-02 0. -1.
        2   -1    0    0  501    0  0.00000000000E+00  0.00000000000E+00 -0.17952591018E+04  0.17952591018E+04  0.25500000920E-02 0.  1.
    10030    2    1    2    0    0  0.00000000000E+00  0.00000000000E+00 -0.92923298056E+03  0.26612852230E+04  0.24937852967E+04 0.  0.
        2    1    3    3  502    0  0.17183048696E+03  0.12217418264E+04 -0.27204542553E+03  0.12634031503E+04  0.25500000920E-02 0.  1.
       -2    1    3    3    0  502 -0.17183048696E+03 -0.12217418264E+04 -0.65718755503E+03  0.13978820727E+04  0.25500000920E-02 0. -1.
</event>
<event>
 5   0  0.3522870E-06  0.2498704E+04  0.7818609E-02  0.8403447E-01
        1   -1    0    0  501    0  0.00000000000E+00  0.00000000000E+00  0.19112710797E+04  0.19112710797E+04  0.50400001928E-02 0. -1.
       -1   -1    0    0    0  501  0.00000000000E+00  0.00000000000E+00 -0.81667159754E+03  0.81667159756E+03  0.50400001928E-02 0.  1.
    10030    2    1    2    0    0  0.00000000000E+00  0.00000000000E+00  0.10945994821E+04  0.27279426772E+04  0.24987043090E+04 0.  0.
        2    1    3    3  502    0 -0.98794749091E+03  0.42068934744E+03  0.12445304106E+04  0.16437383353E+04  0.25500000920E-02 0.  1.
       -2    1    3    3    0  502  0.98794749091E+03 -0.42068934744E+03 -0.14993092850E+03  0.10842043420E+04  0.25500000920E-02 0. -1.
</event>
<event>
 5   0  0.3481387E-06  0.2479326E+04  0.7818609E-02  0.8410388E-01
        1   -1    0    0  501    0  0.00000000000E+00  0.00000000000E+00  0.17292120616E+04  0.17292120616E+04  0.50400001928E-02 0. -1.
       -1   -1    0    0    0  501  0.00000000000E+00  0.00000000000E+00 -0.88870769034E+03  0.88870769036E+03  0.50400001928E-02 0.  1.
    10030    2    1    2    0    0  0.00000000000E+00  0.00000000000E+00  0.84050437127E+03  0.26179197520E+04  0.24793257611E+04 0.  0.
        4    1    3    3  502    0  0.23045825244E+03 -0.79917177869E+02  0.17036222198E+04  0.17209962353E+04  0.12699999809E+01 0. -1.
       -4    1    3    3    0  502 -0.23045825244E+03  0.79917177869E+02 -0.86311784849E+03  0.89692351665E+03  0.12699999809E+01 0.  1.
</event>
<event>
 5   0  0.3481387E-06  0.2499728E+04  0.7818609E-02  0.8403083E-01
        1   -1    0    0  501    0  0.00000000000E+00  0.00000000000E+00  0.19710904372E+04  0.19710904372E+04  0.50400001928E-02 0. -1.
       -1   -1    0    0    0  501  0.00000000000E+00  0.00000000000E+00 -0.79253572160E+03  0.79253572162E+03  0.50400001928E-02 0.  1.
    10030    2    1    2    0    0  0.00000000000E+00  0.00000000000E+00  0.11785547156E+04  0.27636261588E+04  0.24997276508E+04 0.  0.
        4    1    3    3  502    0 -0.58946274023E+03 -0.11000220985E+04  0.66461071686E+03  0.14139391632E+04  0.12699999809E+01 0.  1.
       -4    1    3    3    0  502  0.58946274023E+03  0.11000220985E+04  0.51394399873E+03  0.13496869956E+04  0.12699999809E+01 0. -1.
</event>
<event>
 5   0  0.8056723E-06  0.2445439E+04  0.7818609E-02  0.8422685E-01
        2   -1    0    0  501    0  0.00000000000E+00  0.00000000000E+00  0.16809006790E+04  0.16809006790E+04  0.25500000920E-02 0. -1.
       -2   -1    0    0    0  501  0.00000000000E+00  0.00000000000E+00 -0.88942969935E+03  0.88942969935E+03  0.25500000920E-02 0.  1.
    10030    2    1    2    0    0  0.00000000000E+00  0.00000000000E+00  0.79147097967E+03  0.25703303784E+04  0.24454390081E+04 0.  0.
        2    1    3    3  502    0 -0.42078100002E+02 -0.53764243442E+03 -0.75767467638E+03  0.93000046721E+03  0.25500000920E-02 0.  1.
       -2    1    3    3    0  502  0.42078100002E+02  0.53764243442E+03  0.15491456560E+04  0.16403299112E+04  0.25500000920E-02 0. -1.
</event>
<event>
 5   0  0.3424193E-06  0.2529550E+04  0.7818609E-02  0.8392533E-01
       -1   -1    0    0    0  501  0.00000000000E+00  0.00000000000E+00  0.94093678977E+03  0.94093678978E+03  0.50400001928E-02 0.  1.
        1   -1    0    0  501    0  0.00000000000E+00  0.00000000000E+00 -0.17000668093E+04  0.17000668093E+04  0.50400001928E-02 0. -1.
    10030    2    1    2    0    0  0.00000000000E+00  0.00000000000E+00 -0.75913001950E+03  0.26410035991E+04  0.25295496879E+04 0.  0.
        1    1    3    3  502    0 -0.31234461005E+03  0.63445109648E+01 -0.16591491254E+04  0.16883054311E+04  0.50400001928E-02 0. -1.
       -1    1    3    3    0  502  0.31234461005E+03 -0.63445109648E+01  0.90001910591E+03  0.95269816798E+03  0.50400001928E-02 0.  1.
</event>
<event>
 5   0  0.8056723E-06  0.2492992E+04  0.7818609E-02  0.8405487E-01
       -2   -1    0    0    0  501  0.00000000000E+00  0.00000000000E+00  0.10278099786E+04  0.10278099786E+04  0.25500000920E-02 0.  1.
        2   -1    0    0  501    0  0.00000000000E+00  0.00000000000E+00 -0.15117112297E+04  0.15117112297E+04  0.25500000920E-02 0. -1.
    10030    2    1    2    0    0  0.00000000000E+00  0.00000000000E+00 -0.48390125106E+03  0.25395212084E+04  0.24929916861E+04 0.  0.
        2    1    3    3  502    0 -0.12001094998E+03  0.86885349224E+03  0.66026776060E+03  0.10978444948E+04  0.25500000920E-02 0.  1.
       -2    1    3    3    0  502  0.12001094998E+03 -0.86885349224E+03 -0.11441690117E+04  0.14416767135E+04  0.25500000920E-02 0. -1.
</event>
<event>
 5   0  0.8056723E-06  0.2487677E+04  0.7818609E-02  0.8407389E-01
        2   -1    0    0  501    0  0.00000000000E+00  0.00000000000E+00  0.13950530219E+04  0.13950530219E+04  0.25500000920E-02 0.  1.
       -2   -1    0    0    0  501  0.00000000000E+00  0.00000000000E+00 -0.11090142646E+04  0.11090142646E+04  0.25500000920E-02 0. -1.
    10030    2    1    2    0    0  0.00000000000E+00  0.00000000000E+00  0.28603875728E+03  0.25040672865E+04  0.24876765877E+04 0.  0.
        2    1    3    3  502    0  0.53300870727E+03  0.10915460361E+04  0.41229395078E+03  0.12827927864E+04  0.25500000920E-02 0. -1.
       -2    1    3    3    0  502 -0.53300870727E+03 -0.10915460361E+04 -0.12625519350E+03  0.12212745002E+04  0.25500000920E-02 0.  1.
</event>
<event>
 5   0  0.8056723E-06  0.2480142E+04  0.7818609E-02  0.8410094E-01
        2   -1    0    0  501    0  0.00000000000E+00  0.00000000000E+00  0.16522959044E+04  0.16522959044E+04  0.25500000920E-02 0. -1.
       -2   -1    0    0    0  501  0.00000000000E+00  0.00000000000E+00 -0.93069040965E+03  0.93069040966E+03  0.25500000920E-02 0.  1.
    10030    2    1    2    0    0  0.00000000000E+00  0.00000000000E+00  0.72160549472E+03  0.25829863140E+04  0.24801418928E+04 0.  0.
        2    1    3    3  502    0 -0.41095432872E+03  0.55959581938E+03  0.14309045502E+04  0.15904460925E+04  0.25500000920E-02 0. -1.
       -2    1    3    3    0  502  0.41095432872E+03 -0.55959581938E+03 -0.70929905544E+03  0.99254022156E+03  0.25500000920E-02 0.  1.
</event>
<event>
 5   0  0.8579923E-06  0.2473589E+04  0.7818609E-02  0.8412455E-01
       -2   -1    0    0    0  501  0.00000000000E+00  0.00000000000E+00  0.15959568376E+04  0.15959568376E+04  0.25500000920E-02 0. -1.
        2   -1    0    0  501    0  0.00000000000E+00  0.00000000000E+00 -0.95845986158E+03  0.95845986159E+03  0.25500000920E-02 0.  1.
    10030    2    1    2    0    0  0.00000000000E+00  0.00000000000E+00  0.63749697606E+03  0.25544166992E+04  0.24735889470E+04 0.  0.
        1    1    3    3  502    0 -0.68843423150E+03 -0.34816132063E+03 -0.67953632424E+03  0.10280698480E+04  0.50400001928E-02 0.  1.
       -1    1    3    3    0  502  0.68843423150E+03  0.34816132063E+03  0.13170333003E+04  0.15263468513E+04  0.50400001928E-02 0. -1.
</event>
<event>
 5   0  0.3522870E-06  0.2471267E+04  0.7818609E-02  0.8413294E-01
        1   -1    0    0  501    0  0.00000000000E+00  0.00000000000E+00  0.15709982462E+04  0.15709982462E+04  0.50400001928E-02 0. -1.
       -1   -1    0    0    0  501  0.00000000000E+00  0.00000000000E+00 -0.97186003008E+03  0.97186003010E+03  0.50400001928E-02 0.  1.
    10030    2    1    2    0    0  0.00000000000E+00  0.00000000000E+00  0.59913821610E+03  0.25428582763E+04  0.24712672076E+04 0.  0.
        2    1    3    3  502    0  0.11862431898E+04  0.23720049338E+03  0.55856179048E+03  0.13324519703E+04  0.25500000920E-02 0. -1.
       -2    1    3    3    0  502 -0.11862431898E+04 -0.23720049338E+03  0.40576425622E+02  0.12104063060E+04  0.25500000920E-02 0.  1.
</event>
<event>
 5   0  0.8948286E-06  0.2513698E+04  0.7818609E-02  0.8398122E-01
       -2   -1    0    0    0  501  0.00000000000E+00  0.00000000000E+00  0.13757823402E+04  0.13757823402E+04  0.25500000920E-02 0.  1.
        2   -1    0    0  501    0  0.00000000000E+00  0.00000000000E+00 -0.11481971280E+04  0.11481971280E+04  0.25500000920E-02 0. -1.
    10030    2    1    2    0    0  0.00000000000E+00  0.00000000000E+00  0.22758521221E+03  0.25239794682E+04  0.25136979387E+04 0.  0.
        4    1    3    3  502    0 -0.12475722807E+04 -0.66138018270E+02 -0.24089438586E+02  0.12495570203E+04  0.12699999809E+01 0. -1.
       -4    1    3    3    0  502  0.12475722807E+04  0.66138018270E+02  0.25167465080E+03  0.12744224479E+04  0.12699999809E+01 0.  1.
</event>
<event>
 5   0  0.8407986E-06  0.2507519E+04  0.7818609E-02  0.8400312E-01
        2   -1    0    0  501    0  0.00000000000E+00  0.00000000000E+00  0.12785326814E+04  0.12785326814E+04  0.25500000920E-02 0. -1.
       -2   -1    0    0    0  501  0.00000000000E+00  0.00000000000E+00 -0.12294662379E+04  0.12294662379E+04  0.25500000920E-02 0.  1.
    10030    2    1    2    0    0  0.00000000000E+00  0.00000000000E+00  0.49066443465E+02  0.25079989193E+04  0.25075189058E+04 0.  0.
        5    1    3    3  502    0 -0.71831247648E+03 -0.95852965463E+03 -0.34586018126E+03  0.12467530901E+04  0.46999998093E+01 0. -1.
       -5    1    3    3    0  502  0.71831247648E+03  0.95852965463E+03  0.39492662472E+03  0.12612458292E+04  0.46999998093E+01 0.  1.
</event>
<event>
 5   0  0.3484857E-06  0.2494392E+04  0.7818609E-02  0.8404986E-01
        1   -1    0    0  501    0  0.00000000000E+00  0.00000000000E+00  0.15386060168E+04  0.15386060168E+04  0.50400001928E-02 0.  1.
       -1   -1    0    0    0  501  0.00000000000E+00  0.00000000000E+00 -0.10109784504E+04  0.10109784504E+04  0.50400001928E-02 0. -1.
    10030    2    1    2    0    0  0.00000000000E+00  0.00000000000E+00  0.52762756644E+03  0.25495844672E+04  0.24943917307E+04 0.  0.
        3    1    3    3  502    0  0.68256687774E+03  0.88073059327E+03 -0.30886330670E+03  0.11562787177E+04  0.10100000352E+00 0. -1.
       -3    1    3    3    0  502 -0.68256687774E+03 -0.88073059327E+03  0.83649087313E+03  0.13933057495E+04  0.10100000352E+00 0.  1.
</event>
<event>
 5   0  0.8407986E-06  0.2493582E+04  0.7818609E-02  0.8405276E-01
        2   -1    0    0  501    0  0.00000000000E+00  0.00000000000E+00  0.13248858628E+04  0.13248858628E+04  0.25500000920E-02 0. -1.
       -2   -1    0    0    0  501  0.00000000000E+00  0.00000000000E+00 -0.11732994478E+04  0.11732994478E+04  0.25500000920E-02 0.  1.
    10030    2    1    2    0    0  0.00000000000E+00  0.00000000000E+00  0.15158641499E+03  0.24981853105E+04  0.24935820429E+04 0.  0.
        5    1    3    3  502    0  0.56334004135E+03 -0.11086907894E+04 -0.13356975981E+02  0.12436831460E+04  0.46999998093E+01 0.  1.
       -5    1    3    3    0  502 -0.56334004135E+03  0.11086907894E+04  0.16494339097E+03  0.12545021646E+04  0.46999998093E+01 0. -1.
</event>
<event>
 5   0  0.3642184E-06  0.2498440E+04  0.7818609E-02  0.8403542E-01
        1   -1    0    0  501    0  0.00000000000E+00  0.00000000000E+00  0.15967922545E+04  0.15967922545E+04  0.50400001928E-02 0.  1.
       -1   -1    0    0    0  501  0.00000000000E+00  0.00000000000E+00 -0.97730318330E+03  0.97730318331E+03  0.50400001928E-02 0. -1.
    10030    2    1    2    0    0  0.00000000000E+00  0.00000000000E+00  0.61948907118E+03  0.25740954378E+04  0.24984396358E+04 0.  0.
        5    1    3    3  502    0  0.82968001978E+03 -0.24965538606E+03  0.12369010783E+04  0.15101798286E+04  0.46999998093E+01 0.  1.
       -5    1    3    3    0  502 -0.82968001978E+03  0.24965538606E+03 -0.61741200716E+03  0.10639156092E+04  0.46999998093E+01 0. -1.
</event>
<event>
 5   0  0.8407986E-06  0.2484340E+04  0.7818609E-02  0.8408586E-01
        2   -1    0    0  501    0  0.00000000000E+00  0.00000000000E+00  0.12757212471E+04  0.12757212471E+04  0.25500000920E-02 0. -1.
       -2   -1    0    0    0  501  0.00000000000E+00  0.00000000000E+00 -0.12095013295E+04  0.12095013295E+04  0.25500000920E-02 0.  1.
    10030    2    1    2    0    0  0.00000000000E+00  0.00000000000E+00  0.66219917583E+02  0.24852225766E+04  0.24843401896E+04 0.  0.
        5    1    3    3  502    0  0.88075394986E+03  0.20145161180E+03 -0.81963294471E+03  0.12198895549E+04  0.46999998093E+01 0.  1.
       -5    1    3    3    0  502 -0.88075394986E+03 -0.20145161180E+03  0.88585286230E+03  0.12653330217E+04  0.46999998093E+01 0. -1.
</event>
<event>
 5   0  0.8056723E-06  0.2594117E+04  0.7818609E-02  0.8370202E-01
       -2   -1    0    0    0  501  0.00000000000E+00  0.00000000000E+00  0.91862745357E+03  0.91862745357E+03  0.25500000920E-02 0.  1.
        2   -1    0    0  501    0  0.00000000000E+00  0.00000000000E+00 -0.18313847729E+04  0.18313847729E+04  0.25500000920E-02 0. -1.
    10030    2    1    2    0    0  0.00000000000E+00  0.00000000000E+00 -0.91275731935E+03  0.27500122265E+04  0.25941166747E+04 0.  0.
        2    1    3    3  502    0  0.68535342036E+03 -0.42415987414E+03  0.62093085828E+03  0.10174360129E+04  0.25500000920E-02 0.  1.
       -2    1    3    3    0  502 -0.68535342036E+03  0.42415987414E+03 -0.15336881776E+04  0.17325762136E+04  0.25500000920E-02 0. -1.
</event>
<event>
 5   0  0.3424193E-06  0.2492637E+04  0.7818609E-02  0.8405613E-01
        1   -1    0    0  501    0  0.00000000000E+00  0.00000000000E+00  0.76489721372E+03  0.76489721374E+03  0.50400001928E-02 0.  1.
       -1   -1    0    0    0  501  0.00000000000E+00  0.00000000000E+00 -0.20307425061E+04  0.20307425061E+04  0.50400001928E-02 0. -1.
    10030    2    1    2    0    0  0.00000000000E+00  0.00000000000E+00 -0.12658452924E+04  0.27956397198E+04  0.24926365838E+04 0.  0.
        1    1    3    3  502    0 -0.12650206475E+03  0.14389468700E+03  0.74828152841E+03  0.77242067497E+03  0.50400001928E-02 0.  1.
       -1    1    3    3    0  502  0.12650206475E+03 -0.14389468700E+03 -0.20141268208E+04  0.20232190449E+04  0.50400001928E-02 0. -1.
</event>
<event>
 5   0  0.3484857E-06  0.2500633E+04  0.7818609E-02  0.8402760E-01
       -1   -1    0    0    0  501  0.00000000000E+00  0.00000000000E+00  0.12055620134E+04  0.12055620134E+04  0.50400001928E-02 0. -1.
        1   -1    0    0  501    0  0.00000000000E+00  0.00000000000E+00 -0.12967327295E+04  0.12967327295E+04  0.50400001928E-02 0.  1.
    10030    2    1    2    0    0  0.00000000000E+00  0.00000000000E+00 -0.91170716072E+02  0.25022947429E+04  0.25006332960E+04 0.  0.
        3    1    3    3  502    0 -0.11998297447E+04  0.29239908109E+03 -0.24117128053E+03  0.12582735138E+04  0.10100000352E+00 0.  1.
       -3    1    3    3    0  502  0.11998297447E+04 -0.29239908109E+03  0.15000056446E+03  0.12440212291E+04  0.10100000352E+00 0. -1.
</event>
<event>
 5   0  0.8948286E-06  0.2507632E+04  0.7818609E-02  0.8400272E-01
       -2   -1    0    0    0  501  0.00000000000E+00  0.00000000000E+00  0.15569818645E+04  0.15569818645E+04  0.25500000920E-02 0.  1.
        2   -1    0    0  501    0  0.00000000000E+00  0.00000000000E+00 -0.10096805523E+04  0.10096805523E+04  0.25500000920E-02 0. -1.
    10030    2    1    2    0    0  0.00000000000E+00  0.00000000000E+00  0.54730131225E+03  0.25666624168E+04  0.25076317982E+04 0.  0.
        4    1    3    3  502    0 -0.79198286686E+03 -0.18520230695E+03  0.12503227066E+04  0.14915915123E+04  0.12699999809E+01 0.  1.
       -4    1    3    3    0  502  0.79198286686E+03  0.18520230695E+03 -0.70302139438E+03  0.10750709045E+04  0.12699999809E+01 0. -1.
</event>
<event>
 5   0  0.8948286E-06  0.2517420E+04  0.7818609E-02  0.8396806E-01
       -2   -1    0    0    0  501  0.00000000000E+00  0.00000000000E+00  0.93665182211E+03  0.93665182211E+03  0.25500000920E-02 0.  1.
        2   -1    0    0  501    0  0.00000000000E+00  0.00000000000E+00 -0.16915048804E+04  0.16915048804E+04  0.25500000920E-02 0. -1.
    10030    2    1    2    0    0  0.00000000000E+00  0.00000000000E+00 -0.75485305829E+03  0.26281567025E+04  0.25174202099E+04 0.  0.
        4    1    3    3  502    0  0.75116200748E+03 -0.57691915057E+03 -0.12429105634E+04  0.15626606636E+04  0.12699999809E+01 0. -1.
       -4    1    3    3    0  502 -0.75116200748E+03  0.57691915057E+03  0.48805750516E+03  0.10654960390E+04  0.12699999809E+01 0.  1.
</event>
<event>
 5   0  0.8579923E-06  0.2499720E+04  0.7818609E-02  0.8403085E-01
       -2   -1    0    0    0  501  0.00000000000E+00  0.00000000000E+00  0.70902035777E+03  0.70902035778E+03  0.25500000920E-02 0.  1.
        2   -1    0    0  501    0  0.00000000000E+00  0.00000000000E+00 -0.22032511516E+04  0.22032511516E+04  0.25500000920E-02 0. -1.
    10030    2    1    2    0    0  0.00000000000E+00  0.00000000000E+00 -0.14942307938E+04  0.29122715093E+04  0.24997199201E+04 0.  0.
        1    1    3    3  502    0  0.53568665737E+03 -0.84981442791E+03  0.11925799042E+03  0.10116161451E+04  0.50400001928E-02 0.  1.
       -1    1    3    3    0  502 -0.53568665737E+03  0.84981442791E+03 -0.16134887842E+04  0.19006553642E+04  0.50400001928E-02 0. -1.
</event>
<event>
 5   0  0.8407986E-06  0.2519245E+04  0.7818609E-02  0.8396161E-01
       -2   -1    0    0    0  501  0.00000000000E+00  0.00000000000E+00  0.84938892302E+03  0.84938892302E+03  0.25500000920E-02 0. -1.
        2   -1    0    0  501    0  0.00000000000E+00  0.00000000000E+00 -0.18679885127E+04  0.18679885127E+04  0.25500000920E-02 0.  1.
    10030    2    1    2    0    0  0.00000000000E+00  0.00000000000E+00 -0.10185995897E+04  0.27173774357E+04  0.25192449273E+04 0.  0.
        5    1    3    3  502    0  0.10776108552E+04  0.62173637677E+03 -0.29676137420E+03  0.12790194216E+04  0.46999998093E+01 0.  1.
       -5    1    3    3    0  502 -0.10776108552E+04 -0.62173637677E+03 -0.72183821545E+03  0.14383580141E+04  0.46999998093E+01 0. -1.
</event>
<event>
 5   0  0.3484857E-06  0.2472218E+04  0.7818609E-02  0.8412950E-01
        1   -1    0    0  501    0  0.00000000000E+00  0.00000000000E+00  0.20667342971E+04  0.20667342971E+04  0.50400001928E-02 0.  1.
       -1   -1    0    0    0  501  0.00000000000E+00  0.00000000000E+00 -0.73931416149E+03  0.73931416151E+03  0.50400001928E-02 0. -1.
    10030    2    1    2    0    0  0.00000000000E+00  0.00000000000E+00  0.13274201356E+04  0.28060484587E+04  0.24722183835E+04 0.  0.
        3    1    3    3  502    0 -0.15934064460E+03 -0.82052994480E+02 -0.72448806666E+03  0.74632774560E+03  0.10100000352E+00 0. -1.
       -3    1    3    3    0  502  0.15934064460E+03  0.82052994480E+02  0.20519082023E+04  0.20597207131E+04  0.10100000352E+00 0.  1.
</event>
<event>
 5   0  0.3424193E-06  0.2485276E+04  0.7818609E-02  0.8408250E-01
       -1   -1    0    0    0  501  0.00000000000E+00  0.00000000000E+00  0.59487337047E+03  0.59487337049E+03  0.50400001928E-02 0. -1.
        1   -1    0    0  501    0  0.00000000000E+00  0.00000000000E+00 -0.25957602738E+04  0.25957602738E+04  0.50400001928E-02 0.  1.
    10030    2    1    2    0    0  0.00000000000E+00  0.00000000000E+00 -0.20008869033E+04  0.31906336442E+04  0.24852755686E+04 0.  0.
        1    1    3    3  502    0  0.92541253045E+03 -0.81286818424E+03 -0.12114177341E+04  0.17276214756E+04  0.50400001928E-02 0.  1.
       -1    1    3    3    0  502 -0.92541253045E+03  0.81286818424E+03 -0.78946916919E+03  0.14630121686E+04  0.50400001928E-02 0. -1.
</event>
<event>
 5   0  0.8056723E-06  0.2515000E+04  0.7818609E-02  0.8397661E-01
       -2   -1    0    0    0  501  0.00000000000E+00  0.00000000000E+00  0.98668602944E+03  0.98668602945E+03  0.25500000920E-02 0. -1.
        2   -1    0    0  501    0  0.00000000000E+00  0.00000000000E+00 -0.16026439056E+04  0.16026439056E+04  0.25500000920E-02 0.  1.
    10030    2    1    2    0    0  0.00000000000E+00  0.00000000000E+00 -0.61595787617E+03  0.25893299351E+04  0.25150000810E+04 0.  0.
        2    1    3    3  502    0 -0.70038223286E+03 -0.44084568633E+03 -0.12827590277E+04  0.15265486937E+04  0.25500000920E-02 0.  1.
       -2    1    3    3    0  502  0.70038223286E+03  0.44084568633E+03  0.66680115150E+03  0.10627812413E+04  0.25500000920E-02 0. -1.
</event>
<event>
 5   0  0.3642184E-06  0.2508476E+04  0.7818609E-02  0.8399972E-01
        1   -1    0    0  501    0  0.00000000000E+00  0.00000000000E+00  0.16346413057E+04  0.16346413057E+04  0.50400001928E-02 0. -1.
       -1   -1    0    0    0  501  0.00000000000E+00  0.00000000000E+00 -0.96235953181E+03  0.96235953183E+03  0.50400001928E-02 0.  1.
    10030    2    1    2    0    0  0.00000000000E+00  0.00000000000E+00  0.67228177385E+03  0.25970008375E+04  0.25084757457E+04 0.  0.
        5    1    3    3  502    0 -0.30968102652E+03  0.39764758728E+03  0.15251774726E+04  0.16063045648E+04  0.46999998093E+01 0. -1.
       -5    1    3    3    0  502  0.30968102652E+03 -0.39764758728E+03 -0.85289569875E+03  0.99069627273E+03  0.46999998093E+01 0.  1.
</event>
<event>
 5   0  0.3484857E-06  0.2503048E+04  0.7818609E-02  0.8401901E-01
       -1   -1    0    0    0  501  0.00000000000E+00  0.00000000000E+00  0.80021113320E+03  0.80021113322E+03  0.50400001928E-02 0.  1.
        1   -1    0    0  501    0  0.00000000000E+00  0.00000000000E+00 -0.19573735560E+04  0.19573735560E+04  0.50400001928E-02 0. -1.
    10030    2    1    2    0    0  0.00000000000E+00  0.00000000000E+00 -0.11571624228E+04  0.27575846892E+04  0.25030478312E+04 0.  0.
        3    1    3    3  502    0  0.70130560129E+03 -0.99624766125E+03 -0.89400578772E+03  0.15111536347E+04  0.10100000352E+00 0. -1.
       -3    1    3    3    0  502 -0.70130560129E+03  0.99624766125E+03 -0.26315663507E+03  0.12464310545E+04  0.10100000352E+00 0.  1.
</event>
<event>
 5   0  0.3522870E-06  0.2500461E+04  0.7818609E-02  0.8402821E-01
       -1   -1    0    0    0  501  0.00000000000E+00  0.00000000000E+00  0.11777072543E+04  0.11777072543E+04  0.50400001928E-02 0. -1.
        1   -1    0    0  501    0  0.00000000000E+00  0.00000000000E+00 -0.13272192020E+04  0.13272192020E+04  0.50400001928E-02 0.  1.
    10030    2    1    2    0    0  0.00000000000E+00  0.00000000000E+00 -0.14951194762E+03  0.25049264563E+04  0.25004605034E+04 0.  0.
        2    1    3    3  502    0  0.10540977212E+04  0.32849055158E+03 -0.66235933105E+03  0.12875356041E+04  0.25500000920E-02 0.  1.
       -2    1    3    3    0  502 -0.10540977212E+04 -0.32849055158E+03  0.51284738343E+03  0.12173908522E+04  0.25500000920E-02 0. -1.
</event>
<event>
 5   0  0.8056723E-06  0.2491745E+04  0.7818609E-02  0.8405932E-01
       -2   -1    0    0    0  501  0.00000000000E+00  0.00000000000E+00  0.23237064957E+04  0.23237064957E+04  0.25500000920E-02 0. -1.
        2   -1    0    0  501    0  0.00000000000E+00  0.00000000000E+00 -0.66798363510E+03  0.66798363511E+03  0.25500000920E-02 0.  1.
    10030    2    1    2    0    0  0.00000000000E+00  0.00000000000E+00  0.16557228606E+04  0.29916901308E+04  0.24917446995E+04 0.  0.
        2    1    3    3  502    0  0.43765022546E+03 -0.99572473308E+02 -0.56754214919E+03  0.72357203401E+03  0.25500000920E-02 0.  1.
       -2    1    3    3    0  502 -0.43765022546E+03  0.99572473308E+02  0.22232650097E+04  0.22681180968E+04  0.25500000920E-02 0. -1.
</event>
<event>
 5   0  0.8354653E-06  0.2502813E+04  0.7818609E-02  0.8401984E-01
        2   -1    0    0  501    0  0.00000000000E+00  0.00000000000E+00  0.25091672628E+04  0.25091672628E+04  0.25500000920E-02 0.  1.
       -2   -1    0    0    0  501  0.00000000000E+00  0.00000000000E+00 -0.62411851722E+03  0.62411851722E+03  0.25500000920E-02 0. -1.
    10030    2    1    2    0    0  0.00000000000E+00  0.00000000000E+00  0.18850487456E+04  0.31332857801E+04  0.25028126191E+04 0.  0.
        3    1    3    3  502    0  0.11203216956E+04 -0.79868820246E+02  0.16333654683E+04  0.19822670085E+04  0.10100000352E+00 0.  1.
       -3    1    3    3    0  502 -0.11203216956E+04  0.79868820246E+02  0.25168327737E+03  0.11510187715E+04  0.10100000352E+00 0. -1.
</event>
<event>
 5   0  0.3642184E-06  0.2503206E+04  0.7818609E-02  0.8401844E-01
        1   -1    0    0  501    0  0.00000000000E+00  0.00000000000E+00  0.11204411995E+04  0.11204411995E+04  0.50400001928E-02 0. -1.
       -1   -1    0    0    0  501  0.00000000000E+00  0.00000000000E+00 -0.13981194866E+04  0.13981194866E+04  0.50400001928E-02 0.  1.
    10030    2    1    2    0    0  0.00000000000E+00  0.00000000000E+00 -0.27767828711E+03  0.25185606861E+04  0.25032064834E+04 0.  0.
        5    1    3    3  502    0 -0.63267415958E+03  0.10706361829E+04 -0.28095053621E+03  0.12749485175E+04  0.46999998093E+01 0.  1.
       -5    1    3    3    0  502  0.63267415958E+03 -0.10706361829E+04  0.32722490977E+01  0.12436121687E+04  0.46999998093E+01 0. -1.
</event>
<event>
 5   0  0.3424193E-06  0.2497685E+04  0.7818609E-02  0.8403811E-01
       -1   -1    0    0    0  501  0.00000000000E+00  0.00000000000E+00  0.11119247467E+04  0.11119247467E+04  0.50400001928E-02 0.  1.
        1   -1    0    0  501    0  0.00000000000E+00  0.00000000000E+00 -0.14026194664E+04  0.14026194664E+04  0.50400001928E-02 0. -1.
    10030    2    1    2    0    0  0.00000000000E+00  0.00000000000E+00 -0.29069471973E+03  0.25145442131E+04  0.24976847639E+04 0.  0.
        1    1    3    3  502    0 -0.48491054134E+03  0.95398855873E+03  0.50271734240E+03  0.11823523712E+04  0.50400001928E-02 0.  1.
       -1    1    3    3    0  502  0.48491054134E+03 -0.95398855873E+03 -0.79341206214E+03  0.13321918419E+04  0.50400001928E-02 0. -1.
</event>
<event>
 5   0  0.3484857E-06  0.2503481E+04  0.7818609E-02  0.8401746E-01
       -1   -1    0    0    0  501  0.00000000000E+00  0.00000000000E+00  0.81248106523E+03  0.81248106525E+03  0.50400001928E-02 0.  1.
        1   -1    0    0  501    0  0.00000000000E+00  0.00000000000E+00 -0.19284809319E+04  0.19284809319E+04  0.50400001928E-02 0. -1.
    10030    2    1    2    0    0  0.00000000000E+00  0.00000000000E+00 -0.11159998667E+04  0.27409619971E+04  0.25034809701E+04 0.  0.
        3    1    3    3  502    0 -0.78599211357E+03 -0.77682735418E+03  0.85653071586E+02  0.11084136411E+04  0.10100000352E+00 0.  1.
       -3    1    3    3    0  502  0.78599211357E+03  0.77682735418E+03 -0.12016529382E+04  0.16325483561E+04  0.10100000352E+00 0. -1.
</event>
<event>
 5   0  0.8407986E-06  0.2505359E+04  0.7818609E-02  0.8401079E-01
       -2   -1    0    0    0  501  0.00000000000E+00  0.00000000000E+00  0.12245698789E+04  0.12245698789E+04  0.25500000920E-02 0.  1.
        2   -1    0    0  501    0  0.00000000000E+00  0.00000000000E+00 -0.12814347651E+04  0.12814347651E+04  0.25500000920E-02 0. -1.
    10030    2    1    2    0    0  0.00000000000E+00  0.00000000000E+00 -0.56864886183E+02  0.25060046439E+04  0.25053593874E+04 0.  0.
        5    1    3    3  502    0  0.45407330978E+03  0.84594475391E+02 -0.11931401388E+04  0.12794312317E+04  0.46999998093E+01 0. -1.
       -5    1    3    3    0  502 -0.45407330978E+03 -0.84594475391E+02  0.11362752526E+04  0.12265734122E+04  0.46999998093E+01 0.  1.
</event>
<event>
 5   0  0.2901250E-06  0.2478086E+04  0.7818609E-02  0.8410834E-01
       -3   -1    0    0    0  501  0.00000000000E+00  0.00000000000E+00  0.16752793389E+04  0.16752793419E+04  0.10100000352E+00 0.  1.
        3   -1    0    0  501    0  0.00000000000E+00  0.00000000000E+00 -0.91640069963E+03  0.91640070519E+03  0.10100000352E+00 0. -1.
    10030    2    1    2    0    0  0.00000000000E+00  0.00000000000E+00  0.75887863925E+03  0.25916800471E+04  0.24780856881E+04 0.  0.
        1    1    3    3  502    0 -0.10723326153E+04  0.17098961366E+03 -0.24464959571E+03  0.11130984281E+04  0.50400001928E-02 0. -1.
       -1    1    3    3    0  502  0.10723326153E+04 -0.17098961366E+03  0.10035282350E+04  0.14785816191E+04  0.50400001928E-02 0.  1.
</event>
<event>
 5   0  0.8056723E-06  0.2451550E+04  0.7818609E-02  0.8420452E-01
       -2   -1    0    0    0  501  0.00000000000E+00  0.00000000000E+00  0.10274122374E+04  0.10274122374E+04  0.25500000920E-02 0. -1.
        2   -1    0    0  501    0  0.00000000000E+00  0.00000000000E+00 -0.14624356586E+04  0.14624356586E+04  0.25500000920E-02 0.  1.
    10030    2    1    2    0    0  0.00000000000E+00  0.00000000000E+00 -0.43502342124E+03  0.24898478961E+04  0.24515499523E+04 0.  0.
        2    1    3    3  502    0  0.59421361999E+03  0.10673225059E+04 -0.32037137286E+03  0.12628954724E+04  0.25500000920E-02 0.  1.
       -2    1    3    3    0  502 -0.59421361999E+03 -0.10673225059E+04 -0.11465204838E+03  0.12269524236E+04  0.25500000920E-02 0. -1.
</event>
<event>
 5   0  0.8056723E-06  0.2503720E+04  0.7818609E-02  0.8401661E-01
       -2   -1    0    0    0  501  0.00000000000E+00  0.00000000000E+00  0.95020747262E+03  0.95020747263E+03  0.25500000920E-02 0.  1.
        2   -1    0    0  501    0  0.00000000000E+00  0.00000000000E+00 -0.16492753244E+04  0.16492753244E+04  0.25500000920E-02 0. -1.
    10030    2    1    2    0    0  0.00000000000E+00  0.00000000000E+00 -0.69906785174E+03  0.25994827970E+04  0.25037202221E+04 0.  0.
        2    1    3    3  502    0 -0.42387758508E+03  0.96123561118E+03 -0.10563877218E+04  0.14898325832E+04  0.25500000920E-02 0. -1.
       -2    1    3    3    0  502  0.42387758508E+03 -0.96123561118E+03  0.35731987004E+03  0.11096502137E+04  0.25500000920E-02 0.  1.
</event>
<event>
 5   0  0.8407986E-06  0.2497917E+04  0.7818609E-02  0.8403728E-01
        2   -1    0    0  501    0  0.00000000000E+00  0.00000000000E+00  0.10077351850E+04  0.10077351850E+04  0.25500000920E-02 0. -1.
       -2   -1    0    0    0  501  0.00000000000E+00  0.00000000000E+00 -0.15479232431E+04  0.15479232431E+04  0.25500000920E-02 0.  1.
    10030    2    1    2    0    0  0.00000000000E+00  0.00000000000E+00 -0.54018805806E+03  0.25556584281E+04  0.24979165044E+04 0.  0.
        5    1    3    3  502    0  0.57379691374E+03  0.43903626271E+03  0.77221915192E+03  0.10575160740E+04  0.46999998093E+01 0. -1.
       -5    1    3    3    0  502 -0.57379691374E+03 -0.43903626271E+03 -0.13124072100E+04  0.14981423540E+04  0.46999998093E+01 0.  1.
</event>
<event>
 5   0  0.8579923E-06  0.2498759E+04  0.7818609E-02  0.8403428E-01
       -2   -1    0    0    0  501  0.00000000000E+00  0.00000000000E+00  0.15653994283E+04  0.15653994283E+04  0.25500000920E-02 0.  1.
        2   -1    0    0  501    0  0.00000000000E+00  0.00000000000E+00 -0.99715705638E+03  0.99715705638E+03  0.25500000920E-02 0. -1.
    10030    2    1    2    0    0  0.00000000000E+00  0.00000000000E+00  0.56824237189E+03  0.25625564847E+04  0.24987589607E+04 0.  0.
        1    1    3    3  502    0 -0.33434828324E+03  0.12038023637E+04  0.27951420155E+03  0.12802566517E+04  0.50400001928E-02 0. -1.
       -1    1    3    3    0  502  0.33434828324E+03 -0.12038023637E+04  0.28872817034E+03  0.12822998330E+04  0.50400001928E-02 0.  1.
</event>
<event>
 5   0  0.8056723E-06  0.2483841E+04  0.7818609E-02  0.8408765E-01
       -2   -1    0    0    0  501  0.00000000000E+00  0.00000000000E+00  0.11916126645E+04  0.11916126645E+04  0.25500000920E-02 0. -1.
        2   -1    0    0  501    0  0.00000000000E+00  0.00000000000E+00 -0.12943518097E+04  0.12943518097E+04  0.25500000920E-02 0.  1.
    10030    2    1    2    0    0  0.00000000000E+00  0.00000000000E+00 -0.10273914527E+03  0.24859644742E+04  0.24838405816E+04 0.  0.
        2    1    3    3  502    0  0.73402404483E+03  0.92877208725E+03  0.32439402824E+03  0.12274527991E+04  0.25500000920E-02 0.  1.
       -2    1    3    3    0  502 -0.73402404483E+03 -0.92877208725E+03 -0.42713317351E+03  0.12585116751E+04  0.25500000920E-02 0. -1.
</event>
<event>
 5   0  0.8579923E-06  0.2495056E+04  0.7818609E-02  0.8404749E-01
        2   -1    0    0  501    0  0.00000000000E+00  0.00000000000E+00  0.18452614568E+04  0.18452614568E+04  0.25500000920E-02 0. -1.
       -2   -1    0    0    0  501  0.00000000000E+00  0.00000000000E+00 -0.84341774486E+03  0.84341774487E+03  0.25500000920E-02 0.  1.
    10030    2    1    2    0    0  0.00000000000E+00  0.00000000000E+00  0.10018437120E+04  0.26886792017E+04  0.24950561169E+04 0.  0.
        1    1    3    3  502    0  0.10629403301E+04 -0.54791489280E+03  0.88384760903E+03  0.14870236956E+04  0.50400001928E-02 0. -1.
       -1    1    3    3    0  502 -0.10629403301E+04  0.54791489280E+03  0.11799610294E+03  0.12016555061E+04  0.50400001928E-02 0.  1.
</event>
<event>
 5   0  0.3481387E-06  0.2473305E+04  0.7818609E-02  0.8412558E-01
        1   -1    0    0  501    0  0.00000000000E+00  0.00000000000E+00  0.11432247232E+04  0.11432247232E+04  0.50400001928E-02 0.  1.
       -1   -1    0    0    0  501  0.00000000000E+00  0.00000000000E+00 -0.13377160119E+04  0.13377160119E+04  0.50400001928E-02 0. -1.
    10030    2    1    2    0    0  0.00000000000E+00  0.00000000000E+00 -0.19449128871E+03  0.24809407351E+04  0.24733054946E+04 0.  0.
        4    1    3    3  502    0 -0.20594434555E+03  0.11708049799E+04 -0.43904824795E+03  0.12672656988E+04  0.12699999809E+01 0.  1.
       -4    1    3    3    0  502  0.20594434555E+03 -0.11708049799E+04  0.24455695923E+03  0.12136750363E+04  0.12699999809E+01 0. -1.
</event>
<event>
 5   0  0.3481387E-06  0.2504981E+04  0.7818609E-02  0.8401213E-01
       -1   -1    0    0    0  501  0.00000000000E+00  0.00000000000E+00  0.64931967513E+03  0.64931967515E+03  0.50400001928E-02 0. -1.
        1   -1    0    0  501    0  0.00000000000E+00  0.00000000000E+00 -0.24159623580E+04  0.24159623580E+04  0.50400001928E-02 0.  1.
    10030    2    1    2    0    0  0.00000000000E+00  0.00000000000E+00 -0.17666426829E+04  0.30652820331E+04  0.25049805536E+04 0.  0.
        4    1    3    3  502    0 -0.22928765106E+03  0.30915860064E+02  0.62294336468E+03  0.66452138102E+03  0.12699999809E+01 0. -1.
       -4    1    3    3    0  502  0.22928765106E+03 -0.30915860064E+02 -0.23895860475E+04  0.24007606521E+04  0.12699999809E+01 0.  1.
</event>
<event>
 5   0  0.3481387E-06  0.2495525E+04  0.7818609E-02  0.8404581E-01
       -1   -1    0    0    0  501  0.00000000000E+00  0.00000000000E+00  0.45862234529E+03  0.45862234532E+03  0.50400001928E-02 0.  1.
        1   -1    0    0  501    0  0.00000000000E+00  0.00000000000E+00 -0.33947578046E+04  0.33947578046E+04  0.50400001928E-02 0. -1.
    10030    2    1    2    0    0  0.00000000000E+00  0.00000000000E+00 -0.29361354593E+04  0.38533801500E+04  0.24955254245E+04 0.  0.
        4    1    3    3  502    0  0.68297752666E+02 -0.87432987032E+03 -0.28385893133E+04  0.29709776518E+04  0.12699999809E+01 0. -1.
       -4    1    3    3    0  502 -0.68297752666E+02  0.87432987032E+03 -0.97546146021E+02  0.88240249811E+03  0.12699999809E+01 0.  1.
</event>
<event>
 5   0  0.8948286E-06  0.2493405E+04  0.7818609E-02  0.8405339E-01
       -2   -1    0    0    0  501  0.00000000000E+00  0.00000000000E+00  0.10055538319E+04  0.10055538319E+04  0.25500000920E-02 0.  1.
        2   -1    0    0  501    0  0.00000000000E+00  0.00000000000E+00 -0.15456831325E+04  0.15456831325E+04  0.25500000920E-02 0. -1.
    10030    2    1    2    0    0  0.00000000000E+00  0.00000000000E+00 -0.54012930068E+03  0.25512369644E+04  0.24934053796E+04 0.  0.
        4    1    3    3  502    0 -0.16386403906E+03  0.83737899672E+01 -0.15345866829E+04  0.15433338731E+04  0.12699999809E+01 0. -1.
       -4    1    3    3    0  502  0.16386403906E+03 -0.83737899672E+01  0.99445738218E+03  0.10079030913E+04  0.12699999809E+01 0.  1.
</event>
<event>
 5   0  0.3642184E-06  0.2503610E+04  0.7818609E-02  0.8401700E-01
        1   -1    0    0  501    0  0.00000000000E+00  0.00000000000E+00  0.21116425381E+04  0.21116425381E+04  0.50400001928E-02 0. -1.
       -1   -1    0    0    0  501  0.00000000000E+00  0.00000000000E+00 -0.74208408638E+03  0.74208408639E+03  0.50400001928E-02 0.  1.
    10030    2    1    2    0    0  0.00000000000E+00  0.00000000000E+00  0.13695584517E+04  0.28537266245E+04  0.25036104519E+04 0.  0.
        5    1    3    3  502    0  0.66795212986E+03  0.14775652936E+03  0.18797159013E+04  0.20003364716E+04  0.46999998093E+01 0. -1.
       -5    1    3    3    0  502 -0.66795212986E+03 -0.14775652936E+03 -0.51015744960E+03  0.85339015294E+03  0.46999998093E+01 0.  1.
</event>
<event>
 5   0  0.3522870E-06  0.2501516E+04  0.7818609E-02  0.8402446E-01
        1   -1    0    0  501    0  0.00000000000E+00  0.00000000000E+00  0.16285942085E+04  0.16285942085E+04  0.50400001928E-02 0.  1.
       -1   -1    0    0    0  501  0.00000000000E+00  0.00000000000E+00 -0.96058045332E+03  0.96058045333E+03  0.50400001928E-02 0. -1.
    10030    2    1    2    0    0  0.00000000000E+00  0.00000000000E+00  0.66801375518E+03  0.25891746618E+04  0.25015161507E+04 0.  0.
        2    1    3    3  502    0  0.72328564682E+02  0.51341988796E+03  0.15121214647E+04  0.15985439396E+04  0.25500000920E-02 0.  1.
       -2    1    3    3    0  502 -0.72328564682E+02 -0.51341988796E+03 -0.84410770954E+03  0.99063072228E+03  0.25500000920E-02 0. -1.
</event>
<event>
 5   0  0.3481387E-06  0.2488884E+04  0.7818609E-02  0.8406956E-01
       -1   -1    0    0    0  501  0.00000000000E+00  0.00000000000E+00  0.16825871499E+04  0.16825871499E+04  0.50400001928E-02 0. -1.
        1   -1    0    0  501    0  0.00000000000E+00  0.00000000000E+00 -0.92038976888E+03  0.92038976890E+03  0.50400001928E-02 0.  1.
    10030    2    1    2    0    0  0.00000000000E+00  0.00000000000E+00  0.76219738102E+03  0.26029769188E+04  0.24888840857E+04 0.  0.
        4    1    3    3  502    0  0.75486943078E+03 -0.12952139881E+02  0.14157091264E+04  0.16044405751E+04  0.12699999809E+01 0. -1.
       -4    1    3    3    0  502 -0.75486943078E+03  0.12952139881E+02 -0.65351174540E+03  0.99853634372E+03  0.12699999809E+01 0.  1.
</event>
<event>
 5   0  0.3481387E-06  0.2500358E+04  0.7818609E-02  0.8402858E-01
        1   -1    0    0  501    0  0.00000000000E+00  0.00000000000E+00  0.15639664636E+04  0.15639664636E+04  0.50400001928E-02 0. -1.
       -1   -1    0    0    0  501  0.00000000000E+00  0.00000000000E+00 -0.99934884954E+03  0.99934884955E+03  0.50400001928E-02 0.  1.
    10030    2    1    2    0    0  0.00000000000E+00  0.00000000000E+00  0.56461761405E+03  0.25633153132E+04  0.25003584432E+04 0.  0.
        4    1    3    3  502    0 -0.64021514282E+02  0.51572107643E+03  0.14479872976E+04  0.15384199069E+04  0.12699999809E+01 0. -1.
       -4    1    3    3    0  502  0.64021514282E+02 -0.51572107643E+03 -0.88336968358E+03  0.10248954062E+04  0.12699999809E+01 0.  1.
</event>
<event>
 5   0  0.8354653E-06  0.2495827E+04  0.7818609E-02  0.8404474E-01
        2   -1    0    0  501    0  0.00000000000E+00  0.00000000000E+00  0.15045640880E+04  0.15045640880E+04  0.25500000920E-02 0. -1.
       -2   -1    0    0    0  501  0.00000000000E+00  0.00000000000E+00 -0.10350425459E+04  0.10350425459E+04  0.25500000920E-02 0.  1.
    10030    2    1    2    0    0  0.00000000000E+00  0.00000000000E+00  0.46952154216E+03  0.25396066339E+04  0.24958267921E+04 0.  0.
        3    1    3    3  502    0  0.95087522537E+03 -0.56768683929E+03  0.82005114491E+03  0.13780115864E+04  0.10100000352E+00 0. -1.
       -3    1    3    3    0  502 -0.95087522537E+03  0.56768683929E+03 -0.35052960275E+03  0.11615950475E+04  0.10100000352E+00 0.  1.
</event>
<event>
 5   0  0.3522870E-06  0.2441456E+04  0.7818609E-02  0.8424144E-01
       -1   -1    0    0    0  501  0.00000000000E+00  0.00000000000E+00  0.10193860042E+04  0.10193860042E+04  0.50400001928E-02 0.  1.
        1   -1    0    0  501    0  0.00000000000E+00  0.00000000000E+00 -0.14618377245E+04  0.14618377245E+04  0.50400001928E-02 0. -1.
    10030    2    1    2    0    0  0.00000000000E+00  0.00000000000E+00 -0.44245172030E+03  0.24812237286E+04  0.24414560546E+04 0.  0.
        2    1    3    3  502    0  0.12121068822E+04 -0.14292619074E+03 -0.24497151705E+03  0.12448461889E+04  0.25500000920E-02 0. -1.
       -2    1    3    3    0  502 -0.12121068822E+04  0.14292619074E+03 -0.19748020325E+03  0.12363775397E+04  0.25500000920E-02 0.  1.
</event>
<event>
 5   0  0.8354653E-06  0.2493220E+04  0.7818609E-02  0.8405405E-01
        2   -1    0    0  501    0  0.00000000000E+00  0.00000000000E+00  0.11993815937E+04  0.11993815937E+04  0.25500000920E-02 0. -1.
       -2   -1    0    0    0  501  0.00000000000E+00  0.00000000000E+00 -0.12956979333E+04  0.12956979333E+04  0.25500000920E-02 0.  1.
    10030    2    1    2    0    0  0.00000000000E+00  0.00000000000E+00 -0.96316339609E+02  0.24950795271E+04  0.24932198076E+04 0.  0.
        3    1    3    3  502    0 -0.60319352574E+03  0.33572054640E+02 -0.11394149071E+04  0.12896650158E+04  0.10100000352E+00 0.  1.
       -3    1    3    3    0  502  0.60319352574E+03 -0.33572054640E+02  0.10430985674E+04  0.12054145113E+04  0.10100000352E+00 0. -1.
</event>
<event>
 5   0  0.3642184E-06  0.2496387E+04  0.7818609E-02  0.8404274E-01
       -1   -1    0    0    0  501  0.00000000000E+00  0.00000000000E+00  0.93735562406E+03  0.93735562407E+03  0.50400001928E-02 0. -1.
        1   -1    0    0  501    0  0.00000000000E+00  0.00000000000E+00 -0.16621090161E+04  0.16621090161E+04  0.50400001928E-02 0.  1.
    10030    2    1    2    0    0  0.00000000000E+00  0.00000000000E+00 -0.72475339203E+03  0.25994646402E+04  0.24963871767E+04 0.  0.
        5    1    3    3  502    0 -0.50748657797E+03  0.50578679471E+03  0.70188258605E+03  0.10030075589E+04  0.46999998093E+01 0. -1.
       -5    1    3    3    0  502  0.50748657797E+03 -0.50578679471E+03 -0.14266359781E+04  0.15964570813E+04  0.46999998093E+01 0.  1.
</event>
<event>
 5   0  0.8354653E-06  0.2489978E+04  0.7818609E-02  0.8406564E-01
        2   -1    0    0  501    0  0.00000000000E+00  0.00000000000E+00  0.13973136399E+04  0.13973136399E+04  0.25500000920E-02 0. -1.
       -2   -1    0    0    0  501  0.00000000000E+00  0.00000000000E+00 -0.11092700306E+04  0.11092700306E+04  0.25500000920E-02 0.  1.
    10030    2    1    2    0    0  0.00000000000E+00  0.00000000000E+00  0.28804360929E+03  0.25065836705E+04  0.24899784289E+04 0.  0.
        3    1    3    3  502    0  0.45139113002E+03 -0.86198133248E+03  0.92588170221E+03  0.13431391240E+04  0.10100000352E+00 0. -1.
       -3    1    3    3    0  502 -0.45139113002E+03  0.86198133248E+03 -0.63783809293E+03  0.11634445465E+04  0.10100000352E+00 0.  1.
</event>
<event>
 5   0  0.3484857E-06  0.2496226E+04  0.7818609E-02  0.8404331E-01
        1   -1    0    0  501    0  0.00000000000E+00  0.00000000000E+00  0.17003550624E+04  0.17003550624E+04  0.50400001928E-02 0.  1.
       -1   -1    0    0    0  501  0.00000000000E+00  0.00000000000E+00 -0.91615365735E+03  0.91615365737E+03  0.50400001928E-02 0. -1.
    10030    2    1    2    0    0  0.00000000000E+00  0.00000000000E+00  0.78420140500E+03  0.26165087197E+04  0.24962263593E+04 0.  0.
        3    1    3    3  502    0 -0.28536415017E+03 -0.11867555553E+04  0.66536384014E+03  0.13901548461E+04  0.10100000352E+00 0. -1.
       -3    1    3    3    0  502  0.28536415017E+03  0.11867555553E+04  0.11883756487E+03  0.12263538736E+04  0.10100000352E+00 0.  1.
</event>
<event>
 5   0  0.3642184E-06  0.2500905E+04  0.7818609E-02  0.8402663E-01
       -1   -1    0    0    0  501  0.00000000000E+00  0.00000000000E+00  0.15817383797E+04  0.15817383797E+04  0.50400001928E-02 0. -1.
        1   -1    0    0  501    0  0.00000000000E+00  0.00000000000E+00 -0.98855290826E+03  0.98855290827E+03  0.50400001928E-02 0.  1.
    10030    2    1    2    0    0  0.00000000000E+00  0.00000000000E+00  0.59318547146E+03  0.25702912880E+04  0.25009054963E+04 0.  0.
        5    1    3    3  502    0  0.10728492246E+04 -0.28197846469E+03 -0.29656145402E+03  0.11482543705E+04  0.46999998093E+01 0.  1.
       -5    1    3    3    0  502 -0.10728492246E+04  0.28197846469E+03  0.88974692548E+03  0.14220369175E+04  0.46999998093E+01 0. -1.
</event>
<event>
 5   0  0.8407986E-06  0.2497513E+04  0.7818609E-02  0.8403872E-01
       -2   -1    0    0    0  501  0.00000000000E+00  0.00000000000E+00  0.53365341164E+03  0.53365341165E+03  0.25500000920E-02 0.  1.
        2   -1    0    0  501    0  0.00000000000E+00  0.00000000000E+00 -0.29221068310E+04  0.29221068310E+04  0.25500000920E-02 0. -1.
    10030    2    1    2    0    0  0.00000000000E+00  0.00000000000E+00 -0.23884534193E+04  0.34557602426E+04  0.24975125862E+04 0.  0.
        5    1    3    3  502    0  0.18392245174E+03  0.11850883669E+04 -0.16757561488E+04  0.20606898519E+04  0.46999998093E+01 0. -1.
       -5    1    3    3    0  502 -0.18392245174E+03 -0.11850883669E+04 -0.71269727052E+03  0.13950703907E+04  0.46999998093E+01 0.  1.
</event>
<event>
 5   0  0.3484857E-06  0.2490097E+04  0.7818609E-02  0.8406522E-01
        1   -1    0    0  501    0  0.00000000000E+00  0.00000000000E+00  0.15950333433E+04  0.15950333433E+04  0.50400001928E-02 0.  1.
       -1   -1    0    0    0  501  0.00000000000E+00  0.00000000000E+00 -0.97185797361E+03  0.97185797362E+03  0.50400001928E-02 0. -1.
    10030    2    1    2    0    0  0.00000000000E+00  0.00000000000E+00  0.62317536971E+03  0.25668913170E+04  0.24900970848E+04 0.  0.
        3    1    3    3  502    0  0.70220866018E+03 -0.10141446827E+04  0.48579480984E+03  0.13257386799E+04  0.10100000352E+00 0.  1.
       -3    1    3    3    0  502 -0.70220866018E+03  0.10141446827E+04  0.13738055988E+03  0.12411526370E+04  0.10100000352E+00 0. -1.
</event>
<event>
 5   0  0.3522870E-06  0.2496485E+04  0.7818609E-02  0.8404239E-01
       -1   -1    0    0    0  501  0.00000000000E+00  0.00000000000E+00  0.12307792427E+04  0.12307792427E+04  0.50400001928E-02 0.  1.
        1   -1    0    0  501    0  0.00000000000E+00  0.00000000000E+00 -0.12659531269E+04  0.12659531269E+04  0.50400001928E-02 0. -1.
    10030    2    1    2    0    0  0.00000000000E+00  0.00000000000E+00 -0.35173884192E+02  0.24967323695E+04  0.24964845930E+04 0.  0.
        2    1    3    3  502    0 -0.37910917835E+03 -0.87692879116E+03  0.78584884972E+03  0.12370474075E+04  0.25500000920E-02 0.  1.
       -2    1    3    3    0  502  0.37910917835E+03  0.87692879116E+03 -0.82102273392E+03  0.12596849620E+04  0.25500000920E-02 0. -1.
</event>
<event>
 5   0  0.8056723E-06  0.2470528E+04  0.7818609E-02  0.8413561E-01
       -2   -1    0    0    0  501  0.00000000000E+00  0.00000000000E+00  0.94200573129E+03  0.94200573129E+03  0.25500000920E-02 0. -1.
        2   -1    0    0  501    0  0.00000000000E+00  0.00000000000E+00 -0.16198171270E+04  0.16198171270E+04  0.25500000920E-02 0.  1.
    10030    2    1    2    0    0  0.00000000000E+00  0.00000000000E+00 -0.67781139574E+03  0.25618228583E+04  0.24705278928E+04 0.  0.
        2    1    3    3  502    0 -0.87439518533E+03  0.68414144010E+03 -0.90045277348E+03  0.14294864978E+04  0.25500000920E-02 0.  1.
       -2    1    3    3    0  502  0.87439518533E+03 -0.68414144010E+03  0.22264137774E+03  0.11323363605E+04  0.25500000920E-02 0. -1.
</event>
<event>
 5   0  0.8056723E-06  0.2500802E+04  0.7818609E-02  0.8402700E-01
        2   -1    0    0  501    0  0.00000000000E+00  0.00000000000E+00  0.16429682859E+04  0.16429682859E+04  0.25500000920E-02 0.  1.
       -2   -1    0    0    0  501  0.00000000000E+00  0.00000000000E+00 -0.95163321182E+03  0.95163321182E+03  0.25500000920E-02 0. -1.
    10030    2    1    2    0    0  0.00000000000E+00  0.00000000000E+00  0.69133507410E+03  0.25946014977E+04  0.25008024207E+04 0.  0.
        2    1    3    3  502    0  0.41568233940E+02 -0.19550603493E+03 -0.93495169046E+03  0.95607802572E+03  0.25500000920E-02 0. -1.
       -2    1    3    3    0  502 -0.41568233940E+02  0.19550603493E+03  0.16262867646E+04  0.16385234720E+04  0.25500000920E-02 0.  1.
</event>
<event>
 5   0  0.8948286E-06  0.2503020E+04  0.7818609E-02  0.8401910E-01
        2   -1    0    0  501    0  0.00000000000E+00  0.00000000000E+00  0.16194546058E+04  0.16194546058E+04  0.25500000920E-02 0.  1.
       -2   -1    0    0    0  501  0.00000000000E+00  0.00000000000E+00 -0.96716333485E+03  0.96716333486E+03  0.25500000920E-02 0. -1.
    10030    2    1    2    0    0  0.00000000000E+00  0.00000000000E+00  0.65229127093E+03  0.25866179406E+04  0.25030198698E+04 0.  0.
        4    1    3    3  502    0  0.94922905233E+03  0.67797896918E+03 -0.14241185482E+03  0.11751485122E+04  0.12699999809E+01 0.  1.
       -4    1    3    3    0  502 -0.94922905233E+03 -0.67797896918E+03  0.79470312575E+03  0.14114694284E+04  0.12699999809E+01 0. -1.
</event>
<event>
 5   0  0.8579923E-06  0.2503975E+04  0.7818609E-02  0.8401571E-01
        2   -1    0    0  501    0  0.00000000000E+00  0.00000000000E+00  0.10586215363E+04  0.10586215363E+04  0.25500000920E-02 0.  1.
       -2   -1    0    0    0  501  0.00000000000E+00  0.00000000000E+00 -0.14806731177E+04  0.14806731177E+04  0.25500000920E-02 0. -1.
    10030    2    1    2    0    0  0.00000000000E+00  0.00000000000E+00 -0.42205158143E+03  0.25392946540E+04  0.25039748007E+04 0.  0.
        1    1    3    3  502    0  0.13174975880E+03  0.95305177356E+02  0.10478674011E+04  0.10604089617E+04  0.50400001928E-02 0.  1.
       -1    1    3    3    0  502 -0.13174975880E+03 -0.95305177356E+02 -0.14699189825E+04  0.14788856923E+04  0.50400001928E-02 0. -1.
</event>
<event>
 5   0  0.2901250E-06  0.2515328E+04  0.7818609E-02  0.8397545E-01
       -4   -1    0    0    0  501  0.00000000000E+00  0.00000000000E+00  0.80301137967E+03  0.80301238395E+03  0.12699999809E+01 0. -1.
        4   -1    0    0  501    0  0.00000000000E+00  0.00000000000E+00 -0.19697319700E+04  0.19697323794E+04  0.12699999809E+01 0.  1.
    10030    2    1    2    0    0  0.00000000000E+00  0.00000000000E+00 -0.11667205903E+04  0.27727447634E+04  0.25153283259E+04 0.  0.
        2    1    3    3  502    0 -0.10982950148E+04 -0.18954260711E+03  0.58974133674E+02  0.11160897311E+04  0.25500000920E-02 0. -1.
       -2    1    3    3    0  502  0.10982950148E+04  0.18954260711E+03 -0.12256947240E+04  0.16566550323E+04  0.25500000920E-02 0.  1.
</event>
<event>
 5   0  0.8056723E-06  0.2499858E+04  0.7818609E-02  0.8403036E-01
        2   -1    0    0  501    0  0.00000000000E+00  0.00000000000E+00  0.16062240170E+04  0.16062240170E+04  0.25500000920E-02 0.  1.
       -2   -1    0    0    0  501  0.00000000000E+00  0.00000000000E+00 -0.97266789762E+03  0.97266789762E+03  0.25500000920E-02 0. -1.
    10030    2    1    2    0    0  0.00000000000E+00  0.00000000000E+00  0.63355611938E+03  0.25788919146E+04  0.24998580261E+04 0.  0.
        2    1    3    3  502    0  0.22156227289E+03  0.82161485010E+03  0.12612452864E+04  0.15214731267E+04  0.25500000920E-02 0.  1.
       -2    1    3    3    0  502 -0.22156227289E+03 -0.82161485010E+03 -0.62768916704E+03  0.10574187879E+04  0.25500000920E-02 0. -1.
</event>
<event>
 5   0  0.8354653E-06  0.2487466E+04  0.7818609E-02  0.8407464E-01
       -2   -1    0    0    0  501  0.00000000000E+00  0.00000000000E+00  0.74963490345E+03  0.74963490345E+03  0.25500000920E-02 0. -1.
        2   -1    0    0  501    0  0.00000000000E+00  0.00000000000E+00 -0.20635002983E+04  0.20635002983E+04  0.25500000920E-02 0.  1.
    10030    2    1    2    0    0  0.00000000000E+00  0.00000000000E+00 -0.13138653949E+04  0.28131352018E+04  0.24874660576E+04 0.  0.
        3    1    3    3  502    0 -0.88987361077E+03 -0.56183274035E+02 -0.16375424838E+04  0.18645581245E+04  0.10100000352E+00 0.  1.
       -3    1    3    3    0  502  0.88987361077E+03  0.56183274035E+02  0.32367708889E+03  0.94857707725E+03  0.10100000352E+00 0. -1.
</event>
<event>
 5   0  0.2901250E-06  0.2507380E+04  0.7818609E-02  0.8400361E-01
        3   -1    0    0  501    0  0.00000000000E+00  0.00000000000E+00  0.18002634415E+04  0.18002634444E+04  0.10100000352E+00 0.  1.
       -3   -1    0    0    0  501  0.00000000000E+00  0.00000000000E+00 -0.87306031161E+03  0.87306031745E+03  0.10100000352E+00 0. -1.
    10030    2    1    2    0    0  0.00000000000E+00  0.00000000000E+00  0.92720312993E+03  0.26733237618E+04  0.25073799655E+04 0.  0.
        5    1    3    3  502    0 -0.90048615639E+03 -0.79733029553E+03  0.84071301702E+03  0.14674574559E+04  0.46999998093E+01 0.  1.
       -5    1    3    3    0  502  0.90048615639E+03  0.79733029553E+03  0.86490112919E+02  0.12058663059E+04  0.46999998093E+01 0. -1.
</event>
<event>
 5   0  0.2901250E-06  0.2510385E+04  0.7818609E-02  0.8399295E-01
       -3   -1    0    0    0  501  0.00000000000E+00  0.00000000000E+00  0.85288254728E+03  0.85288255327E+03  0.10100000352E+00 0. -1.
        3   -1    0    0  501    0  0.00000000000E+00  0.00000000000E+00 -0.18472743626E+04  0.18472743654E+04  0.10100000352E+00 0.  1.
    10030    2    1    2    0    0  0.00000000000E+00  0.00000000000E+00 -0.99439181534E+03  0.27001569186E+04  0.25103848914E+04 0.  0.
        5    1    3    3  502    0  0.52946160652E+02 -0.10511894632E+03 -0.18413162010E+04  0.18450801421E+04  0.46999998093E+01 0.  1.
       -5    1    3    3    0  502 -0.52946160652E+02  0.10511894632E+03  0.84692438564E+03  0.85507677655E+03  0.46999998093E+01 0. -1.
</event>
<event>
 5   0  0.3484857E-06  0.2509622E+04  0.7818609E-02  0.8399566E-01
       -1   -1    0    0    0  501  0.00000000000E+00  0.00000000000E+00  0.71984253704E+03  0.71984253705E+03  0.50400001928E-02 0.  1.
        1   -1    0    0  501    0  0.00000000000E+00  0.00000000000E+00 -0.21873545870E+04  0.21873545870E+04  0.50400001928E-02 0. -1.
    10030    2    1    2    0    0  0.00000000000E+00  0.00000000000E+00 -0.14675120500E+04  0.29071971241E+04  0.25096221830E+04 0.  0.
        3    1    3    3  502    0 -0.11167219994E+04  0.56857132713E+03 -0.80891497953E+03  0.14915377408E+04  0.10100000352E+00 0. -1.
       -3    1    3    3    0  502  0.11167219994E+04 -0.56857132713E+03 -0.65859707045E+03  0.14156593833E+04  0.10100000352E+00 0.  1.
</event>
<event>
 5   0  0.8407986E-06  0.2495880E+04  0.7818609E-02  0.8404455E-01
        2   -1    0    0  501    0  0.00000000000E+00  0.00000000000E+00  0.19193155584E+04  0.19193155584E+04  0.25500000920E-02 0. -1.
       -2   -1    0    0    0  501  0.00000000000E+00  0.00000000000E+00 -0.81141117242E+03  0.81141117243E+03  0.25500000920E-02 0.  1.
    10030    2    1    2    0    0  0.00000000000E+00  0.00000000000E+00  0.11079043860E+04  0.27307267309E+04  0.24958798749E+04 0.  0.
        5    1    3    3  502    0 -0.55808279114E+03 -0.74868091769E+03 -0.35180450960E+03  0.99788176717E+03  0.46999998093E+01 0.  1.
       -5    1    3    3    0  502  0.55808279114E+03  0.74868091769E+03  0.14597088956E+04  0.17328449637E+04  0.46999998093E+01 0. -1.
</event>
<event>
 5   0  0.3481387E-06  0.2501696E+04  0.7818609E-02  0.8402382E-01
       -1   -1    0    0    0  501  0.00000000000E+00  0.00000000000E+00  0.13868017922E+04  0.13868017922E+04  0.50400001928E-02 0. -1.
        1   -1    0    0  501    0  0.00000000000E+00  0.00000000000E+00 -0.11282218684E+04  0.11282218684E+04  0.50400001928E-02 0.  1.
    10030    2    1    2    0    0  0.00000000000E+00  0.00000000000E+00  0.25857992378E+03  0.25150236606E+04  0.25016955123E+04 0.  0.
        4    1    3    3  502    0  0.87221882420E+02 -0.47552459380E+03 -0.10304970736E+04  0.11382693564E+04  0.12699999809E+01 0.  1.
       -4    1    3    3    0  502 -0.87221882420E+02  0.47552459380E+03  0.12890769974E+04  0.13767543042E+04  0.12699999809E+01 0. -1.
</event>
<event>
 5   0  0.8579923E-06  0.2503475E+04  0.7818609E-02  0.8401749E-01
       -2   -1    0    0    0  501  0.00000000000E+00  0.00000000000E+00  0.19677042064E+04  0.19677042064E+04  0.25500000920E-02 0. -1.
        2   -1    0    0  501    0  0.00000000000E+00  0.00000000000E+00 -0.79628135712E+03  0.79628135713E+03  0.25500000920E-02 0.  1.
    10030    2    1    2    0    0  0.00000000000E+00  0.00000000000E+00  0.11714228493E+04  0.27639855636E+04  0.25034745263E+04 0.  0.
        1    1    3    3  502    0  0.61461049692E+03 -0.99207270410E+03  0.85958954838E+02  0.11701894099E+04  0.50400001928E-02 0.  1.
       -1    1    3    3    0  502 -0.61461049692E+03  0.99207270410E+03  0.10854638945E+04  0.15937961536E+04  0.50400001928E-02 0. -1.
</event>
<event>
 5   0  0.8056723E-06  0.2495956E+04  0.7818609E-02  0.8404428E-01
        2   -1    0    0  501    0  0.00000000000E+00  0.00000000000E+00  0.15093952348E+04  0.15093952348E+04  0.25500000920E-02 0.  1.
       -2   -1    0    0    0  501  0.00000000000E+00  0.00000000000E+00 -0.10318360987E+04  0.10318360988E+04  0.25500000920E-02 0. -1.
    10030    2    1    2    0    0  0.00000000000E+00  0.00000000000E+00  0.47755913610E+03  0.25412313336E+04  0.24959555209E+04 0.  0.
        2    1    3    3  502    0  0.73121387423E+03  0.51504177354E+01  0.12684345590E+04  0.14641128669E+04  0.25500000920E-02 0.  1.
       -2    1    3    3    0  502 -0.73121387423E+03 -0.51504177354E+01 -0.79087542290E+03  0.10771184667E+04  0.25500000920E-02 0. -1.
</event>
<event>
 5   0  0.3642184E-06  0.2499544E+04  0.7818609E-02  0.8403148E-01
       -1   -1    0    0    0  501  0.00000000000E+00  0.00000000000E+00  0.10947957979E+04  0.10947957979E+04  0.50400001928E-02 0.  1.
        1   -1    0    0  501    0  0.00000000000E+00  0.00000000000E+00 -0.14266860680E+04  0.14266860680E+04  0.50400001928E-02 0. -1.
    10030    2    1    2    0    0  0.00000000000E+00  0.00000000000E+00 -0.33189027007E+03  0.25214818659E+04  0.24995438882E+04 0.  0.
        5    1    3    3  502    0 -0.12464938391E+04 -0.89672195344E+02 -0.17698783515E+03  0.12621944293E+04  0.46999998093E+01 0. -1.
       -5    1    3    3    0  502  0.12464938391E+04  0.89672195344E+02 -0.15490243491E+03  0.12592874366E+04  0.46999998093E+01 0.  1.
</event>
<event>
 5   0  0.8056723E-06  0.2503851E+04  0.7818609E-02  0.8401615E-01
       -2   -1    0    0    0  501  0.00000000000E+00  0.00000000000E+00  0.79899497476E+03  0.79899497477E+03  0.25500000920E-02 0. -1.
        2   -1    0    0  501    0  0.00000000000E+00  0.00000000000E+00 -0.19616109104E+04  0.19616109104E+04  0.25500000920E-02 0.  1.
    10030    2    1    2    0    0  0.00000000000E+00  0.00000000000E+00 -0.11626159356E+04  0.27606058852E+04  0.25038508421E+04 0.  0.
        2    1    3    3  502    0  0.12986843328E+03  0.70833561101E+03  0.54777042834E+03  0.90479698825E+03  0.25500000920E-02 0. -1.
       -2    1    3    3    0  502 -0.12986843328E+03 -0.70833561101E+03 -0.17103863640E+04  0.18558088969E+04  0.25500000920E-02 0.  1.
</event>
<event>
 5   0  0.8407986E-06  0.2500683E+04  0.7818609E-02  0.8402742E-01
        2   -1    0    0  501    0  0.00000000000E+00  0.00000000000E+00  0.15080064581E+04  0.15080064581E+04  0.25500000920E-02 0.  1.
       -2   -1    0    0    0  501  0.00000000000E+00  0.00000000000E+00 -0.10367026030E+04  0.10367026030E+04  0.25500000920E-02 0. -1.
    10030    2    1    2    0    0  0.00000000000E+00  0.00000000000E+00  0.47130385512E+03  0.25447090610E+04  0.25006832829E+04 0.  0.
        5    1    3    3  502    0 -0.57976617158E+03 -0.88907112017E+03 -0.43685817951E+03  0.11477993855E+04  0.46999998093E+01 0. -1.
       -5    1    3    3    0  502  0.57976617158E+03  0.88907112017E+03  0.90816203463E+03  0.13969096755E+04  0.46999998093E+01 0.  1.
</event>
<event>
 5   0  0.3481387E-06  0.2492642E+04  0.7818609E-02  0.8405611E-01
       -1   -1    0    0    0  501  0.00000000000E+00  0.00000000000E+00  0.15904946846E+04  0.15904946846E+04  0.50400001928E-02 0.  1.
        1   -1    0    0  501    0  0.00000000000E+00  0.00000000000E+00 -0.97662458858E+03  0.97662458860E+03  0.50400001928E-02 0. -1.
    10030    2    1    2    0    0  0.00000000000E+00  0.00000000000E+00  0.61387009602E+03  0.25671192732E+04  0.24926421460E+04 0.  0.
        4    1    3    3  502    0  0.25066759702E+02  0.88329971509E+03 -0.59822698050E+03  0.10671100516E+04  0.12699999809E+01 0. -1.
       -4    1    3    3    0  502 -0.25066759702E+02 -0.88329971509E+03  0.12120970765E+04  0.15000092216E+04  0.12699999809E+01 0.  1.
</event>
<event>
 5   0  0.8354653E-06  0.2468002E+04  0.7818609E-02  0.8414475E-01
        2   -1    0    0  501    0  0.00000000000E+00  0.00000000000E+00  0.17316693172E+04  0.17316693172E+04  0.25500000920E-02 0.  1.
       -2   -1    0    0    0  501  0.00000000000E+00  0.00000000000E+00 -0.87935838099E+03  0.87935838100E+03  0.25500000920E-02 0. -1.
    10030    2    1    2    0    0  0.00000000000E+00  0.00000000000E+00  0.85231093623E+03  0.26110276982E+04  0.24680015618E+04 0.  0.
        3    1    3    3  502    0  0.52821355327E+03  0.64029242353E+03  0.13921845824E+04  0.16208522039E+04  0.10100000352E+00 0.  1.
       -3    1    3    3    0  502 -0.52821355327E+03 -0.64029242353E+03 -0.53987364612E+03  0.99017549428E+03  0.10100000352E+00 0. -1.
</event>
<event>
 5   0  0.3642184E-06  0.2492494E+04  0.7818609E-02  0.8405664E-01
       -1   -1    0    0    0  501  0.00000000000E+00  0.00000000000E+00  0.16758869088E+04  0.16758869089E+04  0.50400001928E-02 0.  1.
        1   -1    0    0  501    0  0.00000000000E+00  0.00000000000E+00 -0.92675230674E+03  0.92675230676E+03  0.50400001928E-02 0. -1.
    10030    2    1    2    0    0  0.00000000000E+00  0.00000000000E+00  0.74913460210E+03  0.26026392156E+04  0.24924943801E+04 0.  0.
        5    1    3    3  502    0  0.53842803288E+03  0.10599648771E+04 -0.15685832959E+02  0.11889905057E+04  0.46999998093E+01 0. -1.
       -5    1    3    3    0  502 -0.53842803288E+03 -0.10599648771E+04  0.76482043506E+03  0.14136487099E+04  0.46999998093E+01 0.  1.
</event>
<event>
 5   0  0.3484857E-06  0.2322787E+04  0.7818609E-02  0.8468991E-01
        1   -1    0    0  501    0  0.00000000000E+00  0.00000000000E+00  0.17204036371E+04  0.17204036371E+04  0.50400001928E-02 0.  1.
       -1   -1    0    0    0  501  0.00000000000E+00  0.00000000000E+00 -0.78402203096E+03  0.78402203097E+03  0.50400001928E-02 0. -1.
    10030    2    1    2    0    0  0.00000000000E+00  0.00000000000E+00  0.93638160613E+03  0.25044256681E+04  0.23227865624E+04 0.  0.
        3    1    3    3  502    0 -0.11035734876E+04  0.33430051152E+03  0.61760234964E+03  0.13080764301E+04  0.10100000352E+00 0.  1.
       -3    1    3    3    0  502  0.11035734876E+04 -0.33430051152E+03  0.31877925648E+03  0.11963492379E+04  0.10100000352E+00 0. -1.
</event>
<event>
 5   0  0.3484857E-06  0.2497704E+04  0.7818609E-02  0.8403804E-01
        1   -1    0    0  501    0  0.00000000000E+00  0.00000000000E+00  0.14088050274E+04  0.14088050274E+04  0.50400001928E-02 0.  1.
       -1   -1    0    0    0  501  0.00000000000E+00  0.00000000000E+00 -0.11070595496E+04  0.11070595496E+04  0.50400001928E-02 0. -1.
    10030    2    1    2    0    0  0.00000000000E+00  0.00000000000E+00  0.30174547784E+03  0.25158645770E+04  0.24977037928E+04 0.  0.
        3    1    3    3  502    0 -0.37738915248E+03 -0.66324781550E+03 -0.84490560876E+03  0.11385015306E+04  0.10100000352E+00 0. -1.
       -3    1    3    3    0  502  0.37738915248E+03  0.66324781550E+03  0.11466510866E+04  0.13773630465E+04  0.10100000352E+00 0.  1.
</event>
<event>
 5   0  0.3424193E-06  0.2494902E+04  0.7818609E-02  0.8404804E-01
       -1   -1    0    0    0  501  0.00000000000E+00  0.00000000000E+00  0.10463515771E+04  0.10463515771E+04  0.50400001928E-02 0. -1.
        1   -1    0    0  501    0  0.00000000000E+00  0.00000000000E+00 -0.14872000703E+04  0.14872000703E+04  0.50400001928E-02 0.  1.
    10030    2    1    2    0    0  0.00000000000E+00  0.00000000000E+00 -0.44084849324E+03  0.25335516474E+04  0.24949021135E+04 0.  0.
        1    1    3    3  502    0 -0.11835866351E+03 -0.94564303555E+03 -0.10378062748E+04  0.14090036863E+04  0.50400001928E-02 0.  1.
       -1    1    3    3    0  502  0.11835866351E+03  0.94564303555E+03  0.59695778155E+03  0.11245479611E+04  0.50400001928E-02 0. -1.
</event>
<event>
 5   0  0.8354653E-06  0.2489924E+04  0.7818609E-02  0.8406584E-01
        2   -1    0    0  501    0  0.00000000000E+00  0.00000000000E+00  0.16923475879E+04  0.16923475879E+04  0.25500000920E-02 0. -1.
       -2   -1    0    0    0  501  0.00000000000E+00  0.00000000000E+00 -0.91584618018E+03  0.91584618018E+03  0.25500000920E-02 0.  1.
    10030    2    1    2    0    0  0.00000000000E+00  0.00000000000E+00  0.77650140773E+03  0.26081937681E+04  0.24899237530E+04 0.  0.
        3    1    3    3  502    0  0.35099584713E+03 -0.11764525922E+04  0.17181775354E+03  0.12396612993E+04  0.10100000352E+00 0.  1.
       -3    1    3    3    0  502 -0.35099584713E+03  0.11764525922E+04  0.60468365419E+03  0.13685324688E+04  0.10100000352E+00 0. -1.
</event>
<event>
 5   0  0.2901250E-06  0.2495224E+04  0.7818609E-02  0.8404689E-01
       -3   -1    0    0    0  501  0.00000000000E+00  0.00000000000E+00  0.10703303960E+04  0.10703304008E+04  0.10100000352E+00 0.  1.
        3   -1    0    0  501    0  0.00000000000E+00  0.00000000000E+00 -0.14542576740E+04  0.14542576775E+04  0.10100000352E+00 0. -1.
    10030    2    1    2    0    0  0.00000000000E+00  0.00000000000E+00 -0.38392727795E+03  0.25245880783E+04  0.24952244008E+04 0.  0.
        4    1    3    3  502    0 -0.69402854891E+02 -0.11615263893E+04  0.26341543610E+03  0.11930421678E+04  0.12699999809E+01 0.  1.
       -4    1    3    3    0  502  0.69402854891E+02  0.11615263893E+04 -0.64734271405E+03  0.13315459105E+04  0.12699999809E+01 0. -1.
</event>
<event>
 5   0  0.8354653E-06  0.2500534E+04  0.7818609E-02  0.8402795E-01
        2   -1    0    0  501    0  0.00000000000E+00  0.00000000000E+00  0.15349641880E+04  0.15349641880E+04  0.25500000920E-02 0.  1.
       -2   -1    0    0    0  501  0.00000000000E+00  0.00000000000E+00 -0.10183743484E+04  0.10183743484E+04  0.25500000920E-02 0. -1.
    10030    2    1    2    0    0  0.00000000000E+00  0.00000000000E+00  0.51658983954E+03  0.25533385364E+04  0.25005344667E+04 0.  0.
        3    1    3    3  502    0 -0.58563167827E+02 -0.11940437025E+04  0.63208255761E+03  0.13522937470E+04  0.10100000352E+00 0.  1.
       -3    1    3    3    0  502  0.58563167827E+02  0.11940437025E+04 -0.11549271807E+03  0.12010447895E+04  0.10100000352E+00 0. -1.
</event>
<event>
 5   0  0.8407986E-06  0.2499903E+04  0.7818609E-02  0.8403020E-01
       -2   -1    0    0    0  501  0.00000000000E+00  0.00000000000E+00  0.70921828098E+03  0.70921828099E+03  0.25500000920E-02 0. -1.
        2   -1    0    0  501    0  0.00000000000E+00  0.00000000000E+00 -0.22029589690E+04  0.22029589690E+04  0.25500000920E-02 0.  1.
    10030    2    1    2    0    0  0.00000000000E+00  0.00000000000E+00 -0.14937406880E+04  0.29121772500E+04  0.24999030166E+04 0.  0.
        5    1    3    3  502    0 -0.43297333802E+03 -0.95947406034E+03  0.38304099949E+02  0.10533497415E+04  0.46999998093E+01 0. -1.
       -5    1    3    3    0  502  0.43297333802E+03  0.95947406034E+03 -0.15320447880E+04  0.18588275085E+04  0.46999998093E+01 0.  1.
</event>
<event>
 5   0  0.3522870E-06  0.2537211E+04  0.7818609E-02  0.8389848E-01
       -1   -1    0    0    0  501  0.00000000000E+00  0.00000000000E+00  0.95983247983E+03  0.95983247984E+03  0.50400001928E-02 0.  1.
        1   -1    0    0  501    0  0.00000000000E+00  0.00000000000E+00 -0.16767087229E+04  0.16767087229E+04  0.50400001928E-02 0. -1.
    10030    2    1    2    0    0  0.00000000000E+00  0.00000000000E+00 -0.71687624305E+03  0.26365412027E+04  0.25372106664E+04 0.  0.
        2    1    3    3  502    0 -0.10827322928E+04 -0.49707823555E+03 -0.81134938044E+03  0.14414172912E+04  0.25500000920E-02 0. -1.
       -2    1    3    3    0  502  0.10827322928E+04  0.49707823555E+03  0.94473137383E+02  0.11951239115E+04  0.25500000920E-02 0.  1.
</event>
<event>
 5   0  0.3481387E-06  0.2500232E+04  0.7818609E-02  0.8402903E-01
        1   -1    0    0  501    0  0.00000000000E+00  0.00000000000E+00  0.10679016106E+04  0.10679016106E+04  0.50400001928E-02 0. -1.
       -1   -1    0    0    0  501  0.00000000000E+00  0.00000000000E+00 -0.14634211338E+04  0.14634211338E+04  0.50400001928E-02 0.  1.
    10030    2    1    2    0    0  0.00000000000E+00  0.00000000000E+00 -0.39551952322E+03  0.25313227444E+04  0.25002318178E+04 0.  0.
        4    1    3    3  502    0  0.52282059711E+03 -0.14330366311E+03  0.94270744039E+03  0.10874632167E+04  0.12699999809E+01 0. -1.
       -4    1    3    3    0  502 -0.52282059711E+03  0.14330366311E+03 -0.13382269636E+04  0.14438595277E+04  0.12699999809E+01 0.  1.
</event>
<event>
 5   0  0.8056723E-06  0.2488069E+04  0.7818609E-02  0.8407248E-01
        2   -1    0    0  501    0  0.00000000000E+00  0.00000000000E+00  0.20254848466E+04  0.20254848466E+04  0.25500000920E-02 0. -1.
       -2   -1    0    0    0  501  0.00000000000E+00  0.00000000000E+00 -0.76407475502E+03  0.76407475503E+03  0.25500000920E-02 0.  1.
    10030    2    1    2    0    0  0.00000000000E+00  0.00000000000E+00  0.12614100916E+04  0.27895596016E+04  0.24880690006E+04 0.  0.
        2    1    3    3  502    0 -0.19351111127E+03 -0.52014096400E+03  0.18790052164E+04  0.19592482680E+04  0.25500000920E-02 0. -1.
       -2    1    3    3    0  502  0.19351111127E+03  0.52014096400E+03 -0.61759512476E+03  0.83031133363E+03  0.25500000920E-02 0.  1.
</event>
<event>
 5   0  0.8354653E-06  0.2493600E+04  0.7818609E-02  0.8405269E-01
       -2   -1    0    0    0  501  0.00000000000E+00  0.00000000000E+00  0.12168445970E+04  0.12168445970E+04  0.25500000920E-02 0.  1.
        2   -1    0    0  501    0  0.00000000000E+00  0.00000000000E+00 -0.12774923116E+04  0.12774923116E+04  0.25500000920E-02 0. -1.
    10030    2    1    2    0    0  0.00000000000E+00  0.00000000000E+00 -0.60647714634E+02  0.24943369086E+04  0.24935995004E+04 0.  0.
        3    1    3    3  502    0 -0.38102126226E+03  0.65363852126E+03  0.96097328358E+03  0.12230658939E+04  0.10100000352E+00 0.  1.
       -3    1    3    3    0  502  0.38102126226E+03 -0.65363852126E+03 -0.10216209982E+04  0.12712710148E+04  0.10100000352E+00 0. -1.
</event>
<event>
 5   0  0.3424193E-06  0.2446375E+04  0.7818609E-02  0.8422343E-01
        1   -1    0    0  501    0  0.00000000000E+00  0.00000000000E+00  0.19152120839E+04  0.19152120839E+04  0.50400001928E-02 0. -1.
       -1   -1    0    0    0  501  0.00000000000E+00  0.00000000000E+00 -0.78121248543E+03  0.78121248544E+03  0.50400001928E-02 0.  1.
    10030    2    1    2    0    0  0.00000000000E+00  0.00000000000E+00  0.11339995985E+04  0.26964245694E+04  0.24463749445E+04 0.  0.
        1    1    3    3  502    0 -0.34255484158E+03  0.89154012542E+03  0.14093092447E+04  0.17024512216E+04  0.50400001928E-02 0. -1.
       -1    1    3    3    0  502  0.34255484158E+03 -0.89154012542E+03 -0.27530964622E+03  0.99397334776E+03  0.50400001928E-02 0.  1.
</event>
<event>
 5   0  0.8407986E-06  0.2502026E+04  0.7818609E-02  0.8402264E-01
        2   -1    0    0  501    0  0.00000000000E+00  0.00000000000E+00  0.18400291362E+04  0.18400291362E+04  0.25500000920E-02 0.  1.
       -2   -1    0    0    0  501  0.00000000000E+00  0.00000000000E+00 -0.85054827747E+03  0.85054827748E+03  0.25500000920E-02 0. -1.
    10030    2    1    2    0    0  0.00000000000E+00  0.00000000000E+00  0.98948085869E+03  0.26905774136E+04  0.25020260688E+04 0.  0.
        5    1    3    3  502    0  0.23797284934E+03 -0.23520338780E+02 -0.82573235350E+03  0.85967452735E+03  0.46999998093E+01 0. -1.
       -5    1    3    3    0  502 -0.23797284934E+03  0.23520338780E+02  0.18152132122E+04  0.18309028863E+04  0.46999998093E+01 0.  1.
</event>
<event>
 5   0  0.3481387E-06  0.2497273E+04  0.7818609E-02  0.8403958E-01
       -1   -1    0    0    0  501  0.00000000000E+00  0.00000000000E+00  0.97113667631E+03  0.97113667633E+03  0.50400001928E-02 0. -1.
        1   -1    0    0  501    0  0.00000000000E+00  0.00000000000E+00 -0.16054316483E+04  0.16054316483E+04  0.50400001928E-02 0.  1.
    10030    2    1    2    0    0  0.00000000000E+00  0.00000000000E+00 -0.63429497199E+03  0.25765683246E+04  0.24972733571E+04 0.  0.
        4    1    3    3  502    0 -0.11574386914E+04 -0.44653208838E+03 -0.17110177598E+03  0.12523308912E+04  0.12699999809E+01 0. -1.
       -4    1    3    3    0  502  0.11574386914E+04  0.44653208838E+03 -0.46319319600E+03  0.13242374334E+04  0.12699999809E+01 0.  1.
</event>
<event>
 5   0  0.3642184E-06  0.2472785E+04  0.7818609E-02  0.8412745E-01
        1   -1    0    0  501    0  0.00000000000E+00  0.00000000000E+00  0.21788689357E+04  0.21788689357E+04  0.50400001928E-02 0. -1.
       -1   -1    0    0    0  501  0.00000000000E+00  0.00000000000E+00 -0.70158735887E+03  0.70158735888E+03  0.50400001928E-02 0.  1.
    10030    2    1    2    0    0  0.00000000000E+00  0.00000000000E+00  0.14772815768E+04  0.28804562946E+04  0.24727853946E+04 0.  0.
        5    1    3    3  502    0 -0.96917363834E+03  0.31971201551E+02  0.16321181571E+04  0.18984602887E+04  0.46999998093E+01 0. -1.
       -5    1    3    3    0  502  0.96917363834E+03 -0.31971201551E+02 -0.15483658028E+03  0.98199600589E+03  0.46999998093E+01 0.  1.
</event>
<event>
 5   0  0.8056723E-06  0.2610221E+04  0.7818609E-02  0.8364738E-01
       -2   -1    0    0    0  501  0.00000000000E+00  0.00000000000E+00  0.23153125812E+04  0.23153125812E+04  0.25500000920E-02 0. -1.
        2   -1    0    0  501    0  0.00000000000E+00  0.00000000000E+00 -0.73567342057E+03  0.73567342057E+03  0.25500000920E-02 0.  1.
    10030    2    1    2    0    0  0.00000000000E+00  0.00000000000E+00  0.15796391606E+04  0.30509860017E+04  0.26102213900E+04 0.  0.
        2    1    3    3  502    0 -0.66548758180E+03  0.56495831330E+03  0.19238330290E+04  0.21126251775E+04  0.25500000920E-02 0. -1.
       -2    1    3    3    0  502  0.66548758180E+03 -0.56495831330E+03 -0.34419386842E+03  0.93836082418E+03  0.25500000920E-02 0.  1.
</event>
<event>
 5   0  0.3424193E-06  0.2498574E+04  0.7818609E-02  0.8403494E-01
        1   -1    0    0  501    0  0.00000000000E+00  0.00000000000E+00  0.12862224358E+04  0.12862224358E+04  0.50400001928E-02 0.  1.
       -1   -1    0    0    0  501  0.00000000000E+00  0.00000000000E+00 -0.12134123833E+04  0.12134123833E+04  0.50400001928E-02 0. -1.
    10030    2    1    2    0    0  0.00000000000E+00  0.00000000000E+00  0.72810052500E+02  0.24996348191E+04  0.24985741784E+04 0.  0.
        1    1    3    3  502    0  0.89375201612E+03 -0.78771126463E+03 -0.33983510074E+03  0.12388581834E+04  0.50400001928E-02 0. -1.
       -1    1    3    3    0  502 -0.89375201612E+03  0.78771126463E+03  0.41264515324E+03  0.12607766358E+04  0.50400001928E-02 0.  1.
</event>
<event>
 5   0  0.3522870E-06  0.2496079E+04  0.7818609E-02  0.8404384E-01
       -1   -1    0    0    0  501  0.00000000000E+00  0.00000000000E+00  0.66673778873E+03  0.66673778875E+03  0.50400001928E-02 0. -1.
        1   -1    0    0  501    0  0.00000000000E+00  0.00000000000E+00 -0.23361546412E+04  0.23361546412E+04  0.50400001928E-02 0.  1.
    10030    2    1    2    0    0  0.00000000000E+00  0.00000000000E+00 -0.16694168525E+04  0.30028924300E+04  0.24960789889E+04 0.  0.
        2    1    3    3  502    0 -0.92097257837E+03  0.34413440724E+03  0.90137025122E+02  0.98729107342E+03  0.25500000920E-02 0.  1.
       -2    1    3    3    0  502  0.92097257837E+03 -0.34413440724E+03 -0.17595538776E+04  0.20156013566E+04  0.25500000920E-02 0. -1.
</event>
<event>
 5   0  0.8407986E-06  0.2505963E+04  0.7818609E-02  0.8400864E-01
       -2   -1    0    0    0  501  0.00000000000E+00  0.00000000000E+00  0.87827795378E+03  0.87827795379E+03  0.25500000920E-02 0. -1.
        2   -1    0    0  501    0  0.00000000000E+00  0.00000000000E+00 -0.17875462052E+04  0.17875462052E+04  0.25500000920E-02 0.  1.
    10030    2    1    2    0    0  0.00000000000E+00  0.00000000000E+00 -0.90926825142E+03  0.26658241590E+04  0.25059628277E+04 0.  0.
        5    1    3    3  502    0  0.78391385819E+03  0.47682291011E+03  0.45306152470E+03  0.10233122006E+04  0.46999998093E+01 0. -1.
       -5    1    3    3    0  502 -0.78391385819E+03 -0.47682291011E+03 -0.13623297761E+04  0.16425119584E+04  0.46999998093E+01 0.  1.
</event>
<event>
 5   0  0.8948286E-06  0.2495693E+04  0.7818609E-02  0.8404522E-01
        2   -1    0    0  501    0  0.00000000000E+00  0.00000000000E+00  0.19752061937E+04  0.19752061937E+04  0.25500000920E-02 0.  1.
       -2   -1    0    0    0  501  0.00000000000E+00  0.00000000000E+00 -0.78833310203E+03  0.78833310203E+03  0.25500000920E-02 0. -1.
    10030    2    1    2    0    0  0.00000000000E+00  0.00000000000E+00  0.11868730917E+04  0.27635392958E+04  0.24956926300E+04 0.  0.
        4    1    3    3  502    0  0.83621626550E+03 -0.59137875212E+03  0.13827744656E+04  0.17207711373E+04  0.12699999809E+01 0.  1.
       -4    1    3    3    0  502 -0.83621626550E+03  0.59137875212E+03 -0.19590137394E+03  0.10427681585E+04  0.12699999809E+01 0. -1.
</event>
<event>
 5   0  0.3522870E-06  0.2485595E+04  0.7818609E-02  0.8408135E-01
        1   -1    0    0  501    0  0.00000000000E+00  0.00000000000E+00  0.10834963828E+04  0.10834963828E+04  0.50400001928E-02 0. -1.
       -1   -1    0    0    0  501  0.00000000000E+00  0.00000000000E+00 -0.14255196846E+04  0.14255196846E+04  0.50400001928E-02 0.  1.
    10030    2    1    2    0    0  0.00000000000E+00  0.00000000000E+00 -0.34202330185E+03  0.25090160674E+04  0.24855948357E+04 0.  0.
        2    1    3    3  502    0  0.12109213988E+04 -0.27935082109E+03 -0.15754780641E+03  0.12526726734E+04  0.25500000920E-02 0. -1.
       -2    1    3    3    0  502 -0.12109213988E+04  0.27935082109E+03 -0.18447549543E+03  0.12563433940E+04  0.25500000920E-02 0.  1.
</event>
<event>
 5   0  0.3484857E-06  0.2498479E+04  0.7818609E-02  0.8403528E-01
       -1   -1    0    0    0  501  0.00000000000E+00  0.00000000000E+00  0.45628499426E+03  0.45628499429E+03  0.50400001928E-02 0.  1.
        1   -1    0    0  501    0  0.00000000000E+00  0.00000000000E+00 -0.34202296838E+04  0.34202296838E+04  0.50400001928E-02 0. -1.
    10030    2    1    2    0    0  0.00000000000E+00  0.00000000000E+00 -0.29639446895E+04  0.38765146780E+04  0.24984791227E+04 0.  0.
        3    1    3    3  502    0 -0.22246823340E+03 -0.14867694390E+03  0.41130145408E+03  0.49067896312E+03  0.10100000352E+00 0.  1.
       -3    1    3    3    0  502  0.22246823340E+03  0.14867694390E+03 -0.33752461436E+04  0.33858357149E+04  0.10100000352E+00 0. -1.
</event>
<event>
 5   0  0.3522870E-06  0.2491749E+04  0.7818609E-02  0.8405931E-01
        1   -1    0    0  501    0  0.00000000000E+00  0.00000000000E+00  0.17853908927E+04  0.17853908927E+04  0.50400001928E-02 0.  1.
       -1   -1    0    0    0  501  0.00000000000E+00  0.00000000000E+00 -0.86939128052E+03  0.86939128053E+03  0.50400001928E-02 0. -1.
    10030    2    1    2    0    0  0.00000000000E+00  0.00000000000E+00  0.91599961214E+03  0.26547821732E+04  0.24917490038E+04 0.  0.
        2    1    3    3  502    0 -0.25070156997E+03  0.60281419366E+03 -0.67254411539E+03  0.93731094970E+03  0.25500000920E-02 0. -1.
       -2    1    3    3    0  502  0.25070156997E+03 -0.60281419366E+03  0.15885437275E+04  0.17174712235E+04  0.25500000920E-02 0.  1.
</event>
<event>
 5   0  0.8354653E-06  0.2496322E+04  0.7818609E-02  0.8404297E-01
       -2   -1    0    0    0  501  0.00000000000E+00  0.00000000000E+00  0.79061097536E+03  0.79061097537E+03  0.25500000920E-02 0. -1.
        2   -1    0    0  501    0  0.00000000000E+00  0.00000000000E+00 -0.19705092839E+04  0.19705092839E+04  0.25500000920E-02 0.  1.
    10030    2    1    2    0    0  0.00000000000E+00  0.00000000000E+00 -0.11798983086E+04  0.27611202593E+04  0.24963223085E+04 0.  0.
        3    1    3    3  502    0  0.54732131749E+03  0.10608467425E+04 -0.18664885580E+03  0.12082194507E+04  0.10100000352E+00 0. -1.
       -3    1    3    3    0  502 -0.54732131749E+03 -0.10608467425E+04 -0.99324945278E+03  0.15529008086E+04  0.10100000352E+00 0.  1.
</event>
<event>
 5   0  0.2901250E-06  0.2535936E+04  0.7818609E-02  0.8390294E-01
        3   -1    0    0  501    0  0.00000000000E+00  0.00000000000E+00  0.17539716017E+04  0.17539716046E+04  0.10100000352E+00 0. -1.
       -3   -1    0    0    0  501  0.00000000000E+00  0.00000000000E+00 -0.91662995399E+03  0.91662995955E+03  0.10100000352E+00 0.  1.
    10030    2    1    2    0    0  0.00000000000E+00  0.00000000000E+00  0.83734164772E+03  0.26706015642E+04  0.25359360559E+04 0.  0.
        2    1    3    3  502    0  0.92049606338E+03  0.78993693528E+03  0.80764881805E+03  0.14572611220E+04  0.25500000920E-02 0. -1.
       -2    1    3    3    0  502 -0.92049606338E+03 -0.78993693528E+03  0.29692829671E+02  0.12133404422E+04  0.25500000920E-02 0.  1.
</event>
<event>
 5   0  0.3481387E-06  0.2509354E+04  0.7818609E-02  0.8399661E-01
       -1   -1    0    0    0  501  0.00000000000E+00  0.00000000000E+00  0.11095289218E+04  0.11095289219E+04  0.50400001928E-02 0.  1.
        1   -1    0    0  501    0  0.00000000000E+00  0.00000000000E+00 -0.14188130203E+04  0.14188130203E+04  0.50400001928E-02 0. -1.
    10030    2    1    2    0    0  0.00000000000E+00  0.00000000000E+00 -0.30928409847E+03  0.25283419422E+04  0.25093537660E+04 0.  0.
        4    1    3    3  502    0 -0.98112423783E+03  0.37608378098E+03  0.53623500411E+03  0.11796581593E+04  0.12699999809E+01 0.  1.
       -4    1    3    3    0  502  0.98112423783E+03 -0.37608378098E+03 -0.84551910259E+03  0.13486837828E+04  0.12699999809E+01 0. -1.
</event>
<event>
 5   0  0.3484857E-06  0.2512233E+04  0.7818609E-02  0.8398641E-01
        1   -1    0    0  501    0  0.00000000000E+00  0.00000000000E+00  0.11351474166E+04  0.11351474166E+04  0.50400001928E-02 0.  1.
       -1   -1    0    0    0  501  0.00000000000E+00  0.00000000000E+00 -0.13899764072E+04  0.13899764072E+04  0.50400001928E-02 0. -1.
    10030    2    1    2    0    0  0.00000000000E+00  0.00000000000E+00 -0.25482899055E+03  0.25251238238E+04  0.25122325750E+04 0.  0.
        3    1    3    3  502    0 -0.89263901974E+03  0.83016515174E+03  0.17720751478E+03  0.12318202435E+04  0.10100000352E+00 0.  1.
       -3    1    3    3    0  502  0.89263901974E+03 -0.83016515174E+03 -0.43203650533E+03  0.12933035803E+04  0.10100000352E+00 0. -1.
</event>
<event>
 5   0  0.8579923E-06  0.2492506E+04  0.7818609E-02  0.8405660E-01
       -2   -1    0    0    0  501  0.00000000000E+00  0.00000000000E+00  0.13208603562E+04  0.13208603562E+04  0.25500000920E-02 0. -1.
        2   -1    0    0  501    0  0.00000000000E+00  0.00000000000E+00 -0.11758594376E+04  0.11758594376E+04  0.25500000920E-02 0.  1.
    10030    2    1    2    0    0  0.00000000000E+00  0.00000000000E+00  0.14500091859E+03  0.24967197937E+04  0.24925056594E+04 0.  0.
        1    1    3    3  502    0 -0.11751599769E+04  0.85922403034E+02  0.47909619331E+03  0.12719735819E+04  0.50400001928E-02 0. -1.
       -1    1    3    3    0  502  0.11751599769E+04 -0.85922403034E+02 -0.33409527472E+03  0.12247462118E+04  0.50400001928E-02 0.  1.
</event>
<event>
 5   0  0.3424193E-06  0.2495269E+04  0.7818609E-02  0.8404673E-01
        1   -1    0    0  501    0  0.00000000000E+00  0.00000000000E+00  0.22643916914E+04  0.22643916914E+04  0.50400001928E-02 0.  1.
       -1   -1    0    0    0  501  0.00000000000E+00  0.00000000000E+00 -0.68742149210E+03  0.68742149212E+03  0.50400001928E-02 0. -1.
    10030    2    1    2    0    0  0.00000000000E+00  0.00000000000E+00  0.15769701993E+04  0.29518131835E+04  0.24952687352E+04 0.  0.
        1    1    3    3  502    0 -0.86791112346E+03  0.37827056514E+03  0.17496993812E+04  0.19894236008E+04  0.50400001928E-02 0.  1.
       -1    1    3    3    0  502  0.86791112346E+03 -0.37827056514E+03 -0.17272918191E+03  0.96238958275E+03  0.50400001928E-02 0. -1.
</event>
<event>
 5   0  0.8354653E-06  0.2508304E+04  0.7818609E-02  0.8400033E-01
        2   -1    0    0  501    0  0.00000000000E+00  0.00000000000E+00  0.23353958627E+04  0.23353958627E+04  0.25500000920E-02 0.  1.
       -2   -1    0    0    0  501  0.00000000000E+00  0.00000000000E+00 -0.67350366463E+03  0.67350366463E+03  0.25500000920E-02 0. -1.
    10030    2    1    2    0    0  0.00000000000E+00  0.00000000000E+00  0.16618921981E+04  0.30088995274E+04  0.25083043451E+04 0.  0.
        3    1    3    3  502    0  0.82974205446E+03 -0.92089946755E+03  0.60217622132E+03  0.13780943066E+04  0.10100000352E+00 0.  1.
       -3    1    3    3    0  502 -0.82974205446E+03  0.92089946755E+03  0.10597159768E+04  0.16308052207E+04  0.10100000352E+00 0. -1.
</event>
<event>
 5   0  0.8354653E-06  0.2502104E+04  0.7818609E-02  0.8402236E-01
        2   -1    0    0  501    0  0.00000000000E+00  0.00000000000E+00  0.99939847103E+03  0.99939847103E+03  0.25500000920E-02 0.  1.
       -2   -1    0    0    0  501  0.00000000000E+00  0.00000000000E+00 -0.15660726544E+04  0.15660726544E+04  0.25500000920E-02 0. -1.
    10030    2    1    2    0    0  0.00000000000E+00  0.00000000000E+00 -0.56667418333E+03  0.25654711254E+04  0.25021036080E+04 0.  0.
        3    1    3    3  502    0 -0.41745684505E+03  0.37667231203E+03 -0.14292175112E+04  0.15358434010E+04  0.10100000352E+00 0. -1.
       -3    1    3    3    0  502  0.41745684505E+03 -0.37667231203E+03  0.86254332784E+03  0.10296277243E+04  0.10100000352E+00 0.  1.
</event>
<event>
 5   0  0.8948286E-06  0.2513766E+04  0.7818609E-02  0.8398098E-01
       -2   -1    0    0    0  501  0.00000000000E+00  0.00000000000E+00  0.14719186899E+04  0.14719186899E+04  0.25500000920E-02 0.  1.
        2   -1    0    0  501    0  0.00000000000E+00  0.00000000000E+00 -0.10732621979E+04  0.10732621979E+04  0.25500000920E-02 0. -1.
    10030    2    1    2    0    0  0.00000000000E+00  0.00000000000E+00  0.39865649207E+03  0.25451808878E+04  0.25137658509E+04 0.  0.
        4    1    3    3  502    0  0.68749114856E+03  0.98735432016E+03  0.56752162804E+03  0.13302612691E+04  0.12699999809E+01 0.  1.
       -4    1    3    3    0  502 -0.68749114856E+03 -0.98735432016E+03 -0.16886513597E+03  0.12149196187E+04  0.12699999809E+01 0. -1.
</event>
<event>
 5   0  0.3484857E-06  0.2505255E+04  0.7818609E-02  0.8401116E-01
        1   -1    0    0  501    0  0.00000000000E+00  0.00000000000E+00  0.20643663716E+04  0.20643663716E+04  0.50400001928E-02 0. -1.
       -1   -1    0    0    0  501  0.00000000000E+00  0.00000000000E+00 -0.76007616256E+03  0.76007616258E+03  0.50400001928E-02 0.  1.
    10030    2    1    2    0    0  0.00000000000E+00  0.00000000000E+00  0.13042902090E+04  0.28244425342E+04  0.25052550129E+04 0.  0.
        3    1    3    3  502    0 -0.58481554324E+03 -0.10983650397E+04  0.49009358623E+03  0.13373880191E+04  0.10100000352E+00 0. -1.
       -3    1    3    3    0  502  0.58481554324E+03  0.10983650397E+04  0.81419662282E+03  0.14870545151E+04  0.10100000352E+00 0.  1.
</event>
<event>
 5   0  0.8948286E-06  0.2496212E+04  0.7818609E-02  0.8404336E-01
        2   -1    0    0  501    0  0.00000000000E+00  0.00000000000E+00  0.19521452955E+04  0.19521452955E+04  0.25500000920E-02 0. -1.
       -2   -1    0    0    0  501  0.00000000000E+00  0.00000000000E+00 -0.79797782862E+03  0.79797782862E+03  0.25500000920E-02 0.  1.
    10030    2    1    2    0    0  0.00000000000E+00  0.00000000000E+00  0.11541674668E+04  0.27501231241E+04  0.24962120615E+04 0.  0.
        4    1    3    3  502    0 -0.74239448181E+03 -0.91803442308E+03  0.10230148218E+04  0.15622092393E+04  0.12699999809E+01 0.  1.
       -4    1    3    3    0  502  0.74239448181E+03  0.91803442308E+03  0.13115264500E+03  0.11879138848E+04  0.12699999809E+01 0. -1.
</event>
<event>
 5   0  0.3642184E-06  0.2500802E+04  0.7818609E-02  0.8402700E-01
        1   -1    0    0  501    0  0.00000000000E+00  0.00000000000E+00  0.14830257282E+04  0.14830257282E+04  0.50400001928E-02 0.  1.
       -1   -1    0    0    0  501  0.00000000000E+00  0.00000000000E+00 -0.10542652649E+04  0.10542652649E+04  0.50400001928E-02 0. -1.
    10030    2    1    2    0    0  0.00000000000E+00  0.00000000000E+00  0.42876046329E+03  0.25372909932E+04  0.25008018812E+04 0.  0.
        5    1    3    3  502    0 -0.86287570231E+03  0.18916711481E+02 -0.70356844302E+03  0.11135272622E+04  0.46999998093E+01 0. -1.
       -5    1    3    3    0  502  0.86287570231E+03 -0.18916711481E+02  0.11323289063E+04  0.14237637310E+04  0.46999998093E+01 0.  1.
</event>
<event>
 5   0  0.8579923E-06  0.2516372E+04  0.7818609E-02  0.8397176E-01
       -2   -1    0    0    0  501  0.00000000000E+00  0.00000000000E+00  0.92245152324E+03  0.92245152325E+03  0.25500000920E-02 0.  1.
        2   -1    0    0  501    0  0.00000000000E+00  0.00000000000E+00 -0.17161139302E+04  0.17161139302E+04  0.25500000920E-02 0. -1.
    10030    2    1    2    0    0  0.00000000000E+00  0.00000000000E+00 -0.79366240694E+03  0.26385654534E+04  0.25163719192E+04 0.  0.
        1    1    3    3  502    0 -0.61797837392E+03  0.43812229784E+02  0.75143237784E+03  0.97389291023E+03  0.50400001928E-02 0.  1.
       -1    1    3    3    0  502  0.61797837392E+03 -0.43812229784E+02 -0.15450947848E+04  0.16646725432E+04  0.50400001928E-02 0. -1.
</event>
<event>
 5   0  0.3522870E-06  0.2501625E+04  0.7818609E-02  0.8402407E-01
       -1   -1    0    0    0  501  0.00000000000E+00  0.00000000000E+00  0.10746718051E+04  0.10746718051E+04  0.50400001928E-02 0.  1.
        1   -1    0    0  501    0  0.00000000000E+00  0.00000000000E+00 -0.14558226139E+04  0.14558226139E+04  0.50400001928E-02 0. -1.
    10030    2    1    2    0    0  0.00000000000E+00  0.00000000000E+00 -0.38115080879E+03  0.25304944189E+04  0.25016246851E+04 0.  0.
        2    1    3    3  502    0  0.44526096850E+03 -0.20613765848E+03 -0.13544103035E+04  0.14405475815E+04  0.25500000920E-02 0. -1.
       -2    1    3    3    0  502 -0.44526096850E+03  0.20613765848E+03  0.97325949474E+03  0.10899468374E+04  0.25500000920E-02 0.  1.
</event>
<event>
 5   0  0.8407986E-06  0.2502079E+04  0.7818609E-02  0.8402245E-01
        2   -1    0    0  501    0  0.00000000000E+00  0.00000000000E+00  0.15353233230E+04  0.15353233230E+04  0.25500000920E-02 0. -1.
       -2   -1    0    0    0  501  0.00000000000E+00  0.00000000000E+00 -0.10193941476E+04  0.10193941476E+04  0.25500000920E-02 0.  1.
    10030    2    1    2    0    0  0.00000000000E+00  0.00000000000E+00  0.51592917543E+03  0.25547174707E+04  0.25020788239E+04 0.  0.
        5    1    3    3  502    0  0.91639080398E+03 -0.29629422338E+03  0.10732077123E+04  0.14419983551E+04  0.46999998093E+01 0. -1.
       -5    1    3    3    0  502 -0.91639080398E+03  0.29629422338E+03 -0.55727853687E+03  0.11127191155E+04  0.46999998093E+01 0.  1.
</event>
<event>
 5   0  0.3484857E-06  0.2493772E+04  0.7818609E-02  0.8405208E-01
        1   -1    0    0  501    0  0.00000000000E+00  0.00000000000E+00  0.15864773332E+04  0.15864773332E+04  0.50400001928E-02 0.  1.
       -1   -1    0    0    0  501  0.00000000000E+00  0.00000000000E+00 -0.97998535190E+03  0.97998535192E+03  0.50400001928E-02 0. -1.
    10030    2    1    2    0    0  0.00000000000E+00  0.00000000000E+00  0.60649198128E+03  0.25664626851E+04  0.24937718802E+04 0.  0.
        3    1    3    3  502    0  0.16901510951E+03 -0.40949891658E+03  0.15027538771E+04  0.15666922784E+04  0.10100000352E+00 0.  1.
       -3    1    3    3    0  502 -0.16901510951E+03  0.40949891658E+03 -0.89626189584E+03  0.99977040667E+03  0.10100000352E+00 0. -1.
</event>
<event>
 5   0  0.3484857E-06  0.2550897E+04  0.7818609E-02  0.8385074E-01
        1   -1    0    0  501    0  0.00000000000E+00  0.00000000000E+00  0.15693203799E+04  0.15693203800E+04  0.50400001928E-02 0.  1.
       -1   -1    0    0    0  501  0.00000000000E+00  0.00000000000E+00 -0.10366071711E+04  0.10366071711E+04  0.50400001928E-02 0. -1.
    10030    2    1    2    0    0  0.00000000000E+00  0.00000000000E+00  0.53271320884E+03  0.26059275511E+04  0.25508969086E+04 0.  0.
        3    1    3    3  502    0  0.77692301810E+02 -0.11984907532E+04  0.70498225809E+03  0.13926292305E+04  0.10100000352E+00 0.  1.
       -3    1    3    3    0  502 -0.77692301810E+02  0.11984907532E+04 -0.17226904925E+03  0.12132983206E+04  0.10100000352E+00 0. -1.
</event>
<event>
 5   0  0.2901250E-06  0.2499763E+04  0.7818609E-02  0.8403070E-01
       -3   -1    0    0    0  501  0.00000000000E+00  0.00000000000E+00  0.11860942885E+04  0.11860942928E+04  0.10100000352E+00 0.  1.
        3   -1    0    0  501    0  0.00000000000E+00  0.00000000000E+00 -0.13170990847E+04  0.13170990886E+04  0.10100000352E+00 0. -1.
    10030    2    1    2    0    0  0.00000000000E+00  0.00000000000E+00 -0.13100479619E+03  0.25031933814E+04  0.24997629584E+04 0.  0.
        3    1    3    3  502    0 -0.23287386386E+03  0.96303288186E+03 -0.82848049707E+03  0.12915272015E+04  0.10100000352E+00 0. -1.
       -3    1    3    3    0  502  0.23287386386E+03 -0.96303288186E+03  0.69747570088E+03  0.12116661799E+04  0.10100000352E+00 0.  1.
</event>
<event>
 5   0  0.3424193E-06  0.2500798E+04  0.7818609E-02  0.8402701E-01
       -1   -1    0    0    0  501  0.00000000000E+00  0.00000000000E+00  0.82378852538E+03  0.82378852540E+03  0.50400001928E-02 0.  1.
        1   -1    0    0  501    0  0.00000000000E+00  0.00000000000E+00 -0.18979361508E+04  0.18979361508E+04  0.50400001928E-02 0. -1.
    10030    2    1    2    0    0  0.00000000000E+00  0.00000000000E+00 -0.10741476254E+04  0.27217246762E+04  0.25007982909E+04 0.  0.
        1    1    3    3  502    0 -0.85324341041E+03  0.37290269016E+03 -0.14453131315E+04  0.17193053195E+04  0.50400001928E-02 0. -1.
       -1    1    3    3    0  502  0.85324341041E+03 -0.37290269016E+03  0.37116550605E+03  0.10024193567E+04  0.50400001928E-02 0.  1.
</event>
<event>
 5   0  0.3522870E-06  0.2499850E+04  0.7818609E-02  0.8403039E-01
       -1   -1    0    0    0  501  0.00000000000E+00  0.00000000000E+00  0.91253800723E+03  0.91253800724E+03  0.50400001928E-02 0.  1.
        1   -1    0    0  501    0  0.00000000000E+00  0.00000000000E+00 -0.17120521626E+04  0.17120521626E+04  0.50400001928E-02 0. -1.
    10030    2    1    2    0    0  0.00000000000E+00  0.00000000000E+00 -0.79951415541E+03  0.26245901699E+04  0.24998501305E+04 0.  0.
        2    1    3    3  502    0 -0.14976345698E+02  0.79600011284E+03  0.61189686157E+03  0.10041206301E+04  0.25500000920E-02 0.  1.
       -2    1    3    3    0  502  0.14976345698E+02 -0.79600011284E+03 -0.14114110170E+04  0.16204695398E+04  0.25500000920E-02 0. -1.
</event>
<event>
 5   0  0.3642184E-06  0.2510540E+04  0.7818609E-02  0.8399240E-01
        1   -1    0    0  501    0  0.00000000000E+00  0.00000000000E+00  0.14470178416E+04  0.14470178416E+04  0.50400001928E-02 0.  1.
       -1   -1    0    0    0  501  0.00000000000E+00  0.00000000000E+00 -0.10889314881E+04  0.10889314881E+04  0.50400001928E-02 0. -1.
    10030    2    1    2    0    0  0.00000000000E+00  0.00000000000E+00  0.35808635351E+03  0.25359493296E+04  0.25105404131E+04 0.  0.
        5    1    3    3  502    0  0.66722004181E+03 -0.94591249977E+03  0.66949630727E+03  0.13372286405E+04  0.46999998093E+01 0.  1.
       -5    1    3    3    0  502 -0.66722004181E+03  0.94591249977E+03 -0.31140995376E+03  0.11987206892E+04  0.46999998093E+01 0. -1.
</event>
<event>
 5   0  0.8407986E-06  0.2499903E+04  0.7818609E-02  0.8403020E-01
       -2   -1    0    0    0  501  0.00000000000E+00  0.00000000000E+00  0.52818385283E+03  0.52818385284E+03  0.25500000920E-02 0. -1.
        2   -1    0    0  501    0  0.00000000000E+00  0.00000000000E+00 -0.29580205363E+04  0.29580205363E+04  0.25500000920E-02 0.  1.
    10030    2    1    2    0    0  0.00000000000E+00  0.00000000000E+00 -0.24298366834E+04  0.34862043891E+04  0.24999029450E+04 0.  0.
        5    1    3    3  502    0  0.66020228109E+03 -0.94177343918E+03 -0.18974611542E+04  0.22188251811E+04  0.46999998093E+01 0.  1.
       -5    1    3    3    0  502 -0.66020228109E+03  0.94177343918E+03 -0.53237552925E+03  0.12673792080E+04  0.46999998093E+01 0. -1.
</event>
<event>
 5   0  0.3642184E-06  0.2505845E+04  0.7818609E-02  0.8400906E-01
        1   -1    0    0  501    0  0.00000000000E+00  0.00000000000E+00  0.13364364656E+04  0.13364364656E+04  0.50400001928E-02 0. -1.
       -1   -1    0    0    0  501  0.00000000000E+00  0.00000000000E+00 -0.11746269210E+04  0.11746269210E+04  0.50400001928E-02 0.  1.
    10030    2    1    2    0    0  0.00000000000E+00  0.00000000000E+00  0.16180954456E+03  0.25110633866E+04  0.25058445687E+04 0.  0.
        5    1    3    3  502    0 -0.85409558672E+03  0.62321239322E+03 -0.59274465364E+03  0.12121226311E+04  0.46999998093E+01 0.  1.
       -5    1    3    3    0  502  0.85409558672E+03 -0.62321239322E+03  0.75455419820E+03  0.12989407555E+04  0.46999998093E+01 0. -1.
</event>
<event>
 5   0  0.8579923E-06  0.2512409E+04  0.7818609E-02  0.8398578E-01
        2   -1    0    0  501    0  0.00000000000E+00  0.00000000000E+00  0.15704396422E+04  0.15704396422E+04  0.25500000920E-02 0.  1.
       -2   -1    0    0    0  501  0.00000000000E+00  0.00000000000E+00 -0.10048460232E+04  0.10048460232E+04  0.25500000920E-02 0. -1.
    10030    2    1    2    0    0  0.00000000000E+00  0.00000000000E+00  0.56559361901E+03  0.25752856653E+04  0.25124092255E+04 0.  0.
        1    1    3    3  502    0 -0.18713293163E+03  0.11808222689E+04  0.67805056536E+03  0.13744499023E+04  0.50400001928E-02 0.  1.
       -1    1    3    3    0  502  0.18713293163E+03 -0.11808222689E+04 -0.11245694635E+03  0.12008357630E+04  0.50400001928E-02 0. -1.
</event>
<event>
 5   0  0.3424193E-06  0.2504493E+04  0.7818609E-02  0.8401387E-01
       -1   -1    0    0    0  501  0.00000000000E+00  0.00000000000E+00  0.49138575736E+03  0.49138575739E+03  0.50400001928E-02 0. -1.
        1   -1    0    0  501    0  0.00000000000E+00  0.00000000000E+00 -0.31912216089E+04  0.31912216089E+04  0.50400001928E-02 0.  1.
    10030    2    1    2    0    0  0.00000000000E+00  0.00000000000E+00 -0.26998358515E+04  0.36826073663E+04  0.25044926410E+04 0.  0.
        1    1    3    3  502    0  0.49929308224E+02 -0.79445391398E+02 -0.31860451617E+04  0.31874265918E+04  0.50400001928E-02 0.  1.
       -1    1    3    3    0  502 -0.49929308224E+02  0.79445391398E+02  0.48620931017E+03  0.49518077442E+03  0.50400001928E-02 0. -1.
</event>
<event>
 5   0  0.8948286E-06  0.2560764E+04  0.7818609E-02  0.8381652E-01
       -2   -1    0    0    0  501  0.00000000000E+00  0.00000000000E+00  0.73258492426E+03  0.73258492427E+03  0.25500000920E-02 0. -1.
        2   -1    0    0  501    0  0.00000000000E+00  0.00000000000E+00 -0.22377990340E+04  0.22377990340E+04  0.25500000920E-02 0.  1.
    10030    2    1    2    0    0  0.00000000000E+00  0.00000000000E+00 -0.15052141098E+04  0.29703839583E+04  0.25607638203E+04 0.  0.
        4    1    3    3  502    0 -0.37372123674E+03 -0.77211455021E+03  0.34999456833E+03  0.92645898570E+03  0.12699999809E+01 0. -1.
       -4    1    3    3    0  502  0.37372123674E+03  0.77211455021E+03 -0.18552086781E+04  0.20439249726E+04  0.12699999809E+01 0.  1.
</event>
<event>
 5   0  0.8354653E-06  0.2501502E+04  0.7818609E-02  0.8402451E-01
       -2   -1    0    0    0  501  0.00000000000E+00  0.00000000000E+00  0.82946977209E+03  0.82946977209E+03  0.25500000920E-02 0.  1.
        2   -1    0    0  501    0  0.00000000000E+00  0.00000000000E+00 -0.18859971190E+04  0.18859971190E+04  0.25500000920E-02 0. -1.
    10030    2    1    2    0    0  0.00000000000E+00  0.00000000000E+00 -0.10565273469E+04  0.27154668911E+04  0.25015016294E+04 0.  0.
        3    1    3    3  502    0  0.98185466752E+03  0.47561108069E+03  0.13571906509E+03  0.10993926337E+04  0.10100000352E+00 0.  1.
       -3    1    3    3    0  502 -0.98185466752E+03 -0.47561108069E+03 -0.11922464120E+04  0.16160742574E+04  0.10100000352E+00 0. -1.
</event>
<event>
 5   0  0.3484857E-06  0.2503910E+04  0.7818609E-02  0.8401594E-01
        1   -1    0    0  501    0  0.00000000000E+00  0.00000000000E+00  0.10844802888E+04  0.10844802888E+04  0.50400001928E-02 0. -1.
       -1   -1    0    0    0  501  0.00000000000E+00  0.00000000000E+00 -0.14452923287E+04  0.14452923287E+04  0.50400001928E-02 0.  1.
    10030    2    1    2    0    0  0.00000000000E+00  0.00000000000E+00 -0.36081203985E+03  0.25297726175E+04  0.25039097764E+04 0.  0.
        3    1    3    3  502    0 -0.87352659800E+03 -0.38805623108E+03  0.63649646224E+03  0.11483745524E+04  0.10100000352E+00 0. -1.
       -3    1    3    3    0  502  0.87352659800E+03  0.38805623108E+03 -0.99730850209E+03  0.13813980652E+04  0.10100000352E+00 0.  1.
</event>
<event>
 5   0  0.3642184E-06  0.2508695E+04  0.7818609E-02  0.8399894E-01
        1   -1    0    0  501    0  0.00000000000E+00  0.00000000000E+00  0.77982517380E+03  0.77982517382E+03  0.50400001928E-02 0.  1.
       -1   -1    0    0    0  501  0.00000000000E+00  0.00000000000E+00 -0.20176159761E+04  0.20176159761E+04  0.50400001928E-02 0. -1.
    10030    2    1    2    0    0  0.00000000000E+00  0.00000000000E+00 -0.12377908023E+04  0.27974411499E+04  0.25086950626E+04 0.  0.
        5    1    3    3  502    0  0.97166606309E+03  0.22545418240E+03  0.22916667707E+03  0.10234764201E+04  0.46999998093E+01 0.  1.
       -5    1    3    3    0  502 -0.97166606309E+03 -0.22545418240E+03 -0.14669574793E+04  0.17739647298E+04  0.46999998093E+01 0. -1.
</event>
<event>
 5   0  0.3481387E-06  0.2494783E+04  0.7818609E-02  0.8404846E-01
       -1   -1    0    0    0  501  0.00000000000E+00  0.00000000000E+00  0.10193524969E+04  0.10193524969E+04  0.50400001928E-02 0. -1.
        1   -1    0    0  501    0  0.00000000000E+00  0.00000000000E+00 -0.15264449534E+04  0.15264449534E+04  0.50400001928E-02 0.  1.
    10030    2    1    2    0    0  0.00000000000E+00  0.00000000000E+00 -0.50709245649E+03  0.25457974504E+04  0.24947829362E+04 0.  0.
        4    1    3    3  502    0 -0.24721731079E+03 -0.16098646106E+03  0.98324019924E+03  0.10265456355E+04  0.12699999809E+01 0. -1.
       -4    1    3    3    0  502  0.24721731079E+03  0.16098646106E+03 -0.14903326557E+04  0.15192518149E+04  0.12699999809E+01 0.  1.
</event>
<event>
 5   0  0.8354653E-06  0.2505400E+04  0.7818609E-02  0.8401064E-01
       -2   -1    0    0    0  501  0.00000000000E+00  0.00000000000E+00  0.13585832176E+04  0.13585832176E+04  0.25500000920E-02 0.  1.
        2   -1    0    0  501    0  0.00000000000E+00  0.00000000000E+00 -0.11550687427E+04  0.11550687427E+04  0.25500000920E-02 0. -1.
    10030    2    1    2    0    0  0.00000000000E+00  0.00000000000E+00  0.20351447493E+03  0.25136519602E+04  0.25053997756E+04 0.  0.
        3    1    3    3  502    0 -0.51680443127E+03  0.46507891899E+02  0.12456912917E+04  0.13494430735E+04  0.10100000352E+00 0.  1.
       -3    1    3    3    0  502  0.51680443127E+03 -0.46507891899E+02 -0.10421768168E+04  0.11642088867E+04  0.10100000352E+00 0. -1.
</event>
<event>
 5   0  0.8056723E-06  0.2502755E+04  0.7818609E-02  0.8402005E-01
        2   -1    0    0  501    0  0.00000000000E+00  0.00000000000E+00  0.19037209100E+04  0.19037209100E+04  0.25500000920E-02 0.  1.
       -2   -1    0    0    0  501  0.00000000000E+00  0.00000000000E+00 -0.82257097169E+03  0.82257097169E+03  0.25500000920E-02 0. -1.
    10030    2    1    2    0    0  0.00000000000E+00  0.00000000000E+00  0.10811499383E+04  0.27262918817E+04  0.25027549291E+04 0.  0.
        2    1    3    3  502    0  0.36103324823E+03  0.46316674336E+03 -0.66314529526E+03  0.88579349801E+03  0.25500000920E-02 0. -1.
       -2    1    3    3    0  502 -0.36103324823E+03 -0.46316674336E+03  0.17442952335E+04  0.18404983836E+04  0.25500000920E-02 0.  1.
</event>
<event>
 5   0  0.8354653E-06  0.2506669E+04  0.7818609E-02  0.8400613E-01
       -2   -1    0    0    0  501  0.00000000000E+00  0.00000000000E+00  0.65584338833E+03  0.65584338833E+03  0.25500000920E-02 0. -1.
        2   -1    0    0  501    0  0.00000000000E+00  0.00000000000E+00 -0.23951567189E+04  0.23951567189E+04  0.25500000920E-02 0.  1.
    10030    2    1    2    0    0  0.00000000000E+00  0.00000000000E+00 -0.17393133306E+04  0.30510001073E+04  0.25066692627E+04 0.  0.
        3    1    3    3  502    0 -0.61291062240E+03 -0.27492547326E+03  0.41822943106E+03  0.79130228997E+03  0.10100000352E+00 0. -1.
       -3    1    3    3    0  502  0.61291062240E+03  0.27492547326E+03 -0.21575427617E+04  0.22596978173E+04  0.10100000352E+00 0.  1.
</event>
<event>
 5   0  0.8056723E-06  0.2509842E+04  0.7818609E-02  0.8399488E-01
        2   -1    0    0  501    0  0.00000000000E+00  0.00000000000E+00  0.12908307114E+04  0.12908307114E+04  0.25500000920E-02 0. -1.
       -2   -1    0    0    0  501  0.00000000000E+00  0.00000000000E+00 -0.12200098422E+04  0.12200098422E+04  0.25500000920E-02 0.  1.
    10030    2    1    2    0    0  0.00000000000E+00  0.00000000000E+00  0.70820869226E+02  0.25108405536E+04  0.25098415667E+04 0.  0.
        2    1    3    3  502    0 -0.54074196837E+03 -0.61612892948E+02 -0.10958040496E+04  0.12235131957E+04  0.25500000920E-02 0.  1.
       -2    1    3    3    0  502  0.54074196837E+03  0.61612892948E+02  0.11666249189E+04  0.12873273578E+04  0.25500000920E-02 0. -1.
</event>
<event>
 5   0  0.8354653E-06  0.2503242E+04  0.7818609E-02  0.8401831E-01
       -2   -1    0    0    0  501  0.00000000000E+00  0.00000000000E+00  0.72411485219E+03  0.72411485220E+03  0.25500000920E-02 0. -1.
        2   -1    0    0  501    0  0.00000000000E+00  0.00000000000E+00 -0.21634071528E+04  0.21634071528E+04  0.25500000920E-02 0.  1.
    10030    2    1    2    0    0  0.00000000000E+00  0.00000000000E+00 -0.14392923006E+04  0.28875220050E+04  0.25032420983E+04 0.  0.
        3    1    3    3  502    0  0.98388868036E+02 -0.12152294248E+04 -0.10460970539E+04  0.16064812419E+04  0.10100000352E+00 0.  1.
       -3    1    3    3    0  502 -0.98388868036E+02  0.12152294248E+04 -0.39319524668E+03  0.12810407630E+04  0.10100000352E+00 0. -1.
</event>
<event>
 5   0  0.8407986E-06  0.2475025E+04  0.7818609E-02  0.8411937E-01
       -2   -1    0    0    0  501  0.00000000000E+00  0.00000000000E+00  0.83355302591E+03  0.83355302591E+03  0.25500000920E-02 0.  1.
        2   -1    0    0  501    0  0.00000000000E+00  0.00000000000E+00 -0.18372400840E+04  0.18372400840E+04  0.25500000920E-02 0. -1.
    10030    2    1    2    0    0  0.00000000000E+00  0.00000000000E+00 -0.10036870581E+04  0.26707931099E+04  0.24750248737E+04 0.  0.
        5    1    3    3  502    0 -0.73984573841E+03  0.71566233058E+03  0.23941919880E+03  0.10568291872E+04  0.46999998093E+01 0.  1.
       -5    1    3    3    0  502  0.73984573841E+03 -0.71566233058E+03 -0.12431062569E+04  0.16139639228E+04  0.46999998093E+01 0. -1.
</event>
<event>
 5   0  0.8948286E-06  0.2519990E+04  0.7818609E-02  0.8395899E-01
        2   -1    0    0  501    0  0.00000000000E+00  0.00000000000E+00  0.16545786322E+04  0.16545786322E+04  0.25500000920E-02 0. -1.
       -2   -1    0    0    0  501  0.00000000000E+00  0.00000000000E+00 -0.95951138396E+03  0.95951138396E+03  0.25500000920E-02 0.  1.
    10030    2    1    2    0    0  0.00000000000E+00  0.00000000000E+00  0.69506724827E+03  0.26140900162E+04  0.25199897089E+04 0.  0.
        4    1    3    3  502    0  0.60793793540E+02 -0.73457821995E+03  0.14075953661E+04  0.15889076040E+04  0.12699999809E+01 0. -1.
       -4    1    3    3    0  502 -0.60793793540E+02  0.73457821995E+03 -0.71252811785E+03  0.10251824122E+04  0.12699999809E+01 0.  1.
</event>
<event>
 5   0  0.8948286E-06  0.2502360E+04  0.7818609E-02  0.8402145E-01
        2   -1    0    0  501    0  0.00000000000E+00  0.00000000000E+00  0.11449230480E+04  0.11449230480E+04  0.25500000920E-02 0. -1.
       -2   -1    0    0    0  501  0.00000000000E+00  0.00000000000E+00 -0.13672978384E+04  0.13672978384E+04  0.25500000920E-02 0.  1.
    10030    2    1    2    0    0  0.00000000000E+00  0.00000000000E+00 -0.22237479039E+03  0.25122208864E+04  0.25023595334E+04 0.  0.
        4    1    3    3  502    0 -0.95181546312E+03  0.63791966716E+03  0.39334158217E+03  0.12114509444E+04  0.12699999809E+01 0. -1.
       -4    1    3    3    0  502  0.95181546312E+03 -0.63791966716E+03 -0.61571637256E+03  0.13007699420E+04  0.12699999809E+01 0.  1.
</event>
<event>
 5   0  0.3424193E-06  0.2502661E+04  0.7818609E-02  0.8402038E-01
        1   -1    0    0  501    0  0.00000000000E+00  0.00000000000E+00  0.16686896731E+04  0.16686896731E+04  0.50400001928E-02 0. -1.
       -1   -1    0    0    0  501  0.00000000000E+00  0.00000000000E+00 -0.93835763818E+03  0.93835763820E+03  0.50400001928E-02 0.  1.
    10030    2    1    2    0    0  0.00000000000E+00  0.00000000000E+00  0.73033203494E+03  0.26070473113E+04  0.25026607445E+04 0.  0.
        1    1    3    3  502    0  0.25721300494E+03 -0.33062210034E+01 -0.91051789889E+03  0.94615659657E+03  0.50400001928E-02 0.  1.
       -1    1    3    3    0  502 -0.25721300494E+03  0.33062210034E+01  0.16408499338E+04  0.16608907148E+04  0.50400001928E-02 0. -1.
</event>
<event>
 5   0  0.8056723E-06  0.2495352E+04  0.7818609E-02  0.8404643E-01
        2   -1    0    0  501    0  0.00000000000E+00  0.00000000000E+00  0.16963537579E+04  0.16963537579E+04  0.25500000920E-02 0. -1.
       -2   -1    0    0    0  501  0.00000000000E+00  0.00000000000E+00 -0.91767143789E+03  0.91767143789E+03  0.25500000920E-02 0.  1.
    10030    2    1    2    0    0  0.00000000000E+00  0.00000000000E+00  0.77868232003E+03  0.26140251958E+04  0.24953519930E+04 0.  0.
        2    1    3    3  502    0  0.89794365114E+03  0.59472226712E+03 -0.27045224193E+03  0.11104691760E+04  0.25500000920E-02 0.  1.
       -2    1    3    3    0  502 -0.89794365114E+03 -0.59472226712E+03  0.10491345620E+04  0.15035560198E+04  0.25500000920E-02 0. -1.
</event>
<event>
 5   0  0.3642184E-06  0.2495472E+04  0.7818609E-02  0.8404600E-01
        1   -1    0    0  501    0  0.00000000000E+00  0.00000000000E+00  0.73603432093E+03  0.73603432095E+03  0.50400001928E-02 0.  1.
       -1   -1    0    0    0  501  0.00000000000E+00  0.00000000000E+00 -0.21151805879E+04  0.21151805879E+04  0.50400001928E-02 0. -1.
    10030    2    1    2    0    0  0.00000000000E+00  0.00000000000E+00 -0.13791462670E+04  0.28512149089E+04  0.24954723062E+04 0.  0.
        5    1    3    3  502    0  0.21172381603E+03 -0.11196639936E+04 -0.10883468702E+03  0.11447014946E+04  0.46999998093E+01 0. -1.
       -5    1    3    3    0  502 -0.21172381603E+03  0.11196639936E+04 -0.12703115800E+04  0.17065134142E+04  0.46999998093E+01 0.  1.
</event>
<event>
 5   0  0.3481387E-06  0.2497911E+04  0.7818609E-02  0.8403730E-01
        1   -1    0    0  501    0  0.00000000000E+00  0.00000000000E+00  0.93309935550E+03  0.93309935552E+03  0.50400001928E-02 0.  1.
       -1   -1    0    0    0  501  0.00000000000E+00  0.00000000000E+00 -0.16717296047E+04  0.16717296047E+04  0.50400001928E-02 0. -1.
    10030    2    1    2    0    0  0.00000000000E+00  0.00000000000E+00 -0.73863024921E+03  0.26048289602E+04  0.24979109806E+04 0.  0.
        4    1    3    3  502    0  0.11341439286E+04 -0.27211169439E+03  0.96528404733E+02  0.11703190038E+04  0.12699999809E+01 0.  1.
       -4    1    3    3    0  502 -0.11341439286E+04  0.27211169439E+03 -0.83515865394E+03  0.14345099564E+04  0.12699999809E+01 0. -1.
</event>
<event>
 5   0  0.3642184E-06  0.2488579E+04  0.7818609E-02  0.8407066E-01
       -1   -1    0    0    0  501  0.00000000000E+00  0.00000000000E+00  0.91441957553E+03  0.91441957554E+03  0.50400001928E-02 0.  1.
        1   -1    0    0  501    0  0.00000000000E+00  0.00000000000E+00 -0.16931572907E+04  0.16931572907E+04  0.50400001928E-02 0. -1.
    10030    2    1    2    0    0  0.00000000000E+00  0.00000000000E+00 -0.77873771519E+03  0.26075768663E+04  0.24885788483E+04 0.  0.
        5    1    3    3  502    0  0.14125450386E+03  0.95610628913E+03 -0.12105143571E+04  0.15490187765E+04  0.46999998093E+01 0. -1.
       -5    1    3    3    0  502 -0.14125450386E+03 -0.95610628913E+03  0.43177664195E+03  0.10585580898E+04  0.46999998093E+01 0.  1.
</event>
<event>
 5   0  0.8579923E-06  0.2499746E+04  0.7818609E-02  0.8403076E-01
        2   -1    0    0  501    0  0.00000000000E+00  0.00000000000E+00  0.11160903505E+04  0.11160903506E+04  0.25500000920E-02 0.  1.
       -2   -1    0    0    0  501  0.00000000000E+00  0.00000000000E+00 -0.13996915418E+04  0.13996915418E+04  0.25500000920E-02 0. -1.
    10030    2    1    2    0    0  0.00000000000E+00  0.00000000000E+00 -0.28360119125E+03  0.25157818924E+04  0.24997457659E+04 0.  0.
        1    1    3    3  502    0  0.40835957971E+01  0.10259369322E+04 -0.86025619461E+03  0.13388816172E+04  0.50400001928E-02 0. -1.
       -1    1    3    3    0  502 -0.40835957971E+01 -0.10259369322E+04  0.57665500336E+03  0.11769002751E+04  0.50400001928E-02 0.  1.
</event>
<event>
 5   0  0.8354653E-06  0.2552771E+04  0.7818609E-02  0.8384423E-01
        2   -1    0    0  501    0  0.00000000000E+00  0.00000000000E+00  0.15530326735E+04  0.15530326735E+04  0.25500000920E-02 0.  1.
       -2   -1    0    0    0  501  0.00000000000E+00  0.00000000000E+00 -0.10490181034E+04  0.10490181034E+04  0.25500000920E-02 0. -1.
    10030    2    1    2    0    0  0.00000000000E+00  0.00000000000E+00  0.50401457008E+03  0.26020507768E+04  0.25527705652E+04 0.  0.
        3    1    3    3  502    0 -0.94492893509E+01  0.69530839644E+03 -0.83898977513E+03  0.10897003754E+04  0.10100000352E+00 0. -1.
       -3    1    3    3    0  502  0.94492893509E+01 -0.69530839644E+03  0.13430043452E+04  0.15123504014E+04  0.10100000352E+00 0.  1.
</event>
<event>
 5   0  0.8407986E-06  0.2501862E+04  0.7818609E-02  0.8402323E-01
        2   -1    0    0  501    0  0.00000000000E+00  0.00000000000E+00  0.21232489866E+04  0.21232489866E+04  0.25500000920E-02 0.  1.
       -2   -1    0    0    0  501  0.00000000000E+00  0.00000000000E+00 -0.73699688989E+03  0.73699688989E+03  0.25500000920E-02 0. -1.
    10030    2    1    2    0    0  0.00000000000E+00  0.00000000000E+00  0.13862520967E+04  0.28602458765E+04  0.25018616266E+04 0.  0.
        5    1    3    3  502    0 -0.39290024904E+03 -0.12970060575E+03 -0.65649290896E+03  0.77601409932E+03  0.46999998093E+01 0. -1.
       -5    1    3    3    0  502  0.39290024904E+03  0.12970060575E+03  0.20427450057E+04  0.20842317772E+04  0.46999998093E+01 0.  1.
</event>
<event>
 5   0  0.3642184E-06  0.2500496E+04  0.7818609E-02  0.8402809E-01
        1   -1    0    0  501    0  0.00000000000E+00  0.00000000000E+00  0.13110680411E+04  0.13110680412E+04  0.50400001928E-02 0.  1.
       -1   -1    0    0    0  501  0.00000000000E+00  0.00000000000E+00 -0.11922497942E+04  0.11922497942E+04  0.50400001928E-02 0. -1.
    10030    2    1    2    0    0  0.00000000000E+00  0.00000000000E+00  0.11881824693E+03  0.25033178354E+04  0.25004964325E+04 0.  0.
        5    1    3    3  502    0  0.70872393535E+03  0.83822452771E+03 -0.53975471703E+03  0.12232200211E+04  0.46999998093E+01 0.  1.
       -5    1    3    3    0  502 -0.70872393535E+03 -0.83822452771E+03  0.65857296395E+03  0.12800978143E+04  0.46999998093E+01 0. -1.
</event>
<event>
 5   0  0.8354653E-06  0.2504467E+04  0.7818609E-02  0.8401396E-01
       -2   -1    0    0    0  501  0.00000000000E+00  0.00000000000E+00  0.15154709650E+04  0.15154709650E+04  0.25500000920E-02 0. -1.
        2   -1    0    0  501    0  0.00000000000E+00  0.00000000000E+00 -0.10347207470E+04  0.10347207470E+04  0.25500000920E-02 0.  1.
    10030    2    1    2    0    0  0.00000000000E+00  0.00000000000E+00  0.48075021806E+03  0.25501917120E+04  0.25044674076E+04 0.  0.
        3    1    3    3  502    0  0.64193070769E+03  0.74676314758E+03  0.10280343307E+04  0.14235816898E+04  0.10100000352E+00 0. -1.
       -3    1    3    3    0  502 -0.64193070769E+03 -0.74676314758E+03 -0.54728411268E+03  0.11266100223E+04  0.10100000352E+00 0.  1.
</event>
<event>
 5   0  0.8948286E-06  0.2486903E+04  0.7818609E-02  0.8407666E-01
       -2   -1    0    0    0  501  0.00000000000E+00  0.00000000000E+00  0.62953637367E+03  0.62953637367E+03  0.25500000920E-02 0.  1.
        2   -1    0    0  501    0  0.00000000000E+00  0.00000000000E+00 -0.24560487889E+04  0.24560487889E+04  0.25500000920E-02 0. -1.
    10030    2    1    2    0    0  0.00000000000E+00  0.00000000000E+00 -0.18265124152E+04  0.30855851626E+04  0.24869033340E+04 0.  0.
        4    1    3    3  502    0 -0.24016240906E+03 -0.80095984009E+02 -0.24237329039E+04  0.24369193978E+04  0.12699999809E+01 0. -1.
       -4    1    3    3    0  502  0.24016240906E+03  0.80095984009E+02  0.59722048864E+03  0.64866576473E+03  0.12699999809E+01 0.  1.
</event>
<event>
 5   0  0.8407986E-06  0.2501318E+04  0.7818609E-02  0.8402516E-01
        2   -1    0    0  501    0  0.00000000000E+00  0.00000000000E+00  0.14867724656E+04  0.14867724656E+04  0.25500000920E-02 0.  1.
       -2   -1    0    0    0  501  0.00000000000E+00  0.00000000000E+00 -0.10520429468E+04  0.10520429468E+04  0.25500000920E-02 0. -1.
    10030    2    1    2    0    0  0.00000000000E+00  0.00000000000E+00  0.43472951877E+03  0.25388154124E+04  0.25013184411E+04 0.  0.
        5    1    3    3  502    0  0.57708294370E+03  0.81651641911E+03  0.97989425537E+03  0.13999780814E+04  0.46999998093E+01 0.  1.
       -5    1    3    3    0  502 -0.57708294370E+03 -0.81651641911E+03 -0.54516473660E+03  0.11388373311E+04  0.46999998093E+01 0. -1.
</event>
<event>
 5   0  0.3642184E-06  0.2487187E+04  0.7818609E-02  0.8407564E-01
       -1   -1    0    0    0  501  0.00000000000E+00  0.00000000000E+00  0.10402130004E+04  0.10402130005E+04  0.50400001928E-02 0. -1.
        1   -1    0    0  501    0  0.00000000000E+00  0.00000000000E+00 -0.14867389569E+04  0.14867389569E+04  0.50400001928E-02 0.  1.
    10030    2    1    2    0    0  0.00000000000E+00  0.00000000000E+00 -0.44652595642E+03  0.25269519573E+04  0.24871873200E+04 0.  0.
        5    1    3    3  502    0  0.49122123212E+03 -0.55230471083E+03 -0.12393342361E+04  0.14430212165E+04  0.46999998093E+01 0.  1.
       -5    1    3    3    0  502 -0.49122123212E+03  0.55230471083E+03  0.79280827971E+03  0.10839307408E+04  0.46999998093E+01 0. -1.
</event>
<event>
 5   0  0.8354653E-06  0.2496242E+04  0.7818609E-02  0.8404325E-01
       -2   -1    0    0    0  501  0.00000000000E+00  0.00000000000E+00  0.15071725015E+04  0.15071725015E+04  0.25500000920E-02 0. -1.
        2   -1    0    0  501    0  0.00000000000E+00  0.00000000000E+00 -0.10335953433E+04  0.10335953433E+04  0.25500000920E-02 0.  1.
    10030    2    1    2    0    0  0.00000000000E+00  0.00000000000E+00  0.47357715828E+03  0.25407678448E+04  0.24962423593E+04 0.  0.
        3    1    3    3  502    0  0.64623317717E+03 -0.80236684194E+03 -0.48033274255E+03  0.11367187084E+04  0.10100000352E+00 0.  1.
       -3    1    3    3    0  502 -0.64623317717E+03  0.80236684194E+03  0.95390990082E+03  0.14040491364E+04  0.10100000352E+00 0. -1.
</event>
<event>
 5   0  0.8579923E-06  0.2505075E+04  0.7818609E-02  0.8401180E-01
        2   -1    0    0  501    0  0.00000000000E+00  0.00000000000E+00  0.19459479291E+04  0.19459479291E+04  0.25500000920E-02 0.  1.
       -2   -1    0    0    0  501  0.00000000000E+00  0.00000000000E+00 -0.80621401613E+03  0.80621401613E+03  0.25500000920E-02 0. -1.
    10030    2    1    2    0    0  0.00000000000E+00  0.00000000000E+00  0.11397339129E+04  0.27521619452E+04  0.25050752444E+04 0.  0.
        1    1    3    3  502    0 -0.97997132165E+02 -0.14056530574E+03 -0.79327607580E+03  0.81157191644E+03  0.50400001928E-02 0. -1.
       -1    1    3    3    0  502  0.97997132165E+02  0.14056530574E+03  0.19330099887E+04  0.19405900288E+04  0.50400001928E-02 0.  1.
</event>
<event>
 5   0  0.8948286E-06  0.2501417E+04  0.7818609E-02  0.8402481E-01
       -2   -1    0    0    0  501  0.00000000000E+00  0.00000000000E+00  0.12002261067E+04  0.12002261067E+04  0.25500000920E-02 0. -1.
        2   -1    0    0  501    0  0.00000000000E+00  0.00000000000E+00 -0.13033144639E+04  0.13033144639E+04  0.25500000920E-02 0.  1.
    10030    2    1    2    0    0  0.00000000000E+00  0.00000000000E+00 -0.10308835714E+03  0.25035405706E+04  0.25014172342E+04 0.  0.
        4    1    3    3  502    0 -0.53687827744E+03 -0.69014146702E+03 -0.94658339426E+03  0.12886253391E+04  0.12699999809E+01 0.  1.
       -4    1    3    3    0  502  0.53687827744E+03  0.69014146702E+03  0.84349503712E+03  0.12149152315E+04  0.12699999809E+01 0. -1.
</event>
<event>
 5   0  0.8579923E-06  0.2490968E+04  0.7818609E-02  0.8406210E-01
        2   -1    0    0  501    0  0.00000000000E+00  0.00000000000E+00  0.16618744650E+04  0.16618744650E+04  0.25500000920E-02 0.  1.
       -2   -1    0    0    0  501  0.00000000000E+00  0.00000000000E+00 -0.93342175101E+03  0.93342175101E+03  0.25500000920E-02 0. -1.
    10030    2    1    2    0    0  0.00000000000E+00  0.00000000000E+00  0.72845271401E+03  0.25952962160E+04  0.24909675013E+04 0.  0.
        1    1    3    3  502    0  0.13294160306E+03  0.10026010000E+03 -0.92177285410E+03  0.93669138571E+03  0.50400001928E-02 0. -1.
       -1    1    3    3    0  502 -0.13294160306E+03 -0.10026010000E+03  0.16502255681E+04  0.16586048303E+04  0.50400001928E-02 0.  1.
</event>
<event>
 5   0  0.8354653E-06  0.2501887E+04  0.7818609E-02  0.8402314E-01
       -2   -1    0    0    0  501  0.00000000000E+00  0.00000000000E+00  0.73728787892E+03  0.73728787893E+03  0.25500000920E-02 0. -1.
        2   -1    0    0  501    0  0.00000000000E+00  0.00000000000E+00 -0.21224539364E+04  0.21224539364E+04  0.25500000920E-02 0.  1.
    10030    2    1    2    0    0  0.00000000000E+00  0.00000000000E+00 -0.13851660575E+04  0.28597418154E+04  0.25018869366E+04 0.  0.
        3    1    3    3  502    0 -0.11314159029E+04  0.53334065458E+03 -0.71255676216E+03  0.14395455354E+04  0.10100000352E+00 0. -1.
       -3    1    3    3    0  502  0.11314159029E+04 -0.53334065458E+03 -0.67260929535E+03  0.14201962799E+04  0.10100000352E+00 0.  1.
</event>
<event>
 5   0  0.8056723E-06  0.2495440E+04  0.7818609E-02  0.8404612E-01
        2   -1    0    0  501    0  0.00000000000E+00  0.00000000000E+00  0.16507129637E+04  0.16507129637E+04  0.25500000920E-02 0.  1.
       -2   -1    0    0    0  501  0.00000000000E+00  0.00000000000E+00 -0.94311067155E+03  0.94311067155E+03  0.25500000920E-02 0. -1.
    10030    2    1    2    0    0  0.00000000000E+00  0.00000000000E+00  0.70760229218E+03  0.25938236353E+04  0.24954398504E+04 0.  0.
        2    1    3    3  502    0 -0.95636517268E+03 -0.12002568339E+01  0.11867495156E+04  0.15241424464E+04  0.25500000920E-02 0.  1.
       -2    1    3    3    0  502  0.95636517268E+03  0.12002568339E+01 -0.47914722342E+03  0.10696811889E+04  0.25500000920E-02 0. -1.
</event>
<event>
 5   0  0.8579923E-06  0.2499729E+04  0.7818609E-02  0.8403082E-01
        2   -1    0    0  501    0  0.00000000000E+00  0.00000000000E+00  0.13271157915E+04  0.13271157915E+04  0.25500000920E-02 0.  1.
       -2   -1    0    0    0  501  0.00000000000E+00  0.00000000000E+00 -0.11771102798E+04  0.11771102798E+04  0.25500000920E-02 0. -1.
    10030    2    1    2    0    0  0.00000000000E+00  0.00000000000E+00  0.15000551170E+03  0.25042260714E+04  0.24997292979E+04 0.  0.
        1    1    3    3  502    0  0.12482173245E+04 -0.25457706895E+02  0.13399039583E+03  0.12556464511E+04  0.50400001928E-02 0. -1.
       -1    1    3    3    0  502 -0.12482173245E+04  0.25457706895E+02  0.16015115866E+02  0.12485796202E+04  0.50400001928E-02 0.  1.
</event>
<event>
 5   0  0.8056723E-06  0.2499371E+04  0.7818609E-02  0.8403210E-01
       -2   -1    0    0    0  501  0.00000000000E+00  0.00000000000E+00  0.45046795045E+03  0.45046795046E+03  0.25500000920E-02 0.  1.
        2   -1    0    0  501    0  0.00000000000E+00  0.00000000000E+00 -0.34668705399E+04  0.34668705399E+04  0.25500000920E-02 0. -1.
    10030    2    1    2    0    0  0.00000000000E+00  0.00000000000E+00 -0.30164025894E+04  0.39173384903E+04  0.24993711742E+04 0.  0.
        2    1    3    3  502    0 -0.87309689891E+03  0.57008717812E+03 -0.25877449940E+04  0.27899322106E+04  0.25500000920E-02 0. -1.
       -2    1    3    3    0  502  0.87309689891E+03 -0.57008717812E+03 -0.42865759541E+03  0.11274062798E+04  0.25500000920E-02 0.  1.
</event>
<event>
 5   0  0.3424193E-06  0.2501281E+04  0.7818609E-02  0.8402529E-01
        1   -1    0    0  501    0  0.00000000000E+00  0.00000000000E+00  0.18973690354E+04  0.18973690354E+04  0.50400001928E-02 0. -1.
       -1   -1    0    0    0  501  0.00000000000E+00  0.00000000000E+00 -0.82435296770E+03  0.82435296772E+03  0.50400001928E-02 0.  1.
    10030    2    1    2    0    0  0.00000000000E+00  0.00000000000E+00  0.10730160677E+04  0.27217220032E+04  0.25012811079E+04 0.  0.
        1    1    3    3  502    0 -0.52827778037E+03 -0.11203185501E+04  0.72469725915E+03  0.14350530250E+04  0.50400001928E-02 0. -1.
       -1    1    3    3    0  502  0.52827778037E+03  0.11203185501E+04  0.34831880858E+03  0.12866689782E+04  0.50400001928E-02 0.  1.
</event>
<event>
 5   0  0.3522870E-06  0.2513618E+04  0.7818609E-02  0.8398150E-01
       -1   -1    0    0    0  501  0.00000000000E+00  0.00000000000E+00  0.12004714371E+04  0.12004714371E+04  0.50400001928E-02 0. -1.
        1   -1    0    0  501    0  0.00000000000E+00  0.00000000000E+00 -0.13157904237E+04  0.13157904237E+04  0.50400001928E-02 0.  1.
    10030    2    1    2    0    0  0.00000000000E+00  0.00000000000E+00 -0.11531898661E+03  0.25162618608E+04  0.25136179669E+04 0.  0.
        2    1    3    3  502    0  0.21939714073E+03 -0.69386452224E+03 -0.10834254076E+04  0.13051412546E+04  0.25500000920E-02 0.  1.
       -2    1    3    3    0  502 -0.21939714073E+03  0.69386452224E+03  0.96810642098E+03  0.12111206063E+04  0.25500000920E-02 0. -1.
</event>
<event>
 5   0  0.3481387E-06  0.2510717E+04  0.7818609E-02  0.8399178E-01
       -1   -1    0    0    0  501  0.00000000000E+00  0.00000000000E+00  0.13358886665E+04  0.13358886665E+04  0.50400001928E-02 0. -1.
        1   -1    0    0  501    0  0.00000000000E+00  0.00000000000E+00 -0.11796826427E+04  0.11796826427E+04  0.50400001928E-02 0.  1.
    10030    2    1    2    0    0  0.00000000000E+00  0.00000000000E+00  0.15620602379E+03  0.25155713091E+04  0.25107167681E+04 0.  0.
        4    1    3    3  502    0 -0.90687159352E+03 -0.86803157367E+03  0.72786204535E+02  0.12574555040E+04  0.12699999809E+01 0. -1.
       -4    1    3    3    0  502  0.90687159352E+03  0.86803157367E+03  0.83419819256E+02  0.12581158051E+04  0.12699999809E+01 0.  1.
</event>
<event>
 5   0  0.3642184E-06  0.2510476E+04  0.7818609E-02  0.8399263E-01
        1   -1    0    0  501    0  0.00000000000E+00  0.00000000000E+00  0.99003421093E+03  0.99003421095E+03  0.50400001928E-02 0. -1.
       -1   -1    0    0    0  501  0.00000000000E+00  0.00000000000E+00 -0.15914825374E+04  0.15914825375E+04  0.50400001928E-02 0.  1.
    10030    2    1    2    0    0  0.00000000000E+00  0.00000000000E+00 -0.60144832651E+03  0.25815167484E+04  0.25104757782E+04 0.  0.
        5    1    3    3  502    0 -0.92001522877E+03 -0.81367686825E+03 -0.56709498309E+03  0.13528181241E+04  0.46999998093E+01 0.  1.
       -5    1    3    3    0  502  0.92001522877E+03  0.81367686825E+03 -0.34353343427E+02  0.12286986243E+04  0.46999998093E+01 0. -1.
</event>
<event>
 5   0  0.8354653E-06  0.2495959E+04  0.7818609E-02  0.8404427E-01
        2   -1    0    0  501    0  0.00000000000E+00  0.00000000000E+00  0.12238589477E+04  0.12238589477E+04  0.25500000920E-02 0.  1.
       -2   -1    0    0    0  501  0.00000000000E+00  0.00000000000E+00 -0.12725753658E+04  0.12725753658E+04  0.25500000920E-02 0. -1.
    10030    2    1    2    0    0  0.00000000000E+00  0.00000000000E+00 -0.48716418097E+02  0.24964343134E+04  0.24959589323E+04 0.  0.
        3    1    3    3  502    0  0.67358810366E+03  0.21582657016E+03  0.10040159567E+04  0.12281490518E+04  0.10100000352E+00 0.  1.
       -3    1    3    3    0  502 -0.67358810366E+03 -0.21582657016E+03 -0.10527323748E+04  0.12682852617E+04  0.10100000352E+00 0. -1.
</event>
<event>
 5   0  0.8354653E-06  0.2498220E+04  0.7818609E-02  0.8403620E-01
        2   -1    0    0  501    0  0.00000000000E+00  0.00000000000E+00  0.12745530811E+04  0.12745530811E+04  0.25500000920E-02 0. -1.
       -2   -1    0    0    0  501  0.00000000000E+00  0.00000000000E+00 -0.12241750080E+04  0.12241750080E+04  0.25500000920E-02 0.  1.
    10030    2    1    2    0    0  0.00000000000E+00  0.00000000000E+00  0.50378073029E+02  0.24987280891E+04  0.24982201891E+04 0.  0.
        3    1    3    3  502    0 -0.96111692820E+03 -0.13108494492E+03  0.81233506083E+03  0.12652340786E+04  0.10100000352E+00 0. -1.
       -3    1    3    3    0  502  0.96111692820E+03  0.13108494492E+03 -0.76195698780E+03  0.12334940105E+04  0.10100000352E+00 0.  1.
</event>
<event>
 5   0  0.3484857E-06  0.2499509E+04  0.7818609E-02  0.8403161E-01
       -1   -1    0    0    0  501  0.00000000000E+00  0.00000000000E+00  0.13367461452E+04  0.13367461452E+04  0.50400001928E-02 0. -1.
        1   -1    0    0  501    0  0.00000000000E+00  0.00000000000E+00 -0.11684237834E+04  0.11684237834E+04  0.50400001928E-02 0.  1.
    10030    2    1    2    0    0  0.00000000000E+00  0.00000000000E+00  0.16832236179E+03  0.25051699286E+04  0.24995087424E+04 0.  0.
        3    1    3    3  502    0  0.77130214703E+03 -0.31306078448E+03 -0.85013678122E+03  0.11898094863E+04  0.10100000352E+00 0.  1.
       -3    1    3    3    0  502 -0.77130214703E+03  0.31306078448E+03  0.10184591430E+04  0.13153604422E+04  0.10100000352E+00 0. -1.
</event>
<event>
 5   0  0.3481387E-06  0.2526219E+04  0.7818609E-02  0.8393704E-01
       -1   -1    0    0    0  501  0.00000000000E+00  0.00000000000E+00  0.13434096058E+04  0.13434096058E+04  0.50400001928E-02 0.  1.
        1   -1    0    0  501    0  0.00000000000E+00  0.00000000000E+00 -0.11876087988E+04  0.11876087988E+04  0.50400001928E-02 0. -1.
    10030    2    1    2    0    0  0.00000000000E+00  0.00000000000E+00  0.15580080696E+03  0.25310184046E+04  0.25262185719E+04 0.  0.
        4    1    3    3  502    0  0.48928000684E+03  0.83827843140E+03 -0.73192849999E+03  0.12156589142E+04  0.12699999809E+01 0. -1.
       -4    1    3    3    0  502 -0.48928000684E+03 -0.83827843140E+03  0.88772930695E+03  0.13153594904E+04  0.12699999809E+01 0.  1.
</event>
<event>
 5   0  0.3642184E-06  0.2483665E+04  0.7818609E-02  0.8408828E-01
       -1   -1    0    0    0  501  0.00000000000E+00  0.00000000000E+00  0.82754818587E+03  0.82754818589E+03  0.50400001928E-02 0. -1.
        1   -1    0    0  501    0  0.00000000000E+00  0.00000000000E+00 -0.18635140186E+04  0.18635140187E+04  0.50400001928E-02 0.  1.
    10030    2    1    2    0    0  0.00000000000E+00  0.00000000000E+00 -0.10359658328E+04  0.26910622045E+04  0.24836647483E+04 0.  0.
        5    1    3    3  502    0 -0.69793312129E+03 -0.47863632040E+03 -0.15026747354E+04  0.17246033804E+04  0.46999998093E+01 0.  1.
       -5    1    3    3    0  502  0.69793312129E+03  0.47863632040E+03  0.46670890267E+03  0.96645882418E+03  0.46999998093E+01 0. -1.
</event>
<event>
 5   0  0.8948286E-06  0.2497080E+04  0.7818609E-02  0.8404026E-01
       -2   -1    0    0    0  501  0.00000000000E+00  0.00000000000E+00  0.80686935262E+03  0.80686935262E+03  0.25500000920E-02 0. -1.
        2   -1    0    0  501    0  0.00000000000E+00  0.00000000000E+00 -0.19319762979E+04  0.19319762979E+04  0.25500000920E-02 0.  1.
    10030    2    1    2    0    0  0.00000000000E+00  0.00000000000E+00 -0.11251069452E+04  0.27388456505E+04  0.24970802668E+04 0.  0.
        4    1    3    3  502    0  0.14010006372E+03  0.90891075728E+03 -0.14887678319E+04  0.17499080155E+04  0.12699999809E+01 0.  1.
       -4    1    3    3    0  502 -0.14010006372E+03 -0.90891075728E+03  0.36366088663E+03  0.98893763500E+03  0.12699999809E+01 0. -1.
</event>
<event>
 5   0  0.8948286E-06  0.2517753E+04  0.7818609E-02  0.8396688E-01
        2   -1    0    0  501    0  0.00000000000E+00  0.00000000000E+00  0.18320890631E+04  0.18320890631E+04  0.25500000920E-02 0.  1.
       -2   -1    0    0    0  501  0.00000000000E+00  0.00000000000E+00 -0.86500718947E+03  0.86500718947E+03  0.25500000920E-02 0. -1.
    10030    2    1    2    0    0  0.00000000000E+00  0.00000000000E+00  0.96708187368E+03  0.26970962526E+04  0.25177531343E+04 0.  0.
        4    1    3    3  502    0  0.19265254076E+03  0.14137154887E+03  0.18075706943E+04  0.18232976564E+04  0.12699999809E+01 0.  1.
       -4    1    3    3    0  502 -0.19265254076E+03 -0.14137154887E+03 -0.84048882058E+03  0.87379859620E+03  0.12699999809E+01 0. -1.
</event>
<event>
 5   0  0.8354653E-06  0.2493215E+04  0.7818609E-02  0.8405407E-01
        2   -1    0    0  501    0  0.00000000000E+00  0.00000000000E+00  0.17514473702E+04  0.17514473702E+04  0.25500000920E-02 0. -1.
       -2   -1    0    0    0  501  0.00000000000E+00  0.00000000000E+00 -0.88728318006E+03  0.88728318007E+03  0.25500000920E-02 0.  1.
    10030    2    1    2    0    0  0.00000000000E+00  0.00000000000E+00  0.86416419011E+03  0.26387305502E+04  0.24932146256E+04 0.  0.
        3    1    3    3  502    0 -0.25456575393E+03 -0.10566245889E+03 -0.85463073760E+03  0.89797660668E+03  0.10100000352E+00 0.  1.
       -3    1    3    3    0  502  0.25456575393E+03  0.10566245889E+03  0.17187949277E+04  0.17407539436E+04  0.10100000352E+00 0. -1.
</event>
<event>
 5   0  0.3424193E-06  0.2508263E+04  0.7818609E-02  0.8400048E-01
        1   -1    0    0  501    0  0.00000000000E+00  0.00000000000E+00  0.13349116723E+04  0.13349116723E+04  0.50400001928E-02 0. -1.
       -1   -1    0    0    0  501  0.00000000000E+00  0.00000000000E+00 -0.11782394860E+04  0.11782394860E+04  0.50400001928E-02 0.  1.
    10030    2    1    2    0    0  0.00000000000E+00  0.00000000000E+00  0.15667218627E+03  0.25131511583E+04  0.25082628591E+04 0.  0.
        1    1    3    3  502    0 -0.85339946291E+03 -0.47392060067E+03 -0.71057014277E+03  0.12073944289E+04  0.50400001928E-02 0.  1.
       -1    1    3    3    0  502  0.85339946291E+03  0.47392060067E+03  0.86724232904E+03  0.13057567294E+04  0.50400001928E-02 0. -1.
</event>
<event>
 5   0  0.8948286E-06  0.2504076E+04  0.7818609E-02  0.8401535E-01
       -2   -1    0    0    0  501  0.00000000000E+00  0.00000000000E+00  0.89116183212E+03  0.89116183213E+03  0.25500000920E-02 0. -1.
        2   -1    0    0  501    0  0.00000000000E+00  0.00000000000E+00 -0.17590503997E+04  0.17590503997E+04  0.25500000920E-02 0.  1.
    10030    2    1    2    0    0  0.00000000000E+00  0.00000000000E+00 -0.86788856755E+03  0.26502122318E+04  0.25040755396E+04 0.  0.
        4    1    3    3  502    0 -0.33624228210E+03 -0.11251094283E+04 -0.89365120862E+03  0.14756504307E+04  0.12699999809E+01 0. -1.
       -4    1    3    3    0  502  0.33624228210E+03  0.11251094283E+04  0.25762641075E+02  0.11745618011E+04  0.12699999809E+01 0.  1.
</event>
<event>
 5   0  0.3481387E-06  0.2472544E+04  0.7818609E-02  0.8412833E-01
       -1   -1    0    0    0  501  0.00000000000E+00  0.00000000000E+00  0.92996947294E+03  0.92996947296E+03  0.50400001928E-02 0. -1.
        1   -1    0    0  501    0  0.00000000000E+00  0.00000000000E+00 -0.16434603131E+04  0.16434603131E+04  0.50400001928E-02 0.  1.
    10030    2    1    2    0    0  0.00000000000E+00  0.00000000000E+00 -0.71349084018E+03  0.25734297861E+04  0.24725435658E+04 0.  0.
        4    1    3    3  502    0  0.69741211591E+03  0.79867441943E+03  0.30488242483E+03  0.11032766623E+04  0.12699999809E+01 0. -1.
       -4    1    3    3    0  502 -0.69741211591E+03 -0.79867441943E+03 -0.10183732650E+04  0.14701531238E+04  0.12699999809E+01 0.  1.
</event>
<event>
 5   0  0.8579923E-06  0.2508651E+04  0.7818609E-02  0.8399910E-01
       -2   -1    0    0    0  501  0.00000000000E+00  0.00000000000E+00  0.99945250812E+03  0.99945250812E+03  0.25500000920E-02 0.  1.
        2   -1    0    0  501    0  0.00000000000E+00  0.00000000000E+00 -0.15741946140E+04  0.15741946140E+04  0.25500000920E-02 0. -1.
    10030    2    1    2    0    0  0.00000000000E+00  0.00000000000E+00 -0.57474210586E+03  0.25736471221E+04  0.25086512354E+04 0.  0.
        1    1    3    3  502    0  0.14373335868E+03  0.25004375693E+03  0.96497380821E+03  0.10071522275E+04  0.50400001928E-02 0.  1.
       -1    1    3    3    0  502 -0.14373335868E+03 -0.25004375693E+03 -0.15397159141E+04  0.15664948946E+04  0.50400001928E-02 0. -1.
</event>
<event>
 5   0  0.8407986E-06  0.2380733E+04  0.7818609E-02  0.8446752E-01
       -2   -1    0    0    0  501  0.00000000000E+00  0.00000000000E+00  0.68428996502E+03  0.68428996502E+03  0.25500000920E-02 0. -1.
        2   -1    0    0  501    0  0.00000000000E+00  0.00000000000E+00 -0.20707191711E+04  0.20707191711E+04  0.25500000920E-02 0.  1.
    10030    2    1    2    0    0  0.00000000000E+00  0.00000000000E+00 -0.13864292061E+04  0.27550091361E+04  0.23807329536E+04 0.  0.
        5    1    3    3  502    0  0.30406324115E+03 -0.67554784534E+03 -0.17714286130E+04  0.19201043635E+04  0.46999998093E+01 0.  1.
       -5    1    3    3    0  502 -0.30406324115E+03  0.67554784534E+03  0.38499940690E+03  0.83490477258E+03  0.46999998093E+01 0. -1.
</event>
<event>
 5   0  0.3424193E-06  0.2486521E+04  0.7818609E-02  0.8407803E-01
       -1   -1    0    0    0  501  0.00000000000E+00  0.00000000000E+00  0.18502906355E+04  0.18502906355E+04  0.50400001928E-02 0.  1.
        1   -1    0    0  501    0  0.00000000000E+00  0.00000000000E+00 -0.83538063202E+03  0.83538063204E+03  0.50400001928E-02 0. -1.
    10030    2    1    2    0    0  0.00000000000E+00  0.00000000000E+00  0.10149100035E+04  0.26856712675E+04  0.24865212330E+04 0.  0.
        1    1    3    3  502    0 -0.35089101670E+03  0.82938215636E+02  0.17925798818E+04  0.18284818527E+04  0.50400001928E-02 0.  1.
       -1    1    3    3    0  502  0.35089101670E+03 -0.82938215636E+02 -0.77766987830E+03  0.85718941481E+03  0.50400001928E-02 0. -1.
</event>
<event>
 5   0  0.3424193E-06  0.2459915E+04  0.7818609E-02  0.8417407E-01
       -1   -1    0    0    0  501  0.00000000000E+00  0.00000000000E+00  0.10908506897E+04  0.10908506897E+04  0.50400001928E-02 0.  1.
        1   -1    0    0  501    0  0.00000000000E+00  0.00000000000E+00 -0.13868036536E+04  0.13868036536E+04  0.50400001928E-02 0. -1.
    10030    2    1    2    0    0  0.00000000000E+00  0.00000000000E+00 -0.29595296393E+03  0.24776543433E+04  0.24599152197E+04 0.  0.
        1    1    3    3  502    0  0.32330561408E+03  0.59718896365E+03 -0.11808639307E+04  0.13622043904E+04  0.50400001928E-02 0. -1.
       -1    1    3    3    0  502 -0.32330561408E+03 -0.59718896365E+03  0.88491096674E+03  0.11154499529E+04  0.50400001928E-02 0.  1.
</event>
<event>
 5   0  0.3481387E-06  0.2496628E+04  0.7818609E-02  0.8404188E-01
       -1   -1    0    0    0  501  0.00000000000E+00  0.00000000000E+00  0.14355092673E+04  0.14355092673E+04  0.50400001928E-02 0.  1.
        1   -1    0    0  501    0  0.00000000000E+00  0.00000000000E+00 -0.10855296300E+04  0.10855296300E+04  0.50400001928E-02 0. -1.
    10030    2    1    2    0    0  0.00000000000E+00  0.00000000000E+00  0.34997963728E+03  0.25210388973E+04  0.24966280010E+04 0.  0.
        4    1    3    3  502    0 -0.58729693479E+03 -0.82813779336E+03 -0.55844264885E+03  0.11587017301E+04  0.12699999809E+01 0. -1.
       -4    1    3    3    0  502  0.58729693479E+03  0.82813779336E+03  0.90842228613E+03  0.13623371672E+04  0.12699999809E+01 0.  1.
</event>
<event>
 5   0  0.8948286E-06  0.2504407E+04  0.7818609E-02  0.8401417E-01
        2   -1    0    0  501    0  0.00000000000E+00  0.00000000000E+00  0.12834307423E+04  0.12834307423E+04  0.25500000920E-02 0.  1.
       -2   -1    0    0    0  501  0.00000000000E+00  0.00000000000E+00 -0.12217361234E+04  0.12217361234E+04  0.25500000920E-02 0. -1.
    10030    2    1    2    0    0  0.00000000000E+00  0.00000000000E+00  0.61694618891E+02  0.25051668657E+04  0.25044070753E+04 0.  0.
        4    1    3    3  502    0  0.62467496523E+03  0.10637741369E+04  0.24580284793E+03  0.12578771321E+04  0.12699999809E+01 0.  1.
       -4    1    3    3    0  502 -0.62467496523E+03 -0.10637741369E+04 -0.18410822904E+03  0.12472897336E+04  0.12699999809E+01 0. -1.
</event>
<event>
 5   0  0.3424193E-06  0.2504494E+04  0.7818609E-02  0.8401386E-01
        1   -1    0    0  501    0  0.00000000000E+00  0.00000000000E+00  0.11408231120E+04  0.11408231120E+04  0.50400001928E-02 0.  1.
       -1   -1    0    0    0  501  0.00000000000E+00  0.00000000000E+00 -0.13745533127E+04  0.13745533128E+04  0.50400001928E-02 0. -1.
    10030    2    1    2    0    0  0.00000000000E+00  0.00000000000E+00 -0.23373020077E+03  0.25153764247E+04  0.25044937116E+04 0.  0.
        1    1    3    3  502    0  0.77891278769E+02 -0.10835472254E+04  0.50872233272E+03  0.11995582741E+04  0.50400001928E-02 0.  1.
       -1    1    3    3    0  502 -0.77891278769E+02  0.10835472254E+04 -0.74245253350E+03  0.13158181507E+04  0.50400001928E-02 0. -1.
</event>
<event>
 5   0  0.8579923E-06  0.2496921E+04  0.7818609E-02  0.8404083E-01
        2   -1    0    0  501    0  0.00000000000E+00  0.00000000000E+00  0.11178115426E+04  0.11178115426E+04  0.25500000920E-02 0. -1.
       -2   -1    0    0    0  501  0.00000000000E+00  0.00000000000E+00 -0.13943800757E+04  0.13943800757E+04  0.25500000920E-02 0.  1.
    10030    2    1    2    0    0  0.00000000000E+00  0.00000000000E+00 -0.27656853310E+03  0.25121916182E+04  0.24969214191E+04 0.  0.
        1    1    3    3  502    0  0.94023442068E+03 -0.52122829654E+03  0.50036891838E+03  0.11857861348E+04  0.50400001928E-02 0. -1.
       -1    1    3    3    0  502 -0.94023442068E+03  0.52122829654E+03 -0.77693745148E+03  0.13264054834E+04  0.50400001928E-02 0.  1.
</event>
<event>
 5   0  0.2901250E-06  0.2478839E+04  0.7818609E-02  0.8410563E-01
        3   -1    0    0  501    0  0.00000000000E+00  0.00000000000E+00  0.84266689564E+03  0.84266690169E+03  0.10100000352E+00 0.  1.
       -3   -1    0    0    0  501  0.00000000000E+00  0.00000000000E+00 -0.18229748193E+04  0.18229748221E+04  0.10100000352E+00 0. -1.
    10030    2    1    2    0    0  0.00000000000E+00  0.00000000000E+00 -0.98030792364E+03  0.26656417238E+04  0.24788388762E+04 0.  0.
        5    1    3    3  502    0 -0.64302575267E+03 -0.10254493461E+04 -0.77691407142E+03  0.14382788479E+04  0.46999998093E+01 0. -1.
       -5    1    3    3    0  502  0.64302575267E+03  0.10254493461E+04 -0.20339385222E+03  0.12273628759E+04  0.46999998093E+01 0.  1.
</event>
<event>
 5   0  0.3642184E-06  0.2514410E+04  0.7818609E-02  0.8397870E-01
        1   -1    0    0  501    0  0.00000000000E+00  0.00000000000E+00  0.11865814004E+04  0.11865814004E+04  0.50400001928E-02 0. -1.
       -1   -1    0    0    0  501  0.00000000000E+00  0.00000000000E+00 -0.13320317759E+04  0.13320317760E+04  0.50400001928E-02 0.  1.
    10030    2    1    2    0    0  0.00000000000E+00  0.00000000000E+00 -0.14545037552E+03  0.25186131764E+04  0.25144097758E+04 0.  0.
        5    1    3    3  502    0  0.12069649105E+04  0.22922389995E+03  0.19461825348E+03  0.12438674552E+04  0.46999998093E+01 0. -1.
       -5    1    3    3    0  502 -0.12069649105E+04 -0.22922389995E+03 -0.34006862900E+03  0.12747457212E+04  0.46999998093E+01 0.  1.
</event>
<event>
 5   0  0.8354653E-06  0.2500784E+04  0.7818609E-02  0.8402706E-01
       -2   -1    0    0    0  501  0.00000000000E+00  0.00000000000E+00  0.10993392212E+04  0.10993392212E+04  0.25500000920E-02 0.  1.
        2   -1    0    0  501    0  0.00000000000E+00  0.00000000000E+00 -0.14222003068E+04  0.14222003068E+04  0.25500000920E-02 0. -1.
    10030    2    1    2    0    0  0.00000000000E+00  0.00000000000E+00 -0.32286108563E+03  0.25215395280E+04  0.25007843391E+04 0.  0.
        3    1    3    3  502    0 -0.40215820584E+03 -0.76822317024E+03  0.74692501563E+03  0.11444627783E+04  0.10100000352E+00 0.  1.
       -3    1    3    3    0  502  0.40215820584E+03  0.76822317024E+03 -0.10697861013E+04  0.13770767497E+04  0.10100000352E+00 0. -1.
</event>
<event>
 5   0  0.3424193E-06  0.2484469E+04  0.7818609E-02  0.8408539E-01
        1   -1    0    0  501    0  0.00000000000E+00  0.00000000000E+00  0.21314900202E+04  0.21314900202E+04  0.50400001928E-02 0. -1.
       -1   -1    0    0    0  501  0.00000000000E+00  0.00000000000E+00 -0.72397577695E+03  0.72397577697E+03  0.50400001928E-02 0.  1.
    10030    2    1    2    0    0  0.00000000000E+00  0.00000000000E+00  0.14075142432E+04  0.28554657972E+04  0.24844694753E+04 0.  0.
        1    1    3    3  502    0 -0.26808751598E+03 -0.97528373235E+03 -0.12511175833E+03  0.10191674185E+04  0.50400001928E-02 0.  1.
       -1    1    3    3    0  502  0.26808751598E+03  0.97528373235E+03  0.15326260016E+04  0.18362983787E+04  0.50400001928E-02 0. -1.
</event>
<event>
 5   0  0.3642184E-06  0.2493319E+04  0.7818609E-02  0.8405369E-01
        1   -1    0    0  501    0  0.00000000000E+00  0.00000000000E+00  0.92283906448E+03  0.92283906449E+03  0.50400001928E-02 0.  1.
       -1   -1    0    0    0  501  0.00000000000E+00  0.00000000000E+00 -0.16841075577E+04  0.16841075577E+04  0.50400001928E-02 0. -1.
    10030    2    1    2    0    0  0.00000000000E+00  0.00000000000E+00 -0.76126849325E+03  0.26069466222E+04  0.24933192680E+04 0.  0.
        5    1    3    3  502    0  0.10070294636E+03  0.81843762171E+02  0.91574888454E+03  0.92490950604E+03  0.46999998093E+01 0.  1.
       -5    1    3    3    0  502 -0.10070294636E+03 -0.81843762171E+02 -0.16770173778E+04  0.16820371162E+04  0.46999998093E+01 0. -1.
</event>
<event>
 5   0  0.8407986E-06  0.2499909E+04  0.7818609E-02  0.8403018E-01
        2   -1    0    0  501    0  0.00000000000E+00  0.00000000000E+00  0.19347850855E+04  0.19347850855E+04  0.25500000920E-02 0. -1.
       -2   -1    0    0    0  501  0.00000000000E+00  0.00000000000E+00 -0.80752476358E+03  0.80752476358E+03  0.25500000920E-02 0.  1.
    10030    2    1    2    0    0  0.00000000000E+00  0.00000000000E+00  0.11272603219E+04  0.27423098490E+04  0.24999094933E+04 0.  0.
        5    1    3    3  502    0  0.12362481993E+04  0.46710804872E+02  0.75947202864E+03  0.14516581422E+04  0.46999998093E+01 0. -1.
       -5    1    3    3    0  502 -0.12362481993E+04 -0.46710804872E+02  0.36778829325E+03  0.12906517068E+04  0.46999998093E+01 0.  1.
</event>
<event>
 5   0  0.3424193E-06  0.2575921E+04  0.7818609E-02  0.8376427E-01
        1   -1    0    0  501    0  0.00000000000E+00  0.00000000000E+00  0.12134648243E+04  0.12134648243E+04  0.50400001928E-02 0.  1.
       -1   -1    0    0    0  501  0.00000000000E+00  0.00000000000E+00 -0.13670295873E+04  0.13670295873E+04  0.50400001928E-02 0. -1.
    10030    2    1    2    0    0  0.00000000000E+00  0.00000000000E+00 -0.15356476302E+03  0.25804944116E+04  0.25759210531E+04 0.  0.
        1    1    3    3  502    0  0.63229908280E+02  0.12098771949E+04  0.36107653681E+03  0.12641902995E+04  0.50400001928E-02 0.  1.
       -1    1    3    3    0  502 -0.63229908280E+02 -0.12098771949E+04 -0.51464129982E+03  0.13163041121E+04  0.50400001928E-02 0. -1.
</event>
<event>
 5   0  0.3642184E-06  0.2509698E+04  0.7818609E-02  0.8399539E-01
        1   -1    0    0  501    0  0.00000000000E+00  0.00000000000E+00  0.16781611404E+04  0.16781611404E+04  0.50400001928E-02 0. -1.
       -1   -1    0    0    0  501  0.00000000000E+00  0.00000000000E+00 -0.93831667882E+03  0.93831667883E+03  0.50400001928E-02 0.  1.
    10030    2    1    2    0    0  0.00000000000E+00  0.00000000000E+00  0.73984446156E+03  0.26164778192E+04  0.25096984582E+04 0.  0.
        5    1    3    3  502    0 -0.65476120814E+03  0.14611693029E+03 -0.73565028855E+03  0.99562333944E+03  0.46999998093E+01 0.  1.
       -5    1    3    3    0  502  0.65476120814E+03 -0.14611693029E+03  0.14754947501E+04  0.16208544798E+04  0.46999998093E+01 0. -1.
</event>
<event>
 5   0  0.3484857E-06  0.2480037E+04  0.7818609E-02  0.8410132E-01
        1   -1    0    0  501    0  0.00000000000E+00  0.00000000000E+00  0.16390229682E+04  0.16390229682E+04  0.50400001928E-02 0. -1.
       -1   -1    0    0    0  501  0.00000000000E+00  0.00000000000E+00 -0.93814771804E+03  0.93814771806E+03  0.50400001928E-02 0.  1.
    10030    2    1    2    0    0  0.00000000000E+00  0.00000000000E+00  0.70087525016E+03  0.25771706863E+04  0.24800368203E+04 0.  0.
        3    1    3    3  502    0 -0.98445763855E+03  0.37806556949E+03  0.10283335457E+04  0.14729427377E+04  0.10100000352E+00 0.  1.
       -3    1    3    3    0  502  0.98445763855E+03 -0.37806556949E+03 -0.32745829559E+03  0.11042279486E+04  0.10100000352E+00 0. -1.
</event>
<event>
 5   0  0.8948286E-06  0.2473071E+04  0.7818609E-02  0.8412642E-01
       -2   -1    0    0    0  501  0.00000000000E+00  0.00000000000E+00  0.80662366633E+03  0.80662366633E+03  0.25500000920E-02 0. -1.
        2   -1    0    0  501    0  0.00000000000E+00  0.00000000000E+00 -0.18955802554E+04  0.18955802554E+04  0.25500000920E-02 0.  1.
    10030    2    1    2    0    0  0.00000000000E+00  0.00000000000E+00 -0.10889565891E+04  0.27022039217E+04  0.24730708809E+04 0.  0.
        4    1    3    3  502    0  0.83817004230E+03 -0.15999983827E+03  0.43336172114E+03  0.95704386645E+03  0.12699999809E+01 0. -1.
       -4    1    3    3    0  502 -0.83817004230E+03  0.15999983827E+03 -0.15223183102E+04  0.17451600553E+04  0.12699999809E+01 0.  1.
</event>
<event>
 5   0  0.3522870E-06  0.2504715E+04  0.7818609E-02  0.8401308E-01
        1   -1    0    0  501    0  0.00000000000E+00  0.00000000000E+00  0.14087008789E+04  0.14087008789E+04  0.50400001928E-02 0. -1.
       -1   -1    0    0    0  501  0.00000000000E+00  0.00000000000E+00 -0.11133659902E+04  0.11133659902E+04  0.50400001928E-02 0.  1.
    10030    2    1    2    0    0  0.00000000000E+00  0.00000000000E+00  0.29533488865E+03  0.25220668691E+04  0.25047152724E+04 0.  0.
        2    1    3    3  502    0 -0.10688233317E+04 -0.36431169947E+03  0.69298479883E+03  0.13248902823E+04  0.25500000920E-02 0. -1.
       -2    1    3    3    0  502  0.10688233317E+04  0.36431169947E+03 -0.39764991018E+03  0.11971765868E+04  0.25500000920E-02 0.  1.
</event>
<event>
 5   0  0.2901250E-06  0.2499238E+04  0.7818609E-02  0.8403257E-01
       -3   -1    0    0    0  501  0.00000000000E+00  0.00000000000E+00  0.11186129906E+04  0.11186129952E+04  0.10100000352E+00 0.  1.
        3   -1    0    0  501    0  0.00000000000E+00  0.00000000000E+00 -0.13959680881E+04  0.13959680918E+04  0.10100000352E+00 0. -1.
    10030    2    1    2    0    0  0.00000000000E+00  0.00000000000E+00 -0.27735509751E+03  0.25145810870E+04  0.24992383225E+04 0.  0.
        1    1    3    3  502    0  0.83408422680E+02 -0.11366410412E+04  0.37695098445E+03  0.12004173717E+04  0.50400001928E-02 0.  1.
       -1    1    3    3    0  502 -0.83408422680E+02  0.11366410412E+04 -0.65430608196E+03  0.13141637153E+04  0.50400001928E-02 0. -1.
</event>
<event>
 5   0  0.8579923E-06  0.2499303E+04  0.7818609E-02  0.8403234E-01
       -2   -1    0    0    0  501  0.00000000000E+00  0.00000000000E+00  0.78252952896E+03  0.78252952897E+03  0.25500000920E-02 0. -1.
        2   -1    0    0  501    0  0.00000000000E+00  0.00000000000E+00 -0.19956167288E+04  0.19956167288E+04  0.25500000920E-02 0.  1.
    10030    2    1    2    0    0  0.00000000000E+00  0.00000000000E+00 -0.12130871998E+04  0.27781462577E+04  0.24993031179E+04 0.  0.
        1    1    3    3  502    0  0.66625497050E+03 -0.88786768474E+03 -0.12445337821E+04  0.16676537549E+04  0.50400001928E-02 0.  1.
       -1    1    3    3    0  502 -0.66625497050E+03  0.88786768474E+03  0.31446582315E+02  0.11104925028E+04  0.50400001928E-02 0. -1.
</event>
<event>
 5   0  0.8948286E-06  0.2511711E+04  0.7818609E-02  0.8398825E-01
        2   -1    0    0  501    0  0.00000000000E+00  0.00000000000E+00  0.17781080082E+04  0.17781080082E+04  0.25500000920E-02 0.  1.
       -2   -1    0    0    0  501  0.00000000000E+00  0.00000000000E+00 -0.88699499556E+03  0.88699499557E+03  0.25500000920E-02 0. -1.
    10030    2    1    2    0    0  0.00000000000E+00  0.00000000000E+00  0.89111301266E+03  0.26651030038E+04  0.25117108949E+04 0.  0.
        4    1    3    3  502    0 -0.40451162418E+03  0.53371190544E+03  0.15728378286E+04  0.17094731645E+04  0.12699999809E+01 0.  1.
       -4    1    3    3    0  502  0.40451162418E+03 -0.53371190544E+03 -0.68172481597E+03  0.95562983928E+03  0.12699999809E+01 0. -1.
</event>
<event>
 5   0  0.8948286E-06  0.2465309E+04  0.7818609E-02  0.8415450E-01
       -2   -1    0    0    0  501  0.00000000000E+00  0.00000000000E+00  0.95282316642E+03  0.95282316642E+03  0.25500000920E-02 0. -1.
        2   -1    0    0  501    0  0.00000000000E+00  0.00000000000E+00 -0.15946683786E+04  0.15946683786E+04  0.25500000920E-02 0.  1.
    10030    2    1    2    0    0  0.00000000000E+00  0.00000000000E+00 -0.64184521222E+03  0.25474915451E+04  0.24653088844E+04 0.  0.
        4    1    3    3  502    0 -0.46962196193E+02  0.73986729673E+03 -0.13385490601E+04  0.15301386421E+04  0.12699999809E+01 0.  1.
       -4    1    3    3    0  502  0.46962196193E+02 -0.73986729673E+03  0.69670384792E+03  0.10173529030E+04  0.12699999809E+01 0. -1.
</event>
<event>
 5   0  0.8056723E-06  0.2503277E+04  0.7818609E-02  0.8401819E-01
        2   -1    0    0  501    0  0.00000000000E+00  0.00000000000E+00  0.87004527844E+03  0.87004527844E+03  0.25500000920E-02 0.  1.
       -2   -1    0    0    0  501  0.00000000000E+00  0.00000000000E+00 -0.18005953142E+04  0.18005953142E+04  0.25500000920E-02 0. -1.
    10030    2    1    2    0    0  0.00000000000E+00  0.00000000000E+00 -0.93055003575E+03  0.26706405926E+04  0.25032774129E+04 0.  0.
        2    1    3    3  502    0  0.25498623610E+03 -0.93239604219E+03  0.38300701448E+03  0.10397474372E+04  0.25500000920E-02 0.  1.
       -2    1    3    3    0  502 -0.25498623610E+03  0.93239604219E+03 -0.13135570502E+04  0.16308931554E+04  0.25500000920E-02 0. -1.
</event>
<event>
 5   0  0.8354653E-06  0.2495191E+04  0.7818609E-02  0.8404701E-01
       -2   -1    0    0    0  501  0.00000000000E+00  0.00000000000E+00  0.15729112143E+04  0.15729112143E+04  0.25500000920E-02 0.  1.
        2   -1    0    0  501    0  0.00000000000E+00  0.00000000000E+00 -0.98956255251E+03  0.98956255251E+03  0.25500000920E-02 0. -1.
    10030    2    1    2    0    0  0.00000000000E+00  0.00000000000E+00  0.58334866179E+03  0.25624737668E+04  0.24951906028E+04 0.  0.
        3    1    3    3  502    0  0.12322547190E+04 -0.19069988037E+03  0.24963281989E+03  0.12716661087E+04  0.10100000352E+00 0. -1.
       -3    1    3    3    0  502 -0.12322547190E+04  0.19069988037E+03  0.33371584190E+03  0.12908076581E+04  0.10100000352E+00 0.  1.
</event>
<event>
 5   0  0.3484857E-06  0.2504117E+04  0.7818609E-02  0.8401520E-01
        1   -1    0    0  501    0  0.00000000000E+00  0.00000000000E+00  0.11628751693E+04  0.11628751693E+04  0.50400001928E-02 0.  1.
       -1   -1    0    0    0  501  0.00000000000E+00  0.00000000000E+00 -0.13480819954E+04  0.13480819954E+04  0.50400001928E-02 0. -1.
    10030    2    1    2    0    0  0.00000000000E+00  0.00000000000E+00 -0.18520682613E+03  0.25109571647E+04  0.25041174722E+04 0.  0.
        3    1    3    3  502    0  0.10358041077E+03  0.30163724705E+02  0.11582059418E+04  0.11632195690E+04  0.10100000352E+00 0.  1.
       -3    1    3    3    0  502 -0.10358041077E+03 -0.30163724705E+02 -0.13434127679E+04  0.13477375958E+04  0.10100000352E+00 0. -1.
</event>
<event>
 5   0  0.3481387E-06  0.2498084E+04  0.7818609E-02  0.8403668E-01
        1   -1    0    0  501    0  0.00000000000E+00  0.00000000000E+00  0.19186380151E+04  0.19186380151E+04  0.50400001928E-02 0.  1.
       -1   -1    0    0    0  501  0.00000000000E+00  0.00000000000E+00 -0.81313189962E+03  0.81313189963E+03  0.50400001928E-02 0. -1.
    10030    2    1    2    0    0  0.00000000000E+00  0.00000000000E+00  0.11055061155E+04  0.27317699147E+04  0.24980838848E+04 0.  0.
        4    1    3    3  502    0 -0.51449542360E+03  0.49736807004E+03 -0.56674317391E+03  0.91284170373E+03  0.12699999809E+01 0. -1.
       -4    1    3    3    0  502  0.51449542360E+03 -0.49736807004E+03  0.16722492894E+04  0.18189282110E+04  0.12699999809E+01 0.  1.
</event>
<event>
 5   0  0.8354653E-06  0.2502268E+04  0.7818609E-02  0.8402178E-01
        2   -1    0    0  501    0  0.00000000000E+00  0.00000000000E+00  0.14337244477E+04  0.14337244477E+04  0.25500000920E-02 0. -1.
       -2   -1    0    0    0  501  0.00000000000E+00  0.00000000000E+00 -0.10917973468E+04  0.10917973468E+04  0.25500000920E-02 0.  1.
    10030    2    1    2    0    0  0.00000000000E+00  0.00000000000E+00  0.34192710095E+03  0.25255217945E+04  0.25022682094E+04 0.  0.
        3    1    3    3  502    0  0.11862039646E+04 -0.28947215878E+03  0.44637769962E+03  0.13000488596E+04  0.10100000352E+00 0. -1.
       -3    1    3    3    0  502 -0.11862039646E+04  0.28947215878E+03 -0.10445059867E+03  0.12254729349E+04  0.10100000352E+00 0.  1.
</event>
<event>
 5   0  0.8056723E-06  0.2513578E+04  0.7818609E-02  0.8398164E-01
       -2   -1    0    0    0  501  0.00000000000E+00  0.00000000000E+00  0.54500370908E+03  0.54500370908E+03  0.25500000920E-02 0.  1.
        2   -1    0    0  501    0  0.00000000000E+00  0.00000000000E+00 -0.28981802403E+04  0.28981802403E+04  0.25500000920E-02 0. -1.
    10030    2    1    2    0    0  0.00000000000E+00  0.00000000000E+00 -0.23531765312E+04  0.34431839494E+04  0.25135783103E+04 0.  0.
        2    1    3    3  502    0  0.98773543164E+03  0.70698398877E+02 -0.22366831928E+04  0.24460930586E+04  0.25500000920E-02 0. -1.
       -2    1    3    3    0  502 -0.98773543164E+03 -0.70698398877E+02 -0.11649333842E+03  0.99709089075E+03  0.25500000920E-02 0.  1.
</event>
<event>
 5   0  0.3424193E-06  0.2498675E+04  0.7818609E-02  0.8403458E-01
       -1   -1    0    0    0  501  0.00000000000E+00  0.00000000000E+00  0.11068386903E+04  0.11068386903E+04  0.50400001928E-02 0.  1.
        1   -1    0    0  501    0  0.00000000000E+00  0.00000000000E+00 -0.14101817706E+04  0.14101817706E+04  0.50400001928E-02 0. -1.
    10030    2    1    2    0    0  0.00000000000E+00  0.00000000000E+00 -0.30334308025E+03  0.25170204609E+04  0.24986746439E+04 0.  0.
        1    1    3    3  502    0  0.40468372097E+03 -0.99976312404E+03 -0.78681540869E+03  0.13350556938E+04  0.50400001928E-02 0. -1.
       -1    1    3    3    0  502 -0.40468372097E+03  0.99976312404E+03  0.48347232845E+03  0.11819647671E+04  0.50400001928E-02 0.  1.
</event>
<event>
 5   0  0.8579923E-06  0.2499783E+04  0.7818609E-02  0.8403063E-01
        2   -1    0    0  501    0  0.00000000000E+00  0.00000000000E+00  0.96449980123E+03  0.96449980123E+03  0.25500000920E-02 0. -1.
       -2   -1    0    0    0  501  0.00000000000E+00  0.00000000000E+00 -0.16197292401E+04  0.16197292401E+04  0.25500000920E-02 0.  1.
    10030    2    1    2    0    0  0.00000000000E+00  0.00000000000E+00 -0.65522943886E+03  0.25842290413E+04  0.24997828147E+04 0.  0.
        1    1    3    3  502    0  0.85755313751E+03 -0.32219946567E+02  0.61181507281E+03  0.10539227638E+04  0.50400001928E-02 0. -1.
       -1    1    3    3    0  502 -0.85755313751E+03  0.32219946567E+02 -0.12670445117E+04  0.15303062776E+04  0.50400001928E-02 0.  1.
</event>
<event>
 5   0  0.3522870E-06  0.2508937E+04  0.7818609E-02  0.8399808E-01
       -1   -1    0    0    0  501  0.00000000000E+00  0.00000000000E+00  0.51625751822E+03  0.51625751825E+03  0.50400001928E-02 0. -1.
        1   -1    0    0  501    0  0.00000000000E+00  0.00000000000E+00 -0.30482688350E+04  0.30482688350E+04  0.50400001928E-02 0.  1.
    10030    2    1    2    0    0  0.00000000000E+00  0.00000000000E+00 -0.25320113167E+04  0.35645263532E+04  0.25089373875E+04 0.  0.
        2    1    3    3  502    0 -0.32632752609E+03 -0.10453419395E+04 -0.39661284757E+03  0.11647021832E+04  0.25500000920E-02 0. -1.
       -2    1    3    3    0  502  0.32632752609E+03  0.10453419395E+04 -0.21353984692E+04  0.23998241700E+04  0.25500000920E-02 0.  1.
</event>
<event>
 5   0  0.8407986E-06  0.2497676E+04  0.7818609E-02  0.8403814E-01
       -2   -1    0    0    0  501  0.00000000000E+00  0.00000000000E+00  0.11131791470E+04  0.11131791470E+04  0.25500000920E-02 0.  1.
        2   -1    0    0  501    0  0.00000000000E+00  0.00000000000E+00 -0.14010285750E+04  0.14010285750E+04  0.25500000920E-02 0. -1.
    10030    2    1    2    0    0  0.00000000000E+00  0.00000000000E+00 -0.28784942799E+03  0.25142077221E+04  0.24976755547E+04 0.  0.
        5    1    3    3  502    0 -0.10461368560E+04 -0.67877280684E+03 -0.21099046984E+03  0.12647821604E+04  0.46999998093E+01 0. -1.
       -5    1    3    3    0  502  0.10461368560E+04  0.67877280684E+03 -0.76858958154E+02  0.12494255617E+04  0.46999998093E+01 0.  1.
</event>
<event>
 5   0  0.3522870E-06  0.2497182E+04  0.7818609E-02  0.8403990E-01
        1   -1    0    0  501    0  0.00000000000E+00  0.00000000000E+00  0.16804188871E+04  0.16804188871E+04  0.50400001928E-02 0.  1.
       -1   -1    0    0    0  501  0.00000000000E+00  0.00000000000E+00 -0.92773254577E+03  0.92773254578E+03  0.50400001928E-02 0. -1.
    10030    2    1    2    0    0  0.00000000000E+00  0.00000000000E+00  0.75268634131E+03  0.26081514329E+04  0.24971818453E+04 0.  0.
        2    1    3    3  502    0 -0.75340574073E+03 -0.17710601834E+02 -0.66340798864E+03  0.10040139615E+04  0.25500000920E-02 0. -1.
       -2    1    3    3    0  502  0.75340574073E+03  0.17710601834E+02  0.14160943300E+04  0.16041374713E+04  0.25500000920E-02 0.  1.
</event>
<event>
 5   0  0.3484857E-06  0.2502531E+04  0.7818609E-02  0.8402084E-01
        1   -1    0    0  501    0  0.00000000000E+00  0.00000000000E+00  0.34463380998E+04  0.34463380998E+04  0.50400001928E-02 0. -1.
       -1   -1    0    0    0  501  0.00000000000E+00  0.00000000000E+00 -0.45429839037E+03  0.45429839039E+03  0.50400001928E-02 0.  1.
    10030    2    1    2    0    0  0.00000000000E+00  0.00000000000E+00  0.29920397095E+04  0.39006364902E+04  0.25025313996E+04 0.  0.
        3    1    3    3  502    0 -0.94078057178E+03 -0.12993835508E+03  0.22618757902E+03  0.97627500811E+03  0.10100000352E+00 0.  1.
       -3    1    3    3    0  502  0.94078057178E+03  0.12993835508E+03  0.27658521304E+04  0.29243614821E+04  0.10100000352E+00 0. -1.
</event>
<event>
 5   0  0.3642184E-06  0.2500996E+04  0.7818609E-02  0.8402631E-01
       -1   -1    0    0    0  501  0.00000000000E+00  0.00000000000E+00  0.11483371356E+04  0.11483371356E+04  0.50400001928E-02 0. -1.
        1   -1    0    0  501    0  0.00000000000E+00  0.00000000000E+00 -0.13617471754E+04  0.13617471754E+04  0.50400001928E-02 0.  1.
    10030    2    1    2    0    0  0.00000000000E+00  0.00000000000E+00 -0.21341003980E+03  0.25100843110E+04  0.25009956824E+04 0.  0.
        5    1    3    3  502    0  0.49694862632E+03 -0.83699549518E+03  0.68113384268E+03  0.11880592569E+04  0.46999998093E+01 0. -1.
       -5    1    3    3    0  502 -0.49694862632E+03  0.83699549518E+03 -0.89454388247E+03  0.13220250542E+04  0.46999998093E+01 0.  1.
</event>
<event>
 5   0  0.8579923E-06  0.2555282E+04  0.7818609E-02  0.8383552E-01
        2   -1    0    0  501    0  0.00000000000E+00  0.00000000000E+00  0.75625361897E+03  0.75625361897E+03  0.25500000920E-02 0. -1.
       -2   -1    0    0    0  501  0.00000000000E+00  0.00000000000E+00 -0.21584903675E+04  0.21584903675E+04  0.25500000920E-02 0.  1.
    10030    2    1    2    0    0  0.00000000000E+00  0.00000000000E+00 -0.14022367486E+04  0.29147439865E+04  0.25552817081E+04 0.  0.
        1    1    3    3  502    0 -0.96343609060E+03  0.29175010149E+03  0.19635300897E+03  0.10256128541E+04  0.50400001928E-02 0. -1.
       -1    1    3    3    0  502  0.96343609060E+03 -0.29175010149E+03 -0.15985897576E+04  0.18891311324E+04  0.50400001928E-02 0.  1.
</event>
<event>
 5   0  0.3484857E-06  0.2500765E+04  0.7818609E-02  0.8402713E-01
       -1   -1    0    0    0  501  0.00000000000E+00  0.00000000000E+00  0.12892946866E+04  0.12892946866E+04  0.50400001928E-02 0. -1.
        1   -1    0    0  501    0  0.00000000000E+00  0.00000000000E+00 -0.12126447744E+04  0.12126447744E+04  0.50400001928E-02 0.  1.
    10030    2    1    2    0    0  0.00000000000E+00  0.00000000000E+00  0.76649912192E+02  0.25019394610E+04  0.25007650544E+04 0.  0.
        3    1    3    3  502    0 -0.18392430197E+03  0.65157948927E+03  0.10900429050E+04  0.12831903696E+04  0.10100000352E+00 0. -1.
       -3    1    3    3    0  502  0.18392430197E+03 -0.65157948927E+03 -0.10133929928E+04  0.12187490914E+04  0.10100000352E+00 0.  1.
</event>
<event>
 5   0  0.8056723E-06  0.2500982E+04  0.7818609E-02  0.8402636E-01
       -2   -1    0    0    0  501  0.00000000000E+00  0.00000000000E+00  0.70560358333E+03  0.70560358334E+03  0.25500000920E-02 0. -1.
        2   -1    0    0  501    0  0.00000000000E+00  0.00000000000E+00 -0.22161558107E+04  0.22161558107E+04  0.25500000920E-02 0.  1.
    10030    2    1    2    0    0  0.00000000000E+00  0.00000000000E+00 -0.15105522273E+04  0.29217593940E+04  0.25009817922E+04 0.  0.
        2    1    3    3  502    0 -0.41389491118E+03 -0.24705554242E+02 -0.21335121527E+04  0.21734289654E+04  0.25500000920E-02 0.  1.
       -2    1    3    3    0  502  0.41389491118E+03  0.24705554242E+02  0.62295992531E+03  0.74833042866E+03  0.25500000920E-02 0. -1.
</event>
<event>
 5   0  0.3481387E-06  0.2492985E+04  0.7818609E-02  0.8405489E-01
       -1   -1    0    0    0  501  0.00000000000E+00  0.00000000000E+00  0.61772723238E+03  0.61772723240E+03  0.50400001928E-02 0.  1.
        1   -1    0    0  501    0  0.00000000000E+00  0.00000000000E+00 -0.25152582055E+04  0.25152582055E+04  0.50400001928E-02 0. -1.
    10030    2    1    2    0    0  0.00000000000E+00  0.00000000000E+00 -0.18975309731E+04  0.31329854379E+04  0.24929849499E+04 0.  0.
        4    1    3    3  502    0 -0.91734014119E+03  0.45539107083E+03 -0.18416987533E+04  0.21073086800E+04  0.12699999809E+01 0.  1.
       -4    1    3    3    0  502  0.91734014119E+03 -0.45539107083E+03 -0.55832219814E+02  0.10256767579E+04  0.12699999809E+01 0. -1.
</event>
<event>
 5   0  0.3642184E-06  0.2482476E+04  0.7818609E-02  0.8409255E-01
       -1   -1    0    0    0  501  0.00000000000E+00  0.00000000000E+00  0.20546050188E+04  0.20546050188E+04  0.50400001928E-02 0.  1.
        1   -1    0    0  501    0  0.00000000000E+00  0.00000000000E+00 -0.74986278365E+03  0.74986278367E+03  0.50400001928E-02 0. -1.
    10030    2    1    2    0    0  0.00000000000E+00  0.00000000000E+00  0.13047422352E+04  0.28044678025E+04  0.24824760533E+04 0.  0.
        5    1    3    3  502    0  0.53785891771E+02  0.45774737101E+03 -0.64959919051E+03  0.79650911867E+03  0.46999998093E+01 0. -1.
       -5    1    3    3    0  502 -0.53785891771E+02 -0.45774737101E+03  0.19543414257E+04  0.20079586838E+04  0.46999998093E+01 0.  1.
</event>
<event>
 5   0  0.8407986E-06  0.2487443E+04  0.7818609E-02  0.8407473E-01
        2   -1    0    0  501    0  0.00000000000E+00  0.00000000000E+00  0.10492140093E+04  0.10492140093E+04  0.25500000920E-02 0.  1.
       -2   -1    0    0    0  501  0.00000000000E+00  0.00000000000E+00 -0.14742880646E+04  0.14742880646E+04  0.25500000920E-02 0. -1.
    10030    2    1    2    0    0  0.00000000000E+00  0.00000000000E+00 -0.42507405527E+03  0.25235020739E+04  0.24874434193E+04 0.  0.
        5    1    3    3  502    0  0.59737448282E+03  0.40459013834E+03  0.81519934420E+03  0.10886328644E+04  0.46999998093E+01 0.  1.
       -5    1    3    3    0  502 -0.59737448282E+03 -0.40459013834E+03 -0.12402733995E+04  0.14348692094E+04  0.46999998093E+01 0. -1.
</event>
<event>
 5   0  0.3642184E-06  0.2471187E+04  0.7818609E-02  0.8413323E-01
       -1   -1    0    0    0  501  0.00000000000E+00  0.00000000000E+00  0.10131946277E+04  0.10131946277E+04  0.50400001928E-02 0. -1.
        1   -1    0    0  501    0  0.00000000000E+00  0.00000000000E+00 -0.15068098783E+04  0.15068098783E+04  0.50400001928E-02 0.  1.
    10030    2    1    2    0    0  0.00000000000E+00  0.00000000000E+00 -0.49361525055E+03  0.25200045060E+04  0.24711873047E+04 0.  0.
        5    1    3    3  502    0 -0.45489853864E+03 -0.11320069499E+04 -0.44637014857E+03  0.12990923041E+04  0.46999998093E+01 0. -1.
       -5    1    3    3    0  502  0.45489853864E+03  0.11320069499E+04 -0.47245101980E+02  0.12209122019E+04  0.46999998093E+01 0.  1.
</event>
<event>
 5   0  0.3522870E-06  0.2516427E+04  0.7818609E-02  0.8397157E-01
        1   -1    0    0  501    0  0.00000000000E+00  0.00000000000E+00  0.18121168653E+04  0.18121168654E+04  0.50400001928E-02 0.  1.
       -1   -1    0    0    0  501  0.00000000000E+00  0.00000000000E+00 -0.87361951243E+03  0.87361951245E+03  0.50400001928E-02 0. -1.
    10030    2    1    2    0    0  0.00000000000E+00  0.00000000000E+00  0.93849735292E+03  0.26857363778E+04  0.25164265556E+04 0.  0.
        2    1    3    3  502    0  0.53240121687E+03  0.51590218670E+03  0.15542573584E+04  0.17220110506E+04  0.25500000920E-02 0.  1.
       -2    1    3    3    0  502 -0.53240121687E+03 -0.51590218670E+03 -0.61576000552E+03  0.96372532725E+03  0.25500000920E-02 0. -1.
</event>
<event>
 5   0  0.8579923E-06  0.2516391E+04  0.7818609E-02  0.8397169E-01
        2   -1    0    0  501    0  0.00000000000E+00  0.00000000000E+00  0.12285682409E+04  0.12285682409E+04  0.25500000920E-02 0.  1.
       -2   -1    0    0    0  501  0.00000000000E+00  0.00000000000E+00 -0.12885374116E+04  0.12885374116E+04  0.25500000920E-02 0. -1.
    10030    2    1    2    0    0  0.00000000000E+00  0.00000000000E+00 -0.59969170639E+02  0.25171056525E+04  0.25163911788E+04 0.  0.
        1    1    3    3  502    0 -0.39314577227E+02 -0.66711906368E+03  0.10363681230E+04  0.12331473422E+04  0.50400001928E-02 0.  1.
       -1    1    3    3    0  502  0.39314577227E+02  0.66711906368E+03 -0.10963372937E+04  0.12839583103E+04  0.50400001928E-02 0. -1.
</event>
<event>
 5   0  0.3481387E-06  0.2498622E+04  0.7818609E-02  0.8403476E-01
        1   -1    0    0  501    0  0.00000000000E+00  0.00000000000E+00  0.85777375279E+03  0.85777375280E+03  0.50400001928E-02 0. -1.
       -1   -1    0    0    0  501  0.00000000000E+00  0.00000000000E+00 -0.18195689784E+04  0.18195689784E+04  0.50400001928E-02 0.  1.
    10030    2    1    2    0    0  0.00000000000E+00  0.00000000000E+00 -0.96179522562E+03  0.26773427312E+04  0.24986224293E+04 0.  0.
        4    1    3    3  502    0 -0.75735064393E+03 -0.40211865030E+03 -0.14544542329E+04  0.16884069815E+04  0.12699999809E+01 0.  1.
       -4    1    3    3    0  502  0.75735064393E+03  0.40211865030E+03  0.49265900723E+03  0.98893574973E+03  0.12699999809E+01 0. -1.
</event>
<event>
 5   0  0.8579923E-06  0.2458505E+04  0.7818609E-02  0.8417919E-01
       -2   -1    0    0    0  501  0.00000000000E+00  0.00000000000E+00  0.12637333573E+04  0.12637333573E+04  0.25500000920E-02 0. -1.
        2   -1    0    0  501    0  0.00000000000E+00  0.00000000000E+00 -0.11957127298E+04  0.11957127298E+04  0.25500000920E-02 0.  1.
    10030    2    1    2    0    0  0.00000000000E+00  0.00000000000E+00  0.68020627426E+02  0.24594460871E+04  0.24585052877E+04 0.  0.
        1    1    3    3  502    0 -0.10086901404E+04  0.13979917583E+03  0.72279572517E+03  0.12487727052E+04  0.50400001928E-02 0. -1.
       -1    1    3    3    0  502  0.10086901404E+04 -0.13979917583E+03 -0.65477509774E+03  0.12106733819E+04  0.50400001928E-02 0.  1.
</event>
<event>
 5   0  0.8579923E-06  0.2501827E+04  0.7818609E-02  0.8402335E-01
       -2   -1    0    0    0  501  0.00000000000E+00  0.00000000000E+00  0.77941013159E+03  0.77941013160E+03  0.25500000920E-02 0.  1.
        2   -1    0    0  501    0  0.00000000000E+00  0.00000000000E+00 -0.20076529477E+04  0.20076529477E+04  0.25500000920E-02 0. -1.
    10030    2    1    2    0    0  0.00000000000E+00  0.00000000000E+00 -0.12282428161E+04  0.27870630793E+04  0.25018273707E+04 0.  0.
        1    1    3    3  502    0 -0.33049648415E+03 -0.19989207827E+03  0.71131769339E+03  0.80941808106E+03  0.50400001928E-02 0.  1.
       -1    1    3    3    0  502  0.33049648415E+03  0.19989207827E+03 -0.19395605095E+04  0.19776449982E+04  0.50400001928E-02 0. -1.
</event>
<event>
 5   0  0.3481387E-06  0.2504793E+04  0.7818609E-02  0.8401280E-01
        1   -1    0    0  501    0  0.00000000000E+00  0.00000000000E+00  0.17179210675E+04  0.17179210675E+04  0.50400001928E-02 0. -1.
       -1   -1    0    0    0  501  0.00000000000E+00  0.00000000000E+00 -0.91302011947E+03  0.91302011948E+03  0.50400001928E-02 0.  1.
    10030    2    1    2    0    0  0.00000000000E+00  0.00000000000E+00  0.80490094799E+03  0.26309411869E+04  0.25047926048E+04 0.  0.
        4    1    3    3  502    0 -0.68585403416E+03  0.37204526120E+03 -0.62652001232E+03  0.10006709606E+04  0.12699999809E+01 0.  1.
       -4    1    3    3    0  502  0.68585403416E+03 -0.37204526120E+03  0.14314209603E+04  0.16302702264E+04  0.12699999809E+01 0. -1.
</event>
<event>
 5   0  0.3484857E-06  0.2493625E+04  0.7818609E-02  0.8405260E-01
        1   -1    0    0  501    0  0.00000000000E+00  0.00000000000E+00  0.27146134993E+04  0.27146134993E+04  0.50400001928E-02 0. -1.
       -1   -1    0    0    0  501  0.00000000000E+00  0.00000000000E+00 -0.57265670715E+03  0.57265670717E+03  0.50400001928E-02 0.  1.
    10030    2    1    2    0    0  0.00000000000E+00  0.00000000000E+00  0.21419567922E+04  0.32872702065E+04  0.24936251745E+04 0.  0.
        3    1    3    3  502    0  0.45662733851E+03  0.10336988549E+04  0.17654196980E+04  0.20961270403E+04  0.10100000352E+00 0.  1.
       -3    1    3    3    0  502 -0.45662733851E+03 -0.10336988549E+04  0.37653709413E+03  0.11911431662E+04  0.10100000352E+00 0. -1.
</event>
<event>
 5   0  0.8948286E-06  0.2504426E+04  0.7818609E-02  0.8401411E-01
       -2   -1    0    0    0  501  0.00000000000E+00  0.00000000000E+00  0.12103808615E+04  0.12103808615E+04  0.25500000920E-02 0.  1.
        2   -1    0    0  501    0  0.00000000000E+00  0.00000000000E+00 -0.12954905060E+04  0.12954905060E+04  0.25500000920E-02 0. -1.
    10030    2    1    2    0    0  0.00000000000E+00  0.00000000000E+00 -0.85109644539E+02  0.25058713675E+04  0.25044256146E+04 0.  0.
        4    1    3    3  502    0 -0.34096921146E+03 -0.11765916988E+04 -0.30233380722E+03  0.12617588410E+04  0.12699999809E+01 0.  1.
       -4    1    3    3    0  502  0.34096921146E+03  0.11765916988E+04  0.21722416268E+03  0.12441125265E+04  0.12699999809E+01 0. -1.
</event>
<event>
 5   0  0.3481387E-06  0.2503423E+04  0.7818609E-02  0.8401767E-01
       -1   -1    0    0    0  501  0.00000000000E+00  0.00000000000E+00  0.10853082698E+04  0.10853082699E+04  0.50400001928E-02 0.  1.
        1   -1    0    0  501    0  0.00000000000E+00  0.00000000000E+00 -0.14436286866E+04  0.14436286866E+04  0.50400001928E-02 0. -1.
    10030    2    1    2    0    0  0.00000000000E+00  0.00000000000E+00 -0.35832041679E+03  0.25289369565E+04  0.25034233779E+04 0.  0.
        4    1    3    3  502    0 -0.43254405897E+02 -0.34609783129E+03 -0.13935456157E+04  0.14365325086E+04  0.12699999809E+01 0. -1.
       -4    1    3    3    0  502  0.43254405897E+02  0.34609783129E+03  0.10352251989E+04  0.10924044479E+04  0.12699999809E+01 0.  1.
</event>
<event>
 5   0  0.3424193E-06  0.2496126E+04  0.7818609E-02  0.8404367E-01
        1   -1    0    0  501    0  0.00000000000E+00  0.00000000000E+00  0.21426231335E+04  0.21426231335E+04  0.50400001928E-02 0.  1.
       -1   -1    0    0    0  501  0.00000000000E+00  0.00000000000E+00 -0.72698794702E+03  0.72698794703E+03  0.50400001928E-02 0. -1.
    10030    2    1    2    0    0  0.00000000000E+00  0.00000000000E+00  0.14156351865E+04  0.28696110805E+04  0.24961259528E+04 0.  0.
        1    1    3    3  502    0  0.60306194203E+03  0.10475855843E+04  0.35061505621E+03  0.12585905530E+04  0.50400001928E-02 0.  1.
       -1    1    3    3    0  502 -0.60306194203E+03 -0.10475855843E+04  0.10650201303E+04  0.16110205276E+04  0.50400001928E-02 0. -1.
</event>
<event>
 5   0  0.3642184E-06  0.2497907E+04  0.7818609E-02  0.8403732E-01
        1   -1    0    0  501    0  0.00000000000E+00  0.00000000000E+00  0.11245853206E+04  0.11245853206E+04  0.50400001928E-02 0.  1.
       -1   -1    0    0    0  501  0.00000000000E+00  0.00000000000E+00 -0.13870753275E+04  0.13870753275E+04  0.50400001928E-02 0. -1.
    10030    2    1    2    0    0  0.00000000000E+00  0.00000000000E+00 -0.26249000681E+03  0.25116606481E+04  0.24979067652E+04 0.  0.
        5    1    3    3  502    0  0.28862376931E+03  0.85988944480E+03  0.73205621754E+03  0.11656079672E+04  0.46999998093E+01 0.  1.
       -5    1    3    3    0  502 -0.28862376931E+03 -0.85988944480E+03 -0.99454622436E+03  0.13460526809E+04  0.46999998093E+01 0. -1.
</event>
<event>
 5   0  0.8948286E-06  0.2482340E+04  0.7818609E-02  0.8409304E-01
        2   -1    0    0  501    0  0.00000000000E+00  0.00000000000E+00  0.12879196723E+04  0.12879196723E+04  0.25500000920E-02 0. -1.
       -2   -1    0    0    0  501  0.00000000000E+00  0.00000000000E+00 -0.11961175067E+04  0.11961175067E+04  0.25500000920E-02 0.  1.
    10030    2    1    2    0    0  0.00000000000E+00  0.00000000000E+00  0.91802165513E+02  0.24840371790E+04  0.24823402404E+04 0.  0.
        4    1    3    3  502    0 -0.88769969467E+03 -0.62173561234E+03 -0.55943867006E+03  0.12196471449E+04  0.12699999809E+01 0.  1.
       -4    1    3    3    0  502  0.88769969467E+03  0.62173561234E+03  0.65124083557E+03  0.12643900341E+04  0.12699999809E+01 0. -1.
</event>
<event>
 5   0  0.8056723E-06  0.2500858E+04  0.7818609E-02  0.8402680E-01
       -2   -1    0    0    0  501  0.00000000000E+00  0.00000000000E+00  0.10626578668E+04  0.10626578668E+04  0.25500000920E-02 0. -1.
        2   -1    0    0  501    0  0.00000000000E+00  0.00000000000E+00 -0.14713786664E+04  0.14713786664E+04  0.25500000920E-02 0.  1.
    10030    2    1    2    0    0  0.00000000000E+00  0.00000000000E+00 -0.40872079956E+03  0.25340365332E+04  0.25008575448E+04 0.  0.
        2    1    3    3  502    0  0.88167558151E+03  0.67810597664E+03 -0.78324773557E+03  0.13603883864E+04  0.25500000920E-02 0.  1.
       -2    1    3    3    0  502 -0.88167558151E+03 -0.67810597664E+03  0.37452693601E+03  0.11736481468E+04  0.25500000920E-02 0. -1.
</event>
<event>
 5   0  0.3642184E-06  0.2501126E+04  0.7818609E-02  0.8402584E-01
       -1   -1    0    0    0  501  0.00000000000E+00  0.00000000000E+00  0.11460852028E+04  0.11460852028E+04  0.50400001928E-02 0. -1.
        1   -1    0    0  501    0  0.00000000000E+00  0.00000000000E+00 -0.13645653208E+04  0.13645653208E+04  0.50400001928E-02 0.  1.
    10030    2    1    2    0    0  0.00000000000E+00  0.00000000000E+00 -0.21848011806E+03  0.25106505236E+04  0.25011262442E+04 0.  0.
        5    1    3    3  502    0  0.59886396560E+03 -0.32576979604E+03 -0.11616225306E+04  0.13469049717E+04  0.46999998093E+01 0.  1.
       -5    1    3    3    0  502 -0.59886396560E+03  0.32576979604E+03  0.94314241250E+03  0.11637455519E+04  0.46999998093E+01 0. -1.
</event>
<event>
 5   0  0.3424193E-06  0.2477271E+04  0.7818609E-02  0.8411128E-01
       -1   -1    0    0    0  501  0.00000000000E+00  0.00000000000E+00  0.17780528812E+04  0.17780528813E+04  0.50400001928E-02 0. -1.
        1   -1    0    0  501    0  0.00000000000E+00  0.00000000000E+00 -0.86286378946E+03  0.86286378948E+03  0.50400001928E-02 0.  1.
    10030    2    1    2    0    0  0.00000000000E+00  0.00000000000E+00  0.91518909178E+03  0.26409166707E+04  0.24772706328E+04 0.  0.
        1    1    3    3  502    0  0.93432838853E+03 -0.14699750016E+03  0.13102016174E+04  0.16159226717E+04  0.50400001928E-02 0. -1.
       -1    1    3    3    0  502 -0.93432838853E+03  0.14699750016E+03 -0.39501252560E+03  0.10249939990E+04  0.50400001928E-02 0.  1.
</event>
<event>
 5   0  0.8354653E-06  0.2504818E+04  0.7818609E-02  0.8401271E-01
       -2   -1    0    0    0  501  0.00000000000E+00  0.00000000000E+00  0.12666995645E+04  0.12666995645E+04  0.25500000920E-02 0. -1.
        2   -1    0    0  501    0  0.00000000000E+00  0.00000000000E+00 -0.12382794325E+04  0.12382794325E+04  0.25500000920E-02 0.  1.
    10030    2    1    2    0    0  0.00000000000E+00  0.00000000000E+00  0.28420132033E+02  0.25049789969E+04  0.25048177721E+04 0.  0.
        3    1    3    3  502    0 -0.12468446356E+04 -0.11785698151E+03  0.18234517531E+02  0.12525351577E+04  0.10100000352E+00 0. -1.
       -3    1    3    3    0  502  0.12468446356E+04  0.11785698151E+03  0.10185614502E+02  0.12524438392E+04  0.10100000352E+00 0.  1.
</event>
<event>
 5   0  0.8948286E-06  0.2502598E+04  0.7818609E-02  0.8402061E-01
       -2   -1    0    0    0  501  0.00000000000E+00  0.00000000000E+00  0.91930096559E+03  0.91930096559E+03  0.25500000920E-02 0. -1.
        2   -1    0    0  501    0  0.00000000000E+00  0.00000000000E+00 -0.17031953758E+04  0.17031953758E+04  0.25500000920E-02 0.  1.
    10030    2    1    2    0    0  0.00000000000E+00  0.00000000000E+00 -0.78389441020E+03  0.26224963414E+04  0.25025979730E+04 0.  0.
        4    1    3    3  502    0 -0.85141684798E+03  0.52699436044E+03  0.39441367771E+03  0.10761958312E+04  0.12699999809E+01 0. -1.
       -4    1    3    3    0  502  0.85141684798E+03 -0.52699436044E+03 -0.11783080879E+04  0.15463005102E+04  0.12699999809E+01 0.  1.
</event>
<event>
 5   0  0.8948286E-06  0.2494871E+04  0.7818609E-02  0.8404815E-01
        2   -1    0    0  501    0  0.00000000000E+00  0.00000000000E+00  0.13637766318E+04  0.13637766318E+04  0.25500000920E-02 0. -1.
       -2   -1    0    0    0  501  0.00000000000E+00  0.00000000000E+00 -0.11410193178E+04  0.11410193178E+04  0.25500000920E-02 0.  1.
    10030    2    1    2    0    0  0.00000000000E+00  0.00000000000E+00  0.22275731403E+03  0.25047959496E+04  0.24948711245E+04 0.  0.
        4    1    3    3  502    0 -0.12183445210E+04  0.25598415392E+03  0.19044860924E+03  0.12594298491E+04  0.12699999809E+01 0. -1.
       -4    1    3    3    0  502  0.12183445210E+04 -0.25598415392E+03  0.32308704795E+02  0.12453661005E+04  0.12699999809E+01 0.  1.
</event>
<event>
 5   0  0.3484857E-06  0.2487591E+04  0.7818609E-02  0.8407420E-01
       -1   -1    0    0    0  501  0.00000000000E+00  0.00000000000E+00  0.16189469961E+04  0.16189469961E+04  0.50400001928E-02 0.  1.
        1   -1    0    0  501    0  0.00000000000E+00  0.00000000000E+00 -0.95557646600E+03  0.95557646602E+03  0.50400001928E-02 0. -1.
    10030    2    1    2    0    0  0.00000000000E+00  0.00000000000E+00  0.66337053010E+03  0.25745234621E+04  0.24875913243E+04 0.  0.
        3    1    3    3  502    0  0.74222341294E+03 -0.65540387622E+03 -0.44733292513E+03  0.10865342110E+04  0.10100000352E+00 0. -1.
       -3    1    3    3    0  502 -0.74222341294E+03  0.65540387622E+03  0.11107034552E+04  0.14879892511E+04  0.10100000352E+00 0.  1.
</event>
<event>
 5   0  0.3484857E-06  0.2500509E+04  0.7818609E-02  0.8402804E-01
       -1   -1    0    0    0  501  0.00000000000E+00  0.00000000000E+00  0.84930553373E+03  0.84930553374E+03  0.50400001928E-02 0. -1.
        1   -1    0    0  501    0  0.00000000000E+00  0.00000000000E+00 -0.18404877091E+04  0.18404877091E+04  0.50400001928E-02 0.  1.
    10030    2    1    2    0    0  0.00000000000E+00  0.00000000000E+00 -0.99118217539E+03  0.26897932429E+04  0.25005090651E+04 0.  0.
        3    1    3    3  502    0  0.16921899229E+03  0.10980507727E+04 -0.11123948354E+04  0.15721872811E+04  0.10100000352E+00 0.  1.
       -3    1    3    3    0  502 -0.16921899229E+03 -0.10980507727E+04  0.12121266002E+03  0.11176059618E+04  0.10100000352E+00 0. -1.
</event>
<event>
 5   0  0.3424193E-06  0.2501153E+04  0.7818609E-02  0.8402575E-01
       -1   -1    0    0    0  501  0.00000000000E+00  0.00000000000E+00  0.14537028478E+04  0.14537028478E+04  0.50400001928E-02 0.  1.
        1   -1    0    0  501    0  0.00000000000E+00  0.00000000000E+00 -0.10758331640E+04  0.10758331640E+04  0.50400001928E-02 0. -1.
    10030    2    1    2    0    0  0.00000000000E+00  0.00000000000E+00  0.37786968379E+03  0.25295360118E+04  0.25011531215E+04 0.  0.
        1    1    3    3  502    0 -0.47737724800E+03 -0.31494855859E+02  0.13574950778E+04  0.14393310423E+04  0.50400001928E-02 0.  1.
       -1    1    3    3    0  502  0.47737724800E+03  0.31494855859E+02 -0.97962539406E+03  0.10902049695E+04  0.50400001928E-02 0. -1.
</event>
<event>
 5   0  0.3522870E-06  0.2487252E+04  0.7818609E-02  0.8407541E-01
       -1   -1    0    0    0  501  0.00000000000E+00  0.00000000000E+00  0.15365542663E+04  0.15365542663E+04  0.50400001928E-02 0.  1.
        1   -1    0    0  501    0  0.00000000000E+00  0.00000000000E+00 -0.10065412609E+04  0.10065412610E+04  0.50400001928E-02 0. -1.
    10030    2    1    2    0    0  0.00000000000E+00  0.00000000000E+00  0.53001300531E+03  0.25430955272E+04  0.24872517112E+04 0.  0.
        2    1    3    3  502    0  0.90683104164E+03  0.82110674248E+03  0.49373989213E+03  0.13192186709E+04  0.25500000920E-02 0.  1.
       -2    1    3    3    0  502 -0.90683104164E+03 -0.82110674248E+03  0.36273113178E+02  0.12238768563E+04  0.25500000920E-02 0. -1.
</event>
<event>
 5   0  0.8354653E-06  0.2505160E+04  0.7818609E-02  0.8401149E-01
       -2   -1    0    0    0  501  0.00000000000E+00  0.00000000000E+00  0.11640511144E+04  0.11640511144E+04  0.25500000920E-02 0.  1.
        2   -1    0    0  501    0  0.00000000000E+00  0.00000000000E+00 -0.13478420470E+04  0.13478420470E+04  0.25500000920E-02 0. -1.
    10030    2    1    2    0    0  0.00000000000E+00  0.00000000000E+00 -0.18379093265E+03  0.25118931614E+04  0.25051603037E+04 0.  0.
        3    1    3    3  502    0  0.40776426870E+03  0.31233734912E+03 -0.12373890116E+04  0.13397603870E+04  0.10100000352E+00 0. -1.
       -3    1    3    3    0  502 -0.40776426870E+03 -0.31233734912E+03  0.10535980789E+04  0.11721327743E+04  0.10100000352E+00 0.  1.
</event>
<event>
 5   0  0.8354653E-06  0.2504598E+04  0.7818609E-02  0.8401349E-01
        2   -1    0    0  501    0  0.00000000000E+00  0.00000000000E+00  0.16644721389E+04  0.16644721389E+04  0.25500000920E-02 0. -1.
       -2   -1    0    0    0  501  0.00000000000E+00  0.00000000000E+00 -0.94219244830E+03  0.94219244831E+03  0.25500000920E-02 0.  1.
    10030    2    1    2    0    0  0.00000000000E+00  0.00000000000E+00  0.72227969061E+03  0.26066645872E+04  0.25045982350E+04 0.  0.
        3    1    3    3  502    0 -0.19158413848E+03 -0.79775625542E+03  0.13458105059E+04  0.15761743093E+04  0.10100000352E+00 0. -1.
       -3    1    3    3    0  502  0.19158413848E+03  0.79775625542E+03 -0.62353081528E+03  0.10304902780E+04  0.10100000352E+00 0.  1.
</event>
<event>
 5   0  0.3484857E-06  0.2501794E+04  0.7818609E-02  0.8402347E-01
       -1   -1    0    0    0  501  0.00000000000E+00  0.00000000000E+00  0.18247171348E+04  0.18247171348E+04  0.50400001928E-02 0. -1.
        1   -1    0    0  501    0  0.00000000000E+00  0.00000000000E+00 -0.85752661412E+03  0.85752661414E+03  0.50400001928E-02 0.  1.
    10030    2    1    2    0    0  0.00000000000E+00  0.00000000000E+00  0.96719052067E+03  0.26822437489E+04  0.25017941613E+04 0.  0.
        3    1    3    3  502    0 -0.76846950230E+02 -0.35758357895E+03  0.17661096283E+04  0.18035838486E+04  0.10100000352E+00 0. -1.
       -3    1    3    3    0  502  0.76846950230E+02  0.35758357895E+03 -0.79891910762E+03  0.87865990031E+03  0.10100000352E+00 0.  1.
</event>
<event>
 5   0  0.8056723E-06  0.2527801E+04  0.7818609E-02  0.8393148E-01
       -2   -1    0    0    0  501  0.00000000000E+00  0.00000000000E+00  0.81065282788E+03  0.81065282789E+03  0.25500000920E-02 0. -1.
        2   -1    0    0  501    0  0.00000000000E+00  0.00000000000E+00 -0.19705658267E+04  0.19705658268E+04  0.25500000920E-02 0.  1.
    10030    2    1    2    0    0  0.00000000000E+00  0.00000000000E+00 -0.11599129989E+04  0.27812186546E+04  0.25278012264E+04 0.  0.
        2    1    3    3  502    0  0.20487472583E+02  0.11225019136E+04 -0.12186852899E+04  0.16569924920E+04  0.25500000920E-02 0.  1.
       -2    1    3    3    0  502 -0.20487472583E+02 -0.11225019136E+04  0.58772291024E+02  0.11242261627E+04  0.25500000920E-02 0. -1.
</event>
<event>
 5   0  0.8579923E-06  0.2499502E+04  0.7818609E-02  0.8403163E-01
       -2   -1    0    0    0  501  0.00000000000E+00  0.00000000000E+00  0.88482880177E+03  0.88482880177E+03  0.25500000920E-02 0. -1.
        2   -1    0    0  501    0  0.00000000000E+00  0.00000000000E+00 -0.17651754975E+04  0.17651754975E+04  0.25500000920E-02 0.  1.
    10030    2    1    2    0    0  0.00000000000E+00  0.00000000000E+00 -0.88034669570E+03  0.26500042992E+04  0.24995024468E+04 0.  0.
        1    1    3    3  502    0  0.27286999510E+03  0.14373894417E+03 -0.17241952243E+04  0.17515616146E+04  0.50400001928E-02 0.  1.
       -1    1    3    3    0  502 -0.27286999510E+03 -0.14373894417E+03  0.84384852860E+03  0.89844268462E+03  0.50400001928E-02 0. -1.
</event>
<event>
 5   0  0.8948286E-06  0.2499377E+04  0.7818609E-02  0.8403208E-01
        2   -1    0    0  501    0  0.00000000000E+00  0.00000000000E+00  0.17833282043E+04  0.17833282043E+04  0.25500000920E-02 0. -1.
       -2   -1    0    0    0  501  0.00000000000E+00  0.00000000000E+00 -0.87573386321E+03  0.87573386322E+03  0.25500000920E-02 0.  1.
    10030    2    1    2    0    0  0.00000000000E+00  0.00000000000E+00  0.90759434104E+03  0.26590620675E+04  0.24993766404E+04 0.  0.
        4    1    3    3  502    0 -0.14199463720E+03  0.11295966787E+04 -0.94460559170E+02  0.11423990299E+04  0.12699999809E+01 0.  1.
       -4    1    3    3    0  502  0.14199463720E+03 -0.11295966787E+04  0.10020549002E+04  0.15166630375E+04  0.12699999809E+01 0. -1.
</event>
<event>
 5   0  0.3642184E-06  0.2493063E+04  0.7818609E-02  0.8405461E-01
        1   -1    0    0  501    0  0.00000000000E+00  0.00000000000E+00  0.11991923679E+04  0.11991923679E+04  0.50400001928E-02 0.  1.
       -1   -1    0    0    0  501  0.00000000000E+00  0.00000000000E+00 -0.12957392327E+04  0.12957392327E+04  0.50400001928E-02 0. -1.
    10030    2    1    2    0    0  0.00000000000E+00  0.00000000000E+00 -0.96546864805E+02  0.24949316006E+04  0.24930628541E+04 0.  0.
        5    1    3    3  502    0 -0.96264236605E+03 -0.21597076327E+03 -0.81074663994E+03  0.12769713778E+04  0.46999998093E+01 0. -1.
       -5    1    3    3    0  502  0.96264236605E+03  0.21597076327E+03  0.71419977513E+03  0.12179602228E+04  0.46999998093E+01 0.  1.
</event>
<event>
 5   0  0.8579923E-06  0.2537493E+04  0.7818609E-02  0.8389749E-01
        2   -1    0    0  501    0  0.00000000000E+00  0.00000000000E+00  0.18148528596E+04  0.18148528596E+04  0.25500000920E-02 0.  1.
       -2   -1    0    0    0  501  0.00000000000E+00  0.00000000000E+00 -0.88696880250E+03  0.88696880251E+03  0.25500000920E-02 0. -1.
    10030    2    1    2    0    0  0.00000000000E+00  0.00000000000E+00  0.92788405714E+03  0.27018216622E+04  0.25374931469E+04 0.  0.
        1    1    3    3  502    0 -0.89576370756E+03 -0.37496325310E+03  0.13333549400E+04  0.16494924847E+04  0.50400001928E-02 0.  1.
       -1    1    3    3    0  502  0.89576370756E+03  0.37496325310E+03 -0.40547088283E+03  0.10523291775E+04  0.50400001928E-02 0. -1.
</event>
<event>
 5   0  0.8354653E-06  0.2499277E+04  0.7818609E-02  0.8403243E-01
        2   -1    0    0  501    0  0.00000000000E+00  0.00000000000E+00  0.11185039474E+04  0.11185039474E+04  0.25500000920E-02 0. -1.
       -2   -1    0    0    0  501  0.00000000000E+00  0.00000000000E+00 -0.13961472260E+04  0.13961472260E+04  0.25500000920E-02 0.  1.
    10030    2    1    2    0    0  0.00000000000E+00  0.00000000000E+00 -0.27764327864E+03  0.25146511734E+04  0.24992768422E+04 0.  0.
        3    1    3    3  502    0  0.41192523460E+03  0.10806650850E+04 -0.61510102089E+03  0.13099117149E+04  0.10100000352E+00 0.  1.
       -3    1    3    3    0  502 -0.41192523460E+03 -0.10806650850E+04  0.33745774224E+03  0.12047394585E+04  0.10100000352E+00 0. -1.
</event>
<event>
 5   0  0.3481387E-06  0.2493284E+04  0.7818609E-02  0.8405382E-01
        1   -1    0    0  501    0  0.00000000000E+00  0.00000000000E+00  0.12394855810E+04  0.12394855810E+04  0.50400001928E-02 0. -1.
       -1   -1    0    0    0  501  0.00000000000E+00  0.00000000000E+00 -0.12538399672E+04  0.12538399672E+04  0.50400001928E-02 0.  1.
    10030    2    1    2    0    0  0.00000000000E+00  0.00000000000E+00 -0.14354386271E+02  0.24933255482E+04  0.24932842279E+04 0.  0.
        4    1    3    3  502    0 -0.79989318567E+03  0.11898261750E+02  0.94894757386E+03  0.12411582445E+04  0.12699999809E+01 0. -1.
       -4    1    3    3    0  502  0.79989318567E+03 -0.11898261750E+02 -0.96330196013E+03  0.12521673037E+04  0.12699999809E+01 0.  1.
</event>
<event>
 5   0  0.8407986E-06  0.2492412E+04  0.7818609E-02  0.8405694E-01
       -2   -1    0    0    0  501  0.00000000000E+00  0.00000000000E+00  0.14825235502E+04  0.14825235502E+04  0.25500000920E-02 0.  1.
        2   -1    0    0  501    0  0.00000000000E+00  0.00000000000E+00 -0.10475580444E+04  0.10475580444E+04  0.25500000920E-02 0. -1.
    10030    2    1    2    0    0  0.00000000000E+00  0.00000000000E+00  0.43496550578E+03  0.25300815946E+04  0.24924120614E+04 0.  0.
        5    1    3    3  502    0  0.76236551348E+03  0.58928027713E+03  0.10197148128E+04  0.14029585919E+04  0.46999998093E+01 0.  1.
       -5    1    3    3    0  502 -0.76236551348E+03 -0.58928027713E+03 -0.58474930701E+03  0.11271230027E+04  0.46999998093E+01 0. -1.
</event>
<event>
 5   0  0.8056723E-06  0.2489831E+04  0.7818609E-02  0.8406617E-01
       -2   -1    0    0    0  501  0.00000000000E+00  0.00000000000E+00  0.10617821732E+04  0.10617821732E+04  0.25500000920E-02 0. -1.
        2   -1    0    0  501    0  0.00000000000E+00  0.00000000000E+00 -0.14596352093E+04  0.14596352093E+04  0.25500000920E-02 0.  1.
    10030    2    1    2    0    0  0.00000000000E+00  0.00000000000E+00 -0.39785303615E+03  0.25214173825E+04  0.24898310341E+04 0.  0.
        2    1    3    3  502    0 -0.11789573953E+04 -0.35398145924E+03 -0.38721870052E+03  0.12904192092E+04  0.25500000920E-02 0.  1.
       -2    1    3    3    0  502  0.11789573953E+04  0.35398145924E+03 -0.10634335633E+02  0.12309981733E+04  0.25500000920E-02 0. -1.
</event>
<event>
 5   0  0.8056723E-06  0.2498266E+04  0.7818609E-02  0.8403603E-01
        2   -1    0    0  501    0  0.00000000000E+00  0.00000000000E+00  0.20297143062E+04  0.20297143062E+04  0.25500000920E-02 0.  1.
       -2   -1    0    0    0  501  0.00000000000E+00  0.00000000000E+00 -0.76874537237E+03  0.76874537237E+03  0.25500000920E-02 0. -1.
    10030    2    1    2    0    0  0.00000000000E+00  0.00000000000E+00  0.12609689338E+04  0.27984596786E+04  0.24982661829E+04 0.  0.
        2    1    3    3  502    0 -0.97334501326E+03 -0.44404287665E+03  0.13527570274E+04  0.17246814681E+04  0.25500000920E-02 0.  1.
       -2    1    3    3    0  502  0.97334501326E+03  0.44404287665E+03 -0.91788093605E+02  0.10737782105E+04  0.25500000920E-02 0. -1.
</event>
<event>
 5   0  0.3484857E-06  0.2484953E+04  0.7818609E-02  0.8408366E-01
       -1   -1    0    0    0  501  0.00000000000E+00  0.00000000000E+00  0.88369500796E+03  0.88369500797E+03  0.50400001928E-02 0.  1.
        1   -1    0    0  501    0  0.00000000000E+00  0.00000000000E+00 -0.17469241698E+04  0.17469241698E+04  0.50400001928E-02 0. -1.
    10030    2    1    2    0    0  0.00000000000E+00  0.00000000000E+00 -0.86322916185E+03  0.26306191778E+04  0.24849532536E+04 0.  0.
        3    1    3    3  502    0  0.29164355308E+03 -0.91537102291E+03  0.40247259782E+03  0.10416065830E+04  0.10100000352E+00 0.  1.
       -3    1    3    3    0  502 -0.29164355308E+03  0.91537102291E+03 -0.12657017597E+04  0.15890125948E+04  0.10100000352E+00 0. -1.
</event>
<event>
 5   0  0.3522870E-06  0.2327125E+04  0.7818609E-02  0.8467302E-01
       -1   -1    0    0    0  501  0.00000000000E+00  0.00000000000E+00  0.88417160086E+03  0.88417160088E+03  0.50400001928E-02 0. -1.
        1   -1    0    0  501    0  0.00000000000E+00  0.00000000000E+00 -0.15312379953E+04  0.15312379953E+04  0.50400001928E-02 0.  1.
    10030    2    1    2    0    0  0.00000000000E+00  0.00000000000E+00 -0.64706639444E+03  0.24154095962E+04  0.23271245344E+04 0.  0.
        2    1    3    3  502    0 -0.69096622083E+03 -0.79754538585E+03 -0.83240225547E+03  0.13440262184E+04  0.25500000920E-02 0.  1.
       -2    1    3    3    0  502  0.69096622083E+03  0.79754538585E+03  0.18533586103E+03  0.10713833778E+04  0.25500000920E-02 0. -1.
</event>
<event>
 5   0  0.8579923E-06  0.2487832E+04  0.7818609E-02  0.8407333E-01
       -2   -1    0    0    0  501  0.00000000000E+00  0.00000000000E+00  0.99006734463E+03  0.99006734463E+03  0.25500000920E-02 0.  1.
        2   -1    0    0  501    0  0.00000000000E+00  0.00000000000E+00 -0.15628505408E+04  0.15628505408E+04  0.25500000920E-02 0. -1.
    10030    2    1    2    0    0  0.00000000000E+00  0.00000000000E+00 -0.57278319619E+03  0.25529178855E+04  0.24878322170E+04 0.  0.
        1    1    3    3  502    0  0.67881705813E+03  0.27566047829E+03  0.74516675312E+03  0.10450142524E+04  0.50400001928E-02 0.  1.
       -1    1    3    3    0  502 -0.67881705813E+03 -0.27566047829E+03 -0.13179499493E+04  0.15079036331E+04  0.50400001928E-02 0. -1.
</event>
<event>
 5   0  0.3522870E-06  0.2500002E+04  0.7818609E-02  0.8402985E-01
        1   -1    0    0  501    0  0.00000000000E+00  0.00000000000E+00  0.17897266364E+04  0.17897266364E+04  0.50400001928E-02 0. -1.
       -1   -1    0    0    0  501  0.00000000000E+00  0.00000000000E+00 -0.87303999250E+03  0.87303999252E+03  0.50400001928E-02 0.  1.
    10030    2    1    2    0    0  0.00000000000E+00  0.00000000000E+00  0.91668664385E+03  0.26627666289E+04  0.25000023434E+04 0.  0.
        2    1    3    3  502    0 -0.98804448084E+03 -0.71963594744E+03  0.73689469220E+03  0.14272776816E+04  0.25500000920E-02 0.  1.
       -2    1    3    3    0  502  0.98804448084E+03  0.71963594744E+03  0.17979195165E+03  0.12354889473E+04  0.25500000920E-02 0. -1.
</event>
<event>
 5   0  0.3642184E-06  0.2501658E+04  0.7818609E-02  0.8402395E-01
        1   -1    0    0  501    0  0.00000000000E+00  0.00000000000E+00  0.19132384557E+04  0.19132384557E+04  0.50400001928E-02 0.  1.
       -1   -1    0    0    0  501  0.00000000000E+00  0.00000000000E+00 -0.81776147541E+03  0.81776147542E+03  0.50400001928E-02 0. -1.
    10030    2    1    2    0    0  0.00000000000E+00  0.00000000000E+00  0.10954769803E+04  0.27309999311E+04  0.25016576124E+04 0.  0.
        5    1    3    3  502    0  0.90932071055E+03  0.49427859646E+03 -0.21906211103E+03  0.10579157736E+04  0.46999998093E+01 0. -1.
       -5    1    3    3    0  502 -0.90932071055E+03 -0.49427859646E+03  0.13145390913E+04  0.16730841575E+04  0.46999998093E+01 0.  1.
</event>
<event>
 5   0  0.8407986E-06  0.2479986E+04  0.7818609E-02  0.8410150E-01
       -2   -1    0    0    0  501  0.00000000000E+00  0.00000000000E+00  0.10812226660E+04  0.10812226660E+04  0.25500000920E-02 0.  1.
        2   -1    0    0  501    0  0.00000000000E+00  0.00000000000E+00 -0.14220778852E+04  0.14220778852E+04  0.25500000920E-02 0. -1.
    10030    2    1    2    0    0  0.00000000000E+00  0.00000000000E+00 -0.34085521918E+03  0.25033005513E+04  0.24799861632E+04 0.  0.
        5    1    3    3  502    0  0.29240653493E+03 -0.34682865867E+02 -0.13862662252E+04  0.14172016864E+04  0.46999998093E+01 0. -1.
       -5    1    3    3    0  502 -0.29240653493E+03  0.34682865867E+02  0.10454110060E+04  0.10860988649E+04  0.46999998093E+01 0.  1.
</event>
<event>
 5   0  0.3522870E-06  0.2489228E+04  0.7818609E-02  0.8406833E-01
       -1   -1    0    0    0  501  0.00000000000E+00  0.00000000000E+00  0.17490534903E+04  0.17490534903E+04  0.50400001928E-02 0.  1.
        1   -1    0    0  501    0  0.00000000000E+00  0.00000000000E+00 -0.88565874669E+03  0.88565874670E+03  0.50400001928E-02 0. -1.
    10030    2    1    2    0    0  0.00000000000E+00  0.00000000000E+00  0.86339474364E+03  0.26347122370E+04  0.24892284123E+04 0.  0.
        2    1    3    3  502    0 -0.40004539405E+03  0.10692297000E+04  0.95643018425E+03  0.14893109702E+04  0.25500000920E-02 0.  1.
       -2    1    3    3    0  502  0.40004539405E+03 -0.10692297000E+04 -0.93035440608E+02  0.11454012668E+04  0.25500000920E-02 0. -1.
</event>
<event>
 5   0  0.3484857E-06  0.2493347E+04  0.7818609E-02  0.8405360E-01
        1   -1    0    0  501    0  0.00000000000E+00  0.00000000000E+00  0.12021686662E+04  0.12021686663E+04  0.50400001928E-02 0.  1.
       -1   -1    0    0    0  501  0.00000000000E+00  0.00000000000E+00 -0.12928256601E+04  0.12928256601E+04  0.50400001928E-02 0. -1.
    10030    2    1    2    0    0  0.00000000000E+00  0.00000000000E+00 -0.90656993877E+02  0.24949943264E+04  0.24933467465E+04 0.  0.
        3    1    3    3  502    0  0.20749182150E+03 -0.10829469379E+04 -0.62740657668E+03  0.12686472910E+04  0.10100000352E+00 0. -1.
       -3    1    3    3    0  502 -0.20749182150E+03  0.10829469379E+04  0.53674958280E+03  0.12263470354E+04  0.10100000352E+00 0.  1.
</event>
<event>
 5   0  0.3642184E-06  0.2500040E+04  0.7818609E-02  0.8402971E-01
       -1   -1    0    0    0  501  0.00000000000E+00  0.00000000000E+00  0.99468997767E+03  0.99468997769E+03  0.50400001928E-02 0. -1.
        1   -1    0    0  501    0  0.00000000000E+00  0.00000000000E+00 -0.15708916902E+04  0.15708916902E+04  0.50400001928E-02 0.  1.
    10030    2    1    2    0    0  0.00000000000E+00  0.00000000000E+00 -0.57620171251E+03  0.25655816679E+04  0.25000401759E+04 0.  0.
        5    1    3    3  502    0  0.41717689460E+03 -0.41294520923E+03 -0.14206492367E+04  0.15371488707E+04  0.46999998093E+01 0.  1.
       -5    1    3    3    0  502 -0.41717689460E+03  0.41294520923E+03  0.84444752414E+03  0.10284327971E+04  0.46999998093E+01 0. -1.
</event>
<event>
 5   0  0.8056723E-06  0.2519263E+04  0.7818609E-02  0.8396155E-01
        2   -1    0    0  501    0  0.00000000000E+00  0.00000000000E+00  0.13802460673E+04  0.13802460673E+04  0.25500000920E-02 0. -1.
       -2   -1    0    0    0  501  0.00000000000E+00  0.00000000000E+00 -0.11495569670E+04  0.11495569670E+04  0.25500000920E-02 0.  1.
    10030    2    1    2    0    0  0.00000000000E+00  0.00000000000E+00  0.23068910027E+03  0.25298030342E+04  0.25192629738E+04 0.  0.
        2    1    3    3  502    0  0.85542778578E+03 -0.19345125616E+03 -0.79259053965E+03  0.11821082221E+04  0.25500000920E-02 0.  1.
       -2    1    3    3    0  502 -0.85542778578E+03  0.19345125616E+03  0.10232796399E+04  0.13476948121E+04  0.25500000920E-02 0. -1.
</event>
<event>
 5   0  0.8579923E-06  0.2521594E+04  0.7818609E-02  0.8395333E-01
        2   -1    0    0  501    0  0.00000000000E+00  0.00000000000E+00  0.68538817102E+03  0.68538817103E+03  0.25500000920E-02 0.  1.
       -2   -1    0    0    0  501  0.00000000000E+00  0.00000000000E+00 -0.23192829270E+04  0.23192829270E+04  0.25500000920E-02 0. -1.
    10030    2    1    2    0    0  0.00000000000E+00  0.00000000000E+00 -0.16338947560E+04  0.30046710981E+04  0.25215940065E+04 0.  0.
        1    1    3    3  502    0 -0.69912679055E+03 -0.47952038856E+03 -0.19289445429E+04  0.21070228100E+04  0.50400001928E-02 0. -1.
       -1    1    3    3    0  502  0.69912679055E+03  0.47952038856E+03  0.29504978687E+03  0.89764828807E+03  0.50400001928E-02 0.  1.
</event>
<event>
 5   0  0.3484857E-06  0.2487280E+04  0.7818609E-02  0.8407531E-01
        1   -1    0    0  501    0  0.00000000000E+00  0.00000000000E+00  0.72251035004E+03  0.72251035006E+03  0.50400001928E-02 0.  1.
       -1   -1    0    0    0  501  0.00000000000E+00  0.00000000000E+00 -0.21406484018E+04  0.21406484018E+04  0.50400001928E-02 0. -1.
    10030    2    1    2    0    0  0.00000000000E+00  0.00000000000E+00 -0.14181380517E+04  0.28631587518E+04  0.24872801419E+04 0.  0.
        3    1    3    3  502    0  0.55179350401E+02 -0.51343738478E+03  0.59326372729E+03  0.78652690298E+03  0.10100000352E+00 0.  1.
       -3    1    3    3    0  502 -0.55179350401E+02  0.51343738478E+03 -0.20114017790E+04  0.20766318489E+04  0.10100000352E+00 0. -1.
</event>
<event>
 5   0  0.8579923E-06  0.2509197E+04  0.7818609E-02  0.8399717E-01
       -2   -1    0    0    0  501  0.00000000000E+00  0.00000000000E+00  0.13704842001E+04  0.13704842001E+04  0.25500000920E-02 0.  1.
        2   -1    0    0  501    0  0.00000000000E+00  0.00000000000E+00 -0.11485115007E+04  0.11485115007E+04  0.25500000920E-02 0. -1.
    10030    2    1    2    0    0  0.00000000000E+00  0.00000000000E+00  0.22197269938E+03  0.25189957008E+04  0.25091965768E+04 0.  0.
        1    1    3    3  502    0  0.16413484320E+03  0.25107161989E+03 -0.11119827770E+04  0.11517303944E+04  0.50400001928E-02 0. -1.
       -1    1    3    3    0  502 -0.16413484320E+03 -0.25107161989E+03  0.13339554764E+04  0.13672653064E+04  0.50400001928E-02 0.  1.
</event>
<event>
 5   0  0.8579923E-06  0.2480689E+04  0.7818609E-02  0.8409898E-01
       -2   -1    0    0    0  501  0.00000000000E+00  0.00000000000E+00  0.12048868394E+04  0.12048868394E+04  0.25500000920E-02 0.  1.
        2   -1    0    0  501    0  0.00000000000E+00  0.00000000000E+00 -0.12768451244E+04  0.12768451244E+04  0.25500000920E-02 0. -1.
    10030    2    1    2    0    0  0.00000000000E+00  0.00000000000E+00 -0.71958285009E+02  0.24817319638E+04  0.24806885224E+04 0.  0.
        1    1    3    3  502    0  0.53636528097E+03 -0.54263249986E+03  0.94234637247E+03  0.12124992496E+04  0.50400001928E-02 0.  1.
       -1    1    3    3    0  502 -0.53636528097E+03  0.54263249986E+03 -0.10143046575E+04  0.12692327142E+04  0.50400001928E-02 0. -1.
</event>
<event>
 5   0  0.8407986E-06  0.2477233E+04  0.7818609E-02  0.8411142E-01
       -2   -1    0    0    0  501  0.00000000000E+00  0.00000000000E+00  0.71922654250E+03  0.71922654251E+03  0.25500000920E-02 0.  1.
        2   -1    0    0  501    0  0.00000000000E+00  0.00000000000E+00 -0.21330844528E+04  0.21330844528E+04  0.25500000920E-02 0. -1.
    10030    2    1    2    0    0  0.00000000000E+00  0.00000000000E+00 -0.14138579103E+04  0.28523109953E+04  0.24772330983E+04 0.  0.
        5    1    3    3  502    0  0.70989711892E+02 -0.57666594650E+03  0.55257135610E+03  0.80183561072E+03  0.46999998093E+01 0.  1.
       -5    1    3    3    0  502 -0.70989711892E+02  0.57666594650E+03 -0.19664292663E+04  0.20504753845E+04  0.46999998093E+01 0. -1.
</event>
<event>
 5   0  0.8354653E-06  0.2498781E+04  0.7818609E-02  0.8403420E-01
       -2   -1    0    0    0  501  0.00000000000E+00  0.00000000000E+00  0.53032539739E+03  0.53032539740E+03  0.25500000920E-02 0.  1.
        2   -1    0    0  501    0  0.00000000000E+00  0.00000000000E+00 -0.29434312777E+04  0.29434312777E+04  0.25500000920E-02 0. -1.
    10030    2    1    2    0    0  0.00000000000E+00  0.00000000000E+00 -0.24131058803E+04  0.34737566751E+04  0.24987807923E+04 0.  0.
        3    1    3    3  502    0  0.84929856929E+03  0.55616450172E+03 -0.19415267237E+03  0.10335967701E+04  0.10100000352E+00 0.  1.
       -3    1    3    3    0  502 -0.84929856929E+03 -0.55616450172E+03 -0.22189532079E+04  0.24401599050E+04  0.10100000352E+00 0. -1.
</event>
<event>
 5   0  0.3424193E-06  0.2493813E+04  0.7818609E-02  0.8405193E-01
       -1   -1    0    0    0  501  0.00000000000E+00  0.00000000000E+00  0.10475114948E+04  0.10475114948E+04  0.50400001928E-02 0. -1.
        1   -1    0    0  501    0  0.00000000000E+00  0.00000000000E+00 -0.14842562041E+04  0.14842562041E+04  0.50400001928E-02 0.  1.
    10030    2    1    2    0    0  0.00000000000E+00  0.00000000000E+00 -0.43674470925E+03  0.25317676989E+04  0.24938126915E+04 0.  0.
        1    1    3    3  502    0 -0.16347502359E+03 -0.42820110563E+03  0.95888644550E+03  0.10627998333E+04  0.50400001928E-02 0. -1.
       -1    1    3    3    0  502  0.16347502359E+03  0.42820110563E+03 -0.13956311548E+04  0.14689678657E+04  0.50400001928E-02 0.  1.
</event>
<event>
 5   0  0.3424193E-06  0.2504190E+04  0.7818609E-02  0.8401494E-01
        1   -1    0    0  501    0  0.00000000000E+00  0.00000000000E+00  0.13965297890E+04  0.13965297891E+04  0.50400001928E-02 0.  1.
       -1   -1    0    0    0  501  0.00000000000E+00  0.00000000000E+00 -0.11225983118E+04  0.11225983118E+04  0.50400001928E-02 0. -1.
    10030    2    1    2    0    0  0.00000000000E+00  0.00000000000E+00  0.27393147726E+03  0.25191281009E+04  0.25041900755E+04 0.  0.
        1    1    3    3  502    0  0.37945207722E+03 -0.76931797077E+03 -0.78056495954E+03  0.11597912205E+04  0.50400001928E-02 0. -1.
       -1    1    3    3    0  502 -0.37945207722E+03  0.76931797077E+03  0.10544964368E+04  0.13593368804E+04  0.50400001928E-02 0.  1.
</event>
<event>
 5   0  0.3424193E-06  0.2500113E+04  0.7818609E-02  0.8402945E-01
        1   -1    0    0  501    0  0.00000000000E+00  0.00000000000E+00  0.11404067710E+04  0.11404067710E+04  0.50400001928E-02 0.  1.
       -1   -1    0    0    0  501  0.00000000000E+00  0.00000000000E+00 -0.13702485297E+04  0.13702485297E+04  0.50400001928E-02 0. -1.
    10030    2    1    2    0    0  0.00000000000E+00  0.00000000000E+00 -0.22984175868E+03  0.25106553007E+04  0.25001125584E+04 0.  0.
        1    1    3    3  502    0 -0.11135812771E+04 -0.35177117623E+03 -0.56270983512E+03  0.12963211715E+04  0.50400001928E-02 0. -1.
       -1    1    3    3    0  502  0.11135812771E+04  0.35177117623E+03  0.33286807644E+03  0.12143341292E+04  0.50400001928E-02 0.  1.
</event>
<event>
 5   0  0.8407986E-06  0.2493435E+04  0.7818609E-02  0.8405328E-01
        2   -1    0    0  501    0  0.00000000000E+00  0.00000000000E+00  0.80067781951E+03  0.80067781951E+03  0.25500000920E-02 0. -1.
       -2   -1    0    0    0  501  0.00000000000E+00  0.00000000000E+00 -0.19412357629E+04  0.19412357629E+04  0.25500000920E-02 0.  1.
    10030    2    1    2    0    0  0.00000000000E+00  0.00000000000E+00 -0.11405579434E+04  0.27419135824E+04  0.24934349141E+04 0.  0.
        5    1    3    3  502    0  0.70486370313E+03  0.98489143117E+03 -0.24511178035E+03  0.12356965024E+04  0.46999998093E+01 0.  1.
       -5    1    3    3    0  502 -0.70486370313E+03 -0.98489143117E+03 -0.89544616300E+03  0.15062170800E+04  0.46999998093E+01 0. -1.
</event>
<event>
 5   0  0.8579923E-06  0.2499894E+04  0.7818609E-02  0.8403023E-01
       -2   -1    0    0    0  501  0.00000000000E+00  0.00000000000E+00  0.11353344032E+04  0.11353344032E+04  0.25500000920E-02 0. -1.
        2   -1    0    0  501    0  0.00000000000E+00  0.00000000000E+00 -0.13761293012E+04  0.13761293012E+04  0.25500000920E-02 0.  1.
    10030    2    1    2    0    0  0.00000000000E+00  0.00000000000E+00 -0.24079489794E+03  0.25114637044E+04  0.24998935489E+04 0.  0.
        1    1    3    3  502    0 -0.10600442750E+03 -0.10595370375E+04 -0.77803486269E+03  0.13187850166E+04  0.50400001928E-02 0. -1.
       -1    1    3    3    0  502  0.10600442750E+03  0.10595370375E+04  0.53723996474E+03  0.11926786878E+04  0.50400001928E-02 0.  1.
</event>
<event>
 5   0  0.3642184E-06  0.2503737E+04  0.7818609E-02  0.8401655E-01
        1   -1    0    0  501    0  0.00000000000E+00  0.00000000000E+00  0.14627671334E+04  0.14627671334E+04  0.50400001928E-02 0.  1.
       -1   -1    0    0    0  501  0.00000000000E+00  0.00000000000E+00 -0.10713768804E+04  0.10713768804E+04  0.50400001928E-02 0. -1.
    10030    2    1    2    0    0  0.00000000000E+00  0.00000000000E+00  0.39139025300E+03  0.25341440137E+04  0.25037371172E+04 0.  0.
        5    1    3    3  502    0  0.95733364445E+03 -0.56491855356E+03 -0.38708585295E+03  0.11770633910E+04  0.46999998093E+01 0. -1.
       -5    1    3    3    0  502 -0.95733364445E+03  0.56491855356E+03  0.77847610596E+03  0.13570806227E+04  0.46999998093E+01 0.  1.
</event>
<event>
 5   0  0.3484857E-06  0.2500511E+04  0.7818609E-02  0.8402804E-01
       -1   -1    0    0    0  501  0.00000000000E+00  0.00000000000E+00  0.83053593608E+03  0.83053593610E+03  0.50400001928E-02 0.  1.
        1   -1    0    0  501    0  0.00000000000E+00  0.00000000000E+00 -0.18820841559E+04  0.18820841559E+04  0.50400001928E-02 0. -1.
    10030    2    1    2    0    0  0.00000000000E+00  0.00000000000E+00 -0.10515482198E+04  0.27126200920E+04  0.25005107688E+04 0.  0.
        3    1    3    3  502    0  0.70914636580E+03  0.32880050347E+03 -0.15843224379E+04  0.17666567116E+04  0.10100000352E+00 0. -1.
       -3    1    3    3    0  502 -0.70914636580E+03 -0.32880050347E+03  0.53277421816E+03  0.94596338034E+03  0.10100000352E+00 0.  1.
</event>
<event>
 5   0  0.8579923E-06  0.2501390E+04  0.7818609E-02  0.8402490E-01
       -2   -1    0    0    0  501  0.00000000000E+00  0.00000000000E+00  0.12932612507E+04  0.12932612507E+04  0.25500000920E-02 0. -1.
        2   -1    0    0  501    0  0.00000000000E+00  0.00000000000E+00 -0.12095301057E+04  0.12095301057E+04  0.25500000920E-02 0.  1.
    10030    2    1    2    0    0  0.00000000000E+00  0.00000000000E+00  0.83731145083E+02  0.25027913564E+04  0.25013903472E+04 0.  0.
        1    1    3    3  502    0 -0.66373366322E+03 -0.10570451166E+04 -0.37876386685E+02  0.12487279027E+04  0.50400001928E-02 0.  1.
       -1    1    3    3    0  502  0.66373366322E+03  0.10570451166E+04  0.12160753177E+03  0.12540634537E+04  0.50400001928E-02 0. -1.
</event>
<event>
 5   0  0.3424193E-06  0.2488782E+04  0.7818609E-02  0.8406993E-01
        1   -1    0    0  501    0  0.00000000000E+00  0.00000000000E+00  0.15169690112E+04  0.15169690112E+04  0.50400001928E-02 0. -1.
       -1   -1    0    0    0  501  0.00000000000E+00  0.00000000000E+00 -0.10207911442E+04  0.10207911443E+04  0.50400001928E-02 0.  1.
    10030    2    1    2    0    0  0.00000000000E+00  0.00000000000E+00  0.49617786694E+03  0.25377601554E+04  0.24887816559E+04 0.  0.
        1    1    3    3  502    0  0.39288821264E+03  0.78632702891E+03  0.11462393463E+04  0.14444846773E+04  0.50400001928E-02 0. -1.
       -1    1    3    3    0  502 -0.39288821264E+03 -0.78632702891E+03 -0.65006147938E+03  0.10932754781E+04  0.50400001928E-02 0.  1.
</event>
<event>
 5   0  0.3522870E-06  0.2514472E+04  0.7818609E-02  0.8397848E-01
        1   -1    0    0  501    0  0.00000000000E+00  0.00000000000E+00  0.14988044393E+04  0.14988044393E+04  0.50400001928E-02 0. -1.
       -1   -1    0    0    0  501  0.00000000000E+00  0.00000000000E+00 -0.10546018019E+04  0.10546018019E+04  0.50400001928E-02 0.  1.
    10030    2    1    2    0    0  0.00000000000E+00  0.00000000000E+00  0.44420263742E+03  0.25534062412E+04  0.25144716044E+04 0.  0.
        2    1    3    3  502    0  0.68346204113E+03  0.45354329368E+03  0.11896504977E+04  0.14450225561E+04  0.25500000920E-02 0. -1.
       -2    1    3    3    0  502 -0.68346204113E+03 -0.45354329368E+03 -0.74544786032E+03  0.11083836851E+04  0.25500000920E-02 0.  1.
</event>
<event>
 5   0  0.3481387E-06  0.2505510E+04  0.7818609E-02  0.8401025E-01
       -1   -1    0    0    0  501  0.00000000000E+00  0.00000000000E+00  0.14000837405E+04  0.14000837405E+04  0.50400001928E-02 0. -1.
        1   -1    0    0  501    0  0.00000000000E+00  0.00000000000E+00 -0.11209293541E+04  0.11209293541E+04  0.50400001928E-02 0.  1.
    10030    2    1    2    0    0  0.00000000000E+00  0.00000000000E+00  0.27915438640E+03  0.25210130947E+04  0.25055098986E+04 0.  0.
        4    1    3    3  502    0 -0.10297773652E+04  0.19876688656E+02 -0.57796712670E+03  0.11810521229E+04  0.12699999809E+01 0.  1.
       -4    1    3    3    0  502  0.10297773652E+04 -0.19876688656E+02  0.85712151310E+03  0.13399609717E+04  0.12699999809E+01 0. -1.
</event>
<event>
 5   0  0.3481387E-06  0.2497221E+04  0.7818609E-02  0.8403976E-01
        1   -1    0    0  501    0  0.00000000000E+00  0.00000000000E+00  0.12748507306E+04  0.12748507306E+04  0.50400001928E-02 0. -1.
       -1   -1    0    0    0  501  0.00000000000E+00  0.00000000000E+00 -0.12229108149E+04  0.12229108149E+04  0.50400001928E-02 0.  1.
    10030    2    1    2    0    0  0.00000000000E+00  0.00000000000E+00  0.51939915727E+02  0.24977615455E+04  0.24972214526E+04 0.  0.
        4    1    3    3  502    0 -0.60185697498E+03 -0.22142017278E+03  0.10975412100E+04  0.12711636526E+04  0.12699999809E+01 0. -1.
       -4    1    3    3    0  502  0.60185697498E+03  0.22142017278E+03 -0.10456012943E+04  0.12265978929E+04  0.12699999809E+01 0.  1.
</event>
<event>
 5   0  0.3424193E-06  0.2524454E+04  0.7818609E-02  0.8394325E-01
       -1   -1    0    0    0  501  0.00000000000E+00  0.00000000000E+00  0.16671009287E+04  0.16671009287E+04  0.50400001928E-02 0. -1.
        1   -1    0    0  501    0  0.00000000000E+00  0.00000000000E+00 -0.95568097237E+03  0.95568097239E+03  0.50400001928E-02 0.  1.
    10030    2    1    2    0    0  0.00000000000E+00  0.00000000000E+00  0.71141995632E+03  0.26227819011E+04  0.25244537125E+04 0.  0.
        1    1    3    3  502    0  0.10379922142E+04 -0.21662564509E+03 -0.35569572757E+03  0.11184247661E+04  0.50400001928E-02 0.  1.
       -1    1    3    3    0  502 -0.10379922142E+04  0.21662564509E+03  0.10671156839E+04  0.15043571350E+04  0.50400001928E-02 0. -1.
</event>
<event>
 5   0  0.3484857E-06  0.2510738E+04  0.7818609E-02  0.8399170E-01
        1   -1    0    0  501    0  0.00000000000E+00  0.00000000000E+00  0.92403779341E+03  0.92403779343E+03  0.50400001928E-02 0.  1.
       -1   -1    0    0    0  501  0.00000000000E+00  0.00000000000E+00 -0.17055058005E+04  0.17055058005E+04  0.50400001928E-02 0. -1.
    10030    2    1    2    0    0  0.00000000000E+00  0.00000000000E+00 -0.78146800704E+03  0.26295435939E+04  0.25107383906E+04 0.  0.
        3    1    3    3  502    0  0.61413734156E+03  0.46219968652E+03  0.64878392589E+03  0.10058398566E+04  0.10100000352E+00 0.  1.
       -3    1    3    3    0  502 -0.61413734156E+03 -0.46219968652E+03 -0.14302519329E+04  0.16237037372E+04  0.10100000352E+00 0. -1.
</event>
<event>
 5   0  0.3481387E-06  0.2498126E+04  0.7818609E-02  0.8403654E-01
        1   -1    0    0  501    0  0.00000000000E+00  0.00000000000E+00  0.11743846070E+04  0.11743846070E+04  0.50400001928E-02 0. -1.
       -1   -1    0    0    0  501  0.00000000000E+00  0.00000000000E+00 -0.13284896506E+04  0.13284896506E+04  0.50400001928E-02 0.  1.
    10030    2    1    2    0    0  0.00000000000E+00  0.00000000000E+00 -0.15410504353E+03  0.25028742576E+04  0.24981255343E+04 0.  0.
        4    1    3    3  502    0 -0.42404292139E+03 -0.11395417152E+04  0.20947793877E+03  0.12337950963E+04  0.12699999809E+01 0. -1.
       -4    1    3    3    0  502  0.42404292139E+03  0.11395417152E+04 -0.36358298230E+03  0.12690791613E+04  0.12699999809E+01 0.  1.
</event>
<event>
 5   0  0.8354653E-06  0.2556131E+04  0.7818609E-02  0.8383257E-01
       -2   -1    0    0    0  501  0.00000000000E+00  0.00000000000E+00  0.54946868000E+03  0.54946868001E+03  0.25500000920E-02 0. -1.
        2   -1    0    0  501    0  0.00000000000E+00  0.00000000000E+00 -0.29727835925E+04  0.29727835925E+04  0.25500000920E-02 0.  1.
    10030    2    1    2    0    0  0.00000000000E+00  0.00000000000E+00 -0.24233149125E+04  0.35222522725E+04  0.25561310424E+04 0.  0.
        3    1    3    3  502    0  0.14159729583E+03 -0.20403385838E+03 -0.29392133104E+04  0.29496871874E+04  0.10100000352E+00 0.  1.
       -3    1    3    3    0  502 -0.14159729583E+03  0.20403385838E+03  0.51589839787E+03  0.57256508510E+03  0.10100000352E+00 0. -1.
</event>
<event>
 5   0  0.3522870E-06  0.2366144E+04  0.7818609E-02  0.8452289E-01
        1   -1    0    0  501    0  0.00000000000E+00  0.00000000000E+00  0.10031193415E+04  0.10031193415E+04  0.50400001928E-02 0. -1.
       -1   -1    0    0    0  501  0.00000000000E+00  0.00000000000E+00 -0.13953066602E+04  0.13953066602E+04  0.50400001928E-02 0.  1.
    10030    2    1    2    0    0  0.00000000000E+00  0.00000000000E+00 -0.39218731874E+03  0.23984260017E+04  0.23661437811E+04 0.  0.
        2    1    3    3  502    0  0.46659061468E+02 -0.68088090490E+03 -0.11756546443E+04  0.13593894649E+04  0.25500000920E-02 0.  1.
       -2    1    3    3    0  502 -0.46659061468E+02  0.68088090490E+03  0.78346732552E+03  0.10390365368E+04  0.25500000920E-02 0. -1.
</event>
<event>
 5   0  0.3484857E-06  0.2499165E+04  0.7818609E-02  0.8403283E-01
        1   -1    0    0  501    0  0.00000000000E+00  0.00000000000E+00  0.13303609299E+04  0.13303609299E+04  0.50400001928E-02 0. -1.
       -1   -1    0    0    0  501  0.00000000000E+00  0.00000000000E+00 -0.11737090415E+04  0.11737090415E+04  0.50400001928E-02 0.  1.
    10030    2    1    2    0    0  0.00000000000E+00  0.00000000000E+00  0.15665188846E+03  0.25040699714E+04  0.24991651821E+04 0.  0.
        3    1    3    3  502    0 -0.65464913656E+03 -0.86841564280E+03  0.69495671663E+03  0.12906107348E+04  0.10100000352E+00 0. -1.
       -3    1    3    3    0  502  0.65464913656E+03  0.86841564280E+03 -0.53830482817E+03  0.12134592366E+04  0.10100000352E+00 0.  1.
</event>
<event>
 5   0  0.3522870E-06  0.2490840E+04  0.7818609E-02  0.8406256E-01
        1   -1    0    0  501    0  0.00000000000E+00  0.00000000000E+00  0.12457436026E+04  0.12457436026E+04  0.50400001928E-02 0.  1.
       -1   -1    0    0    0  501  0.00000000000E+00  0.00000000000E+00 -0.12450960302E+04  0.12450960302E+04  0.50400001928E-02 0. -1.
    10030    2    1    2    0    0  0.00000000000E+00  0.00000000000E+00  0.64757241406E+00  0.24908396328E+04  0.24908395486E+04 0.  0.
        2    1    3    3  502    0  0.46560359247E+03 -0.36045041722E+03  0.10977568307E+04  0.12457051288E+04  0.25500000920E-02 0.  1.
       -2    1    3    3    0  502 -0.46560359247E+03  0.36045041722E+03 -0.10971092582E+04  0.12451345040E+04  0.25500000920E-02 0. -1.
</event>
<event>
 5   0  0.8579923E-06  0.2493964E+04  0.7818609E-02  0.8405139E-01
       -2   -1    0    0    0  501  0.00000000000E+00  0.00000000000E+00  0.11916278559E+04  0.11916278559E+04  0.25500000920E-02 0.  1.
        2   -1    0    0  501    0  0.00000000000E+00  0.00000000000E+00 -0.13049075604E+04  0.13049075604E+04  0.25500000920E-02 0. -1.
    10030    2    1    2    0    0  0.00000000000E+00  0.00000000000E+00 -0.11327970455E+03  0.24965354163E+04  0.24939640722E+04 0.  0.
        1    1    3    3  502    0 -0.11680615615E+04  0.41498561385E+02 -0.49168459243E+03  0.12680077604E+04  0.50400001928E-02 0. -1.
       -1    1    3    3    0  502  0.11680615615E+04 -0.41498561385E+02  0.37840488789E+03  0.12285276559E+04  0.50400001928E-02 0.  1.
</event>
<event>
 5   0  0.3424193E-06  0.2492469E+04  0.7818609E-02  0.8405673E-01
        1   -1    0    0  501    0  0.00000000000E+00  0.00000000000E+00  0.10914968074E+04  0.10914968074E+04  0.50400001928E-02 0.  1.
       -1   -1    0    0    0  501  0.00000000000E+00  0.00000000000E+00 -0.14229091206E+04  0.14229091206E+04  0.50400001928E-02 0. -1.
    10030    2    1    2    0    0  0.00000000000E+00  0.00000000000E+00 -0.33141231319E+03  0.25144059281E+04  0.24924692676E+04 0.  0.
        1    1    3    3  502    0  0.11268490183E+04 -0.41976970363E+03  0.16444388895E+03  0.12136874008E+04  0.50400001928E-02 0.  1.
       -1    1    3    3    0  502 -0.11268490183E+04  0.41976970363E+03 -0.49585620215E+03  0.13007185273E+04  0.50400001928E-02 0. -1.
</event>
<event>
 5   0  0.8056723E-06  0.2502346E+04  0.7818609E-02  0.8402150E-01
       -2   -1    0    0    0  501  0.00000000000E+00  0.00000000000E+00  0.60145561411E+03  0.60145561412E+03  0.25500000920E-02 0. -1.
        2   -1    0    0  501    0  0.00000000000E+00  0.00000000000E+00 -0.26027420155E+04  0.26027420155E+04  0.25500000920E-02 0.  1.
    10030    2    1    2    0    0  0.00000000000E+00  0.00000000000E+00 -0.20012864014E+04  0.32041976296E+04  0.25023459372E+04 0.  0.
        2    1    3    3  502    0 -0.99299163929E+02 -0.24739080616E+03  0.56466982712E+03  0.62443138021E+03  0.25500000920E-02 0. -1.
       -2    1    3    3    0  502  0.99299163929E+02  0.24739080616E+03 -0.25659562285E+04  0.25797662494E+04  0.25500000920E-02 0.  1.
</event>
<event>
 5   0  0.2901250E-06  0.2496786E+04  0.7818609E-02  0.8404131E-01
       -3   -1    0    0    0  501  0.00000000000E+00  0.00000000000E+00  0.98581148366E+03  0.98581148883E+03  0.10100000352E+00 0. -1.
        3   -1    0    0  501    0  0.00000000000E+00  0.00000000000E+00 -0.15809162387E+04  0.15809162420E+04  0.10100000352E+00 0.  1.
    10030    2    1    2    0    0  0.00000000000E+00  0.00000000000E+00 -0.59510475507E+03  0.25667277308E+04  0.24967862493E+04 0.  0.
        2    1    3    3  502    0  0.68972281158E+03  0.56072761497E+03 -0.11986641405E+04  0.14922897630E+04  0.25500000920E-02 0.  1.
       -2    1    3    3    0  502 -0.68972281158E+03 -0.56072761497E+03  0.60355938539E+03  0.10744379678E+04  0.25500000920E-02 0. -1.
</event>
<event>
 5   0  0.3424193E-06  0.2482512E+04  0.7818609E-02  0.8409242E-01
       -1   -1    0    0    0  501  0.00000000000E+00  0.00000000000E+00  0.97604227545E+03  0.97604227547E+03  0.50400001928E-02 0.  1.
        1   -1    0    0  501    0  0.00000000000E+00  0.00000000000E+00 -0.15785345099E+04  0.15785345099E+04  0.50400001928E-02 0. -1.
    10030    2    1    2    0    0  0.00000000000E+00  0.00000000000E+00 -0.60249223445E+03  0.25545767854E+04  0.24825119657E+04 0.  0.
        1    1    3    3  502    0 -0.72788280786E+03  0.99066906497E+03 -0.12457098918E+03  0.12356198888E+04  0.50400001928E-02 0.  1.
       -1    1    3    3    0  502  0.72788280786E+03 -0.99066906497E+03 -0.47792124527E+03  0.13189568966E+04  0.50400001928E-02 0. -1.
</event>
<event>
 5   0  0.3484857E-06  0.2502482E+04  0.7818609E-02  0.8402102E-01
        1   -1    0    0  501    0  0.00000000000E+00  0.00000000000E+00  0.14471410387E+04  0.14471410387E+04  0.50400001928E-02 0. -1.
       -1   -1    0    0    0  501  0.00000000000E+00  0.00000000000E+00 -0.10818598549E+04  0.10818598549E+04  0.50400001928E-02 0.  1.
    10030    2    1    2    0    0  0.00000000000E+00  0.00000000000E+00  0.36528118379E+03  0.25290008936E+04  0.25024818034E+04 0.  0.
        3    1    3    3  502    0 -0.12157491520E+04 -0.28144676921E+03  0.27496238278E+03  0.12778351250E+04  0.10100000352E+00 0. -1.
       -3    1    3    3    0  502  0.12157491520E+04  0.28144676921E+03  0.90318801011E+02  0.12511657686E+04  0.10100000352E+00 0.  1.
</event>
<event>
 5   0  0.8354653E-06  0.2496788E+04  0.7818609E-02  0.8404131E-01
       -2   -1    0    0    0  501  0.00000000000E+00  0.00000000000E+00  0.15790490309E+04  0.15790490309E+04  0.25500000920E-02 0. -1.
        2   -1    0    0  501    0  0.00000000000E+00  0.00000000000E+00 -0.98697850248E+03  0.98697850248E+03  0.25500000920E-02 0.  1.
    10030    2    1    2    0    0  0.00000000000E+00  0.00000000000E+00  0.59207052846E+03  0.25660275334E+04  0.24967878948E+04 0.  0.
        3    1    3    3  502    0 -0.42711729828E+03 -0.44452433301E+03 -0.81963643291E+03  0.10255900553E+04  0.10100000352E+00 0.  1.
       -3    1    3    3    0  502  0.42711729828E+03  0.44452433301E+03  0.14117069614E+04  0.15404374782E+04  0.10100000352E+00 0. -1.
</event>
<event>
 5   0  0.8948286E-06  0.2499291E+04  0.7818609E-02  0.8403238E-01
       -2   -1    0    0    0  501  0.00000000000E+00  0.00000000000E+00  0.72684502708E+03  0.72684502708E+03  0.25500000920E-02 0.  1.
        2   -1    0    0  501    0  0.00000000000E+00  0.00000000000E+00 -0.21484819611E+04  0.21484819611E+04  0.25500000920E-02 0. -1.
    10030    2    1    2    0    0  0.00000000000E+00  0.00000000000E+00 -0.14216369341E+04  0.28753269882E+04  0.24992906427E+04 0.  0.
        4    1    3    3  502    0 -0.19073662252E+03 -0.93097519549E+03 -0.16444033744E+04  0.18992523120E+04  0.12699999809E+01 0. -1.
       -4    1    3    3    0  502  0.19073662252E+03  0.93097519549E+03  0.22276644036E+03  0.97607467626E+03  0.12699999809E+01 0.  1.
</event>
<event>
 5   0  0.3424193E-06  0.2500884E+04  0.7818609E-02  0.8402671E-01
        1   -1    0    0  501    0  0.00000000000E+00  0.00000000000E+00  0.18353766927E+04  0.18353766927E+04  0.50400001928E-02 0.  1.
       -1   -1    0    0    0  501  0.00000000000E+00  0.00000000000E+00 -0.85192615212E+03  0.85192615214E+03  0.50400001928E-02 0. -1.
    10030    2    1    2    0    0  0.00000000000E+00  0.00000000000E+00  0.98345054060E+03  0.26873028449E+04  0.25008841665E+04 0.  0.
        1    1    3    3  502    0 -0.42783527398E+03 -0.88390566599E+03 -0.34010639163E+03  0.10392327005E+04  0.50400001928E-02 0. -1.
       -1    1    3    3    0  502  0.42783527398E+03  0.88390566599E+03  0.13235569322E+04  0.16480701444E+04  0.50400001928E-02 0.  1.
</event>
<event>
 5   0  0.3642184E-06  0.2510990E+04  0.7818609E-02  0.8399081E-01
       -1   -1    0    0    0  501  0.00000000000E+00  0.00000000000E+00  0.11260875341E+04  0.11260875341E+04  0.50400001928E-02 0. -1.
        1   -1    0    0  501    0  0.00000000000E+00  0.00000000000E+00 -0.13997737724E+04  0.13997737724E+04  0.50400001928E-02 0.  1.
    10030    2    1    2    0    0  0.00000000000E+00  0.00000000000E+00 -0.27368623827E+03  0.25258613065E+04  0.25109900801E+04 0.  0.
        5    1    3    3  502    0 -0.10053530804E+04 -0.55779683686E+03  0.37049851393E+03  0.12079583463E+04  0.46999998093E+01 0.  1.
       -5    1    3    3    0  502  0.10053530804E+04  0.55779683686E+03 -0.64418475220E+03  0.13179029602E+04  0.46999998093E+01 0. -1.
</event>
<event>
 5   0  0.8354653E-06  0.2506851E+04  0.7818609E-02  0.8400549E-01
        2   -1    0    0  501    0  0.00000000000E+00  0.00000000000E+00  0.65833318431E+03  0.65833318432E+03  0.25500000920E-02 0. -1.
       -2   -1    0    0    0  501  0.00000000000E+00  0.00000000000E+00 -0.23864445910E+04  0.23864445910E+04  0.25500000920E-02 0.  1.
    10030    2    1    2    0    0  0.00000000000E+00  0.00000000000E+00 -0.17281114067E+04  0.30447777754E+04  0.25068511458E+04 0.  0.
        3    1    3    3  502    0 -0.94762745135E+03  0.42640686324E+03 -0.12759745659E+02  0.10392225079E+04  0.10100000352E+00 0. -1.
       -3    1    3    3    0  502  0.94762745135E+03 -0.42640686324E+03 -0.17153516611E+04  0.20055552675E+04  0.10100000352E+00 0.  1.
</event>
<event>
 5   0  0.3481387E-06  0.2499181E+04  0.7818609E-02  0.8403277E-01
        1   -1    0    0  501    0  0.00000000000E+00  0.00000000000E+00  0.14860481641E+04  0.14860481641E+04  0.50400001928E-02 0. -1.
       -1   -1    0    0    0  501  0.00000000000E+00  0.00000000000E+00 -0.10507577265E+04  0.10507577265E+04  0.50400001928E-02 0.  1.
    10030    2    1    2    0    0  0.00000000000E+00  0.00000000000E+00  0.43529043757E+03  0.25368058906E+04  0.24991811382E+04 0.  0.
        4    1    3    3  502    0 -0.11926647522E+04 -0.33253927314E+03  0.38883594868E+03  0.12977775569E+04  0.12699999809E+01 0. -1.
       -4    1    3    3    0  502  0.11926647522E+04  0.33253927314E+03  0.46454488895E+02  0.12390283337E+04  0.12699999809E+01 0.  1.
</event>
<event>
 5   0  0.8354653E-06  0.2504527E+04  0.7818609E-02  0.8401374E-01
        2   -1    0    0  501    0  0.00000000000E+00  0.00000000000E+00  0.95276392826E+03  0.95276392826E+03  0.25500000920E-02 0. -1.
       -2   -1    0    0    0  501  0.00000000000E+00  0.00000000000E+00 -0.16459107879E+04  0.16459107879E+04  0.25500000920E-02 0.  1.
    10030    2    1    2    0    0  0.00000000000E+00  0.00000000000E+00 -0.69314685968E+03  0.25986747162E+04  0.25045274428E+04 0.  0.
        3    1    3    3  502    0 -0.87986835148E+03 -0.71231128312E+03  0.20890965599E+03  0.11511728517E+04  0.10100000352E+00 0. -1.
       -3    1    3    3    0  502  0.87986835148E+03  0.71231128312E+03 -0.90205651567E+03  0.14475018645E+04  0.10100000352E+00 0.  1.
</event>
<event>
 5   0  0.3642184E-06  0.2503494E+04  0.7818609E-02  0.8401742E-01
       -1   -1    0    0    0  501  0.00000000000E+00  0.00000000000E+00  0.66256191128E+03  0.66256191130E+03  0.50400001928E-02 0.  1.
        1   -1    0    0  501    0  0.00000000000E+00  0.00000000000E+00 -0.23648659222E+04  0.23648659222E+04  0.50400001928E-02 0. -1.
    10030    2    1    2    0    0  0.00000000000E+00  0.00000000000E+00 -0.17023040109E+04  0.30274278335E+04  0.25034936272E+04 0.  0.
        5    1    3    3  502    0 -0.48766645564E+03 -0.94202284009E+03 -0.47528090971E+02  0.10618411428E+04  0.46999998093E+01 0. -1.
       -5    1    3    3    0  502  0.48766645564E+03  0.94202284009E+03 -0.16547759200E+04  0.19655866907E+04  0.46999998093E+01 0.  1.
</event>
<event>
 5   0  0.3522870E-06  0.2544796E+04  0.7818609E-02  0.8387198E-01
       -1   -1    0    0    0  501  0.00000000000E+00  0.00000000000E+00  0.11267113330E+04  0.11267113330E+04  0.50400001928E-02 0. -1.
        1   -1    0    0  501    0  0.00000000000E+00  0.00000000000E+00 -0.14369218489E+04  0.14369218489E+04  0.50400001928E-02 0.  1.
    10030    2    1    2    0    0  0.00000000000E+00  0.00000000000E+00 -0.31021051588E+03  0.25636331819E+04  0.25447955767E+04 0.  0.
        2    1    3    3  502    0 -0.95795216017E+03  0.45338701130E+03 -0.86442244035E+03  0.13676469861E+04  0.25500000920E-02 0.  1.
       -2    1    3    3    0  502  0.95795216017E+03 -0.45338701130E+03  0.55421192447E+03  0.11959861958E+04  0.25500000920E-02 0. -1.
</event>
<event>
 5   0  0.8407986E-06  0.2478966E+04  0.7818609E-02  0.8410518E-01
       -2   -1    0    0    0  501  0.00000000000E+00  0.00000000000E+00  0.96562919944E+03  0.96562919944E+03  0.25500000920E-02 0.  1.
        2   -1    0    0  501    0  0.00000000000E+00  0.00000000000E+00 -0.15910020492E+04  0.15910020492E+04  0.25500000920E-02 0. -1.
    10030    2    1    2    0    0  0.00000000000E+00  0.00000000000E+00 -0.62537284973E+03  0.25566312486E+04  0.24789659417E+04 0.  0.
        5    1    3    3  502    0  0.93631085208E+03  0.53688923054E+03  0.31580550617E+03  0.11245813734E+04  0.46999998093E+01 0.  1.
       -5    1    3    3    0  502 -0.93631085208E+03 -0.53688923054E+03 -0.94117835591E+03  0.14320498753E+04  0.46999998093E+01 0. -1.
</event>
<event>
 5   0  0.3424193E-06  0.2500304E+04  0.7818609E-02  0.8402877E-01
        1   -1    0    0  501    0  0.00000000000E+00  0.00000000000E+00  0.88882827981E+03  0.88882827982E+03  0.50400001928E-02 0. -1.
       -1   -1    0    0    0  501  0.00000000000E+00  0.00000000000E+00 -0.17583602266E+04  0.17583602266E+04  0.50400001928E-02 0.  1.
    10030    2    1    2    0    0  0.00000000000E+00  0.00000000000E+00 -0.86953194681E+03  0.26471885065E+04  0.25003042179E+04 0.  0.
        1    1    3    3  502    0  0.20441636406E+03 -0.45126213332E+03  0.78046882082E+03  0.92442151812E+03  0.50400001928E-02 0. -1.
       -1    1    3    3    0  502 -0.20441636406E+03  0.45126213332E+03 -0.16500007676E+04  0.17227669883E+04  0.50400001928E-02 0.  1.
</event>
<event>
 5   0  0.3424193E-06  0.2486717E+04  0.7818609E-02  0.8407733E-01
       -1   -1    0    0    0  501  0.00000000000E+00  0.00000000000E+00  0.10341224441E+04  0.10341224441E+04  0.50400001928E-02 0. -1.
        1   -1    0    0  501    0  0.00000000000E+00  0.00000000000E+00 -0.14949302084E+04  0.14949302085E+04  0.50400001928E-02 0.  1.
    10030    2    1    2    0    0  0.00000000000E+00  0.00000000000E+00 -0.46080776432E+03  0.25290526526E+04  0.24867174194E+04 0.  0.
        1    1    3    3  502    0 -0.27633132260E+03 -0.29758103863E+03 -0.14255818622E+04  0.14822945457E+04  0.50400001928E-02 0.  1.
       -1    1    3    3    0  502  0.27633132260E+03  0.29758103863E+03  0.96477409787E+03  0.10467581069E+04  0.50400001928E-02 0. -1.
</event>
<event>
 5   0  0.8354653E-06  0.2490297E+04  0.7818609E-02  0.8406450E-01
        2   -1    0    0  501    0  0.00000000000E+00  0.00000000000E+00  0.19096500194E+04  0.19096500194E+04  0.25500000920E-02 0. -1.
       -2   -1    0    0    0  501  0.00000000000E+00  0.00000000000E+00 -0.81187378348E+03  0.81187378349E+03  0.25500000920E-02 0.  1.
    10030    2    1    2    0    0  0.00000000000E+00  0.00000000000E+00  0.10977762359E+04  0.27215238029E+04  0.24902969995E+04 0.  0.
        3    1    3    3  502    0 -0.10852860612E+04 -0.99679235616E+02  0.12069741480E+04  0.16262128978E+04  0.10100000352E+00 0. -1.
       -3    1    3    3    0  502  0.10852860612E+04  0.99679235616E+02 -0.10919791209E+03  0.10953109051E+04  0.10100000352E+00 0.  1.
</event>
<event>
 5   0  0.3481387E-06  0.2501494E+04  0.7818609E-02  0.8402454E-01
       -1   -1    0    0    0  501  0.00000000000E+00  0.00000000000E+00  0.70312866288E+03  0.70312866290E+03  0.50400001928E-02 0. -1.
        1   -1    0    0  501    0  0.00000000000E+00  0.00000000000E+00 -0.22248666791E+04  0.22248666791E+04  0.50400001928E-02 0.  1.
    10030    2    1    2    0    0  0.00000000000E+00  0.00000000000E+00 -0.15217380163E+04  0.29279953420E+04  0.25014935804E+04 0.  0.
        4    1    3    3  502    0  0.23810270022E+03  0.55933737534E+03 -0.20403129785E+04  0.21289504124E+04  0.12699999809E+01 0.  1.
       -4    1    3    3    0  502 -0.23810270022E+03 -0.55933737534E+03  0.51857496221E+03  0.79904492968E+03  0.12699999809E+01 0. -1.
</event>
<event>
 5   0  0.3424193E-06  0.2441839E+04  0.7818609E-02  0.8424004E-01
       -1   -1    0    0    0  501  0.00000000000E+00  0.00000000000E+00  0.67629334574E+03  0.67629334576E+03  0.50400001928E-02 0. -1.
        1   -1    0    0  501    0  0.00000000000E+00  0.00000000000E+00 -0.22041384199E+04  0.22041384199E+04  0.50400001928E-02 0.  1.
    10030    2    1    2    0    0  0.00000000000E+00  0.00000000000E+00 -0.15278450742E+04  0.28804317657E+04  0.24418387715E+04 0.  0.
        1    1    3    3  502    0  0.43072176000E+03 -0.44896301203E+03 -0.20031117456E+04  0.20975094007E+04  0.50400001928E-02 0.  1.
       -1    1    3    3    0  502 -0.43072176000E+03  0.44896301203E+03  0.47526667137E+03  0.78292236502E+03  0.50400001928E-02 0. -1.
</event>
<event>
 5   0  0.8407986E-06  0.2489620E+04  0.7818609E-02  0.8406693E-01
        2   -1    0    0  501    0  0.00000000000E+00  0.00000000000E+00  0.17587429353E+04  0.17587429353E+04  0.25500000920E-02 0.  1.
       -2   -1    0    0    0  501  0.00000000000E+00  0.00000000000E+00 -0.88105651226E+03  0.88105651227E+03  0.25500000920E-02 0. -1.
    10030    2    1    2    0    0  0.00000000000E+00  0.00000000000E+00  0.87768642307E+03  0.26397994476E+04  0.24896199843E+04 0.  0.
        5    1    3    3  502    0  0.40706791847E+03 -0.28181193153E+03  0.16498442840E+04  0.17225360682E+04  0.46999998093E+01 0.  1.
       -5    1    3    3    0  502 -0.40706791847E+03  0.28181193153E+03 -0.77215786090E+03  0.91726337937E+03  0.46999998093E+01 0. -1.
</event>
<event>
 5   0  0.3642184E-06  0.2494807E+04  0.7818609E-02  0.8404838E-01
        1   -1    0    0  501    0  0.00000000000E+00  0.00000000000E+00  0.17379751310E+04  0.17379751310E+04  0.50400001928E-02 0. -1.
       -1   -1    0    0    0  501  0.00000000000E+00  0.00000000000E+00 -0.89530389582E+03  0.89530389583E+03  0.50400001928E-02 0.  1.
    10030    2    1    2    0    0  0.00000000000E+00  0.00000000000E+00  0.84267123514E+03  0.26332790268E+04  0.24948073317E+04 0.  0.
        5    1    3    3  502    0  0.13161737189E+03 -0.21128821428E+03 -0.86881148983E+03  0.90378168655E+03  0.46999998093E+01 0.  1.
       -5    1    3    3    0  502 -0.13161737189E+03  0.21128821428E+03  0.17114827250E+04  0.17294973403E+04  0.46999998093E+01 0. -1.
</event>
<event>
 5   0  0.8354653E-06  0.2522842E+04  0.7818609E-02  0.8394893E-01
       -2   -1    0    0    0  501  0.00000000000E+00  0.00000000000E+00  0.57762042561E+03  0.57762042561E+03  0.25500000920E-02 0.  1.
        2   -1    0    0  501    0  0.00000000000E+00  0.00000000000E+00 -0.27547214991E+04  0.27547214991E+04  0.25500000920E-02 0. -1.
    10030    2    1    2    0    0  0.00000000000E+00  0.00000000000E+00 -0.21771010735E+04  0.33323419247E+04  0.25228423690E+04 0.  0.
        3    1    3    3  502    0  0.99457478793E+03  0.99621562292E+02 -0.21049153261E+04  0.23301871179E+04  0.10100000352E+00 0. -1.
       -3    1    3    3    0  502 -0.99457478793E+03 -0.99621562292E+02 -0.72185747444E+02  0.10021548068E+04  0.10100000352E+00 0.  1.
</event>
<event>
 5   0  0.3522870E-06  0.2496860E+04  0.7818609E-02  0.8404105E-01
        1   -1    0    0  501    0  0.00000000000E+00  0.00000000000E+00  0.13566176829E+04  0.13566176829E+04  0.50400001928E-02 0. -1.
       -1   -1    0    0    0  501  0.00000000000E+00  0.00000000000E+00 -0.11488699166E+04  0.11488699166E+04  0.50400001928E-02 0.  1.
    10030    2    1    2    0    0  0.00000000000E+00  0.00000000000E+00  0.20774776631E+03  0.25054875995E+04  0.24968598232E+04 0.  0.
        2    1    3    3  502    0  0.57406522562E+01 -0.11381414877E+04  0.61865556928E+03  0.12954280044E+04  0.25500000920E-02 0. -1.
       -2    1    3    3    0  502 -0.57406522562E+01  0.11381414877E+04 -0.41090780297E+03  0.12100595951E+04  0.25500000920E-02 0.  1.
</event>
<event>
 5   0  0.3481387E-06  0.2498900E+04  0.7818609E-02  0.8403377E-01
        1   -1    0    0  501    0  0.00000000000E+00  0.00000000000E+00  0.14181613875E+04  0.14181613875E+04  0.50400001928E-02 0. -1.
       -1   -1    0    0    0  501  0.00000000000E+00  0.00000000000E+00 -0.11008096381E+04  0.11008096381E+04  0.50400001928E-02 0.  1.
    10030    2    1    2    0    0  0.00000000000E+00  0.00000000000E+00  0.31735174939E+03  0.25189710256E+04  0.24989003371E+04 0.  0.
        4    1    3    3  502    0  0.53599893446E+02  0.89591072725E+03  0.10349072739E+04  0.13698772420E+04  0.12699999809E+01 0. -1.
       -4    1    3    3    0  502 -0.53599893446E+02 -0.89591072725E+03 -0.71755552450E+03  0.11490937836E+04  0.12699999809E+01 0.  1.
</event>
<event>
 5   0  0.3424193E-06  0.2501851E+04  0.7818609E-02  0.8402327E-01
       -1   -1    0    0    0  501  0.00000000000E+00  0.00000000000E+00  0.14238788174E+04  0.14238788174E+04  0.50400001928E-02 0.  1.
        1   -1    0    0  501    0  0.00000000000E+00  0.00000000000E+00 -0.10989798064E+04  0.10989798064E+04  0.50400001928E-02 0. -1.
    10030    2    1    2    0    0  0.00000000000E+00  0.00000000000E+00  0.32489901102E+03  0.25228586238E+04  0.25018505687E+04 0.  0.
        1    1    3    3  502    0  0.11457588923E+04  0.37370045358E+03 -0.17562466897E+03  0.12178914125E+04  0.50400001928E-02 0.  1.
       -1    1    3    3    0  502 -0.11457588923E+04 -0.37370045358E+03  0.50052367999E+03  0.13049672113E+04  0.50400001928E-02 0. -1.
</event>
<event>
 5   0  0.3481387E-06  0.2503206E+04  0.7818609E-02  0.8401844E-01
       -1   -1    0    0    0  501  0.00000000000E+00  0.00000000000E+00  0.13394137726E+04  0.13394137726E+04  0.50400001928E-02 0.  1.
        1   -1    0    0  501    0  0.00000000000E+00  0.00000000000E+00 -0.11695493267E+04  0.11695493268E+04  0.50400001928E-02 0. -1.
    10030    2    1    2    0    0  0.00000000000E+00  0.00000000000E+00  0.16986444589E+03  0.25089630994E+04  0.25032063247E+04 0.  0.
        4    1    3    3  502    0  0.33586494129E+03  0.82692292739E+01 -0.11235084821E+04  0.11726664322E+04  0.12699999809E+01 0. -1.
       -4    1    3    3    0  502 -0.33586494129E+03 -0.82692292739E+01  0.12933729280E+04  0.13362966672E+04  0.12699999809E+01 0.  1.
</event>
<event>
 5   0  0.8056723E-06  0.2502677E+04  0.7818609E-02  0.8402032E-01
        2   -1    0    0  501    0  0.00000000000E+00  0.00000000000E+00  0.11246844839E+04  0.11246844839E+04  0.25500000920E-02 0.  1.
       -2   -1    0    0    0  501  0.00000000000E+00  0.00000000000E+00 -0.13922554462E+04  0.13922554462E+04  0.25500000920E-02 0. -1.
    10030    2    1    2    0    0  0.00000000000E+00  0.00000000000E+00 -0.26757096234E+03  0.25169399301E+04  0.25026770450E+04 0.  0.
        2    1    3    3  502    0 -0.77012799020E+03 -0.76856181742E+03  0.48785019991E+03  0.11923850913E+04  0.25500000920E-02 0.  1.
       -2    1    3    3    0  502  0.77012799020E+03  0.76856181742E+03 -0.75542116225E+03  0.13245548388E+04  0.25500000920E-02 0. -1.
</event>
<event>
 5   0  0.8579923E-06  0.2452868E+04  0.7818609E-02  0.8419971E-01
       -2   -1    0    0    0  501  0.00000000000E+00  0.00000000000E+00  0.50905214558E+03  0.50905214558E+03  0.25500000920E-02 0.  1.
        2   -1    0    0  501    0  0.00000000000E+00  0.00000000000E+00 -0.29547871553E+04  0.29547871553E+04  0.25500000920E-02 0. -1.
    10030    2    1    2    0    0  0.00000000000E+00  0.00000000000E+00 -0.24457350097E+04  0.34638393008E+04  0.24528683137E+04 0.  0.
        1    1    3    3  502    0 -0.11320161915E+04 -0.40029641212E+03 -0.86998923488E+03  0.14827606497E+04  0.50400001928E-02 0.  1.
       -1    1    3    3    0  502  0.11320161915E+04  0.40029641212E+03 -0.15757457748E+04  0.19810786512E+04  0.50400001928E-02 0. -1.
</event>
<event>
 5   0  0.8354653E-06  0.2496139E+04  0.7818609E-02  0.8404362E-01
        2   -1    0    0  501    0  0.00000000000E+00  0.00000000000E+00  0.99933722334E+03  0.99933722335E+03  0.25500000920E-02 0.  1.
       -2   -1    0    0    0  501  0.00000000000E+00  0.00000000000E+00 -0.15587109990E+04  0.15587109990E+04  0.25500000920E-02 0. -1.
    10030    2    1    2    0    0  0.00000000000E+00  0.00000000000E+00 -0.55937377564E+03  0.25580482223E+04  0.24961393565E+04 0.  0.
        3    1    3    3  502    0  0.54221763006E+03  0.11072787428E+04 -0.80939419501E+02  0.12355635850E+04  0.10100000352E+00 0. -1.
       -3    1    3    3    0  502 -0.54221763006E+03 -0.11072787428E+04 -0.47843435614E+03  0.13224846374E+04  0.10100000352E+00 0.  1.
</event>
<event>
 5   0  0.8579923E-06  0.2491587E+04  0.7818609E-02  0.8405989E-01
        2   -1    0    0  501    0  0.00000000000E+00  0.00000000000E+00  0.15072808057E+04  0.15072808057E+04  0.25500000920E-02 0. -1.
       -2   -1    0    0    0  501  0.00000000000E+00  0.00000000000E+00 -0.10296694581E+04  0.10296694581E+04  0.25500000920E-02 0.  1.
    10030    2    1    2    0    0  0.00000000000E+00  0.00000000000E+00  0.47761134757E+03  0.25369502639E+04  0.24915866515E+04 0.  0.
        1    1    3    3  502    0 -0.11863941743E+03 -0.79474918109E+03  0.12081360286E+04  0.14509632097E+04  0.50400001928E-02 0. -1.
       -1    1    3    3    0  502  0.11863941743E+03  0.79474918109E+03 -0.73052468104E+03  0.10859870542E+04  0.50400001928E-02 0.  1.
</event>
<event>
 5   0  0.8948286E-06  0.2417937E+04  0.7818609E-02  0.8432818E-01
        2   -1    0    0  501    0  0.00000000000E+00  0.00000000000E+00  0.15709556719E+04  0.15709556719E+04  0.25500000920E-02 0.  1.
       -2   -1    0    0    0  501  0.00000000000E+00  0.00000000000E+00 -0.93039251395E+03  0.93039251395E+03  0.25500000920E-02 0. -1.
    10030    2    1    2    0    0  0.00000000000E+00  0.00000000000E+00  0.64056315798E+03  0.25013481859E+04  0.24179374656E+04 0.  0.
        4    1    3    3  502    0  0.11915554825E+03 -0.29804042440E+01 -0.92429864908E+03  0.93195307451E+03  0.12699999809E+01 0. -1.
       -4    1    3    3    0  502 -0.11915554825E+03  0.29804042440E+01  0.15648618071E+04  0.15693951114E+04  0.12699999809E+01 0.  1.
</event>
<event>
 5   0  0.3484857E-06  0.2510709E+04  0.7818609E-02  0.8399180E-01
        1   -1    0    0  501    0  0.00000000000E+00  0.00000000000E+00  0.15799095147E+04  0.15799095147E+04  0.50400001928E-02 0.  1.
       -1   -1    0    0    0  501  0.00000000000E+00  0.00000000000E+00 -0.99747144017E+03  0.99747144019E+03  0.50400001928E-02 0. -1.
    10030    2    1    2    0    0  0.00000000000E+00  0.00000000000E+00  0.58243807450E+03  0.25773809549E+04  0.25107087597E+04 0.  0.
        3    1    3    3  502    0 -0.50344879966E+03  0.41229844038E+03  0.13932554502E+04  0.15377293186E+04  0.10100000352E+00 0.  1.
       -3    1    3    3    0  502  0.50344879966E+03 -0.41229844038E+03 -0.81081737566E+03  0.10396516362E+04  0.10100000352E+00 0. -1.
</event>
<event>
 5   0  0.3424193E-06  0.2475460E+04  0.7818609E-02  0.8411780E-01
       -1   -1    0    0    0  501  0.00000000000E+00  0.00000000000E+00  0.12235627136E+04  0.12235627136E+04  0.50400001928E-02 0.  1.
        1   -1    0    0  501    0  0.00000000000E+00  0.00000000000E+00 -0.12520615829E+04  0.12520615829E+04  0.50400001928E-02 0. -1.
    10030    2    1    2    0    0  0.00000000000E+00  0.00000000000E+00 -0.28498869316E+02  0.24756242966E+04  0.24754602546E+04 0.  0.
        1    1    3    3  502    0  0.89104621439E+03 -0.67653236516E+03 -0.54373373429E+03  0.12439074608E+04  0.50400001928E-02 0. -1.
       -1    1    3    3    0  502 -0.89104621439E+03  0.67653236516E+03  0.51523486498E+03  0.12317168357E+04  0.50400001928E-02 0.  1.
</event>
<event>
 5   0  0.2901250E-06  0.2499424E+04  0.7818609E-02  0.8403191E-01
        3   -1    0    0  501    0  0.00000000000E+00  0.00000000000E+00  0.21771225734E+04  0.21771225757E+04  0.10100000352E+00 0.  1.
       -3   -1    0    0    0  501  0.00000000000E+00  0.00000000000E+00 -0.71735989955E+03  0.71735990666E+03  0.10100000352E+00 0. -1.
    10030    2    1    2    0    0  0.00000000000E+00  0.00000000000E+00  0.14597626739E+04  0.28944824824E+04  0.24994242891E+04 0.  0.
        2    1    3    3  502    0  0.12230358071E+04  0.18861379563E+03  0.52800428072E+03  0.13454293998E+04  0.25500000920E-02 0. -1.
       -2    1    3    3    0  502 -0.12230358071E+04 -0.18861379563E+03  0.93175839313E+03  0.15490530826E+04  0.25500000920E-02 0.  1.
</event>
<event>
 5   0  0.3424193E-06  0.2513676E+04  0.7818609E-02  0.8398130E-01
       -1   -1    0    0    0  501  0.00000000000E+00  0.00000000000E+00  0.63085757709E+03  0.63085757711E+03  0.50400001928E-02 0.  1.
        1   -1    0    0  501    0  0.00000000000E+00  0.00000000000E+00 -0.25039591978E+04  0.25039591978E+04  0.50400001928E-02 0. -1.
    10030    2    1    2    0    0  0.00000000000E+00  0.00000000000E+00 -0.18731016208E+04  0.31348167750E+04  0.25136759001E+04 0.  0.
        1    1    3    3  502    0 -0.52376357417E+03 -0.88016861758E+03 -0.28117022433E+02  0.10246051161E+04  0.50400001928E-02 0.  1.
       -1    1    3    3    0  502  0.52376357417E+03  0.88016861758E+03 -0.18449845983E+04  0.21102116588E+04  0.50400001928E-02 0. -1.
</event>
<event>
 5   0  0.3481387E-06  0.2517332E+04  0.7818609E-02  0.8396837E-01
        1   -1    0    0  501    0  0.00000000000E+00  0.00000000000E+00  0.14482337471E+04  0.14482337471E+04  0.50400001928E-02 0.  1.
       -1   -1    0    0    0  501  0.00000000000E+00  0.00000000000E+00 -0.10939115343E+04  0.10939115343E+04  0.50400001928E-02 0. -1.
    10030    2    1    2    0    0  0.00000000000E+00  0.00000000000E+00  0.35432221282E+03  0.25421452815E+04  0.25173316034E+04 0.  0.
        4    1    3    3  502    0 -0.23635120082E+03 -0.70016137502E+03 -0.85177882817E+03  0.11276598007E+04  0.12699999809E+01 0. -1.
       -4    1    3    3    0  502  0.23635120082E+03  0.70016137502E+03  0.12061010410E+04  0.14144854807E+04  0.12699999809E+01 0.  1.
</event>
<event>
 5   0  0.3484857E-06  0.2521319E+04  0.7818609E-02  0.8395430E-01
       -1   -1    0    0    0  501  0.00000000000E+00  0.00000000000E+00  0.97891670596E+03  0.97891670597E+03  0.50400001928E-02 0.  1.
        1   -1    0    0  501    0  0.00000000000E+00  0.00000000000E+00 -0.16234908215E+04  0.16234908216E+04  0.50400001928E-02 0. -1.
    10030    2    1    2    0    0  0.00000000000E+00  0.00000000000E+00 -0.64457411558E+03  0.26024075275E+04  0.25213189304E+04 0.  0.
        3    1    3    3  502    0 -0.44479022956E+03 -0.85391114286E+03  0.51767889413E+03  0.10931578275E+04  0.10100000352E+00 0.  1.
       -3    1    3    3    0  502  0.44479022956E+03  0.85391114286E+03 -0.11622530097E+04  0.15092497000E+04  0.10100000352E+00 0. -1.
</event>
<event>
 5   0  0.8948286E-06  0.2500781E+04  0.7818609E-02  0.8402707E-01
        2   -1    0    0  501    0  0.00000000000E+00  0.00000000000E+00  0.22979168673E+04  0.22979168673E+04  0.25500000920E-02 0. -1.
       -2   -1    0    0    0  501  0.00000000000E+00  0.00000000000E+00 -0.68038868357E+03  0.68038868358E+03  0.25500000920E-02 0.  1.
    10030    2    1    2    0    0  0.00000000000E+00  0.00000000000E+00  0.16175281838E+04  0.29783055509E+04  0.25007811838E+04 0.  0.
        4    1    3    3  502    0  0.39489817380E+03 -0.41162052311E+03  0.21339330186E+04  0.22088566643E+04  0.12699999809E+01 0. -1.
       -4    1    3    3    0  502 -0.39489817380E+03  0.41162052311E+03 -0.51640483485E+03  0.76944888659E+03  0.12699999809E+01 0.  1.
</event>
<event>
 5   0  0.3522870E-06  0.2516246E+04  0.7818609E-02  0.8397221E-01
        1   -1    0    0  501    0  0.00000000000E+00  0.00000000000E+00  0.22171886245E+04  0.22171886245E+04  0.50400001928E-02 0.  1.
       -1   -1    0    0    0  501  0.00000000000E+00  0.00000000000E+00 -0.71391001154E+03  0.71391001156E+03  0.50400001928E-02 0. -1.
    10030    2    1    2    0    0  0.00000000000E+00  0.00000000000E+00  0.15032786129E+04  0.29310986360E+04  0.25162457404E+04 0.  0.
        2    1    3    3  502    0  0.78302068688E+03  0.59127344720E+03 -0.16568915675E+03  0.99507717395E+03  0.25500000920E-02 0. -1.
       -2    1    3    3    0  502 -0.78302068688E+03 -0.59127344720E+03  0.16689677697E+04  0.19360214621E+04  0.25500000920E-02 0.  1.
</event>
<event>
 5   0  0.3484857E-06  0.2507175E+04  0.7818609E-02  0.8400434E-01
       -1   -1    0    0    0  501  0.00000000000E+00  0.00000000000E+00  0.99328278960E+03  0.99328278962E+03  0.50400001928E-02 0. -1.
        1   -1    0    0  501    0  0.00000000000E+00  0.00000000000E+00 -0.15821089226E+04  0.15821089226E+04  0.50400001928E-02 0.  1.
    10030    2    1    2    0    0  0.00000000000E+00  0.00000000000E+00 -0.58882613299E+03  0.25753917122E+04  0.25071749553E+04 0.  0.
        3    1    3    3  502    0  0.75981643572E+03 -0.26025624505E+03  0.69428641741E+03  0.10616439934E+04  0.10100000352E+00 0. -1.
       -3    1    3    3    0  502 -0.75981643572E+03  0.26025624505E+03 -0.12831125504E+04  0.15137477188E+04  0.10100000352E+00 0.  1.
</event>
<event>
 5   0  0.8407986E-06  0.2489007E+04  0.7818609E-02  0.8406912E-01
       -2   -1    0    0    0  501  0.00000000000E+00  0.00000000000E+00  0.13743461358E+04  0.13743461358E+04  0.25500000920E-02 0. -1.
        2   -1    0    0  501    0  0.00000000000E+00  0.00000000000E+00 -0.11269276997E+04  0.11269276997E+04  0.25500000920E-02 0.  1.
    10030    2    1    2    0    0  0.00000000000E+00  0.00000000000E+00  0.24741843610E+03  0.25012738354E+04  0.24890068134E+04 0.  0.
        5    1    3    3  502    0 -0.53671773236E+03 -0.65741983690E+03 -0.79099646607E+03  0.11601570004E+04  0.46999998093E+01 0.  1.
       -5    1    3    3    0  502  0.53671773236E+03  0.65741983690E+03  0.10384149022E+04  0.13411168350E+04  0.46999998093E+01 0. -1.
</event>
<event>
 5   0  0.3522870E-06  0.2504916E+04  0.7818609E-02  0.8401236E-01
        1   -1    0    0  501    0  0.00000000000E+00  0.00000000000E+00  0.15142035161E+04  0.15142035161E+04  0.50400001928E-02 0. -1.
       -1   -1    0    0    0  501  0.00000000000E+00  0.00000000000E+00 -0.10359582378E+04  0.10359582378E+04  0.50400001928E-02 0.  1.
    10030    2    1    2    0    0  0.00000000000E+00  0.00000000000E+00  0.47824527829E+03  0.25501617539E+04  0.25049164506E+04 0.  0.
        2    1    3    3  502    0  0.18578141876E+03 -0.69698989588E+03  0.12815023911E+04  0.14705638473E+04  0.25500000920E-02 0. -1.
       -2    1    3    3    0  502 -0.18578141876E+03  0.69698989588E+03 -0.80325711284E+03  0.10795979066E+04  0.25500000920E-02 0.  1.
</event>
<event>
 5   0  0.3642184E-06  0.2501603E+04  0.7818609E-02  0.8402415E-01
       -1   -1    0    0    0  501  0.00000000000E+00  0.00000000000E+00  0.15093999045E+04  0.15093999045E+04  0.50400001928E-02 0.  1.
        1   -1    0    0  501    0  0.00000000000E+00  0.00000000000E+00 -0.10365079258E+04  0.10365079258E+04  0.50400001928E-02 0. -1.
    10030    2    1    2    0    0  0.00000000000E+00  0.00000000000E+00  0.47289197877E+03  0.25459078303E+04  0.25016034572E+04 0.  0.
        5    1    3    3  502    0 -0.57586692901E+03  0.49986326156E+03 -0.77257517742E+03  0.10855323555E+04  0.46999998093E+01 0. -1.
       -5    1    3    3    0  502  0.57586692901E+03 -0.49986326156E+03  0.12454671562E+04  0.14603754748E+04  0.46999998093E+01 0.  1.
</event>
<event>
 5   0  0.3642184E-06  0.2502416E+04  0.7818609E-02  0.8402125E-01
       -1   -1    0    0    0  501  0.00000000000E+00  0.00000000000E+00  0.86908409044E+03  0.86908409045E+03  0.50400001928E-02 0. -1.
        1   -1    0    0  501    0  0.00000000000E+00  0.00000000000E+00 -0.18013470023E+04  0.18013470023E+04  0.50400001928E-02 0.  1.
    10030    2    1    2    0    0  0.00000000000E+00  0.00000000000E+00 -0.93226291190E+03  0.26704310928E+04  0.25024164490E+04 0.  0.
        5    1    3    3  502    0 -0.63128035048E+03 -0.14399943342E+03  0.67638197774E+03  0.93635751054E+03  0.46999998093E+01 0. -1.
       -5    1    3    3    0  502  0.63128035048E+03  0.14399943342E+03 -0.16086448896E+04  0.17340735823E+04  0.46999998093E+01 0.  1.
</event>
<event>
 5   0  0.8056723E-06  0.2499374E+04  0.7818609E-02  0.8403208E-01
        2   -1    0    0  501    0  0.00000000000E+00  0.00000000000E+00  0.10960120482E+04  0.10960120482E+04  0.25500000920E-02 0. -1.
       -2   -1    0    0    0  501  0.00000000000E+00  0.00000000000E+00 -0.14249096234E+04  0.14249096234E+04  0.25500000920E-02 0.  1.
    10030    2    1    2    0    0  0.00000000000E+00  0.00000000000E+00 -0.32889757528E+03  0.25209216716E+04  0.24993744136E+04 0.  0.
        2    1    3    3  502    0  0.46947477284E+03  0.11559063267E+04 -0.91771244208E+02  0.12509788007E+04  0.25500000920E-02 0. -1.
       -2    1    3    3    0  502 -0.46947477284E+03 -0.11559063267E+04 -0.23712633107E+03  0.12699428709E+04  0.25500000920E-02 0.  1.
</event>
<event>
 5   0  0.8056723E-06  0.2485575E+04  0.7818609E-02  0.8408143E-01
       -2   -1    0    0    0  501  0.00000000000E+00  0.00000000000E+00  0.11343454498E+04  0.11343454498E+04  0.25500000920E-02 0.  1.
        2   -1    0    0  501    0  0.00000000000E+00  0.00000000000E+00 -0.13615965755E+04  0.13615965755E+04  0.25500000920E-02 0. -1.
    10030    2    1    2    0    0  0.00000000000E+00  0.00000000000E+00 -0.22725112568E+03  0.24959420253E+04  0.24855750883E+04 0.  0.
        2    1    3    3  502    0  0.11456934384E+04 -0.36443674006E+03  0.20247824285E+03  0.12191903179E+04  0.25500000920E-02 0. -1.
       -2    1    3    3    0  502 -0.11456934384E+04  0.36443674006E+03 -0.42972936853E+03  0.12767517075E+04  0.25500000920E-02 0.  1.
</event>
<event>
 5   0  0.8354653E-06  0.2481459E+04  0.7818609E-02  0.8409621E-01
       -2   -1    0    0    0  501  0.00000000000E+00  0.00000000000E+00  0.16181118679E+04  0.16181118679E+04  0.25500000920E-02 0. -1.
        2   -1    0    0  501    0  0.00000000000E+00  0.00000000000E+00 -0.95136207232E+03  0.95136207232E+03  0.25500000920E-02 0.  1.
    10030    2    1    2    0    0  0.00000000000E+00  0.00000000000E+00  0.66674979560E+03  0.25694739402E+04  0.24814594576E+04 0.  0.
        3    1    3    3  502    0  0.12828899073E+03 -0.60623539512E+03 -0.77966058401E+03  0.99591669124E+03  0.10100000352E+00 0.  1.
       -3    1    3    3    0  502 -0.12828899073E+03  0.60623539512E+03  0.14464103796E+04  0.15735572490E+04  0.10100000352E+00 0. -1.
</event>
<event>
 5   0  0.8948286E-06  0.2496916E+04  0.7818609E-02  0.8404085E-01
        2   -1    0    0  501    0  0.00000000000E+00  0.00000000000E+00  0.88266632223E+03  0.88266632223E+03  0.25500000920E-02 0.  1.
       -2   -1    0    0    0  501  0.00000000000E+00  0.00000000000E+00 -0.17658392166E+04  0.17658392166E+04  0.25500000920E-02 0. -1.
    10030    2    1    2    0    0  0.00000000000E+00  0.00000000000E+00 -0.88317289437E+03  0.26485055388E+04  0.24969155428E+04 0.  0.
        4    1    3    3  502    0 -0.98496004856E+03 -0.72306051629E+03 -0.71343153829E+03  0.14149024631E+04  0.12699999809E+01 0. -1.
       -4    1    3    3    0  502  0.98496004856E+03  0.72306051629E+03 -0.16974135607E+03  0.12336030757E+04  0.12699999809E+01 0.  1.
</event>
<event>
 5   0  0.3424193E-06  0.2545395E+04  0.7818609E-02  0.8386990E-01
        1   -1    0    0  501    0  0.00000000000E+00  0.00000000000E+00  0.20390209339E+04  0.20390209339E+04  0.50400001928E-02 0. -1.
       -1   -1    0    0    0  501  0.00000000000E+00  0.00000000000E+00 -0.79438056676E+03  0.79438056678E+03  0.50400001928E-02 0.  1.
    10030    2    1    2    0    0  0.00000000000E+00  0.00000000000E+00  0.12446403671E+04  0.28334015007E+04  0.25453947475E+04 0.  0.
        1    1    3    3  502    0  0.63292189377E+03  0.10092662393E+04  0.12382098972E+03  0.11977228824E+04  0.50400001928E-02 0. -1.
       -1    1    3    3    0  502 -0.63292189377E+03 -0.10092662393E+04  0.11208193774E+04  0.16356786183E+04  0.50400001928E-02 0.  1.
</event>
<event>
 5   0  0.8948286E-06  0.2510734E+04  0.7818609E-02  0.8399171E-01
       -2   -1    0    0    0  501  0.00000000000E+00  0.00000000000E+00  0.80540421372E+03  0.80540421372E+03  0.25500000920E-02 0. -1.
        2   -1    0    0  501    0  0.00000000000E+00  0.00000000000E+00 -0.19567154191E+04  0.19567154191E+04  0.25500000920E-02 0.  1.
    10030    2    1    2    0    0  0.00000000000E+00  0.00000000000E+00 -0.11513112054E+04  0.27621196328E+04  0.25107344293E+04 0.  0.
        4    1    3    3  502    0 -0.37028236567E+03  0.57133154878E+02  0.74246211213E+03  0.83163984305E+03  0.12699999809E+01 0. -1.
       -4    1    3    3    0  502  0.37028236567E+03 -0.57133154878E+02 -0.18937733175E+04  0.19304797898E+04  0.12699999809E+01 0.  1.
</event>
<event>
 5   0  0.3481387E-06  0.2484139E+04  0.7818609E-02  0.8408658E-01
        1   -1    0    0  501    0  0.00000000000E+00  0.00000000000E+00  0.17450361523E+04  0.17450361523E+04  0.50400001928E-02 0.  1.
       -1   -1    0    0    0  501  0.00000000000E+00  0.00000000000E+00 -0.88407112258E+03  0.88407112259E+03  0.50400001928E-02 0. -1.
    10030    2    1    2    0    0  0.00000000000E+00  0.00000000000E+00  0.86096502970E+03  0.26291072749E+04  0.24841385389E+04 0.  0.
        4    1    3    3  502    0 -0.25798898141E+03 -0.57957804099E+03 -0.69966588540E+03  0.94445909611E+03  0.12699999809E+01 0. -1.
       -4    1    3    3    0  502  0.25798898141E+03  0.57957804099E+03  0.15606309151E+04  0.16846481788E+04  0.12699999809E+01 0.  1.
</event>
<event>
 5   0  0.8579923E-06  0.2505408E+04  0.7818609E-02  0.8401061E-01
        2   -1    0    0  501    0  0.00000000000E+00  0.00000000000E+00  0.18417421873E+04  0.18417421873E+04  0.25500000920E-02 0. -1.
       -2   -1    0    0    0  501  0.00000000000E+00  0.00000000000E+00 -0.85205620537E+03  0.85205620537E+03  0.25500000920E-02 0.  1.
    10030    2    1    2    0    0  0.00000000000E+00  0.00000000000E+00  0.98968598189E+03  0.26937983926E+04  0.25054084372E+04 0.  0.
        1    1    3    3  502    0 -0.18383483148E+03  0.10663093650E+04  0.11735420672E+04  0.15962493198E+04  0.50400001928E-02 0. -1.
       -1    1    3    3    0  502  0.18383483148E+03 -0.10663093650E+04 -0.18385608534E+03  0.10975490729E+04  0.50400001928E-02 0.  1.
</event>
<event>
 5   0  0.3484857E-06  0.2499844E+04  0.7818609E-02  0.8403041E-01
       -1   -1    0    0    0  501  0.00000000000E+00  0.00000000000E+00  0.73926957360E+03  0.73926957362E+03  0.50400001928E-02 0. -1.
        1   -1    0    0  501    0  0.00000000000E+00  0.00000000000E+00 -0.21133092839E+04  0.21133092839E+04  0.50400001928E-02 0.  1.
    10030    2    1    2    0    0  0.00000000000E+00  0.00000000000E+00 -0.13740397103E+04  0.28525788576E+04  0.24998441978E+04 0.  0.
        3    1    3    3  502    0 -0.11794753410E+04  0.26962620622E+03 -0.10450513782E+04  0.15987472484E+04  0.10100000352E+00 0.  1.
       -3    1    3    3    0  502  0.11794753410E+04 -0.26962620622E+03 -0.32898833213E+03  0.12538316091E+04  0.10100000352E+00 0. -1.
</event>
<event>
 5   0  0.8354653E-06  0.2507184E+04  0.7818609E-02  0.8400431E-01
        2   -1    0    0  501    0  0.00000000000E+00  0.00000000000E+00  0.10425900215E+04  0.10425900215E+04  0.25500000920E-02 0. -1.
       -2   -1    0    0    0  501  0.00000000000E+00  0.00000000000E+00 -0.15072967081E+04  0.15072967081E+04  0.25500000920E-02 0.  1.
    10030    2    1    2    0    0  0.00000000000E+00  0.00000000000E+00 -0.46470668663E+03  0.25498867295E+04  0.25071836847E+04 0.  0.
        3    1    3    3  502    0 -0.95674541367E+03  0.47138412567E+03  0.43759826063E+03  0.11528473569E+04  0.10100000352E+00 0.  1.
       -3    1    3    3    0  502  0.95674541367E+03 -0.47138412567E+03 -0.90230494726E+03  0.13970393726E+04  0.10100000352E+00 0. -1.
</event>
<event>
 5   0  0.3642184E-06  0.2501669E+04  0.7818609E-02  0.8402391E-01
        1   -1    0    0  501    0  0.00000000000E+00  0.00000000000E+00  0.16449817188E+04  0.16449817189E+04  0.50400001928E-02 0.  1.
       -1   -1    0    0    0  501  0.00000000000E+00  0.00000000000E+00 -0.95112756876E+03  0.95112756878E+03  0.50400001928E-02 0. -1.
    10030    2    1    2    0    0  0.00000000000E+00  0.00000000000E+00  0.69385415008E+03  0.25961092876E+04  0.25016694130E+04 0.  0.
        5    1    3    3  502    0 -0.47987390463E+03  0.26260042228E+03  0.15142594034E+04  0.16100439674E+04  0.46999998093E+01 0.  1.
       -5    1    3    3    0  502  0.47987390463E+03 -0.26260042228E+03 -0.82040525331E+03  0.98606532025E+03  0.46999998093E+01 0. -1.
</event>
<event>
 5   0  0.8579923E-06  0.2492662E+04  0.7818609E-02  0.8405605E-01
       -2   -1    0    0    0  501  0.00000000000E+00  0.00000000000E+00  0.89811904251E+03  0.89811904251E+03  0.25500000920E-02 0.  1.
        2   -1    0    0  501    0  0.00000000000E+00  0.00000000000E+00 -0.17295486609E+04  0.17295486609E+04  0.25500000920E-02 0. -1.
    10030    2    1    2    0    0  0.00000000000E+00  0.00000000000E+00 -0.83142961837E+03  0.26276677034E+04  0.24926616997E+04 0.  0.
        1    1    3    3  502    0 -0.73116339791E+03  0.86798905427E+03 -0.95872118000E+03  0.14856484153E+04  0.50400001928E-02 0. -1.
       -1    1    3    3    0  502  0.73116339791E+03 -0.86798905427E+03  0.12729156163E+03  0.11420192881E+04  0.50400001928E-02 0.  1.
</event>
<event>
 5   0  0.8354653E-06  0.2505868E+04  0.7818609E-02  0.8400898E-01
       -2   -1    0    0    0  501  0.00000000000E+00  0.00000000000E+00  0.13393588363E+04  0.13393588363E+04  0.25500000920E-02 0.  1.
        2   -1    0    0  501    0  0.00000000000E+00  0.00000000000E+00 -0.11720855565E+04  0.11720855565E+04  0.25500000920E-02 0. -1.
    10030    2    1    2    0    0  0.00000000000E+00  0.00000000000E+00  0.16727327980E+03  0.25114443928E+04  0.25058676317E+04 0.  0.
        3    1    3    3  502    0  0.34487261048E+03 -0.12021007079E+04  0.16035703156E+03  0.12608321130E+04  0.10100000352E+00 0. -1.
       -3    1    3    3    0  502 -0.34487261048E+03  0.12021007079E+04  0.69162482382E+01  0.12506122797E+04  0.10100000352E+00 0.  1.
</event>
<event>
 5   0  0.2901250E-06  0.2498153E+04  0.7818609E-02  0.8403644E-01
       -3   -1    0    0    0  501  0.00000000000E+00  0.00000000000E+00  0.13075116811E+04  0.13075116850E+04  0.10100000352E+00 0.  1.
        3   -1    0    0  501    0  0.00000000000E+00  0.00000000000E+00 -0.11932532240E+04  0.11932532282E+04  0.10100000352E+00 0. -1.
    10030    2    1    2    0    0  0.00000000000E+00  0.00000000000E+00  0.11425845716E+03  0.25007649133E+04  0.24981533492E+04 0.  0.
        2    1    3    3  502    0  0.81575221478E+03  0.77615584457E+03 -0.48410498609E+03  0.12256537882E+04  0.25500000920E-02 0. -1.
       -2    1    3    3    0  502 -0.81575221478E+03 -0.77615584457E+03  0.59836344325E+03  0.12751111250E+04  0.25500000920E-02 0.  1.
</event>
<event>
 5   0  0.3481387E-06  0.2495125E+04  0.7818609E-02  0.8404724E-01
        1   -1    0    0  501    0  0.00000000000E+00  0.00000000000E+00  0.11814211654E+04  0.11814211654E+04  0.50400001928E-02 0. -1.
       -1   -1    0    0    0  501  0.00000000000E+00  0.00000000000E+00 -0.13174065950E+04  0.13174065950E+04  0.50400001928E-02 0.  1.
    10030    2    1    2    0    0  0.00000000000E+00  0.00000000000E+00 -0.13598542966E+03  0.24988277604E+04  0.24951248744E+04 0.  0.
        4    1    3    3  502    0  0.79988123249E+03 -0.44015250777E+02 -0.10257922327E+04  0.13015370321E+04  0.12699999809E+01 0.  1.
       -4    1    3    3    0  502 -0.79988123249E+03  0.44015250777E+02  0.88980680304E+03  0.11972907283E+04  0.12699999809E+01 0. -1.
</event>
<event>
 5   0  0.3522870E-06  0.2534006E+04  0.7818609E-02  0.8390970E-01
       -1   -1    0    0    0  501  0.00000000000E+00  0.00000000000E+00  0.10412291933E+04  0.10412291933E+04  0.50400001928E-02 0.  1.
        1   -1    0    0  501    0  0.00000000000E+00  0.00000000000E+00 -0.15417316413E+04  0.15417316413E+04  0.50400001928E-02 0. -1.
    10030    2    1    2    0    0  0.00000000000E+00  0.00000000000E+00 -0.50050244796E+03  0.25829608346E+04  0.25340055195E+04 0.  0.
        2    1    3    3  502    0 -0.63320372607E+03 -0.36534396471E+02 -0.13682611372E+04  0.15081181189E+04  0.25500000920E-02 0. -1.
       -2    1    3    3    0  502  0.63320372607E+03  0.36534396471E+02  0.86775868927E+03  0.10748427158E+04  0.25500000920E-02 0.  1.
</event>
<event>
 5   0  0.8948286E-06  0.2502725E+04  0.7818609E-02  0.8402016E-01
       -2   -1    0    0    0  501  0.00000000000E+00  0.00000000000E+00  0.11879378087E+04  0.11879378087E+04  0.25500000920E-02 0.  1.
        2   -1    0    0  501    0  0.00000000000E+00  0.00000000000E+00 -0.13181731165E+04  0.13181731165E+04  0.25500000920E-02 0. -1.
    10030    2    1    2    0    0  0.00000000000E+00  0.00000000000E+00 -0.13023530780E+03  0.25061109252E+04  0.25027246621E+04 0.  0.
        4    1    3    3  502    0 -0.23413805760E+03 -0.10675912856E+04 -0.67531419655E+03  0.12847656051E+04  0.12699999809E+01 0. -1.
       -4    1    3    3    0  502  0.23413805760E+03  0.10675912856E+04  0.54507888875E+03  0.12213453201E+04  0.12699999809E+01 0.  1.
</event>
<event>
 5   0  0.8579923E-06  0.2443160E+04  0.7818609E-02  0.8423520E-01
       -2   -1    0    0    0  501  0.00000000000E+00  0.00000000000E+00  0.13186993904E+04  0.13186993904E+04  0.25500000920E-02 0. -1.
        2   -1    0    0  501    0  0.00000000000E+00  0.00000000000E+00 -0.11316134299E+04  0.11316134299E+04  0.25500000920E-02 0.  1.
    10030    2    1    2    0    0  0.00000000000E+00  0.00000000000E+00  0.18708596049E+03  0.24503128203E+04  0.24431601996E+04 0.  0.
        1    1    3    3  502    0  0.10582434970E+04 -0.38306400792E+03 -0.38286411096E+03  0.11887818389E+04  0.50400001928E-02 0.  1.
       -1    1    3    3    0  502 -0.10582434970E+04  0.38306400792E+03  0.56995007145E+03  0.12615309814E+04  0.50400001928E-02 0. -1.
</event>
<event>
 5   0  0.3424193E-06  0.2497205E+04  0.7818609E-02  0.8403982E-01
       -1   -1    0    0    0  501  0.00000000000E+00  0.00000000000E+00  0.67754164354E+03  0.67754164356E+03  0.50400001928E-02 0. -1.
        1   -1    0    0  501    0  0.00000000000E+00  0.00000000000E+00 -0.23009778725E+04  0.23009778725E+04  0.50400001928E-02 0.  1.
    10030    2    1    2    0    0  0.00000000000E+00  0.00000000000E+00 -0.16234362290E+04  0.29785195161E+04  0.24972051013E+04 0.  0.
        1    1    3    3  502    0  0.90908958792E+03  0.85589258119E+03 -0.81590803371E+03  0.14915434653E+04  0.50400001928E-02 0.  1.
       -1    1    3    3    0  502 -0.90908958792E+03 -0.85589258119E+03 -0.80752819528E+03  0.14869760508E+04  0.50400001928E-02 0. -1.
</event>
<event>
 5   0  0.8407986E-06  0.2506977E+04  0.7818609E-02  0.8400504E-01
        2   -1    0    0  501    0  0.00000000000E+00  0.00000000000E+00  0.15362605285E+04  0.15362605285E+04  0.25500000920E-02 0. -1.
       -2   -1    0    0    0  501  0.00000000000E+00  0.00000000000E+00 -0.10227652497E+04  0.10227652497E+04  0.25500000920E-02 0.  1.
    10030    2    1    2    0    0  0.00000000000E+00  0.00000000000E+00  0.51349527885E+03  0.25590257782E+04  0.25069773697E+04 0.  0.
        5    1    3    3  502    0  0.92426704274E+01  0.30703426709E+02  0.15358328420E+04  0.15361747088E+04  0.46999998093E+01 0. -1.
       -5    1    3    3    0  502 -0.92426704274E+01 -0.30703426709E+02 -0.10223375631E+04  0.10228510695E+04  0.46999998093E+01 0.  1.
</event>
<event>
 5   0  0.3481387E-06  0.2503602E+04  0.7818609E-02  0.8401703E-01
        1   -1    0    0  501    0  0.00000000000E+00  0.00000000000E+00  0.85219191143E+03  0.85219191144E+03  0.50400001928E-02 0. -1.
       -1   -1    0    0    0  501  0.00000000000E+00  0.00000000000E+00 -0.18387949235E+04  0.18387949235E+04  0.50400001928E-02 0.  1.
    10030    2    1    2    0    0  0.00000000000E+00  0.00000000000E+00 -0.98660301211E+03  0.26909868350E+04  0.25036023332E+04 0.  0.
        4    1    3    3  502    0  0.11690803316E+04  0.42889832867E+03 -0.63053685741E+03  0.13958083463E+04  0.12699999809E+01 0.  1.
       -4    1    3    3    0  502 -0.11690803316E+04 -0.42889832867E+03 -0.35606615469E+03  0.12951784887E+04  0.12699999809E+01 0. -1.
</event>
<event>
 5   0  0.3484857E-06  0.2488489E+04  0.7818609E-02  0.8407098E-01
       -1   -1    0    0    0  501  0.00000000000E+00  0.00000000000E+00  0.12151379958E+04  0.12151379958E+04  0.50400001928E-02 0. -1.
        1   -1    0    0  501    0  0.00000000000E+00  0.00000000000E+00 -0.12740486424E+04  0.12740486424E+04  0.50400001928E-02 0.  1.
    10030    2    1    2    0    0  0.00000000000E+00  0.00000000000E+00 -0.58910646657E+02  0.24891866382E+04  0.24884894325E+04 0.  0.
        3    1    3    3  502    0 -0.26141835268E+03 -0.67807781606E+03  0.98078596680E+03  0.12206843174E+04  0.10100000352E+00 0. -1.
       -3    1    3    3    0  502  0.26141835268E+03  0.67807781606E+03 -0.10396966135E+04  0.12685023208E+04  0.10100000352E+00 0.  1.
</event>
<event>
 5   0  0.3522870E-06  0.2515182E+04  0.7818609E-02  0.8397597E-01
       -1   -1    0    0    0  501  0.00000000000E+00  0.00000000000E+00  0.12289594712E+04  0.12289594712E+04  0.50400001928E-02 0. -1.
        1   -1    0    0  501    0  0.00000000000E+00  0.00000000000E+00 -0.12868892986E+04  0.12868892986E+04  0.50400001928E-02 0.  1.
    10030    2    1    2    0    0  0.00000000000E+00  0.00000000000E+00 -0.57929827347E+02  0.25158487698E+04  0.25151817365E+04 0.  0.
        2    1    3    3  502    0 -0.34497918809E+03  0.46165970308E+03  0.10890946751E+04  0.12321799921E+04  0.25500000920E-02 0. -1.
       -2    1    3    3    0  502  0.34497918809E+03 -0.46165970308E+03 -0.11470245024E+04  0.12836687777E+04  0.25500000920E-02 0.  1.
</event>
<event>
 5   0  0.8948286E-06  0.2495872E+04  0.7818609E-02  0.8404458E-01
        2   -1    0    0  501    0  0.00000000000E+00  0.00000000000E+00  0.16395088394E+04  0.16395088394E+04  0.25500000920E-02 0. -1.
       -2   -1    0    0    0  501  0.00000000000E+00  0.00000000000E+00 -0.94988442884E+03  0.94988442884E+03  0.25500000920E-02 0.  1.
    10030    2    1    2    0    0  0.00000000000E+00  0.00000000000E+00  0.68962441058E+03  0.25893932683E+04  0.24958717255E+04 0.  0.
        4    1    3    3  502    0  0.10736331560E+04 -0.50357863846E+03 -0.58419231300E+02  0.11873053602E+04  0.12699999809E+01 0.  1.
       -4    1    3    3    0  502 -0.10736331560E+04  0.50357863846E+03  0.74804364188E+03  0.14020879081E+04  0.12699999809E+01 0. -1.
</event>
<event>
 5   0  0.3424193E-06  0.2519848E+04  0.7818609E-02  0.8395948E-01
        1   -1    0    0  501    0  0.00000000000E+00  0.00000000000E+00  0.65987706107E+03  0.65987706108E+03  0.50400001928E-02 0.  1.
       -1   -1    0    0    0  501  0.00000000000E+00  0.00000000000E+00 -0.24056129246E+04  0.24056129246E+04  0.50400001928E-02 0. -1.
    10030    2    1    2    0    0  0.00000000000E+00  0.00000000000E+00 -0.17457358636E+04  0.30654899857E+04  0.25198482389E+04 0.  0.
        1    1    3    3  502    0  0.10058408495E+04 -0.46590833898E+03 -0.14434333776E+03  0.11178646582E+04  0.50400001928E-02 0.  1.
       -1    1    3    3    0  502 -0.10058408495E+04  0.46590833898E+03 -0.16013925258E+04  0.19476253275E+04  0.50400001928E-02 0. -1.
</event>
<event>
 5   0  0.3484857E-06  0.2454505E+04  0.7818609E-02  0.8419375E-01
       -1   -1    0    0    0  501  0.00000000000E+00  0.00000000000E+00  0.13215547693E+04  0.13215547694E+04  0.50400001928E-02 0. -1.
        1   -1    0    0  501    0  0.00000000000E+00  0.00000000000E+00 -0.11396798140E+04  0.11396798140E+04  0.50400001928E-02 0.  1.
    10030    2    1    2    0    0  0.00000000000E+00  0.00000000000E+00  0.18187495533E+03  0.24612345834E+04  0.24545054848E+04 0.  0.
        3    1    3    3  502    0  0.36361908380E+03 -0.48412855031E+03 -0.97948616571E+03  0.11515174555E+04  0.10100000352E+00 0.  1.
       -3    1    3    3    0  502 -0.36361908380E+03  0.48412855031E+03  0.11613611210E+04  0.13097171279E+04  0.10100000352E+00 0. -1.
</event>
<event>
 5   0  0.8056723E-06  0.2465413E+04  0.7818609E-02  0.8415412E-01
        2   -1    0    0  501    0  0.00000000000E+00  0.00000000000E+00  0.17021705746E+04  0.17021705746E+04  0.25500000920E-02 0.  1.
       -2   -1    0    0    0  501  0.00000000000E+00  0.00000000000E+00 -0.89272221980E+03  0.89272221980E+03  0.25500000920E-02 0. -1.
    10030    2    1    2    0    0  0.00000000000E+00  0.00000000000E+00  0.80944835477E+03  0.25948927944E+04  0.24654131449E+04 0.  0.
        2    1    3    3  502    0  0.11839402313E+04 -0.20318754862E+03  0.11348670973E+03  0.12065980625E+04  0.25500000920E-02 0.  1.
       -2    1    3    3    0  502 -0.11839402313E+04  0.20318754862E+03  0.69596164504E+03  0.13882947319E+04  0.25500000920E-02 0. -1.
</event>
<event>
 5   0  0.8948286E-06  0.2501716E+04  0.7818609E-02  0.8402375E-01
       -2   -1    0    0    0  501  0.00000000000E+00  0.00000000000E+00  0.84762807952E+03  0.84762807952E+03  0.25500000920E-02 0.  1.
        2   -1    0    0  501    0  0.00000000000E+00  0.00000000000E+00 -0.18459099661E+04  0.18459099661E+04  0.25500000920E-02 0. -1.
    10030    2    1    2    0    0  0.00000000000E+00  0.00000000000E+00 -0.99828188662E+03  0.26935380457E+04  0.25017155071E+04 0.  0.
        4    1    3    3  502    0  0.68583220568E+03  0.90292738606E+03  0.69564206967E+02  0.11359949254E+04  0.12699999809E+01 0.  1.
       -4    1    3    3    0  502 -0.68583220568E+03 -0.90292738606E+03 -0.10678460936E+04  0.15575431202E+04  0.12699999809E+01 0. -1.
</event>
<event>
 5   0  0.3642184E-06  0.2501869E+04  0.7818609E-02  0.8402320E-01
       -1   -1    0    0    0  501  0.00000000000E+00  0.00000000000E+00  0.11491860402E+04  0.11491860402E+04  0.50400001928E-02 0.  1.
        1   -1    0    0  501    0  0.00000000000E+00  0.00000000000E+00 -0.13616912404E+04  0.13616912404E+04  0.50400001928E-02 0. -1.
    10030    2    1    2    0    0  0.00000000000E+00  0.00000000000E+00 -0.21250520021E+03  0.25108772807E+04  0.25018685534E+04 0.  0.
        5    1    3    3  502    0 -0.11197448775E+04 -0.40319207861E+03  0.28039042908E+03  0.12227155539E+04  0.46999998093E+01 0.  1.
       -5    1    3    3    0  502  0.11197448775E+04  0.40319207861E+03 -0.49289562929E+03  0.12881617268E+04  0.46999998093E+01 0. -1.
</event>
<event>
 5   0  0.8948286E-06  0.2497934E+04  0.7818609E-02  0.8403722E-01
        2   -1    0    0  501    0  0.00000000000E+00  0.00000000000E+00  0.17857954474E+04  0.17857954474E+04  0.25500000920E-02 0.  1.
       -2   -1    0    0    0  501  0.00000000000E+00  0.00000000000E+00 -0.87351480195E+03  0.87351480195E+03  0.25500000920E-02 0. -1.
    10030    2    1    2    0    0  0.00000000000E+00  0.00000000000E+00  0.91228064546E+03  0.26593102494E+04  0.24979341517E+04 0.  0.
        4    1    3    3  502    0  0.11750242353E+04  0.17952533166E+03  0.47956936982E+02  0.11896271596E+04  0.12699999809E+01 0. -1.
       -4    1    3    3    0  502 -0.11750242353E+04 -0.17952533166E+03  0.86432370847E+03  0.14696830897E+04  0.12699999809E+01 0.  1.
</event>
<event>
 5   0  0.3522870E-06  0.2449256E+04  0.7818609E-02  0.8421290E-01
        1   -1    0    0  501    0  0.00000000000E+00  0.00000000000E+00  0.19472337834E+04  0.19472337834E+04  0.50400001928E-02 0.  1.
       -1   -1    0    0    0  501  0.00000000000E+00  0.00000000000E+00 -0.77017653270E+03  0.77017653272E+03  0.50400001928E-02 0. -1.
    10030    2    1    2    0    0  0.00000000000E+00  0.00000000000E+00  0.11770572507E+04  0.27174103162E+04  0.24492560207E+04 0.  0.
        2    1    3    3  502    0 -0.83261620006E+03  0.86820166135E+03  0.33385455339E+03  0.12483920555E+04  0.25500000920E-02 0.  1.
       -2    1    3    3    0  502  0.83261620006E+03 -0.86820166135E+03  0.84320269733E+03  0.14690182607E+04  0.25500000920E-02 0. -1.
</event>
<event>
 5   0  0.8407986E-06  0.2493276E+04  0.7818609E-02  0.8405385E-01
       -2   -1    0    0    0  501  0.00000000000E+00  0.00000000000E+00  0.70406126811E+03  0.70406126812E+03  0.25500000920E-02 0.  1.
        2   -1    0    0  501    0  0.00000000000E+00  0.00000000000E+00 -0.22073447051E+04  0.22073447051E+04  0.25500000920E-02 0. -1.
    10030    2    1    2    0    0  0.00000000000E+00  0.00000000000E+00 -0.15032834370E+04  0.29114059732E+04  0.24932756865E+04 0.  0.
        5    1    3    3  502    0  0.32025361260E+03  0.61878723714E+03  0.45546283482E+03  0.83242327282E+03  0.46999998093E+01 0.  1.
       -5    1    3    3    0  502 -0.32025361260E+03 -0.61878723714E+03 -0.19587462718E+04  0.20789827004E+04  0.46999998093E+01 0. -1.
</event>
<event>
 5   0  0.3481387E-06  0.2498410E+04  0.7818609E-02  0.8403552E-01
       -1   -1    0    0    0  501  0.00000000000E+00  0.00000000000E+00  0.12887012599E+04  0.12887012600E+04  0.50400001928E-02 0.  1.
        1   -1    0    0  501    0  0.00000000000E+00  0.00000000000E+00 -0.12109189265E+04  0.12109189265E+04  0.50400001928E-02 0. -1.
    10030    2    1    2    0    0  0.00000000000E+00  0.00000000000E+00  0.77782333450E+02  0.24996201865E+04  0.24984096912E+04 0.  0.
        4    1    3    3  502    0 -0.10538896360E+04  0.14735267191E+03 -0.61573079135E+03  0.12294397891E+04  0.12699999809E+01 0. -1.
       -4    1    3    3    0  502  0.10538896360E+04 -0.14735267191E+03  0.69351312479E+03  0.12701803974E+04  0.12699999809E+01 0.  1.
</event>
<event>
 5   0  0.8354653E-06  0.2494603E+04  0.7818609E-02  0.8404911E-01
       -2   -1    0    0    0  501  0.00000000000E+00  0.00000000000E+00  0.13666815271E+04  0.13666815271E+04  0.25500000920E-02 0.  1.
        2   -1    0    0  501    0  0.00000000000E+00  0.00000000000E+00 -0.11383496789E+04  0.11383496789E+04  0.25500000920E-02 0. -1.
    10030    2    1    2    0    0  0.00000000000E+00  0.00000000000E+00  0.22833184821E+03  0.25050312060E+04  0.24946033573E+04 0.  0.
        3    1    3    3  502    0 -0.11816189412E+04 -0.31598197134E+03 -0.13117799687E+03  0.12301526756E+04  0.10100000352E+00 0. -1.
       -3    1    3    3    0  502  0.11816189412E+04  0.31598197134E+03  0.35950984508E+03  0.12748785304E+04  0.10100000352E+00 0.  1.
</event>
<event>
 5   0  0.2901250E-06  0.2504268E+04  0.7818609E-02  0.8401466E-01
       -4   -1    0    0    0  501  0.00000000000E+00  0.00000000000E+00  0.93438460935E+03  0.93438547243E+03  0.12699999809E+01 0.  1.
        4   -1    0    0  501    0  0.00000000000E+00  0.00000000000E+00 -0.16779368375E+04  0.16779373182E+04  0.12699999809E+01 0. -1.
    10030    2    1    2    0    0  0.00000000000E+00  0.00000000000E+00 -0.74355222819E+03  0.26123227906E+04  0.25042684453E+04 0.  0.
        1    1    3    3  502    0  0.34035862852E+03 -0.97508215638E+03 -0.11102858300E+04  0.15163653359E+04  0.50400001928E-02 0.  1.
       -1    1    3    3    0  502 -0.34035862852E+03  0.97508215638E+03  0.36673360181E+03  0.10959574547E+04  0.50400001928E-02 0. -1.
</event>
<event>
 5   0  0.8056723E-06  0.2500794E+04  0.7818609E-02  0.8402703E-01
       -2   -1    0    0    0  501  0.00000000000E+00  0.00000000000E+00  0.11824911949E+04  0.11824911949E+04  0.25500000920E-02 0.  1.
        2   -1    0    0  501    0  0.00000000000E+00  0.00000000000E+00 -0.13222019296E+04  0.13222019296E+04  0.25500000920E-02 0. -1.
    10030    2    1    2    0    0  0.00000000000E+00  0.00000000000E+00 -0.13971073470E+03  0.25046931244E+04  0.25007935857E+04 0.  0.
        2    1    3    3  502    0 -0.29334933636E+03 -0.70762252703E+03  0.91997140749E+03  0.11971344388E+04  0.25500000920E-02 0.  1.
       -2    1    3    3    0  502  0.29334933636E+03  0.70762252703E+03 -0.10596821422E+04  0.13075586856E+04  0.25500000920E-02 0. -1.
</event>
<event>
 5   0  0.2901250E-06  0.2528134E+04  0.7818609E-02  0.8393031E-01
       -3   -1    0    0    0  501  0.00000000000E+00  0.00000000000E+00  0.14494006587E+04  0.14494006622E+04  0.10100000352E+00 0.  1.
        3   -1    0    0  501    0  0.00000000000E+00  0.00000000000E+00 -0.11024317275E+04  0.11024317321E+04  0.10100000352E+00 0. -1.
    10030    2    1    2    0    0  0.00000000000E+00  0.00000000000E+00  0.34696893122E+03  0.25518323944E+04  0.25281339224E+04 0.  0.
        1    1    3    3  502    0  0.10723520256E+04  0.47328419181E+02  0.84733996791E+03  0.13675393477E+04  0.50400001928E-02 0.  1.
       -1    1    3    3    0  502 -0.10723520256E+04 -0.47328419181E+02 -0.50037103669E+03  0.11842930467E+04  0.50400001928E-02 0. -1.
</event>
<event>
 5   0  0.8948286E-06  0.2505193E+04  0.7818609E-02  0.8401138E-01
       -2   -1    0    0    0  501  0.00000000000E+00  0.00000000000E+00  0.74606546327E+03  0.74606546328E+03  0.25500000920E-02 0.  1.
        2   -1    0    0  501    0  0.00000000000E+00  0.00000000000E+00 -0.21030293305E+04  0.21030293305E+04  0.25500000920E-02 0. -1.
    10030    2    1    2    0    0  0.00000000000E+00  0.00000000000E+00 -0.13569638672E+04  0.28490947938E+04  0.25051926487E+04 0.  0.
        4    1    3    3  502    0  0.79674981063E+03 -0.29898101298E+03  0.36681987820E+03  0.92669215105E+03  0.12699999809E+01 0.  1.
       -4    1    3    3    0  502 -0.79674981063E+03  0.29898101298E+03 -0.17237837454E+04  0.19224026427E+04  0.12699999809E+01 0. -1.
</event>
<event>
 5   0  0.8407986E-06  0.2515819E+04  0.7818609E-02  0.8397372E-01
        2   -1    0    0  501    0  0.00000000000E+00  0.00000000000E+00  0.14602377357E+04  0.14602377357E+04  0.25500000920E-02 0.  1.
       -2   -1    0    0    0  501  0.00000000000E+00  0.00000000000E+00 -0.10836151892E+04  0.10836151892E+04  0.25500000920E-02 0. -1.
    10030    2    1    2    0    0  0.00000000000E+00  0.00000000000E+00  0.37662254650E+03  0.25438529249E+04  0.25158185867E+04 0.  0.
        5    1    3    3  502    0 -0.28527790837E+03 -0.36580254971E+03  0.13705788809E+04  0.14469635618E+04  0.46999998093E+01 0.  1.
       -5    1    3    3    0  502  0.28527790837E+03  0.36580254971E+03 -0.99395633437E+03  0.10968893632E+04  0.46999998093E+01 0. -1.
</event>
<event>
 5   0  0.3481387E-06  0.2510073E+04  0.7818609E-02  0.8399406E-01
       -1   -1    0    0    0  501  0.00000000000E+00  0.00000000000E+00  0.55614429069E+03  0.55614429071E+03  0.50400001928E-02 0. -1.
        1   -1    0    0  501    0  0.00000000000E+00  0.00000000000E+00 -0.28322085801E+04  0.28322085801E+04  0.50400001928E-02 0.  1.
    10030    2    1    2    0    0  0.00000000000E+00  0.00000000000E+00 -0.22760642894E+04  0.33883528708E+04  0.25100730124E+04 0.  0.
        4    1    3    3  502    0  0.71754989450E+03  0.52062318558E+03 -0.23372351218E+04  0.24997191802E+04  0.12699999809E+01 0.  1.
       -4    1    3    3    0  502 -0.71754989450E+03 -0.52062318558E+03  0.61170832371E+02  0.88863369061E+03  0.12699999809E+01 0. -1.
</event>
<event>
 5   0  0.3522870E-06  0.2488961E+04  0.7818609E-02  0.8406929E-01
        1   -1    0    0  501    0  0.00000000000E+00  0.00000000000E+00  0.76552717179E+03  0.76552717180E+03  0.50400001928E-02 0.  1.
       -1   -1    0    0    0  501  0.00000000000E+00  0.00000000000E+00 -0.20230916273E+04  0.20230916273E+04  0.50400001928E-02 0. -1.
    10030    2    1    2    0    0  0.00000000000E+00  0.00000000000E+00 -0.12575644556E+04  0.27886187992E+04  0.24889609172E+04 0.  0.
        2    1    3    3  502    0  0.17837009578E+03 -0.18918153424E+03  0.73475527226E+03  0.77940416607E+03  0.25500000920E-02 0.  1.
       -2    1    3    3    0  502 -0.17837009578E+03  0.18918153424E+03 -0.19923197278E+04  0.20092146331E+04  0.25500000920E-02 0. -1.
</event>
<event>
 5   0  0.8407986E-06  0.2496465E+04  0.7818609E-02  0.8404246E-01
        2   -1    0    0  501    0  0.00000000000E+00  0.00000000000E+00  0.11769404520E+04  0.11769404520E+04  0.25500000920E-02 0.  1.
       -2   -1    0    0    0  501  0.00000000000E+00  0.00000000000E+00 -0.13238430892E+04  0.13238430892E+04  0.25500000920E-02 0. -1.
    10030    2    1    2    0    0  0.00000000000E+00  0.00000000000E+00 -0.14690263719E+03  0.25007835412E+04  0.24964650879E+04 0.  0.
        5    1    3    3  502    0  0.71565765219E+03  0.34625965599E+03  0.89050261331E+03  0.11937665680E+04  0.46999998093E+01 0.  1.
       -5    1    3    3    0  502 -0.71565765219E+03 -0.34625965599E+03 -0.10374052505E+04  0.13070169732E+04  0.46999998093E+01 0. -1.
</event>
<event>
 5   0  0.3484857E-06  0.2507933E+04  0.7818609E-02  0.8400165E-01
        1   -1    0    0  501    0  0.00000000000E+00  0.00000000000E+00  0.95290182512E+03  0.95290182514E+03  0.50400001928E-02 0. -1.
       -1   -1    0    0    0  501  0.00000000000E+00  0.00000000000E+00 -0.16501516113E+04  0.16501516113E+04  0.50400001928E-02 0.  1.
    10030    2    1    2    0    0  0.00000000000E+00  0.00000000000E+00 -0.69724978620E+03  0.26030534365E+04  0.25079333980E+04 0.  0.
        3    1    3    3  502    0  0.11596879369E+04  0.33747043310E+03  0.13123323133E+01  0.12077930852E+04  0.10100000352E+00 0. -1.
       -3    1    3    3    0  502 -0.11596879369E+04 -0.33747043310E+03 -0.69856211852E+03  0.13952603513E+04  0.10100000352E+00 0.  1.
</event>
<event>
 5   0  0.8579923E-06  0.2476377E+04  0.7818609E-02  0.8411450E-01
        2   -1    0    0  501    0  0.00000000000E+00  0.00000000000E+00  0.73399064583E+03  0.73399064584E+03  0.25500000920E-02 0.  1.
       -2   -1    0    0    0  501  0.00000000000E+00  0.00000000000E+00 -0.20887337242E+04  0.20887337242E+04  0.25500000920E-02 0. -1.
    10030    2    1    2    0    0  0.00000000000E+00  0.00000000000E+00 -0.13547430783E+04  0.28227243700E+04  0.24763772049E+04 0.  0.
        1    1    3    3  502    0  0.14079710351E+03 -0.10962557838E+04 -0.13135632163E+04  0.17166970878E+04  0.50400001928E-02 0. -1.
       -1    1    3    3    0  502 -0.14079710351E+03  0.10962557838E+04 -0.41179862008E+02  0.11060272822E+04  0.50400001928E-02 0.  1.
</event>
<event>
 5   0  0.3424193E-06  0.2500756E+04  0.7818609E-02  0.8402716E-01
       -1   -1    0    0    0  501  0.00000000000E+00  0.00000000000E+00  0.12746284057E+04  0.12746284057E+04  0.50400001928E-02 0. -1.
        1   -1    0    0  501    0  0.00000000000E+00  0.00000000000E+00 -0.12265891819E+04  0.12265891819E+04  0.50400001928E-02 0.  1.
    10030    2    1    2    0    0  0.00000000000E+00  0.00000000000E+00  0.48039223747E+02  0.25012175876E+04  0.25007562163E+04 0.  0.
        1    1    3    3  502    0  0.11760010425E+04 -0.11738284619E+03 -0.38433040965E+03  0.12427658863E+04  0.50400001928E-02 0.  1.
       -1    1    3    3    0  502 -0.11760010425E+04  0.11738284619E+03  0.43236963340E+03  0.12584517012E+04  0.50400001928E-02 0. -1.
</event>
<event>
 5   0  0.8579923E-06  0.2503277E+04  0.7818609E-02  0.8401819E-01
       -2   -1    0    0    0  501  0.00000000000E+00  0.00000000000E+00  0.17228369508E+04  0.17228369508E+04  0.25500000920E-02 0. -1.
        2   -1    0    0  501    0  0.00000000000E+00  0.00000000000E+00 -0.90931378742E+03  0.90931378743E+03  0.25500000920E-02 0.  1.
    10030    2    1    2    0    0  0.00000000000E+00  0.00000000000E+00  0.81352316333E+03  0.26321507382E+04  0.25032773660E+04 0.  0.
        1    1    3    3  502    0 -0.44538902779E+03  0.80024968944E+03  0.13038108483E+04  0.15933278632E+04  0.50400001928E-02 0. -1.
       -1    1    3    3    0  502  0.44538902779E+03 -0.80024968944E+03 -0.49028768497E+03  0.10388228750E+04  0.50400001928E-02 0.  1.
</event>
<event>
 5   0  0.8579923E-06  0.2498152E+04  0.7818609E-02  0.8403644E-01
       -2   -1    0    0    0  501  0.00000000000E+00  0.00000000000E+00  0.10578217560E+04  0.10578217560E+04  0.25500000920E-02 0. -1.
        2   -1    0    0  501    0  0.00000000000E+00  0.00000000000E+00 -0.14749089381E+04  0.14749089381E+04  0.25500000920E-02 0.  1.
    10030    2    1    2    0    0  0.00000000000E+00  0.00000000000E+00 -0.41708718212E+03  0.25327306942E+04  0.24981519273E+04 0.  0.
        1    1    3    3  502    0  0.97666102696E+03 -0.19420695155E+03 -0.97304188446E+03  0.13922620481E+04  0.50400001928E-02 0.  1.
       -1    1    3    3    0  502 -0.97666102696E+03  0.19420695155E+03  0.55595470235E+03  0.11404686461E+04  0.50400001928E-02 0. -1.
</event>
<event>
 5   0  0.8407986E-06  0.2544856E+04  0.7818609E-02  0.8387177E-01
        2   -1    0    0  501    0  0.00000000000E+00  0.00000000000E+00  0.19593831093E+04  0.19593831093E+04  0.25500000920E-02 0.  1.
       -2   -1    0    0    0  501  0.00000000000E+00  0.00000000000E+00 -0.82631786939E+03  0.82631786939E+03  0.25500000920E-02 0. -1.
    10030    2    1    2    0    0  0.00000000000E+00  0.00000000000E+00  0.11330652399E+04  0.27857009787E+04  0.25448562051E+04 0.  0.
        5    1    3    3  502    0  0.78134589993E+03 -0.10008738982E+04  0.65680696892E+03  0.14295689770E+04  0.46999998093E+01 0.  1.
       -5    1    3    3    0  502 -0.78134589993E+03  0.10008738982E+04  0.47625827101E+03  0.13561320018E+04  0.46999998093E+01 0. -1.
</event>
<event>
 5   0  0.8354653E-06  0.2497536E+04  0.7818609E-02  0.8403864E-01
        2   -1    0    0  501    0  0.00000000000E+00  0.00000000000E+00  0.11288268883E+04  0.11288268883E+04  0.25500000920E-02 0.  1.
       -2   -1    0    0    0  501  0.00000000000E+00  0.00000000000E+00 -0.13814532507E+04  0.13814532507E+04  0.25500000920E-02 0. -1.
    10030    2    1    2    0    0  0.00000000000E+00  0.00000000000E+00 -0.25262636237E+03  0.25102801390E+04  0.24975360453E+04 0.  0.
        3    1    3    3  502    0  0.80837585954E+02 -0.12330032585E+04 -0.30776083692E+03  0.12734003666E+04  0.10100000352E+00 0.  1.
       -3    1    3    3    0  502 -0.80837585954E+02  0.12330032585E+04  0.55134474549E+02  0.12368797724E+04  0.10100000352E+00 0. -1.
</event>
<event>
 5   0  0.3522870E-06  0.2585351E+04  0.7818609E-02  0.8373194E-01
       -1   -1    0    0    0  501  0.00000000000E+00  0.00000000000E+00  0.13196569092E+04  0.13196569092E+04  0.50400001928E-02 0. -1.
        1   -1    0    0  501    0  0.00000000000E+00  0.00000000000E+00 -0.12662462065E+04  0.12662462066E+04  0.50400001928E-02 0.  1.
    10030    2    1    2    0    0  0.00000000000E+00  0.00000000000E+00  0.53410702638E+02  0.25859031157E+04  0.25853514695E+04 0.  0.
        2    1    3    3  502    0  0.11543450657E+04  0.23703785483E+03 -0.50473756021E+03  0.12819748360E+04  0.25500000920E-02 0.  1.
       -2    1    3    3    0  502 -0.11543450657E+04 -0.23703785483E+03  0.55814826285E+03  0.13039282798E+04  0.25500000920E-02 0. -1.
</event>
<event>
 5   0  0.3484857E-06  0.2498464E+04  0.7818609E-02  0.8403533E-01
       -1   -1    0    0    0  501  0.00000000000E+00  0.00000000000E+00  0.73575761910E+03  0.73575761912E+03  0.50400001928E-02 0.  1.
        1   -1    0    0  501    0  0.00000000000E+00  0.00000000000E+00 -0.21210531994E+04  0.21210531994E+04  0.50400001928E-02 0. -1.
    10030    2    1    2    0    0  0.00000000000E+00  0.00000000000E+00 -0.13852955803E+04  0.28568108185E+04  0.24984643700E+04 0.  0.
        3    1    3    3  502    0  0.85045064425E+03  0.91498150660E+03 -0.67993639873E+03  0.14222415309E+04  0.10100000352E+00 0. -1.
       -3    1    3    3    0  502 -0.85045064425E+03 -0.91498150660E+03 -0.70535918157E+03  0.14345692876E+04  0.10100000352E+00 0.  1.
</event>
<event>
 5   0  0.2901250E-06  0.2496598E+04  0.7818609E-02  0.8404199E-01
       -3   -1    0    0    0  501  0.00000000000E+00  0.00000000000E+00  0.95168125318E+03  0.95168125854E+03  0.10100000352E+00 0.  1.
        3   -1    0    0  501    0  0.00000000000E+00  0.00000000000E+00 -0.16373654649E+04  0.16373654681E+04  0.10100000352E+00 0. -1.
    10030    2    1    2    0    0  0.00000000000E+00  0.00000000000E+00 -0.68568421176E+03  0.25890467266E+04  0.24965977077E+04 0.  0.
        5    1    3    3  502    0 -0.68843924340E+03 -0.71234680928E+03  0.44478294551E+03  0.10859284171E+04  0.46999998093E+01 0.  1.
       -5    1    3    3    0  502  0.68843924340E+03  0.71234680928E+03 -0.11304671573E+04  0.15031183095E+04  0.46999998093E+01 0. -1.
</event>
<event>
 5   0  0.3522870E-06  0.2520924E+04  0.7818609E-02  0.8395569E-01
       -1   -1    0    0    0  501  0.00000000000E+00  0.00000000000E+00  0.99382812721E+03  0.99382812722E+03  0.50400001928E-02 0.  1.
        1   -1    0    0  501    0  0.00000000000E+00  0.00000000000E+00 -0.15986311793E+04  0.15986311793E+04  0.50400001928E-02 0. -1.
    10030    2    1    2    0    0  0.00000000000E+00  0.00000000000E+00 -0.60480305209E+03  0.25924593065E+04  0.25209241409E+04 0.  0.
        2    1    3    3  502    0  0.79217738258E+03  0.96888597481E+03 -0.45658804245E+03  0.13322003146E+04  0.25500000920E-02 0. -1.
       -2    1    3    3    0  502 -0.79217738258E+03 -0.96888597481E+03 -0.14821500964E+03  0.12602589919E+04  0.25500000920E-02 0.  1.
</event>
<event>
 5   0  0.3424193E-06  0.2500437E+04  0.7818609E-02  0.8402830E-01
        1   -1    0    0  501    0  0.00000000000E+00  0.00000000000E+00  0.10595910888E+04  0.10595910888E+04  0.50400001928E-02 0. -1.
       -1   -1    0    0    0  501  0.00000000000E+00  0.00000000000E+00 -0.14751408278E+04  0.14751408278E+04  0.50400001928E-02 0.  1.
    10030    2    1    2    0    0  0.00000000000E+00  0.00000000000E+00 -0.41554973904E+03  0.25347319166E+04  0.25004368225E+04 0.  0.
        1    1    3    3  502    0 -0.28070201417E+03  0.94660522985E+03  0.56968025895E+03  0.11399081890E+04  0.50400001928E-02 0. -1.
       -1    1    3    3    0  502  0.28070201417E+03 -0.94660522985E+03 -0.98522999799E+03  0.13948237275E+04  0.50400001928E-02 0.  1.
</event>
<event>
 5   0  0.8579923E-06  0.2515195E+04  0.7818609E-02  0.8397592E-01
       -2   -1    0    0    0  501  0.00000000000E+00  0.00000000000E+00  0.92601140833E+03  0.92601140833E+03  0.25500000920E-02 0.  1.
        2   -1    0    0  501    0  0.00000000000E+00  0.00000000000E+00 -0.17079181829E+04  0.17079181829E+04  0.25500000920E-02 0. -1.
    10030    2    1    2    0    0  0.00000000000E+00  0.00000000000E+00 -0.78190677453E+03  0.26339295912E+04  0.25151951986E+04 0.  0.
        1    1    3    3  502    0 -0.32602786584E+03  0.85374814132E+03 -0.12956647348E+04  0.15855368690E+04  0.50400001928E-02 0. -1.
       -1    1    3    3    0  502  0.32602786584E+03 -0.85374814132E+03  0.51375796025E+03  0.10483927221E+04  0.50400001928E-02 0.  1.
</event>
<event>
 5   0  0.3484857E-06  0.2502473E+04  0.7818609E-02  0.8402105E-01
        1   -1    0    0  501    0  0.00000000000E+00  0.00000000000E+00  0.26920233666E+04  0.26920233666E+04  0.50400001928E-02 0.  1.
       -1   -1    0    0    0  501  0.00000000000E+00  0.00000000000E+00 -0.58156728561E+03  0.58156728564E+03  0.50400001928E-02 0. -1.
    10030    2    1    2    0    0  0.00000000000E+00  0.00000000000E+00  0.21104560810E+04  0.32735906522E+04  0.25024729546E+04 0.  0.
        3    1    3    3  502    0 -0.11526757896E+04  0.27726214127E+02  0.41951599317E+03  0.12269571702E+04  0.10100000352E+00 0. -1.
       -3    1    3    3    0  502  0.11526757896E+04 -0.27726214127E+02  0.16909400878E+04  0.20466334820E+04  0.10100000352E+00 0.  1.
</event>
<event>
 5   0  0.8056723E-06  0.2500326E+04  0.7818609E-02  0.8402870E-01
        2   -1    0    0  501    0  0.00000000000E+00  0.00000000000E+00  0.20784648268E+04  0.20784648268E+04  0.25500000920E-02 0. -1.
       -2   -1    0    0    0  501  0.00000000000E+00  0.00000000000E+00 -0.75195265852E+03  0.75195265853E+03  0.25500000920E-02 0.  1.
    10030    2    1    2    0    0  0.00000000000E+00  0.00000000000E+00  0.13265121683E+04  0.28304174853E+04  0.25003257005E+04 0.  0.
        2    1    3    3  502    0  0.66634010466E+03  0.93769431836E+03  0.12173994463E+04  0.16749152760E+04  0.25500000920E-02 0. -1.
       -2    1    3    3    0  502 -0.66634010466E+03 -0.93769431836E+03  0.10911272198E+03  0.11555022094E+04  0.25500000920E-02 0.  1.
</event>
<event>
 5   0  0.3642184E-06  0.2499681E+04  0.7818609E-02  0.8403099E-01
       -1   -1    0    0    0  501  0.00000000000E+00  0.00000000000E+00  0.10749400397E+04  0.10749400397E+04  0.50400001928E-02 0. -1.
        1   -1    0    0  501    0  0.00000000000E+00  0.00000000000E+00 -0.14531986560E+04  0.14531986561E+04  0.50400001928E-02 0.  1.
    10030    2    1    2    0    0  0.00000000000E+00  0.00000000000E+00 -0.37825861639E+03  0.25281386957E+04  0.24996811164E+04 0.  0.
        5    1    3    3  502    0  0.69534935709E+03 -0.31574956314E+03 -0.11897718827E+04  0.14137848980E+04  0.46999998093E+01 0.  1.
       -5    1    3    3    0  502 -0.69534935709E+03  0.31574956314E+03  0.81151326631E+03  0.11143537977E+04  0.46999998093E+01 0. -1.
</event>
<event>
 5   0  0.8948286E-06  0.2512123E+04  0.7818609E-02  0.8398679E-01
        2   -1    0    0  501    0  0.00000000000E+00  0.00000000000E+00  0.21205679738E+04  0.21205679738E+04  0.25500000920E-02 0.  1.
       -2   -1    0    0    0  501  0.00000000000E+00  0.00000000000E+00 -0.74399459351E+03  0.74399459351E+03  0.25500000920E-02 0. -1.
    10030    2    1    2    0    0  0.00000000000E+00  0.00000000000E+00  0.13765733803E+04  0.28645625674E+04  0.25121234904E+04 0.  0.
        4    1    3    3  502    0  0.48477811911E+02  0.17487433611E+03 -0.72896702954E+03  0.75121613050E+03  0.12699999809E+01 0. -1.
       -4    1    3    3    0  502 -0.48477811911E+02 -0.17487433611E+03  0.21055404099E+04  0.21133464369E+04  0.12699999809E+01 0.  1.
</event>
<event>
 5   0  0.8579923E-06  0.2495523E+04  0.7818609E-02  0.8404582E-01
        2   -1    0    0  501    0  0.00000000000E+00  0.00000000000E+00  0.15248958536E+04  0.15248958536E+04  0.25500000920E-02 0.  1.
       -2   -1    0    0    0  501  0.00000000000E+00  0.00000000000E+00 -0.10209932011E+04  0.10209932011E+04  0.25500000920E-02 0. -1.
    10030    2    1    2    0    0  0.00000000000E+00  0.00000000000E+00  0.50390265254E+03  0.25458890547E+04  0.24955226298E+04 0.  0.
        1    1    3    3  502    0  0.10746402174E+04  0.24744985771E+02  0.89833541419E+03  0.14008820177E+04  0.50400001928E-02 0.  1.
       -1    1    3    3    0  502 -0.10746402174E+04 -0.24744985771E+02 -0.39443276166E+03  0.11450070370E+04  0.50400001928E-02 0. -1.
</event>
<event>
 5   0  0.8579923E-06  0.2498230E+04  0.7818609E-02  0.8403617E-01
       -2   -1    0    0    0  501  0.00000000000E+00  0.00000000000E+00  0.11607585273E+04  0.11607585273E+04  0.25500000920E-02 0. -1.
        2   -1    0    0  501    0  0.00000000000E+00  0.00000000000E+00 -0.13441966252E+04  0.13441966253E+04  0.25500000920E-02 0.  1.
    10030    2    1    2    0    0  0.00000000000E+00  0.00000000000E+00 -0.18343809793E+03  0.25049551526E+04  0.24982295292E+04 0.  0.
        1    1    3    3  502    0 -0.39570157810E+03 -0.61222205303E+03  0.92535491444E+03  0.11779971557E+04  0.50400001928E-02 0. -1.
       -1    1    3    3    0  502  0.39570157810E+03  0.61222205303E+03 -0.11087930124E+04  0.13269579969E+04  0.50400001928E-02 0.  1.
</event>
<event>
 5   0  0.3481387E-06  0.2499967E+04  0.7818609E-02  0.8402997E-01
       -1   -1    0    0    0  501  0.00000000000E+00  0.00000000000E+00  0.86865528061E+03  0.86865528062E+03  0.50400001928E-02 0. -1.
        1   -1    0    0  501    0  0.00000000000E+00  0.00000000000E+00 -0.17987100204E+04  0.17987100204E+04  0.50400001928E-02 0.  1.
    10030    2    1    2    0    0  0.00000000000E+00  0.00000000000E+00 -0.93005473983E+03  0.26673653011E+04  0.24999671658E+04 0.  0.
        4    1    3    3  502    0 -0.18240267361E+03  0.11985699524E+04 -0.14031951592E+03  0.12204637830E+04  0.12699999809E+01 0.  1.
       -4    1    3    3    0  502  0.18240267361E+03 -0.11985699524E+04 -0.78973522392E+03  0.14469015181E+04  0.12699999809E+01 0. -1.
</event>
<event>
 5   0  0.8948286E-06  0.2500925E+04  0.7818609E-02  0.8402656E-01
        2   -1    0    0  501    0  0.00000000000E+00  0.00000000000E+00  0.19449434882E+04  0.19449434882E+04  0.25500000920E-02 0.  1.
       -2   -1    0    0    0  501  0.00000000000E+00  0.00000000000E+00 -0.80395972363E+03  0.80395972364E+03  0.25500000920E-02 0. -1.
    10030    2    1    2    0    0  0.00000000000E+00  0.00000000000E+00  0.11409837646E+04  0.27489032119E+04  0.25009248124E+04 0.  0.
        4    1    3    3  502    0  0.87150337387E+03 -0.88396917388E+03  0.40475996570E+03  0.13056614698E+04  0.12699999809E+01 0.  1.
       -4    1    3    3    0  502 -0.87150337387E+03  0.88396917388E+03  0.73622379890E+03  0.14432417421E+04  0.12699999809E+01 0. -1.
</event>
<event>
 5   0  0.8948286E-06  0.2493250E+04  0.7818609E-02  0.8405394E-01
        2   -1    0    0  501    0  0.00000000000E+00  0.00000000000E+00  0.20925896729E+04  0.20925896729E+04  0.25500000920E-02 0. -1.
       -2   -1    0    0    0  501  0.00000000000E+00  0.00000000000E+00 -0.74265595998E+03  0.74265595999E+03  0.25500000920E-02 0.  1.
    10030    2    1    2    0    0  0.00000000000E+00  0.00000000000E+00  0.13499337129E+04  0.28352456329E+04  0.24932502421E+04 0.  0.
        4    1    3    3  502    0  0.76625839668E+03 -0.24082116779E+03 -0.40918230749E+03  0.90143138341E+03  0.12699999809E+01 0.  1.
       -4    1    3    3    0  502 -0.76625839668E+03  0.24082116779E+03  0.17591160204E+04  0.19338142495E+04  0.12699999809E+01 0. -1.
</event>
<event>
 5   0  0.3522870E-06  0.2508917E+04  0.7818609E-02  0.8399816E-01
       -1   -1    0    0    0  501  0.00000000000E+00  0.00000000000E+00  0.10012707560E+04  0.10012707560E+04  0.50400001928E-02 0. -1.
        1   -1    0    0  501    0  0.00000000000E+00  0.00000000000E+00 -0.15716685579E+04  0.15716685579E+04  0.50400001928E-02 0.  1.
    10030    2    1    2    0    0  0.00000000000E+00  0.00000000000E+00 -0.57039780196E+03  0.25729393139E+04  0.25089167106E+04 0.  0.
        2    1    3    3  502    0  0.64703428045E+03  0.20044519117E+02  0.81674902833E+03  0.10421775847E+04  0.25500000920E-02 0. -1.
       -2    1    3    3    0  502 -0.64703428045E+03 -0.20044519117E+02 -0.13871468303E+04  0.15307617292E+04  0.25500000920E-02 0.  1.
</event>
<event>
 5   0  0.8579923E-06  0.2498414E+04  0.7818609E-02  0.8403551E-01
        2   -1    0    0  501    0  0.00000000000E+00  0.00000000000E+00  0.15351405730E+04  0.15351405730E+04  0.25500000920E-02 0.  1.
       -2   -1    0    0    0  501  0.00000000000E+00  0.00000000000E+00 -0.10165310516E+04  0.10165310516E+04  0.25500000920E-02 0. -1.
    10030    2    1    2    0    0  0.00000000000E+00  0.00000000000E+00  0.51860952142E+03  0.25516716246E+04  0.24984139457E+04 0.  0.
        1    1    3    3  502    0  0.47752747399E+02  0.47454582272E+03  0.14384916198E+04  0.15154973451E+04  0.50400001928E-02 0.  1.
       -1    1    3    3    0  502 -0.47752747399E+02 -0.47454582272E+03 -0.91988209833E+03  0.10361742796E+04  0.50400001928E-02 0. -1.
</event>
<event>
 5   0  0.3642184E-06  0.2518159E+04  0.7818609E-02  0.8396545E-01
       -1   -1    0    0    0  501  0.00000000000E+00  0.00000000000E+00  0.15835987395E+04  0.15835987395E+04  0.50400001928E-02 0. -1.
        1   -1    0    0  501    0  0.00000000000E+00  0.00000000000E+00 -0.10010624559E+04  0.10010624559E+04  0.50400001928E-02 0.  1.
    10030    2    1    2    0    0  0.00000000000E+00  0.00000000000E+00  0.58253628361E+03  0.25846611954E+04  0.25181590445E+04 0.  0.
        5    1    3    3  502    0  0.19356861785E+03 -0.17849128768E+03  0.15550153600E+04  0.15771565583E+04  0.46999998093E+01 0. -1.
       -5    1    3    3    0  502 -0.19356861785E+03  0.17849128768E+03 -0.97247907642E+03  0.10075046370E+04  0.46999998093E+01 0.  1.
</event>
<event>
 5   0  0.3642184E-06  0.2498607E+04  0.7818609E-02  0.8403482E-01
        1   -1    0    0  501    0  0.00000000000E+00  0.00000000000E+00  0.18651620843E+04  0.18651620843E+04  0.50400001928E-02 0. -1.
       -1   -1    0    0    0  501  0.00000000000E+00  0.00000000000E+00 -0.83679558507E+03  0.83679558508E+03  0.50400001928E-02 0.  1.
    10030    2    1    2    0    0  0.00000000000E+00  0.00000000000E+00  0.10283664992E+04  0.27019576694E+04  0.24986071301E+04 0.  0.
        5    1    3    3  502    0 -0.13685527072E+03  0.12417702322E+04  0.51004663194E+03  0.13494044358E+04  0.46999998093E+01 0.  1.
       -5    1    3    3    0  502  0.13685527072E+03 -0.12417702322E+04  0.51831986730E+03  0.13525532335E+04  0.46999998093E+01 0. -1.
</event>
<event>
 5   0  0.3642184E-06  0.2495263E+04  0.7818609E-02  0.8404675E-01
        1   -1    0    0  501    0  0.00000000000E+00  0.00000000000E+00  0.14697886692E+04  0.14697886692E+04  0.50400001928E-02 0.  1.
       -1   -1    0    0    0  501  0.00000000000E+00  0.00000000000E+00 -0.10590534669E+04  0.10590534669E+04  0.50400001928E-02 0. -1.
    10030    2    1    2    0    0  0.00000000000E+00  0.00000000000E+00  0.41073520228E+03  0.25288421361E+04  0.24952633414E+04 0.  0.
        5    1    3    3  502    0  0.53384792698E+03  0.72096208637E+03  0.10840896281E+04  0.14071433299E+04  0.46999998093E+01 0.  1.
       -5    1    3    3    0  502 -0.53384792698E+03 -0.72096208637E+03 -0.67335442582E+03  0.11216988062E+04  0.46999998093E+01 0. -1.
</event>
<event>
 5   0  0.3522870E-06  0.2463868E+04  0.7818609E-02  0.8415972E-01
        1   -1    0    0  501    0  0.00000000000E+00  0.00000000000E+00  0.19951419414E+04  0.19951419414E+04  0.50400001928E-02 0.  1.
       -1   -1    0    0    0  501  0.00000000000E+00  0.00000000000E+00 -0.76067826432E+03  0.76067826433E+03  0.50400001928E-02 0. -1.
    10030    2    1    2    0    0  0.00000000000E+00  0.00000000000E+00  0.12344636771E+04  0.27558202058E+04  0.24638677798E+04 0.  0.
        2    1    3    3  502    0 -0.81692695063E+03 -0.85757687180E+03  0.99628957366E+03  0.15477081922E+04  0.25500000920E-02 0. -1.
       -2    1    3    3    0  502  0.81692695063E+03  0.85757687180E+03  0.23817410346E+03  0.12081120135E+04  0.25500000920E-02 0.  1.
</event>
<event>
 5   0  0.8354653E-06  0.2497303E+04  0.7818609E-02  0.8403947E-01
       -2   -1    0    0    0  501  0.00000000000E+00  0.00000000000E+00  0.15281869412E+04  0.15281869412E+04  0.25500000920E-02 0. -1.
        2   -1    0    0  501    0  0.00000000000E+00  0.00000000000E+00 -0.10202488553E+04  0.10202488553E+04  0.25500000920E-02 0.  1.
    10030    2    1    2    0    0  0.00000000000E+00  0.00000000000E+00  0.50793808591E+03  0.25484357964E+04  0.24973033275E+04 0.  0.
        3    1    3    3  502    0 -0.10587025530E+04 -0.62407400397E+03  0.47942593593E+03  0.13191545385E+04  0.10100000352E+00 0.  1.
       -3    1    3    3    0  502  0.10587025530E+04  0.62407400397E+03  0.28512149982E+02  0.12292812579E+04  0.10100000352E+00 0. -1.
</event>
<event>
 5   0  0.8407986E-06  0.2492917E+04  0.7818609E-02  0.8405513E-01
        2   -1    0    0  501    0  0.00000000000E+00  0.00000000000E+00  0.13847844623E+04  0.13847844623E+04  0.25500000920E-02 0.  1.
       -2   -1    0    0    0  501  0.00000000000E+00  0.00000000000E+00 -0.11219496142E+04  0.11219496142E+04  0.25500000920E-02 0. -1.
    10030    2    1    2    0    0  0.00000000000E+00  0.00000000000E+00  0.26283484814E+03  0.25067340765E+04  0.24929166799E+04 0.  0.
        5    1    3    3  502    0  0.44057400775E+03 -0.10951406298E+04  0.53388309313E+03  0.12955661706E+04  0.46999998093E+01 0. -1.
       -5    1    3    3    0  502 -0.44057400775E+03  0.10951406298E+04 -0.27104824499E+03  0.12111679059E+04  0.46999998093E+01 0.  1.
</event>
<event>
 5   0  0.8056723E-06  0.2500902E+04  0.7818609E-02  0.8402664E-01
       -2   -1    0    0    0  501  0.00000000000E+00  0.00000000000E+00  0.15756410427E+04  0.15756410427E+04  0.25500000920E-02 0.  1.
        2   -1    0    0  501    0  0.00000000000E+00  0.00000000000E+00 -0.99237539036E+03  0.99237539037E+03  0.25500000920E-02 0. -1.
    10030    2    1    2    0    0  0.00000000000E+00  0.00000000000E+00  0.58326565235E+03  0.25680164331E+04  0.25009017532E+04 0.  0.
        2    1    3    3  502    0 -0.91074688330E+02  0.28712888697E+03 -0.95456300630E+03  0.10009636005E+04  0.25500000920E-02 0. -1.
       -2    1    3    3    0  502  0.91074688330E+02 -0.28712888697E+03  0.15378286587E+04  0.15670528325E+04  0.25500000920E-02 0.  1.
</event>
<event>
 5   0  0.3522870E-06  0.2517597E+04  0.7818609E-02  0.8396743E-01
       -1   -1    0    0    0  501  0.00000000000E+00  0.00000000000E+00  0.12504182479E+04  0.12504182479E+04  0.50400001928E-02 0.  1.
        1   -1    0    0  501    0  0.00000000000E+00  0.00000000000E+00 -0.12672352840E+04  0.12672352840E+04  0.50400001928E-02 0. -1.
    10030    2    1    2    0    0  0.00000000000E+00  0.00000000000E+00 -0.16817036095E+02  0.25176535319E+04  0.25175973653E+04 0.  0.
        2    1    3    3  502    0 -0.86785065845E+03  0.19800522811E+03 -0.89848639981E+03  0.12647721717E+04  0.25500000920E-02 0. -1.
       -2    1    3    3    0  502  0.86785065845E+03 -0.19800522811E+03  0.88166936372E+03  0.12528813602E+04  0.25500000920E-02 0.  1.
</event>
<event>
 5   0  0.8579923E-06  0.2500782E+04  0.7818609E-02  0.8402707E-01
        2   -1    0    0  501    0  0.00000000000E+00  0.00000000000E+00  0.20940963539E+04  0.20940963539E+04  0.25500000920E-02 0. -1.
       -2   -1    0    0    0  501  0.00000000000E+00  0.00000000000E+00 -0.74661237545E+03  0.74661237546E+03  0.25500000920E-02 0.  1.
    10030    2    1    2    0    0  0.00000000000E+00  0.00000000000E+00  0.13474839784E+04  0.28407087293E+04  0.25007824801E+04 0.  0.
        1    1    3    3  502    0  0.80824560405E+03  0.59498448311E+03 -0.17342784158E+03  0.10185012066E+04  0.50400001928E-02 0.  1.
       -1    1    3    3    0  502 -0.80824560405E+03 -0.59498448311E+03  0.15209118200E+04  0.18222075227E+04  0.50400001928E-02 0. -1.
</event>
<event>
 5   0  0.3522870E-06  0.2508909E+04  0.7818609E-02  0.8399819E-01
       -1   -1    0    0    0  501  0.00000000000E+00  0.00000000000E+00  0.16913833992E+04  0.16913833992E+04  0.50400001928E-02 0. -1.
        1   -1    0    0  501    0  0.00000000000E+00  0.00000000000E+00 -0.93039581204E+03  0.93039581205E+03  0.50400001928E-02 0.  1.
    10030    2    1    2    0    0  0.00000000000E+00  0.00000000000E+00  0.76098758715E+03  0.26217792113E+04  0.25089089511E+04 0.  0.
        2    1    3    3  502    0 -0.14024297305E+03 -0.17086275933E+02  0.16830432987E+04  0.16889626336E+04  0.25500000920E-02 0. -1.
       -2    1    3    3    0  502  0.14024297305E+03  0.17086275933E+02 -0.92205571157E+03  0.93281657766E+03  0.25500000920E-02 0.  1.
</event>
<event>
 5   0  0.3424193E-06  0.2499246E+04  0.7818609E-02  0.8403254E-01
        1   -1    0    0  501    0  0.00000000000E+00  0.00000000000E+00  0.10563040883E+04  0.10563040883E+04  0.50400001928E-02 0.  1.
       -1   -1    0    0    0  501  0.00000000000E+00  0.00000000000E+00 -0.14783217258E+04  0.14783217258E+04  0.50400001928E-02 0. -1.
    10030    2    1    2    0    0  0.00000000000E+00  0.00000000000E+00 -0.42201763747E+03  0.25346258141E+04  0.24992457124E+04 0.  0.
        1    1    3    3  502    0 -0.38271448602E+01  0.65891705126E+03 -0.12878169313E+04  0.14466024942E+04  0.50400001928E-02 0. -1.
       -1    1    3    3    0  502  0.38271448602E+01 -0.65891705126E+03  0.86579929385E+03  0.10880233199E+04  0.50400001928E-02 0.  1.
</event>
<event>
 5   0  0.3484857E-06  0.2496972E+04  0.7818609E-02  0.8404065E-01
        1   -1    0    0  501    0  0.00000000000E+00  0.00000000000E+00  0.91508277917E+03  0.91508277918E+03  0.50400001928E-02 0.  1.
       -1   -1    0    0    0  501  0.00000000000E+00  0.00000000000E+00 -0.17033624185E+04  0.17033624185E+04  0.50400001928E-02 0. -1.
    10030    2    1    2    0    0  0.00000000000E+00  0.00000000000E+00 -0.78827963936E+03  0.26184451977E+04  0.24969722593E+04 0.  0.
        3    1    3    3  502    0  0.75542926375E+03 -0.23271094573E+03  0.61925247721E+03  0.10041421202E+04  0.10100000352E+00 0.  1.
       -3    1    3    3    0  502 -0.75542926375E+03  0.23271094573E+03 -0.14075321166E+04  0.16143030775E+04  0.10100000352E+00 0. -1.
</event>
<event>
 5   0  0.3522870E-06  0.2501556E+04  0.7818609E-02  0.8402431E-01
        1   -1    0    0  501    0  0.00000000000E+00  0.00000000000E+00  0.21302034858E+04  0.21302034858E+04  0.50400001928E-02 0.  1.
       -1   -1    0    0    0  501  0.00000000000E+00  0.00000000000E+00 -0.73441147811E+03  0.73441147813E+03  0.50400001928E-02 0. -1.
    10030    2    1    2    0    0  0.00000000000E+00  0.00000000000E+00  0.13957920077E+04  0.28646149639E+04  0.25015562282E+04 0.  0.
        2    1    3    3  502    0 -0.53438737590E+03 -0.11308156064E+04  0.71105694758E+03  0.14387201902E+04  0.25500000920E-02 0.  1.
       -2    1    3    3    0  502  0.53438737590E+03  0.11308156064E+04  0.68473506011E+03  0.14258947737E+04  0.25500000920E-02 0. -1.
</event>
<event>
 5   0  0.3484857E-06  0.2490240E+04  0.7818609E-02  0.8406471E-01
       -1   -1    0    0    0  501  0.00000000000E+00  0.00000000000E+00  0.30937611563E+04  0.30937611563E+04  0.50400001928E-02 0.  1.
        1   -1    0    0  501    0  0.00000000000E+00  0.00000000000E+00 -0.50111304972E+03  0.50111304974E+03  0.50400001928E-02 0. -1.
    10030    2    1    2    0    0  0.00000000000E+00  0.00000000000E+00  0.25926481066E+04  0.35948742061E+04  0.24902402199E+04 0.  0.
        3    1    3    3  502    0 -0.35096418235E+03  0.79366371837E+02 -0.42442067717E+03  0.55642411853E+03  0.10100000352E+00 0. -1.
       -3    1    3    3    0  502  0.35096418235E+03 -0.79366371837E+02  0.30170687838E+04  0.30384500875E+04  0.10100000352E+00 0.  1.
</event>
<event>
 5   0  0.3481387E-06  0.2480488E+04  0.7818609E-02  0.8409970E-01
       -1   -1    0    0    0  501  0.00000000000E+00  0.00000000000E+00  0.16063309704E+04  0.16063309704E+04  0.50400001928E-02 0.  1.
        1   -1    0    0  501    0  0.00000000000E+00  0.00000000000E+00 -0.95758898459E+03  0.95758898460E+03  0.50400001928E-02 0. -1.
    10030    2    1    2    0    0  0.00000000000E+00  0.00000000000E+00  0.64874198585E+03  0.25639199550E+04  0.24804877286E+04 0.  0.
        4    1    3    3  502    0  0.14888255896E+03 -0.11564232891E+04  0.76134626502E+03  0.13925266921E+04  0.12699999809E+01 0. -1.
       -4    1    3    3    0  502 -0.14888255896E+03  0.11564232891E+04 -0.11260427917E+03  0.11713932630E+04  0.12699999809E+01 0.  1.
</event>
<event>
 5   0  0.3522870E-06  0.2489907E+04  0.7818609E-02  0.8406590E-01
       -1   -1    0    0    0  501  0.00000000000E+00  0.00000000000E+00  0.84054180153E+03  0.84054180154E+03  0.50400001928E-02 0. -1.
        1   -1    0    0  501    0  0.00000000000E+00  0.00000000000E+00 -0.18439406705E+04  0.18439406705E+04  0.50400001928E-02 0.  1.
    10030    2    1    2    0    0  0.00000000000E+00  0.00000000000E+00 -0.10033988689E+04  0.26844824720E+04  0.24899069967E+04 0.  0.
        2    1    3    3  502    0  0.29496546658E+03  0.91987942219E+03  0.34498919838E+03  0.10257681633E+04  0.25500000920E-02 0. -1.
       -2    1    3    3    0  502 -0.29496546658E+03 -0.91987942219E+03 -0.13483880673E+04  0.16587143087E+04  0.25500000920E-02 0.  1.
</event>
<event>
 5   0  0.8056723E-06  0.2502260E+04  0.7818609E-02  0.8402181E-01
       -2   -1    0    0    0  501  0.00000000000E+00  0.00000000000E+00  0.18818513771E+04  0.18818513771E+04  0.25500000920E-02 0. -1.
        2   -1    0    0  501    0  0.00000000000E+00  0.00000000000E+00 -0.83180108532E+03  0.83180108532E+03  0.25500000920E-02 0.  1.
    10030    2    1    2    0    0  0.00000000000E+00  0.00000000000E+00  0.10500502917E+04  0.27136524624E+04  0.25022597930E+04 0.  0.
        2    1    3    3  502    0  0.96618423265E+03  0.59148406407E+03 -0.50833748997E+02  0.11339971074E+04  0.25500000920E-02 0.  1.
       -2    1    3    3    0  502 -0.96618423265E+03 -0.59148406407E+03  0.11008840407E+04  0.15796553550E+04  0.25500000920E-02 0. -1.
</event>
<event>
 5   0  0.3522870E-06  0.2492098E+04  0.7818609E-02  0.8405806E-01
        1   -1    0    0  501    0  0.00000000000E+00  0.00000000000E+00  0.88993652383E+03  0.88993652384E+03  0.50400001928E-02 0.  1.
       -1   -1    0    0    0  501  0.00000000000E+00  0.00000000000E+00 -0.17446623116E+04  0.17446623116E+04  0.50400001928E-02 0. -1.
    10030    2    1    2    0    0  0.00000000000E+00  0.00000000000E+00 -0.85472578777E+03  0.26345988354E+04  0.24920984835E+04 0.  0.
        2    1    3    3  502    0  0.19559751366E+03  0.81097556730E+03  0.55114292614E+03  0.99984913019E+03  0.25500000920E-02 0.  1.
       -2    1    3    3    0  502 -0.19559751366E+03 -0.81097556730E+03 -0.14058687139E+04  0.16347497053E+04  0.25500000920E-02 0. -1.
</event>
<event>
 5   0  0.3642184E-06  0.2498331E+04  0.7818609E-02  0.8403581E-01
        1   -1    0    0  501    0  0.00000000000E+00  0.00000000000E+00  0.14913644938E+04  0.14913644938E+04  0.50400001928E-02 0.  1.
       -1   -1    0    0    0  501  0.00000000000E+00  0.00000000000E+00 -0.10462994497E+04  0.10462994497E+04  0.50400001928E-02 0. -1.
    10030    2    1    2    0    0  0.00000000000E+00  0.00000000000E+00  0.44506504414E+03  0.25376639435E+04  0.24983305219E+04 0.  0.
        5    1    3    3  502    0  0.91184656695E+03  0.21270420754E+03  0.10624025594E+04  0.14161315369E+04  0.46999998093E+01 0.  1.
       -5    1    3    3    0  502 -0.91184656695E+03 -0.21270420754E+03 -0.61733751522E+03  0.11215324067E+04  0.46999998093E+01 0. -1.
</event>
<event>
 5   0  0.2901250E-06  0.2490401E+04  0.7818609E-02  0.8406413E-01
       -3   -1    0    0    0  501  0.00000000000E+00  0.00000000000E+00  0.53531671446E+03  0.53531672399E+03  0.10100000352E+00 0. -1.
        3   -1    0    0  501    0  0.00000000000E+00  0.00000000000E+00 -0.28964604182E+04  0.28964604199E+04  0.10100000352E+00 0.  1.
    10030    2    1    2    0    0  0.00000000000E+00  0.00000000000E+00 -0.23611437037E+04  0.34317771439E+04  0.24904005252E+04 0.  0.
        3    1    3    3  502    0  0.24215143285E+02  0.76199372418E+03  0.17611503905E+03  0.78245595789E+03  0.10100000352E+00 0. -1.
       -3    1    3    3    0  502 -0.24215143285E+02 -0.76199372418E+03 -0.25372587427E+04  0.26493211860E+04  0.10100000352E+00 0.  1.
</event>
<event>
 5   0  0.8354653E-06  0.2502957E+04  0.7818609E-02  0.8401933E-01
       -2   -1    0    0    0  501  0.00000000000E+00  0.00000000000E+00  0.65222793996E+03  0.65222793997E+03  0.25500000920E-02 0.  1.
        2   -1    0    0  501    0  0.00000000000E+00  0.00000000000E+00 -0.24013055785E+04  0.24013055785E+04  0.25500000920E-02 0. -1.
    10030    2    1    2    0    0  0.00000000000E+00  0.00000000000E+00 -0.17490776386E+04  0.30535335185E+04  0.25029571237E+04 0.  0.
        3    1    3    3  502    0 -0.10640622756E+04  0.47481076527E+03 -0.14316323679E+04  0.18458724323E+04  0.10100000352E+00 0.  1.
       -3    1    3    3    0  502  0.10640622756E+04 -0.47481076527E+03 -0.31744527068E+03  0.12076610863E+04  0.10100000352E+00 0. -1.
</event>
<event>
 5   0  0.8354653E-06  0.2507718E+04  0.7818609E-02  0.8400241E-01
       -2   -1    0    0    0  501  0.00000000000E+00  0.00000000000E+00  0.95123960985E+03  0.95123960985E+03  0.25500000920E-02 0. -1.
        2   -1    0    0  501    0  0.00000000000E+00  0.00000000000E+00 -0.16527510406E+04  0.16527510406E+04  0.25500000920E-02 0.  1.
    10030    2    1    2    0    0  0.00000000000E+00  0.00000000000E+00 -0.70151143080E+03  0.26039906505E+04  0.25077178909E+04 0.  0.
        3    1    3    3  502    0 -0.60065758340E+03  0.94189435452E+03 -0.94200745266E+03  0.14612777144E+04  0.10100000352E+00 0.  1.
       -3    1    3    3    0  502  0.60065758340E+03 -0.94189435452E+03  0.24049602186E+03  0.11427129361E+04  0.10100000352E+00 0. -1.
</event>
<event>
 5   0  0.8948286E-06  0.2488219E+04  0.7818609E-02  0.8407194E-01
        2   -1    0    0  501    0  0.00000000000E+00  0.00000000000E+00  0.11442355166E+04  0.11442355166E+04  0.25500000920E-02 0.  1.
       -2   -1    0    0    0  501  0.00000000000E+00  0.00000000000E+00 -0.13527013581E+04  0.13527013581E+04  0.25500000920E-02 0. -1.
    10030    2    1    2    0    0  0.00000000000E+00  0.00000000000E+00 -0.20846584145E+03  0.24969368747E+04  0.24882193933E+04 0.  0.
        4    1    3    3  502    0  0.10196233951E+04  0.19555204483E+03  0.58368673876E+03  0.11910349667E+04  0.12699999809E+01 0.  1.
       -4    1    3    3    0  502 -0.10196233951E+04 -0.19555204483E+03 -0.79215258020E+03  0.13059019080E+04  0.12699999809E+01 0. -1.
</event>
<event>
 5   0  0.8354653E-06  0.2502550E+04  0.7818609E-02  0.8402078E-01
        2   -1    0    0  501    0  0.00000000000E+00  0.00000000000E+00  0.10039240434E+04  0.10039240434E+04  0.25500000920E-02 0.  1.
       -2   -1    0    0    0  501  0.00000000000E+00  0.00000000000E+00 -0.15595695352E+04  0.15595695352E+04  0.25500000920E-02 0. -1.
    10030    2    1    2    0    0  0.00000000000E+00  0.00000000000E+00 -0.55564549182E+03  0.25634935786E+04  0.25025501823E+04 0.  0.
        3    1    3    3  502    0  0.11101054592E+04 -0.10127528651E+03  0.30443721850E+03  0.11555400662E+04  0.10100000352E+00 0.  1.
       -3    1    3    3    0  502 -0.11101054592E+04  0.10127528651E+03 -0.86008271032E+03  0.14079535124E+04  0.10100000352E+00 0. -1.
</event>
<event>
 5   0  0.8579923E-06  0.2497829E+04  0.7818609E-02  0.8403760E-01
       -2   -1    0    0    0  501  0.00000000000E+00  0.00000000000E+00  0.10128453207E+04  0.10128453207E+04  0.25500000920E-02 0. -1.
        2   -1    0    0  501    0  0.00000000000E+00  0.00000000000E+00 -0.15400050841E+04  0.15400050841E+04  0.25500000920E-02 0.  1.
    10030    2    1    2    0    0  0.00000000000E+00  0.00000000000E+00 -0.52715976344E+03  0.25528504049E+04  0.24978286117E+04 0.  0.
        1    1    3    3  502    0  0.10562535480E+04 -0.44160013827E+01 -0.94466455062E+03  0.14170681607E+04  0.50400001928E-02 0.  1.
       -1    1    3    3    0  502 -0.10562535480E+04  0.44160013827E+01  0.41750478718E+03  0.11357822442E+04  0.50400001928E-02 0. -1.
</event>
<event>
 5   0  0.8354653E-06  0.2329398E+04  0.7818609E-02  0.8466419E-01
        2   -1    0    0  501    0  0.00000000000E+00  0.00000000000E+00  0.13079676410E+04  0.13079676410E+04  0.25500000920E-02 0. -1.
       -2   -1    0    0    0  501  0.00000000000E+00  0.00000000000E+00 -0.10371229511E+04  0.10371229511E+04  0.25500000920E-02 0.  1.
    10030    2    1    2    0    0  0.00000000000E+00  0.00000000000E+00  0.27084468992E+03  0.23450905921E+04  0.23293975700E+04 0.  0.
        3    1    3    3  502    0 -0.14415402328E+03 -0.11108518525E+04  0.45655569605E+03  0.12096343804E+04  0.10100000352E+00 0. -1.
       -3    1    3    3    0  502  0.14415402328E+03  0.11108518525E+04 -0.18571100613E+03  0.11354562116E+04  0.10100000352E+00 0.  1.
</event>
<event>
 5   0  0.8407986E-06  0.2487063E+04  0.7818609E-02  0.8407609E-01
       -2   -1    0    0    0  501  0.00000000000E+00  0.00000000000E+00  0.61609494868E+03  0.61609494868E+03  0.25500000920E-02 0.  1.
        2   -1    0    0  501    0  0.00000000000E+00  0.00000000000E+00 -0.25099539889E+04  0.25099539889E+04  0.25500000920E-02 0. -1.
    10030    2    1    2    0    0  0.00000000000E+00  0.00000000000E+00 -0.18938590402E+04  0.31260489375E+04  0.24870625034E+04 0.  0.
        5    1    3    3  502    0 -0.80756104907E+03  0.85203621604E+03 -0.43139548878E+03  0.12506976930E+04  0.46999998093E+01 0.  1.
       -5    1    3    3    0  502  0.80756104907E+03 -0.85203621604E+03 -0.14624635514E+04  0.18753512446E+04  0.46999998093E+01 0. -1.
</event>
<event>
 5   0  0.3484857E-06  0.2499892E+04  0.7818609E-02  0.8403024E-01
       -1   -1    0    0    0  501  0.00000000000E+00  0.00000000000E+00  0.95595209034E+03  0.95595209035E+03  0.50400001928E-02 0.  1.
        1   -1    0    0  501    0  0.00000000000E+00  0.00000000000E+00 -0.16343554505E+04  0.16343554505E+04  0.50400001928E-02 0. -1.
    10030    2    1    2    0    0  0.00000000000E+00  0.00000000000E+00 -0.67840336014E+03  0.25903075408E+04  0.24998924051E+04 0.  0.
        3    1    3    3  502    0  0.84953914927E+03  0.76707139768E+03 -0.85961185072E+03  0.14314495588E+04  0.10100000352E+00 0. -1.
       -3    1    3    3    0  502 -0.84953914927E+03 -0.76707139768E+03  0.18120849058E+03  0.11588579820E+04  0.10100000352E+00 0.  1.
</event>
<event>
 5   0  0.3424193E-06  0.2452887E+04  0.7818609E-02  0.8419965E-01
       -1   -1    0    0    0  501  0.00000000000E+00  0.00000000000E+00  0.10603332325E+04  0.10603332325E+04  0.50400001928E-02 0. -1.
        1   -1    0    0  501    0  0.00000000000E+00  0.00000000000E+00 -0.14185766072E+04  0.14185766072E+04  0.50400001928E-02 0.  1.
    10030    2    1    2    0    0  0.00000000000E+00  0.00000000000E+00 -0.35824337472E+03  0.24789098397E+04  0.24528872127E+04 0.  0.
        1    1    3    3  502    0 -0.10407811051E+04  0.50751830233E+03 -0.58759251368E+03  0.12984856942E+04  0.50400001928E-02 0.  1.
       -1    1    3    3    0  502  0.10407811051E+04 -0.50751830233E+03  0.22934913895E+03  0.11804241456E+04  0.50400001928E-02 0. -1.
</event>
<event>
 5   0  0.3484857E-06  0.2496385E+04  0.7818609E-02  0.8404274E-01
        1   -1    0    0  501    0  0.00000000000E+00  0.00000000000E+00  0.17727891355E+04  0.17727891356E+04  0.50400001928E-02 0. -1.
       -1   -1    0    0    0  501  0.00000000000E+00  0.00000000000E+00 -0.87883259501E+03  0.87883259502E+03  0.50400001928E-02 0.  1.
    10030    2    1    2    0    0  0.00000000000E+00  0.00000000000E+00  0.89395654054E+03  0.26516217306E+04  0.24963852879E+04 0.  0.
        3    1    3    3  502    0 -0.45776005439E+03 -0.11509802973E+04  0.61044757982E+03  0.13809222172E+04  0.10100000352E+00 0. -1.
       -3    1    3    3    0  502  0.45776005439E+03  0.11509802973E+04  0.28350896072E+03  0.12706995133E+04  0.10100000352E+00 0.  1.
</event>
<event>
 5   0  0.3424193E-06  0.2495802E+04  0.7818609E-02  0.8404482E-01
       -1   -1    0    0    0  501  0.00000000000E+00  0.00000000000E+00  0.17233159267E+04  0.17233159267E+04  0.50400001928E-02 0. -1.
        1   -1    0    0  501    0  0.00000000000E+00  0.00000000000E+00 -0.90364017320E+03  0.90364017321E+03  0.50400001928E-02 0.  1.
    10030    2    1    2    0    0  0.00000000000E+00  0.00000000000E+00  0.81967575350E+03  0.26269560999E+04  0.24958024782E+04 0.  0.
        1    1    3    3  502    0  0.87298443188E+03  0.29924989607E+03  0.12939828558E+04  0.15893533118E+04  0.50400001928E-02 0. -1.
       -1    1    3    3    0  502 -0.87298443188E+03 -0.29924989607E+03 -0.47430710230E+03  0.10376027881E+04  0.50400001928E-02 0.  1.
</event>
<event>
 5   0  0.3481387E-06  0.2515359E+04  0.7818609E-02  0.8397534E-01
        1   -1    0    0  501    0  0.00000000000E+00  0.00000000000E+00  0.12371806649E+04  0.12371806649E+04  0.50400001928E-02 0. -1.
       -1   -1    0    0    0  501  0.00000000000E+00  0.00000000000E+00 -0.12785180884E+04  0.12785180884E+04  0.50400001928E-02 0.  1.
    10030    2    1    2    0    0  0.00000000000E+00  0.00000000000E+00 -0.41337423449E+02  0.25156987533E+04  0.25153591065E+04 0.  0.
        4    1    3    3  502    0  0.10024541377E+04  0.75784419787E+03  0.29479052941E+02  0.12570253593E+04  0.12699999809E+01 0.  1.
       -4    1    3    3    0  502 -0.10024541377E+04 -0.75784419787E+03 -0.70816476391E+02  0.12586733940E+04  0.12699999809E+01 0. -1.
</event>
<event>
 5   0  0.8948286E-06  0.2500211E+04  0.7818609E-02  0.8402910E-01
        2   -1    0    0  501    0  0.00000000000E+00  0.00000000000E+00  0.13914037435E+04  0.13914037435E+04  0.25500000920E-02 0. -1.
       -2   -1    0    0    0  501  0.00000000000E+00  0.00000000000E+00 -0.11231559074E+04  0.11231559075E+04  0.25500000920E-02 0.  1.
    10030    2    1    2    0    0  0.00000000000E+00  0.00000000000E+00  0.26824783609E+03  0.25145596510E+04  0.25002106585E+04 0.  0.
        4    1    3    3  502    0  0.20301230941E+03 -0.41747711732E+03 -0.10332531067E+04  0.11327465456E+04  0.12699999809E+01 0.  1.
       -4    1    3    3    0  502 -0.20301230941E+03  0.41747711732E+03  0.13015009428E+04  0.13818131054E+04  0.12699999809E+01 0. -1.
</event>
<event>
 5   0  0.8407986E-06  0.2506983E+04  0.7818609E-02  0.8400502E-01
        2   -1    0    0  501    0  0.00000000000E+00  0.00000000000E+00  0.81237776131E+03  0.81237776131E+03  0.25500000920E-02 0. -1.
       -2   -1    0    0    0  501  0.00000000000E+00  0.00000000000E+00 -0.19341255656E+04  0.19341255656E+04  0.25500000920E-02 0.  1.
    10030    2    1    2    0    0  0.00000000000E+00  0.00000000000E+00 -0.11217478043E+04  0.27465033270E+04  0.25069827260E+04 0.  0.
        5    1    3    3  502    0  0.69980819246E+03  0.69288027683E+03  0.28872103594E+03  0.10262536289E+04  0.46999998093E+01 0. -1.
       -5    1    3    3    0  502 -0.69980819246E+03 -0.69288027683E+03 -0.14104688403E+04  0.17202496981E+04  0.46999998093E+01 0.  1.
</event>
<event>
 5   0  0.3424193E-06  0.2496354E+04  0.7818609E-02  0.8404285E-01
        1   -1    0    0  501    0  0.00000000000E+00  0.00000000000E+00  0.10359546025E+04  0.10359546025E+04  0.50400001928E-02 0.  1.
       -1   -1    0    0    0  501  0.00000000000E+00  0.00000000000E+00 -0.15038749763E+04  0.15038749764E+04  0.50400001928E-02 0. -1.
    10030    2    1    2    0    0  0.00000000000E+00  0.00000000000E+00 -0.46792037385E+03  0.25398295789E+04  0.24963543045E+04 0.  0.
        1    1    3    3  502    0 -0.59678605184E+03 -0.87726506818E+02  0.87781786534E+03  0.10650886050E+04  0.50400001928E-02 0.  1.
       -1    1    3    3    0  502  0.59678605184E+03  0.87726506818E+02 -0.13457382392E+04  0.14747409739E+04  0.50400001928E-02 0. -1.
</event>
<event>
 5   0  0.8354653E-06  0.2498238E+04  0.7818609E-02  0.8403614E-01
        2   -1    0    0  501    0  0.00000000000E+00  0.00000000000E+00  0.15255869803E+04  0.15255869804E+04  0.25500000920E-02 0. -1.
       -2   -1    0    0    0  501  0.00000000000E+00  0.00000000000E+00 -0.10227525264E+04  0.10227525264E+04  0.25500000920E-02 0.  1.
    10030    2    1    2    0    0  0.00000000000E+00  0.00000000000E+00  0.50283445391E+03  0.25483395068E+04  0.24982377296E+04 0.  0.
        3    1    3    3  502    0  0.57610317058E+03  0.11912146461E+03  0.13754293327E+04  0.14959581030E+04  0.10100000352E+00 0. -1.
       -3    1    3    3    0  502 -0.57610317058E+03 -0.11912146461E+03 -0.87259487875E+03  0.10523814038E+04  0.10100000352E+00 0.  1.
</event>
<event>
 5   0  0.8579923E-06  0.2502888E+04  0.7818609E-02  0.8401957E-01
        2   -1    0    0  501    0  0.00000000000E+00  0.00000000000E+00  0.16699010104E+04  0.16699010104E+04  0.25500000920E-02 0. -1.
       -2   -1    0    0    0  501  0.00000000000E+00  0.00000000000E+00 -0.93784724512E+03  0.93784724512E+03  0.25500000920E-02 0.  1.
    10030    2    1    2    0    0  0.00000000000E+00  0.00000000000E+00  0.73205376530E+03  0.26077482555E+04  0.25028879817E+04 0.  0.
        1    1    3    3  502    0  0.70711106094E+02 -0.51620163442E+02 -0.93465268953E+03  0.93874402894E+03  0.50400001928E-02 0.  1.
       -1    1    3    3    0  502 -0.70711106094E+02  0.51620163442E+02  0.16667064548E+04  0.16690042266E+04  0.50400001928E-02 0. -1.
</event>
<event>
 5   0  0.8056723E-06  0.2498299E+04  0.7818609E-02  0.8403592E-01
        2   -1    0    0  501    0  0.00000000000E+00  0.00000000000E+00  0.79776376885E+03  0.79776376886E+03  0.25500000920E-02 0.  1.
       -2   -1    0    0    0  501  0.00000000000E+00  0.00000000000E+00 -0.19559352902E+04  0.19559352902E+04  0.25500000920E-02 0. -1.
    10030    2    1    2    0    0  0.00000000000E+00  0.00000000000E+00 -0.11581715214E+04  0.27536990591E+04  0.24982988683E+04 0.  0.
        2    1    3    3  502    0  0.83241572122E+03  0.41023440228E+03  0.34255626494E+03  0.98921837448E+03  0.25500000920E-02 0.  1.
       -2    1    3    3    0  502 -0.83241572122E+03 -0.41023440228E+03 -0.15007277863E+04  0.17644806846E+04  0.25500000920E-02 0. -1.
</event>
<event>
 5   0  0.3522870E-06  0.2494979E+04  0.7818609E-02  0.8404777E-01
       -1   -1    0    0    0  501  0.00000000000E+00  0.00000000000E+00  0.12707609627E+04  0.12707609627E+04  0.50400001928E-02 0. -1.
        1   -1    0    0  501    0  0.00000000000E+00  0.00000000000E+00 -0.12246439869E+04  0.12246439870E+04  0.50400001928E-02 0.  1.
    10030    2    1    2    0    0  0.00000000000E+00  0.00000000000E+00  0.46116975743E+02  0.24954049497E+04  0.24949787749E+04 0.  0.
        2    1    3    3  502    0 -0.15357020960E+03  0.50900778747E+03  0.11517710962E+04  0.12685619397E+04  0.25500000920E-02 0. -1.
       -2    1    3    3    0  502  0.15357020960E+03 -0.50900778747E+03 -0.11056541204E+04  0.12268430099E+04  0.25500000920E-02 0.  1.
</event>
<event>
 5   0  0.3481387E-06  0.2500746E+04  0.7818609E-02  0.8402720E-01
       -1   -1    0    0    0  501  0.00000000000E+00  0.00000000000E+00  0.90761073656E+03  0.90761073658E+03  0.50400001928E-02 0. -1.
        1   -1    0    0  501    0  0.00000000000E+00  0.00000000000E+00 -0.17225800611E+04  0.17225800611E+04  0.50400001928E-02 0.  1.
    10030    2    1    2    0    0  0.00000000000E+00  0.00000000000E+00 -0.81496932457E+03  0.26301907977E+04  0.25007456153E+04 0.  0.
        4    1    3    3  502    0 -0.38258224056E+03  0.67909839631E+02  0.84249867072E+03  0.92778582668E+03  0.12699999809E+01 0. -1.
       -4    1    3    3    0  502  0.38258224056E+03 -0.67909839631E+02 -0.16574679953E+04  0.17024049710E+04  0.12699999809E+01 0.  1.
</event>
<event>
 5   0  0.8407986E-06  0.2500344E+04  0.7818609E-02  0.8402863E-01
       -2   -1    0    0    0  501  0.00000000000E+00  0.00000000000E+00  0.87743775145E+03  0.87743775145E+03  0.25500000920E-02 0.  1.
        2   -1    0    0  501    0  0.00000000000E+00  0.00000000000E+00 -0.17812436005E+04  0.17812436005E+04  0.25500000920E-02 0. -1.
    10030    2    1    2    0    0  0.00000000000E+00  0.00000000000E+00 -0.90380584901E+03  0.26586813519E+04  0.25003442800E+04 0.  0.
        5    1    3    3  502    0 -0.37690538916E+03  0.10921890387E+04  0.55799072050E+02  0.11567498411E+04  0.46999998093E+01 0.  1.
       -5    1    3    3    0  502  0.37690538916E+03 -0.10921890387E+04 -0.95960492106E+03  0.15019315108E+04  0.46999998093E+01 0. -1.
</event>
<event>
 5   0  0.2901250E-06  0.2497570E+04  0.7818609E-02  0.8403852E-01
        4   -1    0    0  501    0  0.00000000000E+00  0.00000000000E+00  0.19779888164E+04  0.19779892241E+04  0.12699999809E+01 0. -1.
       -4   -1    0    0    0  501  0.00000000000E+00  0.00000000000E+00 -0.78840793184E+03  0.78840895473E+03  0.12699999809E+01 0.  1.
    10030    2    1    2    0    0  0.00000000000E+00  0.00000000000E+00  0.11895808845E+04  0.27663981788E+04  0.24975700596E+04 0.  0.
        1    1    3    3  502    0 -0.70103927288E+02  0.33512402731E+02  0.19753093290E+04  0.19768370157E+04  0.50400001928E-02 0. -1.
       -1    1    3    3    0  502  0.70103927288E+02 -0.33512402731E+02 -0.78572844444E+03  0.78956116304E+03  0.50400001928E-02 0.  1.
</event>
<event>
 5   0  0.3642184E-06  0.2498845E+04  0.7818609E-02  0.8403397E-01
       -1   -1    0    0    0  501  0.00000000000E+00  0.00000000000E+00  0.63506510780E+03  0.63506510782E+03  0.50400001928E-02 0.  1.
        1   -1    0    0  501    0  0.00000000000E+00  0.00000000000E+00 -0.24581057389E+04  0.24581057389E+04  0.50400001928E-02 0. -1.
    10030    2    1    2    0    0  0.00000000000E+00  0.00000000000E+00 -0.18230406311E+04  0.30931708467E+04  0.24988454823E+04 0.  0.
        5    1    3    3  502    0 -0.98928424663E+03  0.12771025301E+03  0.19777927154E+02  0.99770059925E+03  0.46999998093E+01 0.  1.
       -5    1    3    3    0  502  0.98928424663E+03 -0.12771025301E+03 -0.18428185583E+04  0.20954702475E+04  0.46999998093E+01 0. -1.
</event>
<event>
 5   0  0.3481387E-06  0.2504421E+04  0.7818609E-02  0.8401412E-01
       -1   -1    0    0    0  501  0.00000000000E+00  0.00000000000E+00  0.18786684699E+04  0.18786684699E+04  0.50400001928E-02 0. -1.
        1   -1    0    0  501    0  0.00000000000E+00  0.00000000000E+00 -0.83465023802E+03  0.83465023804E+03  0.50400001928E-02 0.  1.
    10030    2    1    2    0    0  0.00000000000E+00  0.00000000000E+00  0.10440182319E+04  0.27133187080E+04  0.25044209595E+04 0.  0.
        4    1    3    3  502    0 -0.35974141723E+03 -0.63763900935E+03 -0.57861766980E+03  0.93316526630E+03  0.12699999809E+01 0.  1.
       -4    1    3    3    0  502  0.35974141723E+03  0.63763900935E+03  0.16226359017E+04  0.17801534417E+04  0.12699999809E+01 0. -1.
</event>
<event>
 5   0  0.3484857E-06  0.2511369E+04  0.7818609E-02  0.8398946E-01
        1   -1    0    0  501    0  0.00000000000E+00  0.00000000000E+00  0.14615203430E+04  0.14615203430E+04  0.50400001928E-02 0. -1.
       -1   -1    0    0    0  501  0.00000000000E+00  0.00000000000E+00 -0.10788377953E+04  0.10788377953E+04  0.50400001928E-02 0.  1.
    10030    2    1    2    0    0  0.00000000000E+00  0.00000000000E+00  0.38268254772E+03  0.25403581384E+04  0.25113688576E+04 0.  0.
        3    1    3    3  502    0 -0.39216582753E+03 -0.11771634772E+04  0.38653369804E+03  0.12995830863E+04  0.10100000352E+00 0. -1.
       -3    1    3    3    0  502  0.39216582753E+03  0.11771634772E+04 -0.38511503174E+01  0.12407750521E+04  0.10100000352E+00 0.  1.
</event>
<event>
 5   0  0.3642184E-06  0.2500382E+04  0.7818609E-02  0.8402849E-01
        1   -1    0    0  501    0  0.00000000000E+00  0.00000000000E+00  0.22173052630E+04  0.22173052631E+04  0.50400001928E-02 0. -1.
       -1   -1    0    0    0  501  0.00000000000E+00  0.00000000000E+00 -0.70489975489E+03  0.70489975491E+03  0.50400001928E-02 0.  1.
    10030    2    1    2    0    0  0.00000000000E+00  0.00000000000E+00  0.15124055082E+04  0.29222050180E+04  0.25003823200E+04 0.  0.
        5    1    3    3  502    0  0.11944698085E+04 -0.10918210552E+03  0.34420046644E+03  0.12478681447E+04  0.46999998093E+01 0.  1.
       -5    1    3    3    0  502 -0.11944698085E+04  0.10918210552E+03  0.11682050417E+04  0.16743368732E+04  0.46999998093E+01 0. -1.
</event>
<event>
 5   0  0.3424193E-06  0.2513090E+04  0.7818609E-02  0.8398337E-01
        1   -1    0    0  501    0  0.00000000000E+00  0.00000000000E+00  0.11696586391E+04  0.11696586391E+04  0.50400001928E-02 0.  1.
       -1   -1    0    0    0  501  0.00000000000E+00  0.00000000000E+00 -0.13498856102E+04  0.13498856102E+04  0.50400001928E-02 0. -1.
    10030    2    1    2    0    0  0.00000000000E+00  0.00000000000E+00 -0.18022697106E+03  0.25195442493E+04  0.25130900229E+04 0.  0.
        1    1    3    3  502    0  0.49644753203E+03 -0.59973050399E+03  0.89870983790E+03  0.11890400339E+04  0.50400001928E-02 0.  1.
       -1    1    3    3    0  502 -0.49644753203E+03  0.59973050399E+03 -0.10789368090E+04  0.13305042154E+04  0.50400001928E-02 0. -1.
</event>
<event>
 5   0  0.2901250E-06  0.2487522E+04  0.7818609E-02  0.8407445E-01
       -3   -1    0    0    0  501  0.00000000000E+00  0.00000000000E+00  0.15885606969E+04  0.15885607001E+04  0.10100000352E+00 0.  1.
        3   -1    0    0  501    0  0.00000000000E+00  0.00000000000E+00 -0.97380029725E+03  0.97380030249E+03  0.10100000352E+00 0. -1.
    10030    2    1    2    0    0  0.00000000000E+00  0.00000000000E+00  0.61476039960E+03  0.25623610026E+04  0.24875215694E+04 0.  0.
        5    1    3    3  502    0 -0.10236115451E+04  0.55558490629E+03 -0.14217132363E+03  0.11733243195E+04  0.46999998093E+01 0. -1.
       -5    1    3    3    0  502  0.10236115451E+04 -0.55558490629E+03  0.75693172323E+03  0.13890366831E+04  0.46999998093E+01 0.  1.
</event>
<event>
 5   0  0.8579923E-06  0.2502140E+04  0.7818609E-02  0.8402223E-01
       -2   -1    0    0    0  501  0.00000000000E+00  0.00000000000E+00  0.48688808647E+03  0.48688808647E+03  0.25500000920E-02 0. -1.
        2   -1    0    0  501    0  0.00000000000E+00  0.00000000000E+00 -0.32146534771E+04  0.32146534771E+04  0.25500000920E-02 0.  1.
    10030    2    1    2    0    0  0.00000000000E+00  0.00000000000E+00 -0.27277653906E+04  0.37015415635E+04  0.25021402679E+04 0.  0.
        1    1    3    3  502    0 -0.90419365792E+03  0.55737379197E+03 -0.38600565731E+03  0.11301469296E+04  0.50400001928E-02 0. -1.
       -1    1    3    3    0  502  0.90419365792E+03 -0.55737379197E+03 -0.23417597333E+04  0.25713946339E+04  0.50400001928E-02 0.  1.
</event>
<event>
 5   0  0.3424193E-06  0.2499043E+04  0.7818609E-02  0.8403327E-01
       -1   -1    0    0    0  501  0.00000000000E+00  0.00000000000E+00  0.10293590993E+04  0.10293590993E+04  0.50400001928E-02 0.  1.
        1   -1    0    0  501    0  0.00000000000E+00  0.00000000000E+00 -0.15167728682E+04  0.15167728682E+04  0.50400001928E-02 0. -1.
    10030    2    1    2    0    0  0.00000000000E+00  0.00000000000E+00 -0.48741376888E+03  0.25461319676E+04  0.24990429796E+04 0.  0.
        1    1    3    3  502    0  0.10539482403E+04  0.12931643958E+03 -0.91473250507E+03  0.14015224546E+04  0.50400001928E-02 0. -1.
       -1    1    3    3    0  502 -0.10539482403E+04 -0.12931643958E+03  0.42731873619E+03  0.11446095130E+04  0.50400001928E-02 0.  1.
</event>
<event>
 5   0  0.8948286E-06  0.2498939E+04  0.7818609E-02  0.8403364E-01
        2   -1    0    0  501    0  0.00000000000E+00  0.00000000000E+00  0.51295323359E+03  0.51295323359E+03  0.25500000920E-02 0. -1.
       -2   -1    0    0    0  501  0.00000000000E+00  0.00000000000E+00 -0.30435021921E+04  0.30435021921E+04  0.25500000920E-02 0.  1.
    10030    2    1    2    0    0  0.00000000000E+00  0.00000000000E+00 -0.25305489585E+04  0.35564554257E+04  0.24989392076E+04 0.  0.
        4    1    3    3  502    0  0.17246397732E+03  0.99436709849E+03 -0.21687509860E+03  0.10322529590E+04  0.12699999809E+01 0. -1.
       -4    1    3    3    0  502 -0.17246397732E+03 -0.99436709849E+03 -0.23136738599E+04  0.25242024667E+04  0.12699999809E+01 0.  1.
</event>
<event>
 5   0  0.8407986E-06  0.2500188E+04  0.7818609E-02  0.8402919E-01
        2   -1    0    0  501    0  0.00000000000E+00  0.00000000000E+00  0.95872179346E+03  0.95872179346E+03  0.25500000920E-02 0. -1.
       -2   -1    0    0    0  501  0.00000000000E+00  0.00000000000E+00 -0.16300191357E+04  0.16300191357E+04  0.25500000920E-02 0.  1.
    10030    2    1    2    0    0  0.00000000000E+00  0.00000000000E+00 -0.67129734221E+03  0.25887409291E+04  0.25001878882E+04 0.  0.
        5    1    3    3  502    0 -0.62770821533E+03  0.81069458103E+03  0.40485258863E+03  0.11023479559E+04  0.46999998093E+01 0. -1.
       -5    1    3    3    0  502  0.62770821533E+03 -0.81069458103E+03 -0.10761499308E+04  0.14863929733E+04  0.46999998093E+01 0.  1.
</event>
<event>
 5   0  0.3522870E-06  0.2499111E+04  0.7818609E-02  0.8403302E-01
       -1   -1    0    0    0  501  0.00000000000E+00  0.00000000000E+00  0.87370903086E+03  0.87370903087E+03  0.50400001928E-02 0. -1.
        1   -1    0    0  501    0  0.00000000000E+00  0.00000000000E+00 -0.17870814345E+04  0.17870814345E+04  0.50400001928E-02 0.  1.
    10030    2    1    2    0    0  0.00000000000E+00  0.00000000000E+00 -0.91337240365E+03  0.26607904654E+04  0.24991111926E+04 0.  0.
        2    1    3    3  502    0 -0.78010137474E+03 -0.85158611791E+03 -0.96466064728E+03  0.15047681667E+04  0.25500000920E-02 0.  1.
       -2    1    3    3    0  502  0.78010137474E+03  0.85158611791E+03  0.51288243634E+02  0.11560222987E+04  0.25500000920E-02 0. -1.
</event>
<event>
 5   0  0.3424193E-06  0.2484739E+04  0.7818609E-02  0.8408443E-01
        1   -1    0    0  501    0  0.00000000000E+00  0.00000000000E+00  0.18556173933E+04  0.18556173933E+04  0.50400001928E-02 0. -1.
       -1   -1    0    0    0  501  0.00000000000E+00  0.00000000000E+00 -0.83178874760E+03  0.83178874762E+03  0.50400001928E-02 0.  1.
    10030    2    1    2    0    0  0.00000000000E+00  0.00000000000E+00  0.10238286457E+04  0.26874061409E+04  0.24847387530E+04 0.  0.
        1    1    3    3  502    0  0.11439459046E+04  0.26689585834E+03  0.74400230124E+02  0.11770221010E+04  0.50400001928E-02 0.  1.
       -1    1    3    3    0  502 -0.11439459046E+04 -0.26689585834E+03  0.94942841558E+03  0.15103840400E+04  0.50400001928E-02 0. -1.
</event>
<event>
 5   0  0.8056723E-06  0.2507638E+04  0.7818609E-02  0.8400270E-01
       -2   -1    0    0    0  501  0.00000000000E+00  0.00000000000E+00  0.71503305311E+03  0.71503305311E+03  0.25500000920E-02 0. -1.
        2   -1    0    0  501    0  0.00000000000E+00  0.00000000000E+00 -0.21985864893E+04  0.21985864893E+04  0.25500000920E-02 0.  1.
    10030    2    1    2    0    0  0.00000000000E+00  0.00000000000E+00 -0.14835534362E+04  0.29136195424E+04  0.25076379403E+04 0.  0.
        2    1    3    3  502    0 -0.83071482604E+03 -0.14964438727E+03  0.33546093599E+03  0.90830314566E+03  0.25500000920E-02 0. -1.
       -2    1    3    3    0  502  0.83071482604E+03  0.14964438727E+03 -0.18190143722E+04  0.20053163967E+04  0.25500000920E-02 0.  1.
</event>
<event>
 5   0  0.3484857E-06  0.2504266E+04  0.7818609E-02  0.8401467E-01
        1   -1    0    0  501    0  0.00000000000E+00  0.00000000000E+00  0.13752820902E+04  0.13752820902E+04  0.50400001928E-02 0.  1.
       -1   -1    0    0    0  501  0.00000000000E+00  0.00000000000E+00 -0.11400113991E+04  0.11400113991E+04  0.50400001928E-02 0. -1.
    10030    2    1    2    0    0  0.00000000000E+00  0.00000000000E+00  0.23527069115E+03  0.25152934893E+04  0.25042661678E+04 0.  0.
        3    1    3    3  502    0 -0.13425682636E+03  0.33104528537E+03 -0.10877413931E+04  0.11449005305E+04  0.10100000352E+00 0. -1.
       -3    1    3    3    0  502  0.13425682636E+03 -0.33104528537E+03  0.13230120842E+04  0.13703929588E+04  0.10100000352E+00 0.  1.
</event>
<event>
 5   0  0.3484857E-06  0.2497725E+04  0.7818609E-02  0.8403796E-01
        1   -1    0    0  501    0  0.00000000000E+00  0.00000000000E+00  0.13003067120E+04  0.13003067120E+04  0.50400001928E-02 0.  1.
       -1   -1    0    0    0  501  0.00000000000E+00  0.00000000000E+00 -0.11994536352E+04  0.11994536352E+04  0.50400001928E-02 0. -1.
    10030    2    1    2    0    0  0.00000000000E+00  0.00000000000E+00  0.10085307686E+03  0.24997603472E+04  0.24977250550E+04 0.  0.
        3    1    3    3  502    0 -0.53730582004E+03  0.99362408245E+03 -0.48261542340E+03  0.12283745433E+04  0.10100000352E+00 0. -1.
       -3    1    3    3    0  502  0.53730582004E+03 -0.99362408245E+03  0.58346850025E+03  0.12713858039E+04  0.10100000352E+00 0.  1.
</event>
<event>
 5   0  0.8056723E-06  0.2496587E+04  0.7818609E-02  0.8404202E-01
        2   -1    0    0  501    0  0.00000000000E+00  0.00000000000E+00  0.11447814456E+04  0.11447814456E+04  0.25500000920E-02 0. -1.
       -2   -1    0    0    0  501  0.00000000000E+00  0.00000000000E+00 -0.13611653797E+04  0.13611653797E+04  0.25500000920E-02 0.  1.
    10030    2    1    2    0    0  0.00000000000E+00  0.00000000000E+00 -0.21638393411E+03  0.25059468252E+04  0.24965871673E+04 0.  0.
        2    1    3    3  502    0  0.10095067808E+04  0.68113008044E+03 -0.38343660052E+03  0.12767402843E+04  0.25500000920E-02 0.  1.
       -2    1    3    3    0  502 -0.10095067808E+04 -0.68113008044E+03  0.16705266642E+03  0.12292065409E+04  0.25500000920E-02 0. -1.
</event>
<event>
 5   0  0.3642184E-06  0.2504273E+04  0.7818609E-02  0.8401465E-01
        1   -1    0    0  501    0  0.00000000000E+00  0.00000000000E+00  0.24339922163E+04  0.24339922163E+04  0.50400001928E-02 0. -1.
       -1   -1    0    0    0  501  0.00000000000E+00  0.00000000000E+00 -0.64414580536E+03  0.64414580538E+03  0.50400001928E-02 0.  1.
    10030    2    1    2    0    0  0.00000000000E+00  0.00000000000E+00  0.17898464109E+04  0.30781380217E+04  0.25042730494E+04 0.  0.
        5    1    3    3  502    0 -0.45411434399E+03 -0.10423331270E+04  0.25017863016E+03  0.11641690694E+04  0.46999998093E+01 0.  1.
       -5    1    3    3    0  502  0.45411434399E+03  0.10423331270E+04  0.15396677808E+04  0.19139689523E+04  0.46999998093E+01 0. -1.
</event>
<event>
 5   0  0.8354653E-06  0.2508338E+04  0.7818609E-02  0.8400021E-01
       -2   -1    0    0    0  501  0.00000000000E+00  0.00000000000E+00  0.11437807849E+04  0.11437807849E+04  0.25500000920E-02 0. -1.
        2   -1    0    0  501    0  0.00000000000E+00  0.00000000000E+00 -0.13752106280E+04  0.13752106280E+04  0.25500000920E-02 0.  1.
    10030    2    1    2    0    0  0.00000000000E+00  0.00000000000E+00 -0.23142984313E+03  0.25189914129E+04  0.25083376898E+04 0.  0.
        3    1    3    3  502    0 -0.87645157007E+02 -0.41064510875E+02  0.11400245857E+04  0.11441258820E+04  0.10100000352E+00 0. -1.
       -3    1    3    3    0  502  0.87645157007E+02  0.41064510875E+02 -0.13714544288E+04  0.13748655309E+04  0.10100000352E+00 0.  1.
</event>
<event>
 5   0  0.8354653E-06  0.2507793E+04  0.7818609E-02  0.8400215E-01
        2   -1    0    0  501    0  0.00000000000E+00  0.00000000000E+00  0.11740188856E+04  0.11740188856E+04  0.25500000920E-02 0. -1.
       -2   -1    0    0    0  501  0.00000000000E+00  0.00000000000E+00 -0.13392084283E+04  0.13392084283E+04  0.25500000920E-02 0.  1.
    10030    2    1    2    0    0  0.00000000000E+00  0.00000000000E+00 -0.16518954276E+03  0.25132273139E+04  0.25077926442E+04 0.  0.
        3    1    3    3  502    0  0.68815527005E+03  0.10438235565E+04 -0.17835645935E+03  0.12629078864E+04  0.10100000352E+00 0.  1.
       -3    1    3    3    0  502 -0.68815527005E+03 -0.10438235565E+04  0.13166916587E+02  0.12503194275E+04  0.10100000352E+00 0. -1.
</event>
<event>
 5   0  0.8056723E-06  0.2501732E+04  0.7818609E-02  0.8402369E-01
       -2   -1    0    0    0  501  0.00000000000E+00  0.00000000000E+00  0.13379091618E+04  0.13379091618E+04  0.25500000920E-02 0. -1.
        2   -1    0    0  501    0  0.00000000000E+00  0.00000000000E+00 -0.11694857105E+04  0.11694857105E+04  0.25500000920E-02 0.  1.
    10030    2    1    2    0    0  0.00000000000E+00  0.00000000000E+00  0.16842345131E+03  0.25073948722E+04  0.25017319173E+04 0.  0.
        2    1    3    3  502    0 -0.36102823283E+03 -0.11864128523E+04 -0.79709110258E+02  0.12426867600E+04  0.25500000920E-02 0.  1.
       -2    1    3    3    0  502  0.36102823283E+03  0.11864128523E+04  0.24813256157E+03  0.12647081123E+04  0.25500000920E-02 0. -1.
</event>
<event>
 5   0  0.3481387E-06  0.2466023E+04  0.7818609E-02  0.8415191E-01
        1   -1    0    0  501    0  0.00000000000E+00  0.00000000000E+00  0.26230043712E+04  0.26230043712E+04  0.50400001928E-02 0.  1.
       -1   -1    0    0    0  501  0.00000000000E+00  0.00000000000E+00 -0.57960928080E+03  0.57960928082E+03  0.50400001928E-02 0. -1.
    10030    2    1    2    0    0  0.00000000000E+00  0.00000000000E+00  0.20433950904E+04  0.32026136520E+04  0.24660232579E+04 0.  0.
        4    1    3    3  502    0 -0.84932588809E+02 -0.21902628063E+03  0.25936719268E+04  0.26042891031E+04  0.12699999809E+01 0.  1.
       -4    1    3    3    0  502  0.84932588809E+02  0.21902628063E+03 -0.55027683636E+03  0.59832454887E+03  0.12699999809E+01 0. -1.
</event>
<event>
 5   0  0.8579923E-06  0.2492076E+04  0.7818609E-02  0.8405814E-01
       -2   -1    0    0    0  501  0.00000000000E+00  0.00000000000E+00  0.11784525507E+04  0.11784525507E+04  0.25500000920E-02 0. -1.
        2   -1    0    0  501    0  0.00000000000E+00  0.00000000000E+00 -0.13174990947E+04  0.13174990947E+04  0.25500000920E-02 0.  1.
    10030    2    1    2    0    0  0.00000000000E+00  0.00000000000E+00 -0.13904654408E+03  0.24959516454E+04  0.24920755757E+04 0.  0.
        1    1    3    3  502    0  0.40290657889E+03 -0.11233041503E+04  0.28945328672E+03  0.12279776589E+04  0.50400001928E-02 0. -1.
       -1    1    3    3    0  502 -0.40290657889E+03  0.11233041503E+04 -0.42849983080E+03  0.12679739865E+04  0.50400001928E-02 0.  1.
</event>
<event>
 5   0  0.8056723E-06  0.2500746E+04  0.7818609E-02  0.8402720E-01
        2   -1    0    0  501    0  0.00000000000E+00  0.00000000000E+00  0.13412455572E+04  0.13412455572E+04  0.25500000920E-02 0. -1.
       -2   -1    0    0    0  501  0.00000000000E+00  0.00000000000E+00 -0.11656573666E+04  0.11656573666E+04  0.25500000920E-02 0.  1.
    10030    2    1    2    0    0  0.00000000000E+00  0.00000000000E+00  0.17558819064E+03  0.25069029238E+04  0.25007461000E+04 0.  0.
        2    1    3    3  502    0  0.68719913755E+03  0.65646806813E+03  0.90234599722E+03  0.13105042075E+04  0.25500000920E-02 0. -1.
       -2    1    3    3    0  502 -0.68719913755E+03 -0.65646806813E+03 -0.72675780657E+03  0.11963987164E+04  0.25500000920E-02 0.  1.
</event>
<event>
 5   0  0.8579923E-06  0.2507129E+04  0.7818609E-02  0.8400450E-01
       -2   -1    0    0    0  501  0.00000000000E+00  0.00000000000E+00  0.10036385385E+04  0.10036385385E+04  0.25500000920E-02 0. -1.
        2   -1    0    0  501    0  0.00000000000E+00  0.00000000000E+00 -0.15657264612E+04  0.15657264612E+04  0.25500000920E-02 0.  1.
    10030    2    1    2    0    0  0.00000000000E+00  0.00000000000E+00 -0.56208792272E+03  0.25693649996E+04  0.25071285704E+04 0.  0.
        1    1    3    3  502    0  0.10096491973E+04 -0.30249347184E+03  0.41442536384E+03  0.11325379394E+04  0.50400001928E-02 0. -1.
       -1    1    3    3    0  502 -0.10096491973E+04  0.30249347184E+03 -0.97651328656E+03  0.14368270602E+04  0.50400001928E-02 0.  1.
</event>
<event>
 5   0  0.8354653E-06  0.2596147E+04  0.7818609E-02  0.8369511E-01
        2   -1    0    0  501    0  0.00000000000E+00  0.00000000000E+00  0.15759588863E+04  0.15759588863E+04  0.25500000920E-02 0.  1.
       -2   -1    0    0    0  501  0.00000000000E+00  0.00000000000E+00 -0.10691872069E+04  0.10691872069E+04  0.25500000920E-02 0. -1.
    10030    2    1    2    0    0  0.00000000000E+00  0.00000000000E+00  0.50677167936E+03  0.26451460932E+04  0.25961472068E+04 0.  0.
        3    1    3    3  502    0  0.99472505170E+03  0.80980837667E+03  0.45646537185E+03  0.13614801436E+04  0.10100000352E+00 0. -1.
       -3    1    3    3    0  502 -0.99472505170E+03 -0.80980837667E+03  0.50306307511E+02  0.12836659496E+04  0.10100000352E+00 0.  1.
</event>
<event>
 5   0  0.3522870E-06  0.2507268E+04  0.7818609E-02  0.8400401E-01
       -1   -1    0    0    0  501  0.00000000000E+00  0.00000000000E+00  0.94465224612E+03  0.94465224614E+03  0.50400001928E-02 0. -1.
        1   -1    0    0  501    0  0.00000000000E+00  0.00000000000E+00 -0.16636793291E+04  0.16636793291E+04  0.50400001928E-02 0.  1.
    10030    2    1    2    0    0  0.00000000000E+00  0.00000000000E+00 -0.71902708293E+03  0.26083315752E+04  0.25072681668E+04 0.  0.
        2    1    3    3  502    0 -0.11975464765E+04  0.25051115467E+01 -0.74523447287E+03  0.14104957492E+04  0.25500000920E-02 0.  1.
       -2    1    3    3    0  502  0.11975464765E+04 -0.25051115467E+01  0.26207389937E+02  0.11978358260E+04  0.25500000920E-02 0. -1.
</event>
<event>
 5   0  0.8579923E-06  0.2524752E+04  0.7818609E-02  0.8394220E-01
       -2   -1    0    0    0  501  0.00000000000E+00  0.00000000000E+00  0.11968591014E+04  0.11968591014E+04  0.25500000920E-02 0.  1.
        2   -1    0    0  501    0  0.00000000000E+00  0.00000000000E+00 -0.13314798343E+04  0.13314798343E+04  0.25500000920E-02 0. -1.
    10030    2    1    2    0    0  0.00000000000E+00  0.00000000000E+00 -0.13462073283E+03  0.25283389357E+04  0.25247524694E+04 0.  0.
        1    1    3    3  502    0  0.88707267068E+03  0.71675775572E+03  0.47471088895E+03  0.12353096905E+04  0.50400001928E-02 0.  1.
       -1    1    3    3    0  502 -0.88707267068E+03 -0.71675775572E+03 -0.60933162178E+03  0.12930292451E+04  0.50400001928E-02 0. -1.
</event>
<event>
 5   0  0.8948286E-06  0.2502290E+04  0.7818609E-02  0.8402170E-01
       -2   -1    0    0    0  501  0.00000000000E+00  0.00000000000E+00  0.17107439595E+04  0.17107439595E+04  0.25500000920E-02 0. -1.
        2   -1    0    0  501    0  0.00000000000E+00  0.00000000000E+00 -0.91501930785E+03  0.91501930785E+03  0.25500000920E-02 0.  1.
    10030    2    1    2    0    0  0.00000000000E+00  0.00000000000E+00  0.79572465169E+03  0.26257632674E+04  0.25022899542E+04 0.  0.
        4    1    3    3  502    0  0.20258123172E+03 -0.57138969071E+03 -0.75060002621E+03  0.96484576298E+03  0.12699999809E+01 0.  1.
       -4    1    3    3    0  502 -0.20258123172E+03  0.57138969071E+03  0.15463246779E+04  0.16609175044E+04  0.12699999809E+01 0. -1.
</event>
<event>
 5   0  0.3424193E-06  0.2488419E+04  0.7818609E-02  0.8407123E-01
       -1   -1    0    0    0  501  0.00000000000E+00  0.00000000000E+00  0.15614764637E+04  0.15614764637E+04  0.50400001928E-02 0. -1.
        1   -1    0    0  501    0  0.00000000000E+00  0.00000000000E+00 -0.99140618979E+03  0.99140618980E+03  0.50400001928E-02 0.  1.
    10030    2    1    2    0    0  0.00000000000E+00  0.00000000000E+00  0.57007027394E+03  0.25528826535E+04  0.24884191218E+04 0.  0.
        1    1    3    3  502    0 -0.69416077721E+03  0.94593875386E+03 -0.13969233268E+03  0.11815977566E+04  0.50400001928E-02 0. -1.
       -1    1    3    3    0  502  0.69416077721E+03 -0.94593875386E+03  0.70976260662E+03  0.13712848969E+04  0.50400001928E-02 0.  1.
</event>
<event>
 5   0  0.3522870E-06  0.2487744E+04  0.7818609E-02  0.8407365E-01
        1   -1    0    0  501    0  0.00000000000E+00  0.00000000000E+00  0.14831384739E+04  0.14831384739E+04  0.50400001928E-02 0.  1.
       -1   -1    0    0    0  501  0.00000000000E+00  0.00000000000E+00 -0.10432054108E+04  0.10432054108E+04  0.50400001928E-02 0. -1.
    10030    2    1    2    0    0  0.00000000000E+00  0.00000000000E+00  0.43993306306E+03  0.25263438847E+04  0.24877444249E+04 0.  0.
        2    1    3    3  502    0 -0.86544975544E+02  0.16756089306E+03  0.14685354777E+04  0.14805955339E+04  0.25500000920E-02 0.  1.
       -2    1    3    3    0  502  0.86544975544E+02 -0.16756089306E+03 -0.10286024147E+04  0.10457483508E+04  0.25500000920E-02 0. -1.
</event>
<event>
 5   0  0.3642184E-06  0.2493424E+04  0.7818609E-02  0.8405332E-01
       -1   -1    0    0    0  501  0.00000000000E+00  0.00000000000E+00  0.10992627909E+04  0.10992627909E+04  0.50400001928E-02 0.  1.
        1   -1    0    0  501    0  0.00000000000E+00  0.00000000000E+00 -0.14139390886E+04  0.14139390886E+04  0.50400001928E-02 0. -1.
    10030    2    1    2    0    0  0.00000000000E+00  0.00000000000E+00 -0.31467629770E+03  0.25132018795E+04  0.24934238538E+04 0.  0.
        5    1    3    3  502    0  0.79519747507E+02 -0.98922172119E+03 -0.91789989984E+03  0.13518303592E+04  0.46999998093E+01 0. -1.
       -5    1    3    3    0  502 -0.79519747507E+02  0.98922172119E+03  0.60322360214E+03  0.11613715203E+04  0.46999998093E+01 0.  1.
</event>
<event>
 5   0  0.2901250E-06  0.2521208E+04  0.7818609E-02  0.8395469E-01
        3   -1    0    0  501    0  0.00000000000E+00  0.00000000000E+00  0.17459508482E+04  0.17459508511E+04  0.10100000352E+00 0.  1.
       -3   -1    0    0    0  501  0.00000000000E+00  0.00000000000E+00 -0.91017570199E+03  0.91017570759E+03  0.10100000352E+00 0. -1.
    10030    2    1    2    0    0  0.00000000000E+00  0.00000000000E+00  0.83577514621E+03  0.26561265587E+04  0.25212076870E+04 0.  0.
        3    1    3    3  502    0  0.87861277593E+03 -0.90070383683E+03  0.49876989675E+03  0.13535136615E+04  0.10100000352E+00 0. -1.
       -3    1    3    3    0  502 -0.87861277593E+03  0.90070383683E+03  0.33700524946E+03  0.13026128972E+04  0.10100000352E+00 0.  1.
</event>
<event>
 5   0  0.3484857E-06  0.2498240E+04  0.7818609E-02  0.8403613E-01
        1   -1    0    0  501    0  0.00000000000E+00  0.00000000000E+00  0.17736900864E+04  0.17736900864E+04  0.50400001928E-02 0.  1.
       -1   -1    0    0    0  501  0.00000000000E+00  0.00000000000E+00 -0.87969154012E+03  0.87969154013E+03  0.50400001928E-02 0. -1.
    10030    2    1    2    0    0  0.00000000000E+00  0.00000000000E+00  0.89399854630E+03  0.26533816266E+04  0.24982395112E+04 0.  0.
        3    1    3    3  502    0 -0.96276172221E+03 -0.61485809545E+03  0.98369073058E+03  0.15075171889E+04  0.10100000352E+00 0.  1.
       -3    1    3    3    0  502  0.96276172221E+03  0.61485809545E+03 -0.89692184276E+02  0.11458644376E+04  0.10100000352E+00 0. -1.
</event>
<event>
 5   0  0.8948286E-06  0.2507449E+04  0.7818609E-02  0.8400336E-01
       -2   -1    0    0    0  501  0.00000000000E+00  0.00000000000E+00  0.70180686725E+03  0.70180686725E+03  0.25500000920E-02 0. -1.
        2   -1    0    0  501    0  0.00000000000E+00  0.00000000000E+00 -0.22396839643E+04  0.22396839643E+04  0.25500000920E-02 0.  1.
    10030    2    1    2    0    0  0.00000000000E+00  0.00000000000E+00 -0.15378770971E+04  0.29414908316E+04  0.25074493707E+04 0.  0.
        4    1    3    3  502    0 -0.31620641742E+03 -0.71482224583E+03 -0.19188565755E+04  0.20719482407E+04  0.12699999809E+01 0.  1.
       -4    1    3    3    0  502  0.31620641742E+03  0.71482224583E+03  0.38097947845E+03  0.86954259094E+03  0.12699999809E+01 0. -1.
</event>
<event>
 5   0  0.3424193E-06  0.2505570E+04  0.7818609E-02  0.8401004E-01
       -1   -1    0    0    0  501  0.00000000000E+00  0.00000000000E+00  0.97505259418E+03  0.97505259420E+03  0.50400001928E-02 0.  1.
        1   -1    0    0  501    0  0.00000000000E+00  0.00000000000E+00 -0.16096256195E+04  0.16096256196E+04  0.50400001928E-02 0. -1.
    10030    2    1    2    0    0  0.00000000000E+00  0.00000000000E+00 -0.63457302537E+03  0.25846782138E+04  0.25055695049E+04 0.  0.
        1    1    3    3  502    0  0.55617606095E+03 -0.10278371129E+04  0.14828188144E+03  0.11780358475E+04  0.50400001928E-02 0. -1.
       -1    1    3    3    0  502 -0.55617606095E+03  0.10278371129E+04 -0.78285490681E+03  0.14066423663E+04  0.50400001928E-02 0.  1.
</event>
<event>
 5   0  0.8407986E-06  0.2513278E+04  0.7818609E-02  0.8398270E-01
        2   -1    0    0  501    0  0.00000000000E+00  0.00000000000E+00  0.11786410697E+04  0.11786410697E+04  0.25500000920E-02 0.  1.
       -2   -1    0    0    0  501  0.00000000000E+00  0.00000000000E+00 -0.13397987535E+04  0.13397987535E+04  0.25500000920E-02 0. -1.
    10030    2    1    2    0    0  0.00000000000E+00  0.00000000000E+00 -0.16115768380E+03  0.25184398232E+04  0.25132782066E+04 0.  0.
        5    1    3    3  502    0  0.39049347716E+03 -0.25214673015E+03  0.10893190553E+04  0.11843568818E+04  0.46999998093E+01 0.  1.
       -5    1    3    3    0  502 -0.39049347716E+03  0.25214673015E+03 -0.12504767391E+04  0.13340829413E+04  0.46999998093E+01 0. -1.
</event>
<event>
 5   0  0.8407986E-06  0.2502790E+04  0.7818609E-02  0.8401992E-01
        2   -1    0    0  501    0  0.00000000000E+00  0.00000000000E+00  0.15817263519E+04  0.15817263519E+04  0.25500000920E-02 0.  1.
       -2   -1    0    0    0  501  0.00000000000E+00  0.00000000000E+00 -0.99005055065E+03  0.99005055065E+03  0.25500000920E-02 0. -1.
    10030    2    1    2    0    0  0.00000000000E+00  0.00000000000E+00  0.59167580130E+03  0.25717769026E+04  0.25027896801E+04 0.  0.
        5    1    3    3  502    0 -0.35105086858E+02  0.13270041289E+02  0.15811388799E+04  0.15815911952E+04  0.46999998093E+01 0.  1.
       -5    1    3    3    0  502  0.35105086858E+02 -0.13270041289E+02 -0.98946307864E+03  0.99018570739E+03  0.46999998093E+01 0. -1.
</event>
<event>
 5   0  0.8407986E-06  0.2530308E+04  0.7818609E-02  0.8392267E-01
       -2   -1    0    0    0  501  0.00000000000E+00  0.00000000000E+00  0.13231459257E+04  0.13231459257E+04  0.25500000920E-02 0. -1.
        2   -1    0    0  501    0  0.00000000000E+00  0.00000000000E+00 -0.12097036212E+04  0.12097036212E+04  0.25500000920E-02 0.  1.
    10030    2    1    2    0    0  0.00000000000E+00  0.00000000000E+00  0.11344230450E+03  0.25328495469E+04  0.25303078214E+04 0.  0.
        5    1    3    3  502    0  0.92552213975E+03 -0.20483933144E+03 -0.78199994137E+03  0.12288597891E+04  0.46999998093E+01 0.  1.
       -5    1    3    3    0  502 -0.92552213975E+03  0.20483933144E+03  0.89544224587E+03  0.13039897578E+04  0.46999998093E+01 0. -1.
</event>
<event>
 5   0  0.8056723E-06  0.2486403E+04  0.7818609E-02  0.8407846E-01
       -2   -1    0    0    0  501  0.00000000000E+00  0.00000000000E+00  0.98826780102E+03  0.98826780102E+03  0.25500000920E-02 0.  1.
        2   -1    0    0  501    0  0.00000000000E+00  0.00000000000E+00 -0.15638977351E+04  0.15638977351E+04  0.25500000920E-02 0. -1.
    10030    2    1    2    0    0  0.00000000000E+00  0.00000000000E+00 -0.57562993407E+03  0.25521655361E+04  0.24864028440E+04 0.  0.
        2    1    3    3  502    0  0.98581777941E+03  0.75588014847E+03 -0.23796839792E+03  0.12648400893E+04  0.25500000920E-02 0.  1.
       -2    1    3    3    0  502 -0.98581777941E+03 -0.75588014847E+03 -0.33766153615E+03  0.12873254468E+04  0.25500000920E-02 0. -1.
</event>
<event>
 5   0  0.3481387E-06  0.2490281E+04  0.7818609E-02  0.8406456E-01
        1   -1    0    0  501    0  0.00000000000E+00  0.00000000000E+00  0.20922986302E+04  0.20922986302E+04  0.50400001928E-02 0. -1.
       -1   -1    0    0    0  501  0.00000000000E+00  0.00000000000E+00 -0.74099105751E+03  0.74099105752E+03  0.50400001928E-02 0.  1.
    10030    2    1    2    0    0  0.00000000000E+00  0.00000000000E+00  0.13513075727E+04  0.28332896877E+04  0.24902807670E+04 0.  0.
        4    1    3    3  502    0 -0.76905200861E+03  0.51921474168E+03  0.16202842199E+04  0.18671763457E+04  0.12699999809E+01 0. -1.
       -4    1    3    3    0  502  0.76905200861E+03 -0.51921474168E+03 -0.26897664720E+03  0.96611334199E+03  0.12699999809E+01 0.  1.
</event>
<event>
 5   0  0.8579923E-06  0.2501655E+04  0.7818609E-02  0.8402396E-01
       -2   -1    0    0    0  501  0.00000000000E+00  0.00000000000E+00  0.62593135853E+03  0.62593135853E+03  0.25500000920E-02 0.  1.
        2   -1    0    0  501    0  0.00000000000E+00  0.00000000000E+00 -0.24995872571E+04  0.24995872571E+04  0.25500000920E-02 0. -1.
    10030    2    1    2    0    0  0.00000000000E+00  0.00000000000E+00 -0.18736558986E+04  0.31255186156E+04  0.25016554900E+04 0.  0.
        1    1    3    3  502    0  0.33050497198E+03 -0.10115483041E+04 -0.11555029245E+03  0.10704276614E+04  0.50400001928E-02 0.  1.
       -1    1    3    3    0  502 -0.33050497198E+03  0.10115483041E+04 -0.17581056061E+04  0.20550909543E+04  0.50400001928E-02 0. -1.
</event>
<event>
 5   0  0.8407986E-06  0.2502124E+04  0.7818609E-02  0.8402229E-01
       -2   -1    0    0    0  501  0.00000000000E+00  0.00000000000E+00  0.92739823969E+03  0.92739823970E+03  0.25500000920E-02 0. -1.
        2   -1    0    0  501    0  0.00000000000E+00  0.00000000000E+00 -0.16876846180E+04  0.16876846180E+04  0.25500000920E-02 0.  1.
    10030    2    1    2    0    0  0.00000000000E+00  0.00000000000E+00 -0.76028637833E+03  0.26150828577E+04  0.25021236931E+04 0.  0.
        5    1    3    3  502    0  0.36899399029E+03 -0.93797476969E+03  0.39437960070E+03  0.10823634292E+04  0.46999998093E+01 0. -1.
       -5    1    3    3    0  502 -0.36899399029E+03  0.93797476969E+03 -0.11546659790E+04  0.15327194285E+04  0.46999998093E+01 0.  1.
</event>
<event>
 5   0  0.8948286E-06  0.2654242E+04  0.7818609E-02  0.8350006E-01
        2   -1    0    0  501    0  0.00000000000E+00  0.00000000000E+00  0.12227897411E+04  0.12227897411E+04  0.25500000920E-02 0. -1.
       -2   -1    0    0    0  501  0.00000000000E+00  0.00000000000E+00 -0.14403542906E+04  0.14403542906E+04  0.25500000920E-02 0.  1.
    10030    2    1    2    0    0  0.00000000000E+00  0.00000000000E+00 -0.21756454948E+03  0.26631440317E+04  0.26542422272E+04 0.  0.
        4    1    3    3  502    0  0.22831886436E+03  0.10705762914E+04  0.64405791835E+03  0.12700690196E+04  0.12699999809E+01 0. -1.
       -4    1    3    3    0  502 -0.22831886436E+03 -0.10705762914E+04 -0.86162246783E+03  0.13930750121E+04  0.12699999809E+01 0.  1.
</event>
<event>
 5   0  0.8354653E-06  0.2490297E+04  0.7818609E-02  0.8406450E-01
       -2   -1    0    0    0  501  0.00000000000E+00  0.00000000000E+00  0.16288807205E+04  0.16288807205E+04  0.25500000920E-02 0. -1.
        2   -1    0    0  501    0  0.00000000000E+00  0.00000000000E+00 -0.95181610163E+03  0.95181610163E+03  0.25500000920E-02 0.  1.
    10030    2    1    2    0    0  0.00000000000E+00  0.00000000000E+00  0.67706461886E+03  0.25806968221E+04  0.24902970886E+04 0.  0.
        3    1    3    3  502    0 -0.78982037390E+02  0.59755118143E+03  0.14676196116E+04  0.15865726933E+04  0.10100000352E+00 0. -1.
       -3    1    3    3    0  502  0.78982037390E+02 -0.59755118143E+03 -0.79055499275E+03  0.99412412878E+03  0.10100000352E+00 0.  1.
</event>
<event>
 5   0  0.8407986E-06  0.2445318E+04  0.7818609E-02  0.8422729E-01
       -2   -1    0    0    0  501  0.00000000000E+00  0.00000000000E+00  0.10462378951E+04  0.10462378951E+04  0.25500000920E-02 0.  1.
        2   -1    0    0  501    0  0.00000000000E+00  0.00000000000E+00 -0.14288295091E+04  0.14288295091E+04  0.25500000920E-02 0. -1.
    10030    2    1    2    0    0  0.00000000000E+00  0.00000000000E+00 -0.38259161404E+03  0.24750674041E+04  0.24453184480E+04 0.  0.
        5    1    3    3  502    0 -0.40624469793E+03  0.11292808486E+04  0.45134262452E+02  0.12009867532E+04  0.46999998093E+01 0. -1.
       -5    1    3    3    0  502  0.40624469793E+03 -0.11292808486E+04 -0.42772587649E+03  0.12740806509E+04  0.46999998093E+01 0.  1.
</event>
<event>
 5   0  0.3481387E-06  0.2500574E+04  0.7818609E-02  0.8402781E-01
        1   -1    0    0  501    0  0.00000000000E+00  0.00000000000E+00  0.17059511812E+04  0.17059511812E+04  0.50400001928E-02 0.  1.
       -1   -1    0    0    0  501  0.00000000000E+00  0.00000000000E+00 -0.91633160620E+03  0.91633160621E+03  0.50400001928E-02 0. -1.
    10030    2    1    2    0    0  0.00000000000E+00  0.00000000000E+00  0.78961957497E+03  0.26222827874E+04  0.25005735230E+04 0.  0.
        4    1    3    3  502    0 -0.66594819973E+03 -0.10142414565E+04  0.78390966345E+02  0.12158616259E+04  0.12699999809E+01 0. -1.
       -4    1    3    3    0  502  0.66594819973E+03  0.10142414565E+04  0.71122860863E+03  0.14064211615E+04  0.12699999809E+01 0.  1.
</event>
<event>
 5   0  0.3484857E-06  0.2494912E+04  0.7818609E-02  0.8404800E-01
       -1   -1    0    0    0  501  0.00000000000E+00  0.00000000000E+00  0.89920354200E+03  0.89920354202E+03  0.50400001928E-02 0. -1.
        1   -1    0    0  501    0  0.00000000000E+00  0.00000000000E+00 -0.17305834445E+04  0.17305834445E+04  0.50400001928E-02 0.  1.
    10030    2    1    2    0    0  0.00000000000E+00  0.00000000000E+00 -0.83137990245E+03  0.26297869865E+04  0.24949122333E+04 0.  0.
        3    1    3    3  502    0 -0.13929302497E+03  0.11550859763E+04 -0.89004103261E+03  0.14648546718E+04  0.10100000352E+00 0.  1.
       -3    1    3    3    0  502  0.13929302497E+03 -0.11550859763E+04  0.58661130159E+02  0.11649323147E+04  0.10100000352E+00 0. -1.
</event>
<event>
 5   0  0.3642184E-06  0.2500928E+04  0.7818609E-02  0.8402655E-01
       -1   -1    0    0    0  501  0.00000000000E+00  0.00000000000E+00  0.11561920384E+04  0.11561920384E+04  0.50400001928E-02 0. -1.
        1   -1    0    0  501    0  0.00000000000E+00  0.00000000000E+00 -0.13524220513E+04  0.13524220513E+04  0.50400001928E-02 0.  1.
    10030    2    1    2    0    0  0.00000000000E+00  0.00000000000E+00 -0.19623001296E+03  0.25086140897E+04  0.25009275145E+04 0.  0.
        5    1    3    3  502    0  0.50181747299E+03  0.77704004813E+03 -0.94214368621E+03  0.13203290605E+04  0.46999998093E+01 0.  1.
       -5    1    3    3    0  502 -0.50181747299E+03 -0.77704004813E+03  0.74591367326E+03  0.11882850292E+04  0.46999998093E+01 0. -1.
</event>
<event>
 5   0  0.8579923E-06  0.2552592E+04  0.7818609E-02  0.8384485E-01
       -2   -1    0    0    0  501  0.00000000000E+00  0.00000000000E+00  0.17346842139E+04  0.17346842139E+04  0.25500000920E-02 0.  1.
        2   -1    0    0  501    0  0.00000000000E+00  0.00000000000E+00 -0.93903631886E+03  0.93903631886E+03  0.25500000920E-02 0. -1.
    10030    2    1    2    0    0  0.00000000000E+00  0.00000000000E+00  0.79564789506E+03  0.26737205328E+04  0.25525919992E+04 0.  0.
        1    1    3    3  502    0  0.37618576378E+03 -0.11872630511E+04  0.10561981630E+03  0.12499059273E+04  0.50400001928E-02 0.  1.
       -1    1    3    3    0  502 -0.37618576378E+03  0.11872630511E+04  0.69002807875E+03  0.14238146055E+04  0.50400001928E-02 0. -1.
</event>
<event>
 5   0  0.8407986E-06  0.2499997E+04  0.7818609E-02  0.8402986E-01
        2   -1    0    0  501    0  0.00000000000E+00  0.00000000000E+00  0.15163115270E+04  0.15163115270E+04  0.25500000920E-02 0.  1.
       -2   -1    0    0    0  501  0.00000000000E+00  0.00000000000E+00 -0.10304589083E+04  0.10304589083E+04  0.25500000920E-02 0. -1.
    10030    2    1    2    0    0  0.00000000000E+00  0.00000000000E+00  0.48585261869E+03  0.25467704353E+04  0.24999973766E+04 0.  0.
        5    1    3    3  502    0 -0.91922160812E+03  0.18883842483E+03  0.10841151364E+04  0.14338605353E+04  0.46999998093E+01 0.  1.
       -5    1    3    3    0  502  0.91922160812E+03 -0.18883842483E+03 -0.59826251775E+03  0.11129099001E+04  0.46999998093E+01 0. -1.
</event>
<event>
 5   0  0.3642184E-06  0.2507921E+04  0.7818609E-02  0.8400169E-01
        1   -1    0    0  501    0  0.00000000000E+00  0.00000000000E+00  0.10250286537E+04  0.10250286537E+04  0.50400001928E-02 0. -1.
       -1   -1    0    0    0  501  0.00000000000E+00  0.00000000000E+00 -0.15340224940E+04  0.15340224940E+04  0.50400001928E-02 0.  1.
    10030    2    1    2    0    0  0.00000000000E+00  0.00000000000E+00 -0.50899384026E+03  0.25590511477E+04  0.25079210608E+04 0.  0.
        5    1    3    3  502    0  0.61612824836E+03 -0.16454475503E+03  0.84719358370E+03  0.10603999496E+04  0.46999998093E+01 0. -1.
       -5    1    3    3    0  502 -0.61612824836E+03  0.16454475503E+03 -0.13561874240E+04  0.14986511982E+04  0.46999998093E+01 0.  1.
</event>
<event>
 5   0  0.3424193E-06  0.2501861E+04  0.7818609E-02  0.8402323E-01
        1   -1    0    0  501    0  0.00000000000E+00  0.00000000000E+00  0.15167815121E+04  0.15167815121E+04  0.50400001928E-02 0.  1.
       -1   -1    0    0    0  501  0.00000000000E+00  0.00000000000E+00 -0.10316757411E+04  0.10316757412E+04  0.50400001928E-02 0. -1.
    10030    2    1    2    0    0  0.00000000000E+00  0.00000000000E+00  0.48510577094E+03  0.25484572532E+04  0.25018606601E+04 0.  0.
        1    1    3    3  502    0  0.84432833529E+03 -0.71701575336E+03  0.83460505246E+03  0.13869273672E+04  0.50400001928E-02 0.  1.
       -1    1    3    3    0  502 -0.84432833529E+03  0.71701575336E+03 -0.34949928152E+03  0.11615298860E+04  0.50400001928E-02 0. -1.
</event>
<event>
 5   0  0.8056723E-06  0.2494248E+04  0.7818609E-02  0.8405037E-01
       -2   -1    0    0    0  501  0.00000000000E+00  0.00000000000E+00  0.10554883236E+04  0.10554883236E+04  0.25500000920E-02 0. -1.
        2   -1    0    0  501    0  0.00000000000E+00  0.00000000000E+00 -0.14735537372E+04  0.14735537372E+04  0.25500000920E-02 0.  1.
    10030    2    1    2    0    0  0.00000000000E+00  0.00000000000E+00 -0.41806541367E+03  0.25290420608E+04  0.24942483949E+04 0.  0.
        2    1    3    3  502    0 -0.50273575273E+02  0.12437255944E+04 -0.13089950670E+03  0.12516051564E+04  0.25500000920E-02 0.  1.
       -2    1    3    3    0  502  0.50273575273E+02 -0.12437255944E+04 -0.28716590697E+03  0.12774369044E+04  0.25500000920E-02 0. -1.
</event>
<event>
 5   0  0.3424193E-06  0.2498206E+04  0.7818609E-02  0.8403625E-01
       -1   -1    0    0    0  501  0.00000000000E+00  0.00000000000E+00  0.10834041064E+04  0.10834041064E+04  0.50400001928E-02 0.  1.
        1   -1    0    0  501    0  0.00000000000E+00  0.00000000000E+00 -0.14401440841E+04  0.14401440841E+04  0.50400001928E-02 0. -1.
    10030    2    1    2    0    0  0.00000000000E+00  0.00000000000E+00 -0.35673997768E+03  0.25235481905E+04  0.24982057678E+04 0.  0.
        1    1    3    3  502    0  0.54856607738E+02 -0.26770272285E+03 -0.14095796235E+04  0.14358233562E+04  0.50400001928E-02 0. -1.
       -1    1    3    3    0  502 -0.54856607738E+02  0.26770272285E+03  0.10528396458E+04  0.10877248343E+04  0.50400001928E-02 0.  1.
</event>
<event>
 5   0  0.8948286E-06  0.2495478E+04  0.7818609E-02  0.8404598E-01
       -2   -1    0    0    0  501  0.00000000000E+00  0.00000000000E+00  0.89803893683E+03  0.89803893683E+03  0.25500000920E-02 0.  1.
        2   -1    0    0  501    0  0.00000000000E+00  0.00000000000E+00 -0.17336138497E+04  0.17336138497E+04  0.25500000920E-02 0. -1.
    10030    2    1    2    0    0  0.00000000000E+00  0.00000000000E+00 -0.83557491287E+03  0.26316527865E+04  0.24954781012E+04 0.  0.
        4    1    3    3  502    0 -0.91992620300E+03 -0.46689688748E+03 -0.11579369976E+04  0.15508309469E+04  0.12699999809E+01 0. -1.
       -4    1    3    3    0  502  0.91992620300E+03  0.46689688748E+03  0.32236208472E+03  0.10808218397E+04  0.12699999809E+01 0.  1.
</event>
<event>
 5   0  0.8579923E-06  0.2507199E+04  0.7818609E-02  0.8400425E-01
       -2   -1    0    0    0  501  0.00000000000E+00  0.00000000000E+00  0.12919552221E+04  0.12919552221E+04  0.25500000920E-02 0.  1.
        2   -1    0    0  501    0  0.00000000000E+00  0.00000000000E+00 -0.12163825037E+04  0.12163825037E+04  0.25500000920E-02 0. -1.
    10030    2    1    2    0    0  0.00000000000E+00  0.00000000000E+00  0.75572718414E+02  0.25083377259E+04  0.25071990171E+04 0.  0.
        1    1    3    3  502    0 -0.53438936862E+02  0.94603824541E+03  0.85893172508E+03  0.12789088279E+04  0.50400001928E-02 0.  1.
       -1    1    3    3    0  502  0.53438936862E+02 -0.94603824541E+03 -0.78335900667E+03  0.12294288979E+04  0.50400001928E-02 0. -1.
</event>
<event>
 5   0  0.2901250E-06  0.2492966E+04  0.7818609E-02  0.8405496E-01
        4   -1    0    0  501    0  0.00000000000E+00  0.00000000000E+00  0.93387719215E+03  0.93387805570E+03  0.12699999809E+01 0.  1.
       -4   -1    0    0    0  501  0.00000000000E+00  0.00000000000E+00 -0.16637290357E+04  0.16637295204E+04  0.12699999809E+01 0. -1.
    10030    2    1    2    0    0  0.00000000000E+00  0.00000000000E+00 -0.72985184358E+03  0.25976075761E+04  0.24929663869E+04 0.  0.
        4    1    3    3  502    0 -0.62560042888E+03  0.56663846131E+03  0.59077761521E+03  0.10302790137E+04  0.12699999809E+01 0.  1.
       -4    1    3    3    0  502  0.62560042888E+03 -0.56663846131E+03 -0.13206294588E+04  0.15673285625E+04  0.12699999809E+01 0. -1.
</event>
<event>
 5   0  0.3424193E-06  0.2511521E+04  0.7818609E-02  0.8398893E-01
        1   -1    0    0  501    0  0.00000000000E+00  0.00000000000E+00  0.18859445737E+04  0.18859445737E+04  0.50400001928E-02 0. -1.
       -1   -1    0    0    0  501  0.00000000000E+00  0.00000000000E+00 -0.83615096070E+03  0.83615096072E+03  0.50400001928E-02 0.  1.
    10030    2    1    2    0    0  0.00000000000E+00  0.00000000000E+00  0.10497936130E+04  0.27220955344E+04  0.25115209473E+04 0.  0.
        1    1    3    3  502    0 -0.22168713745E+03  0.10630246673E+04  0.12084641954E+04  0.16246699178E+04  0.50400001928E-02 0. -1.
       -1    1    3    3    0  502  0.22168713745E+03 -0.10630246673E+04 -0.15867058240E+03  0.10974256166E+04  0.50400001928E-02 0.  1.
</event>
<event>
 5   0  0.2901250E-06  0.2504888E+04  0.7818609E-02  0.8401246E-01
        3   -1    0    0  501    0  0.00000000000E+00  0.00000000000E+00  0.87924419110E+03  0.87924419690E+03  0.10100000352E+00 0. -1.
       -3   -1    0    0    0  501  0.00000000000E+00  0.00000000000E+00 -0.17840498343E+04  0.17840498371E+04  0.10100000352E+00 0.  1.
    10030    2    1    2    0    0  0.00000000000E+00  0.00000000000E+00 -0.90480564317E+03  0.26632940340E+04  0.25048875942E+04 0.  0.
        4    1    3    3  502    0  0.28856541799E+03 -0.25540853468E+03  0.81464182397E+03  0.90119167457E+03  0.12699999809E+01 0. -1.
       -4    1    3    3    0  502 -0.28856541799E+03  0.25540853468E+03 -0.17194474671E+04  0.17621023595E+04  0.12699999809E+01 0.  1.
</event>
<event>
 5   0  0.8948286E-06  0.2515141E+04  0.7818609E-02  0.8397611E-01
        2   -1    0    0  501    0  0.00000000000E+00  0.00000000000E+00  0.20844550506E+04  0.20844550506E+04  0.25500000920E-02 0.  1.
       -2   -1    0    0    0  501  0.00000000000E+00  0.00000000000E+00 -0.75870388762E+03  0.75870388762E+03  0.25500000920E-02 0. -1.
    10030    2    1    2    0    0  0.00000000000E+00  0.00000000000E+00  0.13257511630E+04  0.28431589382E+04  0.25151414676E+04 0.  0.
        4    1    3    3  502    0  0.15430018125E+03  0.29242746716E+03 -0.70868897027E+03  0.78202559994E+03  0.12699999809E+01 0. -1.
       -4    1    3    3    0  502 -0.15430018125E+03 -0.29242746716E+03  0.20344401333E+04  0.20611333383E+04  0.12699999809E+01 0.  1.
</event>
<event>
 5   0  0.3481387E-06  0.2501546E+04  0.7818609E-02  0.8402435E-01
       -1   -1    0    0    0  501  0.00000000000E+00  0.00000000000E+00  0.10291043299E+04  0.10291043299E+04  0.50400001928E-02 0. -1.
        1   -1    0    0  501    0  0.00000000000E+00  0.00000000000E+00 -0.15201893336E+04  0.15201893336E+04  0.50400001928E-02 0.  1.
    10030    2    1    2    0    0  0.00000000000E+00  0.00000000000E+00 -0.49108500370E+03  0.25492936636E+04  0.25015462623E+04 0.  0.
        4    1    3    3  502    0  0.50144338670E+03 -0.76999160319E+03 -0.11103262394E+04  0.14412350641E+04  0.12699999809E+01 0.  1.
       -4    1    3    3    0  502 -0.50144338670E+03  0.76999160319E+03  0.61924123571E+03  0.11080585995E+04  0.12699999809E+01 0. -1.
</event>
<event>
 5   0  0.8948286E-06  0.2498329E+04  0.7818609E-02  0.8403581E-01
        2   -1    0    0  501    0  0.00000000000E+00  0.00000000000E+00  0.16002264528E+04  0.16002264528E+04  0.25500000920E-02 0.  1.
       -2   -1    0    0    0  501  0.00000000000E+00  0.00000000000E+00 -0.97511956124E+03  0.97511956124E+03  0.25500000920E-02 0. -1.
    10030    2    1    2    0    0  0.00000000000E+00  0.00000000000E+00  0.62510689156E+03  0.25753460140E+04  0.24983291349E+04 0.  0.
        4    1    3    3  502    0  0.33277957135E+03  0.77576363316E+03 -0.63662477350E+03  0.10572815012E+04  0.12699999809E+01 0. -1.
       -4    1    3    3    0  502 -0.33277957135E+03 -0.77576363316E+03  0.12617316651E+04  0.15180645128E+04  0.12699999809E+01 0.  1.
</event>
<event>
 5   0  0.3522870E-06  0.2491083E+04  0.7818609E-02  0.8406169E-01
       -1   -1    0    0    0  501  0.00000000000E+00  0.00000000000E+00  0.59162008021E+03  0.59162008023E+03  0.50400001928E-02 0.  1.
        1   -1    0    0  501    0  0.00000000000E+00  0.00000000000E+00 -0.26222463618E+04  0.26222463618E+04  0.50400001928E-02 0. -1.
    10030    2    1    2    0    0  0.00000000000E+00  0.00000000000E+00 -0.20306262816E+04  0.32138664421E+04  0.24910829797E+04 0.  0.
        2    1    3    3  502    0  0.12135061918E+03 -0.11750257830E+04 -0.50580739797E+03  0.12850107732E+04  0.25500000920E-02 0.  1.
       -2    1    3    3    0  502 -0.12135061918E+03  0.11750257830E+04 -0.15248188837E+04  0.19288556689E+04  0.25500000920E-02 0. -1.
</event>
<event>
 5   0  0.8579923E-06  0.2511051E+04  0.7818609E-02  0.8399059E-01
        2   -1    0    0  501    0  0.00000000000E+00  0.00000000000E+00  0.21725577514E+04  0.21725577514E+04  0.25500000920E-02 0. -1.
       -2   -1    0    0    0  501  0.00000000000E+00  0.00000000000E+00 -0.72557088344E+03  0.72557088344E+03  0.25500000920E-02 0.  1.
    10030    2    1    2    0    0  0.00000000000E+00  0.00000000000E+00  0.14469868679E+04  0.28981286348E+04  0.25110512914E+04 0.  0.
        1    1    3    3  502    0 -0.41442335495E+03 -0.31288019040E+01 -0.64435057530E+03  0.76612281681E+03  0.50400001928E-02 0.  1.
       -1    1    3    3    0  502  0.41442335495E+03  0.31288019040E+01  0.20913374432E+04  0.21320058180E+04  0.50400001928E-02 0. -1.
</event>
<event>
 5   0  0.3484857E-06  0.2526510E+04  0.7818609E-02  0.8393602E-01
       -1   -1    0    0    0  501  0.00000000000E+00  0.00000000000E+00  0.10867828082E+04  0.10867828082E+04  0.50400001928E-02 0. -1.
        1   -1    0    0  501    0  0.00000000000E+00  0.00000000000E+00 -0.14683831252E+04  0.14683831252E+04  0.50400001928E-02 0.  1.
    10030    2    1    2    0    0  0.00000000000E+00  0.00000000000E+00 -0.38160031699E+03  0.25551659335E+04  0.25265102702E+04 0.  0.
        3    1    3    3  502    0  0.23538354707E+03  0.33809187550E+03 -0.13985398365E+04  0.14579524050E+04  0.10100000352E+00 0.  1.
       -3    1    3    3    0  502 -0.23538354707E+03 -0.33809187550E+03  0.10169395196E+04  0.10972135285E+04  0.10100000352E+00 0. -1.
</event>
<event>
 5   0  0.3424193E-06  0.2500702E+04  0.7818609E-02  0.8402735E-01
        1   -1    0    0  501    0  0.00000000000E+00  0.00000000000E+00  0.14113415935E+04  0.14113415935E+04  0.50400001928E-02 0.  1.
       -1   -1    0    0    0  501  0.00000000000E+00  0.00000000000E+00 -0.11077247587E+04  0.11077247587E+04  0.50400001928E-02 0. -1.
    10030    2    1    2    0    0  0.00000000000E+00  0.00000000000E+00  0.30361683479E+03  0.25190663521E+04  0.25007023222E+04 0.  0.
        1    1    3    3  502    0  0.34339681618E+03 -0.88391442526E+03 -0.66913142343E+03  0.11605873282E+04  0.50400001928E-02 0. -1.
       -1    1    3    3    0  502 -0.34339681618E+03  0.88391442526E+03  0.97274825822E+03  0.13584790239E+04  0.50400001928E-02 0.  1.
</event>
<event>
 5   0  0.3484857E-06  0.2487734E+04  0.7818609E-02  0.8407369E-01
       -1   -1    0    0    0  501  0.00000000000E+00  0.00000000000E+00  0.12963295815E+04  0.12963295815E+04  0.50400001928E-02 0. -1.
        1   -1    0    0  501    0  0.00000000000E+00  0.00000000000E+00 -0.11935271632E+04  0.11935271632E+04  0.50400001928E-02 0.  1.
    10030    2    1    2    0    0  0.00000000000E+00  0.00000000000E+00  0.10280241837E+03  0.24898567447E+04  0.24877335613E+04 0.  0.
        3    1    3    3  502    0 -0.10543371501E+04  0.47321640223E+02 -0.60744504342E+03  0.12177256073E+04  0.10100000352E+00 0.  1.
       -3    1    3    3    0  502  0.10543371501E+04 -0.47321640223E+02  0.71024746179E+03  0.12721311374E+04  0.10100000352E+00 0. -1.
</event>
<event>
 5   0  0.8354653E-06  0.2503429E+04  0.7818609E-02  0.8401765E-01
        2   -1    0    0  501    0  0.00000000000E+00  0.00000000000E+00  0.84274980571E+03  0.84274980571E+03  0.25500000920E-02 0. -1.
       -2   -1    0    0    0  501  0.00000000000E+00  0.00000000000E+00 -0.18591385686E+04  0.18591385686E+04  0.25500000920E-02 0.  1.
    10030    2    1    2    0    0  0.00000000000E+00  0.00000000000E+00 -0.10163887629E+04  0.27018883743E+04  0.25034285829E+04 0.  0.
        3    1    3    3  502    0 -0.81345642926E+03  0.94627594137E+03 -0.40223210270E+03  0.13110835954E+04  0.10100000352E+00 0.  1.
       -3    1    3    3    0  502  0.81345642926E+03 -0.94627594137E+03 -0.61415666016E+03  0.13908047789E+04  0.10100000352E+00 0. -1.
</event>
<event>
 5   0  0.8056723E-06  0.2503817E+04  0.7818609E-02  0.8401627E-01
       -2   -1    0    0    0  501  0.00000000000E+00  0.00000000000E+00  0.14763237262E+04  0.14763237262E+04  0.25500000920E-02 0.  1.
        2   -1    0    0  501    0  0.00000000000E+00  0.00000000000E+00 -0.10616065499E+04  0.10616065499E+04  0.25500000920E-02 0. -1.
    10030    2    1    2    0    0  0.00000000000E+00  0.00000000000E+00  0.41471717630E+03  0.25379302761E+04  0.25038170360E+04 0.  0.
        2    1    3    3  502    0  0.19324989722E+03 -0.11459258745E+03 -0.10410046287E+04  0.10649730611E+04  0.25500000920E-02 0. -1.
       -2    1    3    3    0  502 -0.19324989722E+03  0.11459258745E+03  0.14557218050E+04  0.14729572150E+04  0.25500000920E-02 0.  1.
</event>
<event>
 5   0  0.3481387E-06  0.2511956E+04  0.7818609E-02  0.8398738E-01
       -1   -1    0    0    0  501  0.00000000000E+00  0.00000000000E+00  0.13107775048E+04  0.13107775048E+04  0.50400001928E-02 0.  1.
        1   -1    0    0  501    0  0.00000000000E+00  0.00000000000E+00 -0.12034697883E+04  0.12034697883E+04  0.50400001928E-02 0. -1.
    10030    2    1    2    0    0  0.00000000000E+00  0.00000000000E+00  0.10730771645E+03  0.25142472931E+04  0.25119563103E+04 0.  0.
        4    1    3    3  502    0  0.15881963191E+03 -0.11919168182E+04 -0.30943053201E+03  0.12416272565E+04  0.12699999809E+01 0. -1.
       -4    1    3    3    0  502 -0.15881963191E+03  0.11919168182E+04  0.41673824845E+03  0.12726200366E+04  0.12699999809E+01 0.  1.
</event>
<event>
 5   0  0.8579923E-06  0.2492585E+04  0.7818609E-02  0.8405632E-01
        2   -1    0    0  501    0  0.00000000000E+00  0.00000000000E+00  0.22681380376E+04  0.22681380376E+04  0.25500000920E-02 0.  1.
       -2   -1    0    0    0  501  0.00000000000E+00  0.00000000000E+00 -0.68481064862E+03  0.68481064863E+03  0.25500000920E-02 0. -1.
    10030    2    1    2    0    0  0.00000000000E+00  0.00000000000E+00  0.15833273890E+04  0.29529486862E+04  0.24925850683E+04 0.  0.
        1    1    3    3  502    0 -0.68889987473E+03 -0.40547683261E+03 -0.34109794601E+03  0.86910431364E+03  0.50400001928E-02 0. -1.
       -1    1    3    3    0  502  0.68889987473E+03  0.40547683261E+03  0.19244253350E+04  0.20838443726E+04  0.50400001928E-02 0.  1.
</event>
<event>
 5   0  0.8407986E-06  0.2502734E+04  0.7818609E-02  0.8402012E-01
       -2   -1    0    0    0  501  0.00000000000E+00  0.00000000000E+00  0.94847593795E+03  0.94847593795E+03  0.25500000920E-02 0.  1.
        2   -1    0    0  501    0  0.00000000000E+00  0.00000000000E+00 -0.16509852664E+04  0.16509852664E+04  0.25500000920E-02 0. -1.
    10030    2    1    2    0    0  0.00000000000E+00  0.00000000000E+00 -0.70250932849E+03  0.25994612044E+04  0.25027343440E+04 0.  0.
        5    1    3    3  502    0  0.73271854378E+03  0.10139041513E+04 -0.31808912462E+03  0.12907675521E+04  0.46999998093E+01 0.  1.
       -5    1    3    3    0  502 -0.73271854378E+03 -0.10139041513E+04 -0.38442020387E+03  0.13086936523E+04  0.46999998093E+01 0. -1.
</event>
<event>
 5   0  0.3481387E-06  0.2502535E+04  0.7818609E-02  0.8402083E-01
        1   -1    0    0  501    0  0.00000000000E+00  0.00000000000E+00  0.24870025062E+04  0.24870025062E+04  0.50400001928E-02 0.  1.
       -1   -1    0    0    0  501  0.00000000000E+00  0.00000000000E+00 -0.62954130721E+03  0.62954130723E+03  0.50400001928E-02 0. -1.
    10030    2    1    2    0    0  0.00000000000E+00  0.00000000000E+00  0.18574611990E+04  0.31165438134E+04  0.25025353614E+04 0.  0.
        4    1    3    3  502    0 -0.84445195198E+02  0.79079778032E+03 -0.27429548650E+03  0.84126794017E+03  0.12699999809E+01 0. -1.
       -4    1    3    3    0  502  0.84445195198E+02 -0.79079778032E+03  0.21317566855E+04  0.22752758732E+04  0.12699999809E+01 0.  1.
</event>
<event>
 5   0  0.8579923E-06  0.2506300E+04  0.7818609E-02  0.8400745E-01
       -2   -1    0    0    0  501  0.00000000000E+00  0.00000000000E+00  0.12117588493E+04  0.12117588493E+04  0.25500000920E-02 0. -1.
        2   -1    0    0  501    0  0.00000000000E+00  0.00000000000E+00 -0.12959550445E+04  0.12959550445E+04  0.25500000920E-02 0.  1.
    10030    2    1    2    0    0  0.00000000000E+00  0.00000000000E+00 -0.84196195201E+02  0.25077138938E+04  0.25063000566E+04 0.  0.
        1    1    3    3  502    0  0.49408355481E+03  0.96003795021E+03  0.59433742181E+03  0.12324887001E+04  0.50400001928E-02 0. -1.
       -1    1    3    3    0  502 -0.49408355481E+03 -0.96003795021E+03 -0.67853361701E+03  0.12752251936E+04  0.50400001928E-02 0.  1.
</event>
<event>
 5   0  0.3424193E-06  0.2500047E+04  0.7818609E-02  0.8402969E-01
       -1   -1    0    0    0  501  0.00000000000E+00  0.00000000000E+00  0.92918204631E+03  0.92918204633E+03  0.50400001928E-02 0.  1.
        1   -1    0    0  501    0  0.00000000000E+00  0.00000000000E+00 -0.16816503734E+04  0.16816503734E+04  0.50400001928E-02 0. -1.
    10030    2    1    2    0    0  0.00000000000E+00  0.00000000000E+00 -0.75246832711E+03  0.26108324198E+04  0.25000474677E+04 0.  0.
        1    1    3    3  502    0 -0.11631455064E+04 -0.29316814692E+03 -0.74353603988E+03  0.14112763280E+04  0.50400001928E-02 0. -1.
       -1    1    3    3    0  502  0.11631455064E+04  0.29316814692E+03 -0.89322872335E+01  0.11995560917E+04  0.50400001928E-02 0.  1.
</event>
<event>
 5   0  0.8579923E-06  0.2495547E+04  0.7818609E-02  0.8404574E-01
        2   -1    0    0  501    0  0.00000000000E+00  0.00000000000E+00  0.25144048178E+04  0.25144048178E+04  0.25500000920E-02 0. -1.
       -2   -1    0    0    0  501  0.00000000000E+00  0.00000000000E+00 -0.61920780075E+03  0.61920780076E+03  0.25500000920E-02 0.  1.
    10030    2    1    2    0    0  0.00000000000E+00  0.00000000000E+00  0.18951970171E+04  0.31336126186E+04  0.24955472967E+04 0.  0.
        1    1    3    3  502    0 -0.85567967807E+03 -0.88596209998E+03  0.11981770576E+04  0.17183552646E+04  0.50400001928E-02 0. -1.
       -1    1    3    3    0  502  0.85567967807E+03  0.88596209998E+03  0.69701995952E+03  0.14152573540E+04  0.50400001928E-02 0.  1.
</event>
<event>
 5   0  0.3481387E-06  0.2507606E+04  0.7818609E-02  0.8400281E-01
        1   -1    0    0  501    0  0.00000000000E+00  0.00000000000E+00  0.99830538510E+03  0.99830538511E+03  0.50400001928E-02 0. -1.
       -1   -1    0    0    0  501  0.00000000000E+00  0.00000000000E+00 -0.15746902072E+04  0.15746902072E+04  0.50400001928E-02 0.  1.
    10030    2    1    2    0    0  0.00000000000E+00  0.00000000000E+00 -0.57638482208E+03  0.25729955923E+04  0.25076058013E+04 0.  0.
        4    1    3    3  502    0  0.55134450236E+03  0.97887972168E+03 -0.85933453839E+03  0.14144411375E+04  0.12699999809E+01 0.  1.
       -4    1    3    3    0  502 -0.55134450236E+03 -0.97887972168E+03  0.28294971631E+03  0.11585544548E+04  0.12699999809E+01 0. -1.
</event>
<event>
 5   0  0.8056723E-06  0.2391277E+04  0.7818609E-02  0.8442776E-01
        2   -1    0    0  501    0  0.00000000000E+00  0.00000000000E+00  0.22243909558E+04  0.22243909558E+04  0.25500000920E-02 0.  1.
       -2   -1    0    0    0  501  0.00000000000E+00  0.00000000000E+00 -0.64267103373E+03  0.64267103373E+03  0.25500000920E-02 0. -1.
    10030    2    1    2    0    0  0.00000000000E+00  0.00000000000E+00  0.15817199221E+04  0.28670619896E+04  0.23912771776E+04 0.  0.
        2    1    3    3  502    0 -0.10118184622E+04 -0.36171006444E+03  0.16218406357E+03  0.10866988735E+04  0.25500000920E-02 0. -1.
       -2    1    3    3    0  502  0.10118184622E+04  0.36171006444E+03  0.14195358585E+04  0.17803631160E+04  0.25500000920E-02 0.  1.
</event>
<event>
 5   0  0.8056723E-06  0.2498891E+04  0.7818609E-02  0.8403381E-01
        2   -1    0    0  501    0  0.00000000000E+00  0.00000000000E+00  0.11655050514E+04  0.11655050514E+04  0.25500000920E-02 0.  1.
       -2   -1    0    0    0  501  0.00000000000E+00  0.00000000000E+00 -0.13394311490E+04  0.13394311490E+04  0.25500000920E-02 0. -1.
    10030    2    1    2    0    0  0.00000000000E+00  0.00000000000E+00 -0.17392609755E+03  0.25049362004E+04  0.24988907701E+04 0.  0.
        2    1    3    3  502    0 -0.75490690653E+03  0.98599839989E+03  0.51343521547E+02  0.12428650125E+04  0.25500000920E-02 0. -1.
       -2    1    3    3    0  502  0.75490690653E+03 -0.98599839989E+03 -0.22526961909E+03  0.12620711879E+04  0.25500000920E-02 0.  1.
</event>
<event>
 5   0  0.3481387E-06  0.2505828E+04  0.7818609E-02  0.8400912E-01
        1   -1    0    0  501    0  0.00000000000E+00  0.00000000000E+00  0.16561116693E+04  0.16561116693E+04  0.50400001928E-02 0.  1.
       -1   -1    0    0    0  501  0.00000000000E+00  0.00000000000E+00 -0.94787863532E+03  0.94787863533E+03  0.50400001928E-02 0. -1.
    10030    2    1    2    0    0  0.00000000000E+00  0.00000000000E+00  0.70823303400E+03  0.26039903047E+04  0.25058275033E+04 0.  0.
        4    1    3    3  502    0 -0.24452727887E+03 -0.89813124442E+02 -0.91942533251E+03  0.95561736191E+03  0.12699999809E+01 0. -1.
       -4    1    3    3    0  502  0.24452727887E+03  0.89813124442E+02  0.16276583665E+04  0.16483729427E+04  0.12699999809E+01 0.  1.
</event>
<event>
 5   0  0.3642184E-06  0.2497785E+04  0.7818609E-02  0.8403775E-01
        1   -1    0    0  501    0  0.00000000000E+00  0.00000000000E+00  0.15739872405E+04  0.15739872405E+04  0.50400001928E-02 0.  1.
       -1   -1    0    0    0  501  0.00000000000E+00  0.00000000000E+00 -0.99094327865E+03  0.99094327866E+03  0.50400001928E-02 0. -1.
    10030    2    1    2    0    0  0.00000000000E+00  0.00000000000E+00  0.58304396183E+03  0.25649305191E+04  0.24977846798E+04 0.  0.
        5    1    3    3  502    0  0.62754144017E+03  0.32100803412E+03 -0.76714101674E+03  0.10418166089E+04  0.46999998093E+01 0. -1.
       -5    1    3    3    0  502 -0.62754144017E+03 -0.32100803412E+03  0.13501849786E+04  0.15231139102E+04  0.46999998093E+01 0.  1.
</event>
<event>
 5   0  0.3522870E-06  0.2495662E+04  0.7818609E-02  0.8404533E-01
       -1   -1    0    0    0  501  0.00000000000E+00  0.00000000000E+00  0.12273216866E+04  0.12273216866E+04  0.50400001928E-02 0.  1.
        1   -1    0    0  501    0  0.00000000000E+00  0.00000000000E+00 -0.12686825980E+04  0.12686825980E+04  0.50400001928E-02 0. -1.
    10030    2    1    2    0    0  0.00000000000E+00  0.00000000000E+00 -0.41360911364E+02  0.24960042846E+04  0.24956615684E+04 0.  0.
        2    1    3    3  502    0  0.72040808916E+03 -0.28410404651E+03 -0.99927214966E+03  0.12642182380E+04  0.25500000920E-02 0. -1.
       -2    1    3    3    0  502 -0.72040808916E+03  0.28410404651E+03  0.95791123830E+03  0.12317860466E+04  0.25500000920E-02 0.  1.
</event>
<event>
 5   0  0.8354653E-06  0.2502554E+04  0.7818609E-02  0.8402076E-01
       -2   -1    0    0    0  501  0.00000000000E+00  0.00000000000E+00  0.15948991501E+04  0.15948991501E+04  0.25500000920E-02 0.  1.
        2   -1    0    0  501    0  0.00000000000E+00  0.00000000000E+00 -0.98168838958E+03  0.98168838958E+03  0.25500000920E-02 0. -1.
    10030    2    1    2    0    0  0.00000000000E+00  0.00000000000E+00  0.61321076047E+03  0.25765875396E+04  0.25025538781E+04 0.  0.
        3    1    3    3  502    0 -0.93298901935E+03  0.12430723137E+03 -0.54226909621E+03  0.10862672696E+04  0.10100000352E+00 0. -1.
       -3    1    3    3    0  502  0.93298901935E+03 -0.12430723137E+03  0.11554798567E+04  0.14903202701E+04  0.10100000352E+00 0.  1.
</event>
<event>
 5   0  0.3522870E-06  0.2442182E+04  0.7818609E-02  0.8423878E-01
        1   -1    0    0  501    0  0.00000000000E+00  0.00000000000E+00  0.88703849144E+03  0.88703849146E+03  0.50400001928E-02 0.  1.
       -1   -1    0    0    0  501  0.00000000000E+00  0.00000000000E+00 -0.16809460051E+04  0.16809460051E+04  0.50400001928E-02 0. -1.
    10030    2    1    2    0    0  0.00000000000E+00  0.00000000000E+00 -0.79390751361E+03  0.25679844965E+04  0.24421824736E+04 0.  0.
        2    1    3    3  502    0 -0.30444200567E+01 -0.12024853350E+04 -0.17368734897E+03  0.12149681249E+04  0.25500000920E-02 0. -1.
       -2    1    3    3    0  502  0.30444200567E+01  0.12024853350E+04 -0.62022016464E+03  0.13530163716E+04  0.25500000920E-02 0.  1.
</event>
<event>
 5   0  0.3424193E-06  0.2507558E+04  0.7818609E-02  0.8400298E-01
        1   -1    0    0  501    0  0.00000000000E+00  0.00000000000E+00  0.16295161089E+04  0.16295161089E+04  0.50400001928E-02 0.  1.
       -1   -1    0    0    0  501  0.00000000000E+00  0.00000000000E+00 -0.96467985281E+03  0.96467985282E+03  0.50400001928E-02 0. -1.
    10030    2    1    2    0    0  0.00000000000E+00  0.00000000000E+00  0.66483625611E+03  0.25941959617E+04  0.25075576644E+04 0.  0.
        1    1    3    3  502    0  0.55491891810E+03  0.69861805948E+03 -0.57890267147E+03  0.10635461916E+04  0.50400001928E-02 0. -1.
       -1    1    3    3    0  502 -0.55491891810E+03 -0.69861805948E+03  0.12437389276E+04  0.15306497701E+04  0.50400001928E-02 0.  1.
</event>
<event>
 5   0  0.8579923E-06  0.2501319E+04  0.7818609E-02  0.8402516E-01
       -2   -1    0    0    0  501  0.00000000000E+00  0.00000000000E+00  0.73971681692E+03  0.73971681692E+03  0.25500000920E-02 0.  1.
        2   -1    0    0  501    0  0.00000000000E+00  0.00000000000E+00 -0.21145245984E+04  0.21145245984E+04  0.25500000920E-02 0. -1.
    10030    2    1    2    0    0  0.00000000000E+00  0.00000000000E+00 -0.13748077815E+04  0.28542414154E+04  0.25013191762E+04 0.  0.
        1    1    3    3  502    0 -0.12294033055E+04  0.17946214177E+03 -0.85082462074E+03  0.15058358752E+04  0.50400001928E-02 0.  1.
       -1    1    3    3    0  502  0.12294033055E+04 -0.17946214177E+03 -0.52398316076E+03  0.13484055401E+04  0.50400001928E-02 0. -1.
</event>
<event>
 5   0  0.3642184E-06  0.2494934E+04  0.7818609E-02  0.8404793E-01
        1   -1    0    0  501    0  0.00000000000E+00  0.00000000000E+00  0.14826731651E+04  0.14826731651E+04  0.50400001928E-02 0. -1.
       -1   -1    0    0    0  501  0.00000000000E+00  0.00000000000E+00 -0.10495728207E+04  0.10495728207E+04  0.50400001928E-02 0.  1.
    10030    2    1    2    0    0  0.00000000000E+00  0.00000000000E+00  0.43310034442E+03  0.25322459858E+04  0.24949336312E+04 0.  0.
        5    1    3    3  502    0  0.99410127461E+03  0.59705551014E+03  0.68325164861E+03  0.13459448472E+04  0.46999998093E+01 0. -1.
       -5    1    3    3    0  502 -0.99410127461E+03 -0.59705551014E+03 -0.25015130419E+03  0.11863011386E+04  0.46999998093E+01 0.  1.
</event>
<event>
 5   0  0.3642184E-06  0.2368036E+04  0.7818609E-02  0.8451568E-01
       -1   -1    0    0    0  501  0.00000000000E+00  0.00000000000E+00  0.89157637162E+03  0.89157637163E+03  0.50400001928E-02 0.  1.
        1   -1    0    0  501    0  0.00000000000E+00  0.00000000000E+00 -0.15723823833E+04  0.15723823833E+04  0.50400001928E-02 0. -1.
    10030    2    1    2    0    0  0.00000000000E+00  0.00000000000E+00 -0.68080601173E+03  0.24639587550E+04  0.23680363005E+04 0.  0.
        5    1    3    3  502    0 -0.32300723084E+03 -0.19756425664E+03 -0.15076793568E+04  0.15545045640E+04  0.46999998093E+01 0. -1.
       -5    1    3    3    0  502  0.32300723084E+03  0.19756425664E+03  0.82687334506E+03  0.90945419096E+03  0.46999998093E+01 0.  1.
</event>
<event>
 5   0  0.8056723E-06  0.2517288E+04  0.7818609E-02  0.8396852E-01
        2   -1    0    0  501    0  0.00000000000E+00  0.00000000000E+00  0.96730350379E+03  0.96730350379E+03  0.25500000920E-02 0.  1.
       -2   -1    0    0    0  501  0.00000000000E+00  0.00000000000E+00 -0.16377327354E+04  0.16377327354E+04  0.25500000920E-02 0. -1.
    10030    2    1    2    0    0  0.00000000000E+00  0.00000000000E+00 -0.67042923161E+03  0.26050362392E+04  0.25172879162E+04 0.  0.
        2    1    3    3  502    0 -0.42196081616E+03  0.10195882032E+04 -0.96177287316E+03  0.14637684564E+04  0.25500000920E-02 0. -1.
       -2    1    3    3    0  502  0.42196081616E+03 -0.10195882032E+04  0.29134364155E+03  0.11412677828E+04  0.25500000920E-02 0.  1.
</event>
<event>
 5   0  0.8056723E-06  0.2510769E+04  0.7818609E-02  0.8399159E-01
       -2   -1    0    0    0  501  0.00000000000E+00  0.00000000000E+00  0.90508854467E+03  0.90508854467E+03  0.25500000920E-02 0. -1.
        2   -1    0    0  501    0  0.00000000000E+00  0.00000000000E+00 -0.17412556207E+04  0.17412556207E+04  0.25500000920E-02 0.  1.
    10030    2    1    2    0    0  0.00000000000E+00  0.00000000000E+00 -0.83616707604E+03  0.26463441654E+04  0.25107692173E+04 0.  0.
        2    1    3    3  502    0  0.37395180907E+03 -0.30380325788E+03 -0.16399270761E+04  0.17092387750E+04  0.25500000920E-02 0.  1.
       -2    1    3    3    0  502 -0.37395180907E+03  0.30380325788E+03  0.80376000005E+03  0.93710539039E+03  0.25500000920E-02 0. -1.
</event>
<event>
 5   0  0.3484857E-06  0.2503134E+04  0.7818609E-02  0.8401870E-01
        1   -1    0    0  501    0  0.00000000000E+00  0.00000000000E+00  0.20047736054E+04  0.20047736054E+04  0.50400001928E-02 0. -1.
       -1   -1    0    0    0  501  0.00000000000E+00  0.00000000000E+00 -0.78134486133E+03  0.78134486134E+03  0.50400001928E-02 0.  1.
    10030    2    1    2    0    0  0.00000000000E+00  0.00000000000E+00  0.12234287440E+04  0.27861184667E+04  0.25031336798E+04 0.  0.
        3    1    3    3  502    0 -0.11092217822E+04  0.38238202753E+03  0.12676253592E+03  0.11801092017E+04  0.10100000352E+00 0.  1.
       -3    1    3    3    0  502  0.11092217822E+04 -0.38238202753E+03  0.10966662081E+04  0.16060092650E+04  0.10100000352E+00 0. -1.
</event>
<event>
 5   0  0.8407986E-06  0.2504720E+04  0.7818609E-02  0.8401306E-01
        2   -1    0    0  501    0  0.00000000000E+00  0.00000000000E+00  0.17803319320E+04  0.17803319320E+04  0.25500000920E-02 0.  1.
       -2   -1    0    0    0  501  0.00000000000E+00  0.00000000000E+00 -0.88096224915E+03  0.88096224915E+03  0.25500000920E-02 0. -1.
    10030    2    1    2    0    0  0.00000000000E+00  0.00000000000E+00  0.89936968282E+03  0.26612941811E+04  0.25047197233E+04 0.  0.
        5    1    3    3  502    0 -0.38383610832E+03  0.90715877391E+03  0.12714097181E+04  0.16083444782E+04  0.46999998093E+01 0.  1.
       -5    1    3    3    0  502  0.38383610832E+03 -0.90715877391E+03 -0.37204003529E+03  0.10529497030E+04  0.46999998093E+01 0. -1.
</event>
<event>
 5   0  0.3481387E-06  0.2501757E+04  0.7818609E-02  0.8402360E-01
       -1   -1    0    0    0  501  0.00000000000E+00  0.00000000000E+00  0.11601621505E+04  0.11601621505E+04  0.50400001928E-02 0. -1.
        1   -1    0    0  501    0  0.00000000000E+00  0.00000000000E+00 -0.13486887009E+04  0.13486887009E+04  0.50400001928E-02 0.  1.
    10030    2    1    2    0    0  0.00000000000E+00  0.00000000000E+00 -0.18852655043E+03  0.25088508514E+04  0.25017574492E+04 0.  0.
        4    1    3    3  502    0 -0.44584306235E+02  0.11284213770E+04  0.44519635504E+03  0.12138879569E+04  0.12699999809E+01 0. -1.
       -4    1    3    3    0  502  0.44584306235E+02 -0.11284213770E+04 -0.63372290546E+03  0.12949628945E+04  0.12699999809E+01 0.  1.
</event>
<event>
 5   0  0.8056723E-06  0.2495957E+04  0.7818609E-02  0.8404427E-01
        2   -1    0    0  501    0  0.00000000000E+00  0.00000000000E+00  0.18508375272E+04  0.18508375272E+04  0.25500000920E-02 0.  1.
       -2   -1    0    0    0  501  0.00000000000E+00  0.00000000000E+00 -0.84148410289E+03  0.84148410289E+03  0.25500000920E-02 0. -1.
    10030    2    1    2    0    0  0.00000000000E+00  0.00000000000E+00  0.10093534243E+04  0.26923216301E+04  0.24959570158E+04 0.  0.
        2    1    3    3  502    0  0.92283696726E+03 -0.19244696181E+03  0.13868087042E+04  0.16768727690E+04  0.25500000920E-02 0.  1.
       -2    1    3    3    0  502 -0.92283696726E+03  0.19244696181E+03 -0.37745527989E+03  0.10154488611E+04  0.25500000920E-02 0. -1.
</event>
<event>
 5   0  0.3484857E-06  0.2494752E+04  0.7818609E-02  0.8404857E-01
        1   -1    0    0  501    0  0.00000000000E+00  0.00000000000E+00  0.21109451661E+04  0.21109451661E+04  0.50400001928E-02 0. -1.
       -1   -1    0    0    0  501  0.00000000000E+00  0.00000000000E+00 -0.73708554220E+03  0.73708554222E+03  0.50400001928E-02 0.  1.
    10030    2    1    2    0    0  0.00000000000E+00  0.00000000000E+00  0.13738596239E+04  0.28480307083E+04  0.24947522220E+04 0.  0.
        3    1    3    3  502    0 -0.83348463236E+03  0.90547413366E+03  0.45473909312E+03  0.13120090290E+04  0.10100000352E+00 0.  1.
       -3    1    3    3    0  502  0.83348463236E+03 -0.90547413366E+03  0.91912053076E+03  0.15360216793E+04  0.10100000352E+00 0. -1.
</event>
<event>
 5   0  0.3642184E-06  0.2499895E+04  0.7818609E-02  0.8403023E-01
       -1   -1    0    0    0  501  0.00000000000E+00  0.00000000000E+00  0.59728081189E+03  0.59728081192E+03  0.50400001928E-02 0.  1.
        1   -1    0    0  501    0  0.00000000000E+00  0.00000000000E+00 -0.26158019507E+04  0.26158019507E+04  0.50400001928E-02 0. -1.
    10030    2    1    2    0    0  0.00000000000E+00  0.00000000000E+00 -0.20185211388E+04  0.32130827626E+04  0.24998946481E+04 0.  0.
        5    1    3    3  502    0  0.23587419472E+03  0.10322028694E+04 -0.18630501367E+04  0.21429086078E+04  0.46999998093E+01 0. -1.
       -5    1    3    3    0  502 -0.23587419472E+03 -0.10322028694E+04 -0.15547100206E+03  0.10701741549E+04  0.46999998093E+01 0.  1.
</event>
<event>
 5   0  0.3522870E-06  0.2501033E+04  0.7818609E-02  0.8402618E-01
        1   -1    0    0  501    0  0.00000000000E+00  0.00000000000E+00  0.18234882338E+04  0.18234882338E+04  0.50400001928E-02 0.  1.
       -1   -1    0    0    0  501  0.00000000000E+00  0.00000000000E+00 -0.85758224772E+03  0.85758224773E+03  0.50400001928E-02 0. -1.
    10030    2    1    2    0    0  0.00000000000E+00  0.00000000000E+00  0.96590598610E+03  0.26810704816E+04  0.25010326973E+04 0.  0.
        2    1    3    3  502    0  0.10628210213E+04  0.28932496962E+02 -0.22274038405E+03  0.10862959502E+04  0.25500000920E-02 0. -1.
       -2    1    3    3    0  502 -0.10628210213E+04 -0.28932496962E+02  0.11886463701E+04  0.15947745314E+04  0.25500000920E-02 0.  1.
</event>
<event>
 5   0  0.3642184E-06  0.2499981E+04  0.7818609E-02  0.8402992E-01
        1   -1    0    0  501    0  0.00000000000E+00  0.00000000000E+00  0.15837396591E+04  0.15837396591E+04  0.50400001928E-02 0.  1.
       -1   -1    0    0    0  501  0.00000000000E+00  0.00000000000E+00 -0.98657370028E+03  0.98657370029E+03  0.50400001928E-02 0. -1.
    10030    2    1    2    0    0  0.00000000000E+00  0.00000000000E+00  0.59716595883E+03  0.25703133594E+04  0.24999807166E+04 0.  0.
        5    1    3    3  502    0 -0.52048505533E+03 -0.97954270511E+03  0.89102795300E+03  0.14228005858E+04  0.46999998093E+01 0.  1.
       -5    1    3    3    0  502  0.52048505533E+03  0.97954270511E+03 -0.29386199418E+03  0.11475127736E+04  0.46999998093E+01 0. -1.
</event>
<event>
 5   0  0.8056723E-06  0.2505338E+04  0.7818609E-02  0.8401086E-01
        2   -1    0    0  501    0  0.00000000000E+00  0.00000000000E+00  0.11262189069E+04  0.11262189069E+04  0.25500000920E-02 0. -1.
       -2   -1    0    0    0  501  0.00000000000E+00  0.00000000000E+00 -0.13933162037E+04  0.13933162037E+04  0.25500000920E-02 0.  1.
    10030    2    1    2    0    0  0.00000000000E+00  0.00000000000E+00 -0.26709729686E+03  0.25195351106E+04  0.25053375436E+04 0.  0.
        2    1    3    3  502    0  0.11241242547E+04  0.74713445176E+02  0.41722420874E+03  0.12013798231E+04  0.25500000920E-02 0.  1.
       -2    1    3    3    0  502 -0.11241242547E+04 -0.74713445176E+02 -0.68432150560E+03  0.13181552875E+04  0.25500000920E-02 0. -1.
</event>
<event>
 5   0  0.8056723E-06  0.2506532E+04  0.7818609E-02  0.8400662E-01
        2   -1    0    0  501    0  0.00000000000E+00  0.00000000000E+00  0.10399302940E+04  0.10399302940E+04  0.25500000920E-02 0.  1.
       -2   -1    0    0    0  501  0.00000000000E+00  0.00000000000E+00 -0.15103666682E+04  0.15103666682E+04  0.25500000920E-02 0. -1.
    10030    2    1    2    0    0  0.00000000000E+00  0.00000000000E+00 -0.47043637425E+03  0.25502969622E+04  0.25065323084E+04 0.  0.
        2    1    3    3  502    0  0.68642517246E+03  0.22064998673E+03 -0.12782068071E+04  0.14675416777E+04  0.25500000920E-02 0. -1.
       -2    1    3    3    0  502 -0.68642517246E+03 -0.22064998673E+03  0.80777043281E+03  0.10827552845E+04  0.25500000920E-02 0.  1.
</event>
<event>
 5   0  0.3481387E-06  0.2574232E+04  0.7818609E-02  0.8377007E-01
       -1   -1    0    0    0  501  0.00000000000E+00  0.00000000000E+00  0.17880292112E+04  0.17880292112E+04  0.50400001928E-02 0. -1.
        1   -1    0    0  501    0  0.00000000000E+00  0.00000000000E+00 -0.92653306654E+03  0.92653306655E+03  0.50400001928E-02 0.  1.
    10030    2    1    2    0    0  0.00000000000E+00  0.00000000000E+00  0.86149614468E+03  0.27145622778E+04  0.25742324589E+04 0.  0.
        4    1    3    3  502    0  0.81792034387E+03  0.80731708499E+03  0.10419219925E+04  0.15512438931E+04  0.12699999809E+01 0. -1.
       -4    1    3    3    0  502 -0.81792034387E+03 -0.80731708499E+03 -0.18042584780E+03  0.11633183847E+04  0.12699999809E+01 0.  1.
</event>
<event>
 5   0  0.8948286E-06  0.2498975E+04  0.7818609E-02  0.8403351E-01
       -2   -1    0    0    0  501  0.00000000000E+00  0.00000000000E+00  0.97122525121E+03  0.97122525121E+03  0.25500000920E-02 0.  1.
        2   -1    0    0  501    0  0.00000000000E+00  0.00000000000E+00 -0.16074734432E+04  0.16074734432E+04  0.25500000920E-02 0. -1.
    10030    2    1    2    0    0  0.00000000000E+00  0.00000000000E+00 -0.63624819201E+03  0.25786986944E+04  0.24989748288E+04 0.  0.
        4    1    3    3  502    0 -0.69272217796E+03 -0.10388212591E+04 -0.26968441040E+03  0.12773977135E+04  0.12699999809E+01 0.  1.
       -4    1    3    3    0  502  0.69272217796E+03  0.10388212591E+04 -0.36656378161E+03  0.13013009810E+04  0.12699999809E+01 0. -1.
</event>
<event>
 5   0  0.2901250E-06  0.2499683E+04  0.7818609E-02  0.8403099E-01
        3   -1    0    0  501    0  0.00000000000E+00  0.00000000000E+00  0.27672773462E+04  0.27672773480E+04  0.10100000352E+00 0. -1.
       -3   -1    0    0    0  501  0.00000000000E+00  0.00000000000E+00 -0.56449107678E+03  0.56449108582E+03  0.10100000352E+00 0.  1.
    10030    2    1    2    0    0  0.00000000000E+00  0.00000000000E+00  0.22027862694E+04  0.33317684338E+04  0.24996826895E+04 0.  0.
        1    1    3    3  502    0  0.36040077082E+03 -0.50214501632E+03 -0.34652131186E+03  0.70860098266E+03  0.50400001928E-02 0.  1.
       -1    1    3    3    0  502 -0.36040077082E+03  0.50214501632E+03  0.25493075813E+04  0.26231674512E+04  0.50400001928E-02 0. -1.
</event>
<event>
 5   0  0.3642184E-06  0.2541891E+04  0.7818609E-02  0.8388212E-01
       -1   -1    0    0    0  501  0.00000000000E+00  0.00000000000E+00  0.25257685728E+04  0.25257685729E+04  0.50400001928E-02 0.  1.
        1   -1    0    0  501    0  0.00000000000E+00  0.00000000000E+00 -0.63952929703E+03  0.63952929705E+03  0.50400001928E-02 0. -1.
    10030    2    1    2    0    0  0.00000000000E+00  0.00000000000E+00  0.18862392758E+04  0.31652978699E+04  0.25418914217E+04 0.  0.
        5    1    3    3  502    0 -0.79864203742E+03  0.98112620264E+03  0.79140723959E+03  0.14922416823E+04  0.46999998093E+01 0. -1.
       -5    1    3    3    0  502  0.79864203742E+03 -0.98112620264E+03  0.10948320362E+04  0.16730561876E+04  0.46999998093E+01 0.  1.
</event>
<event>
 5   0  0.3484857E-06  0.2489111E+04  0.7818609E-02  0.8406875E-01
       -1   -1    0    0    0  501  0.00000000000E+00  0.00000000000E+00  0.20380226040E+04  0.20380226040E+04  0.50400001928E-02 0. -1.
        1   -1    0    0  501    0  0.00000000000E+00  0.00000000000E+00 -0.76001048456E+03  0.76001048458E+03  0.50400001928E-02 0.  1.
    10030    2    1    2    0    0  0.00000000000E+00  0.00000000000E+00  0.12780121194E+04  0.27980330886E+04  0.24891111239E+04 0.  0.
        3    1    3    3  502    0 -0.86099321514E+03  0.89815342024E+03  0.67328040721E+03  0.14146714812E+04  0.10100000352E+00 0.  1.
       -3    1    3    3    0  502  0.86099321514E+03 -0.89815342024E+03  0.60473171221E+03  0.13833616074E+04  0.10100000352E+00 0. -1.
</event>
<event>
 5   0  0.8056723E-06  0.2496007E+04  0.7818609E-02  0.8404409E-01
        2   -1    0    0  501    0  0.00000000000E+00  0.00000000000E+00  0.18736497049E+04  0.18736497049E+04  0.25500000920E-02 0.  1.
       -2   -1    0    0    0  501  0.00000000000E+00  0.00000000000E+00 -0.83127235793E+03  0.83127235794E+03  0.25500000920E-02 0. -1.
    10030    2    1    2    0    0  0.00000000000E+00  0.00000000000E+00  0.10423773470E+04  0.27049220629E+04  0.24960073783E+04 0.  0.
        2    1    3    3  502    0  0.62449718633E+03 -0.17234759652E+03  0.16771526356E+04  0.17979269710E+04  0.25500000920E-02 0.  1.
       -2    1    3    3    0  502 -0.62449718633E+03  0.17234759652E+03 -0.63477528859E+03  0.90699509193E+03  0.25500000920E-02 0. -1.
</event>
<event>
 5   0  0.3424193E-06  0.2499029E+04  0.7818609E-02  0.8403332E-01
       -1   -1    0    0    0  501  0.00000000000E+00  0.00000000000E+00  0.10992975750E+04  0.10992975750E+04  0.50400001928E-02 0.  1.
        1   -1    0    0  501    0  0.00000000000E+00  0.00000000000E+00 -0.14202578984E+04  0.14202578984E+04  0.50400001928E-02 0. -1.
    10030    2    1    2    0    0  0.00000000000E+00  0.00000000000E+00 -0.32096032336E+03  0.25195554734E+04  0.24990286621E+04 0.  0.
        1    1    3    3  502    0  0.10024696123E+04  0.38943715417E+03 -0.80184959642E+03  0.13414803002E+04  0.50400001928E-02 0. -1.
       -1    1    3    3    0  502 -0.10024696123E+04 -0.38943715417E+03  0.48088927306E+03  0.11780751731E+04  0.50400001928E-02 0.  1.
</event>
<event>
 5   0  0.8056723E-06  0.2510279E+04  0.7818609E-02  0.8399333E-01
        2   -1    0    0  501    0  0.00000000000E+00  0.00000000000E+00  0.22650819223E+04  0.22650819223E+04  0.25500000920E-02 0. -1.
       -2   -1    0    0    0  501  0.00000000000E+00  0.00000000000E+00 -0.69550472117E+03  0.69550472117E+03  0.25500000920E-02 0.  1.
    10030    2    1    2    0    0  0.00000000000E+00  0.00000000000E+00  0.15695772011E+04  0.29605866435E+04  0.25102790051E+04 0.  0.
        2    1    3    3  502    0 -0.10616018728E+04  0.49366369771E+03  0.13183517587E+04  0.17631658295E+04  0.25500000920E-02 0. -1.
       -2    1    3    3    0  502  0.10616018728E+04 -0.49366369771E+03  0.25122544242E+03  0.11974208139E+04  0.25500000920E-02 0.  1.
</event>
<event>
 5   0  0.8056723E-06  0.2508966E+04  0.7818609E-02  0.8399798E-01
       -2   -1    0    0    0  501  0.00000000000E+00  0.00000000000E+00  0.11052524578E+04  0.11052524578E+04  0.25500000920E-02 0.  1.
        2   -1    0    0  501    0  0.00000000000E+00  0.00000000000E+00 -0.14238628878E+04  0.14238628878E+04  0.25500000920E-02 0. -1.
    10030    2    1    2    0    0  0.00000000000E+00  0.00000000000E+00 -0.31861043007E+03  0.25291153456E+04  0.25089662862E+04 0.  0.
        2    1    3    3  502    0 -0.74043964326E+03  0.79677158871E+02  0.85832106645E+03  0.11363601401E+04  0.25500000920E-02 0.  1.
       -2    1    3    3    0  502  0.74043964326E+03 -0.79677158871E+02 -0.11769314965E+04  0.13927552055E+04  0.25500000920E-02 0. -1.
</event>
<event>
 5   0  0.3484857E-06  0.2465895E+04  0.7818609E-02  0.8415237E-01
        1   -1    0    0  501    0  0.00000000000E+00  0.00000000000E+00  0.10629402601E+04  0.10629402601E+04  0.50400001928E-02 0. -1.
       -1   -1    0    0    0  501  0.00000000000E+00  0.00000000000E+00 -0.14301457585E+04  0.14301457585E+04  0.50400001928E-02 0.  1.
    10030    2    1    2    0    0  0.00000000000E+00  0.00000000000E+00 -0.36720549838E+03  0.24930860186E+04  0.24658949731E+04 0.  0.
        3    1    3    3  502    0 -0.70108030292E+03 -0.70224927550E+03 -0.92344499088E+03  0.13555140344E+04  0.10100000352E+00 0.  1.
       -3    1    3    3    0  502  0.70108030292E+03  0.70224927550E+03  0.55623949251E+03  0.11375719842E+04  0.10100000352E+00 0. -1.
</event>
<event>
 5   0  0.3424193E-06  0.2508363E+04  0.7818609E-02  0.8400012E-01
        1   -1    0    0  501    0  0.00000000000E+00  0.00000000000E+00  0.17033238356E+04  0.17033238356E+04  0.50400001928E-02 0.  1.
       -1   -1    0    0    0  501  0.00000000000E+00  0.00000000000E+00 -0.92347156031E+03  0.92347156033E+03  0.50400001928E-02 0. -1.
    10030    2    1    2    0    0  0.00000000000E+00  0.00000000000E+00  0.77985227530E+03  0.26267953959E+04  0.25083629085E+04 0.  0.
        1    1    3    3  502    0  0.15800991795E+03 -0.57026656481E+02 -0.91163703478E+03  0.92698503598E+03  0.50400001928E-02 0. -1.
       -1    1    3    3    0  502 -0.15800991795E+03  0.57026656481E+02  0.16914893101E+04  0.16998103600E+04  0.50400001928E-02 0.  1.
</event>
<event>
 5   0  0.3484857E-06  0.2500915E+04  0.7818609E-02  0.8402660E-01
       -1   -1    0    0    0  501  0.00000000000E+00  0.00000000000E+00  0.15572384630E+04  0.15572384630E+04  0.50400001928E-02 0.  1.
        1   -1    0    0  501    0  0.00000000000E+00  0.00000000000E+00 -0.10041136081E+04  0.10041136081E+04  0.50400001928E-02 0. -1.
    10030    2    1    2    0    0  0.00000000000E+00  0.00000000000E+00  0.55312485495E+03  0.25613520711E+04  0.25009152979E+04 0.  0.
        3    1    3    3  502    0  0.10603022054E+04  0.43242413528E+03  0.79111065633E+03  0.13917929014E+04  0.10100000352E+00 0.  1.
       -3    1    3    3    0  502 -0.10603022054E+04 -0.43242413528E+03 -0.23798580137E+03  0.11695591697E+04  0.10100000352E+00 0. -1.
</event>
<event>
 5   0  0.2901250E-06  0.2402580E+04  0.7818609E-02  0.8438538E-01
       -3   -1    0    0    0  501  0.00000000000E+00  0.00000000000E+00  0.11626240975E+04  0.11626241019E+04  0.10100000352E+00 0.  1.
        3   -1    0    0  501    0  0.00000000000E+00  0.00000000000E+00 -0.12412418026E+04  0.12412418067E+04  0.10100000352E+00 0. -1.
    10030    2    1    2    0    0  0.00000000000E+00  0.00000000000E+00 -0.78617705036E+02  0.24038659086E+04  0.24025799806E+04 0.  0.
        4    1    3    3  502    0 -0.21723844667E+03 -0.11622316934E+04 -0.25183953040E+03  0.12088837056E+04  0.12699999809E+01 0.  1.
       -4    1    3    3    0  502  0.21723844667E+03  0.11622316934E+04  0.17322182536E+03  0.11949822030E+04  0.12699999809E+01 0. -1.
</event>
<event>
 5   0  0.3481387E-06  0.2461252E+04  0.7818609E-02  0.8416921E-01
        1   -1    0    0  501    0  0.00000000000E+00  0.00000000000E+00  0.10878090045E+04  0.10878090045E+04  0.50400001928E-02 0. -1.
       -1   -1    0    0    0  501  0.00000000000E+00  0.00000000000E+00 -0.13921932210E+04  0.13921932210E+04  0.50400001928E-02 0.  1.
    10030    2    1    2    0    0  0.00000000000E+00  0.00000000000E+00 -0.30438421654E+03  0.24800022255E+04  0.24612519755E+04 0.  0.
        4    1    3    3  502    0  0.12052153786E+02 -0.41704548831E+03  0.10143697635E+04  0.10968226036E+04  0.12699999809E+01 0. -1.
       -4    1    3    3    0  502 -0.12052153786E+02  0.41704548831E+03 -0.13187539800E+04  0.13831796219E+04  0.12699999809E+01 0.  1.
</event>
<event>
 5   0  0.3481387E-06  0.2492818E+04  0.7818609E-02  0.8405548E-01
        1   -1    0    0  501    0  0.00000000000E+00  0.00000000000E+00  0.10836833557E+04  0.10836833557E+04  0.50400001928E-02 0.  1.
       -1   -1    0    0    0  501  0.00000000000E+00  0.00000000000E+00 -0.14335699899E+04  0.14335699899E+04  0.50400001928E-02 0. -1.
    10030    2    1    2    0    0  0.00000000000E+00  0.00000000000E+00 -0.34988663423E+03  0.25172533456E+04  0.24928184348E+04 0.  0.
        4    1    3    3  502    0  0.11084515513E+04  0.49696693068E+03  0.10688620058E+03  0.12194536664E+04  0.12699999809E+01 0. -1.
       -4    1    3    3    0  502 -0.11084515513E+04 -0.49696693068E+03 -0.45677283480E+03  0.12977996792E+04  0.12699999809E+01 0.  1.
</event>
<event>
 5   0  0.8579923E-06  0.2484913E+04  0.7818609E-02  0.8408380E-01
       -2   -1    0    0    0  501  0.00000000000E+00  0.00000000000E+00  0.11061457601E+04  0.11061457601E+04  0.25500000920E-02 0. -1.
        2   -1    0    0  501    0  0.00000000000E+00  0.00000000000E+00 -0.13955652029E+04  0.13955652029E+04  0.25500000920E-02 0.  1.
    10030    2    1    2    0    0  0.00000000000E+00  0.00000000000E+00 -0.28941944279E+03  0.25017109631E+04  0.24849133041E+04 0.  0.
        1    1    3    3  502    0  0.36204139454E+03  0.32940907263E+03 -0.12944075373E+04  0.13838624141E+04  0.50400001928E-02 0.  1.
       -1    1    3    3    0  502 -0.36204139454E+03 -0.32940907263E+03  0.10049880945E+04  0.11178485490E+04  0.50400001928E-02 0. -1.
</event>
<event>
 5   0  0.8354653E-06  0.2493173E+04  0.7818609E-02  0.8405422E-01
       -2   -1    0    0    0  501  0.00000000000E+00  0.00000000000E+00  0.87085057185E+03  0.87085057186E+03  0.25500000920E-02 0. -1.
        2   -1    0    0  501    0  0.00000000000E+00  0.00000000000E+00 -0.17844369775E+04  0.17844369775E+04  0.25500000920E-02 0.  1.
    10030    2    1    2    0    0  0.00000000000E+00  0.00000000000E+00 -0.91358640567E+03  0.26552875494E+04  0.24931730484E+04 0.  0.
        3    1    3    3  502    0 -0.96527334887E+03 -0.31509355249E+03 -0.12269614948E+04  0.15926302474E+04  0.10100000352E+00 0.  1.
       -3    1    3    3    0  502  0.96527334887E+03  0.31509355249E+03  0.31337508912E+03  0.10626573020E+04  0.10100000352E+00 0. -1.
</event>
<event>
 5   0  0.3642184E-06  0.2513337E+04  0.7818609E-02  0.8398249E-01
        1   -1    0    0  501    0  0.00000000000E+00  0.00000000000E+00  0.26118747711E+04  0.26118747711E+04  0.50400001928E-02 0.  1.
       -1   -1    0    0    0  501  0.00000000000E+00  0.00000000000E+00 -0.60462939184E+03  0.60462939186E+03  0.50400001928E-02 0. -1.
    10030    2    1    2    0    0  0.00000000000E+00  0.00000000000E+00  0.20072453792E+04  0.32165041629E+04  0.25133374262E+04 0.  0.
        5    1    3    3  502    0  0.77645782845E+03  0.62668836382E+02 -0.25835400059E+03  0.82072103789E+03  0.46999998093E+01 0. -1.
       -5    1    3    3    0  502 -0.77645782845E+03 -0.62668836382E+02  0.22655993798E+04  0.23957831251E+04  0.46999998093E+01 0.  1.
</event>
<event>
 5   0  0.8056723E-06  0.2496941E+04  0.7818609E-02  0.8404076E-01
       -2   -1    0    0    0  501  0.00000000000E+00  0.00000000000E+00  0.98685848764E+03  0.98685848764E+03  0.25500000920E-02 0.  1.
        2   -1    0    0  501    0  0.00000000000E+00  0.00000000000E+00 -0.15794343223E+04  0.15794343223E+04  0.25500000920E-02 0. -1.
    10030    2    1    2    0    0  0.00000000000E+00  0.00000000000E+00 -0.59257583470E+03  0.25662928100E+04  0.24969406614E+04 0.  0.
        2    1    3    3  502    0 -0.34253337971E+03 -0.71964577108E+03  0.69137056528E+03  0.10550888164E+04  0.25500000920E-02 0.  1.
       -2    1    3    3    0  502  0.34253337971E+03  0.71964577108E+03 -0.12839464000E+04  0.15112039935E+04  0.25500000920E-02 0. -1.
</event>
<event>
 5   0  0.8948286E-06  0.2505868E+04  0.7818609E-02  0.8400898E-01
        2   -1    0    0  501    0  0.00000000000E+00  0.00000000000E+00  0.24479686082E+04  0.24479686082E+04  0.25500000920E-02 0. -1.
       -2   -1    0    0    0  501  0.00000000000E+00  0.00000000000E+00 -0.64128396144E+03  0.64128396144E+03  0.25500000920E-02 0.  1.
    10030    2    1    2    0    0  0.00000000000E+00  0.00000000000E+00  0.18066846467E+04  0.30892525696E+04  0.25058675197E+04 0.  0.
        4    1    3    3  502    0  0.11085982986E+04 -0.10692410979E+03  0.19577256447E+03  0.11308189346E+04  0.12699999809E+01 0.  1.
       -4    1    3    3    0  502 -0.11085982986E+04  0.10692410979E+03  0.16109120822E+04  0.19584336350E+04  0.12699999809E+01 0. -1.
</event>
<event>
 5   0  0.3481387E-06  0.2503200E+04  0.7818609E-02  0.8401847E-01
       -1   -1    0    0    0  501  0.00000000000E+00  0.00000000000E+00  0.12671987644E+04  0.12671987644E+04  0.50400001928E-02 0. -1.
        1   -1    0    0  501    0  0.00000000000E+00  0.00000000000E+00 -0.12361929261E+04  0.12361929261E+04  0.50400001928E-02 0.  1.
    10030    2    1    2    0    0  0.00000000000E+00  0.00000000000E+00  0.31005838323E+02  0.25033916905E+04  0.25031996712E+04 0.  0.
        4    1    3    3  502    0  0.72426777302E+03 -0.10080261424E+04  0.17620135188E+03  0.12536861808E+04  0.12699999809E+01 0. -1.
       -4    1    3    3    0  502 -0.72426777302E+03  0.10080261424E+04 -0.14519551356E+03  0.12497055096E+04  0.12699999809E+01 0.  1.
</event>
<event>
 5   0  0.8407986E-06  0.2498810E+04  0.7818609E-02  0.8403410E-01
       -2   -1    0    0    0  501  0.00000000000E+00  0.00000000000E+00  0.11262179918E+04  0.11262179918E+04  0.25500000920E-02 0.  1.
        2   -1    0    0  501    0  0.00000000000E+00  0.00000000000E+00 -0.13860662895E+04  0.13860662895E+04  0.25500000920E-02 0. -1.
    10030    2    1    2    0    0  0.00000000000E+00  0.00000000000E+00 -0.25984829764E+03  0.25122842813E+04  0.24988099512E+04 0.  0.
        5    1    3    3  502    0  0.23558881520E+02  0.75311733653E+03  0.87206918521E+03  0.11525048795E+04  0.46999998093E+01 0.  1.
       -5    1    3    3    0  502 -0.23558881520E+02 -0.75311733653E+03 -0.11319174829E+04  0.13597794018E+04  0.46999998093E+01 0. -1.
</event>
<event>
 5   0  0.8354653E-06  0.2495983E+04  0.7818609E-02  0.8404418E-01
       -2   -1    0    0    0  501  0.00000000000E+00  0.00000000000E+00  0.66896727928E+03  0.66896727928E+03  0.25500000920E-02 0.  1.
        2   -1    0    0  501    0  0.00000000000E+00  0.00000000000E+00 -0.23281891271E+04  0.23281891271E+04  0.25500000920E-02 0. -1.
    10030    2    1    2    0    0  0.00000000000E+00  0.00000000000E+00 -0.16592218478E+04  0.29971564064E+04  0.24959826490E+04 0.  0.
        3    1    3    3  502    0 -0.11222208616E+04 -0.52206091182E+03 -0.63765282067E+03  0.13923104495E+04  0.10100000352E+00 0.  1.
       -3    1    3    3    0  502  0.11222208616E+04  0.52206091182E+03 -0.10215690272E+04  0.16048459569E+04  0.10100000352E+00 0. -1.
</event>
<event>
 5   0  0.3481387E-06  0.2496330E+04  0.7818609E-02  0.8404294E-01
       -1   -1    0    0    0  501  0.00000000000E+00  0.00000000000E+00  0.13660180606E+04  0.13660180606E+04  0.50400001928E-02 0. -1.
        1   -1    0    0  501    0  0.00000000000E+00  0.00000000000E+00 -0.11404796412E+04  0.11404796412E+04  0.50400001928E-02 0.  1.
    10030    2    1    2    0    0  0.00000000000E+00  0.00000000000E+00  0.22553841938E+03  0.25064977019E+04  0.24963299363E+04 0.  0.
        4    1    3    3  502    0 -0.46914495979E+03  0.10746124110E+04  0.54232635369E+03  0.12919010465E+04  0.12699999809E+01 0. -1.
       -4    1    3    3    0  502  0.46914495979E+03 -0.10746124110E+04 -0.31678793432E+03  0.12145966554E+04  0.12699999809E+01 0.  1.
</event>
<event>
 5   0  0.3484857E-06  0.2494394E+04  0.7818609E-02  0.8404985E-01
       -1   -1    0    0    0  501  0.00000000000E+00  0.00000000000E+00  0.17768701861E+04  0.17768701861E+04  0.50400001928E-02 0. -1.
        1   -1    0    0  501    0  0.00000000000E+00  0.00000000000E+00 -0.87541616820E+03  0.87541616822E+03  0.50400001928E-02 0.  1.
    10030    2    1    2    0    0  0.00000000000E+00  0.00000000000E+00  0.90145401793E+03  0.26522863544E+04  0.24943944273E+04 0.  0.
        3    1    3    3  502    0 -0.34499025939E+03  0.99370689663E+03  0.11632396555E+04  0.15683106140E+04  0.10100000352E+00 0. -1.
       -3    1    3    3    0  502  0.34499025939E+03 -0.99370689663E+03 -0.26178563760E+03  0.10839757404E+04  0.10100000352E+00 0.  1.
</event>
<event>
 5   0  0.8948286E-06  0.2509640E+04  0.7818609E-02  0.8399559E-01
       -2   -1    0    0    0  501  0.00000000000E+00  0.00000000000E+00  0.13544388057E+04  0.13544388057E+04  0.25500000920E-02 0. -1.
        2   -1    0    0  501    0  0.00000000000E+00  0.00000000000E+00 -0.11625279093E+04  0.11625279093E+04  0.25500000920E-02 0.  1.
    10030    2    1    2    0    0  0.00000000000E+00  0.00000000000E+00  0.19191089641E+03  0.25169667150E+04  0.25096397455E+04 0.  0.
        4    1    3    3  502    0  0.17909854803E+03  0.87587017963E+03  0.97906378950E+03  0.13258176263E+04  0.12699999809E+01 0. -1.
       -4    1    3    3    0  502 -0.17909854803E+03 -0.87587017963E+03 -0.78715289308E+03  0.11911490887E+04  0.12699999809E+01 0.  1.
</event>
<event>
 5   0  0.8354653E-06  0.2504484E+04  0.7818609E-02  0.8401390E-01
       -2   -1    0    0    0  501  0.00000000000E+00  0.00000000000E+00  0.82765484800E+03  0.82765484801E+03  0.25500000920E-02 0.  1.
        2   -1    0    0  501    0  0.00000000000E+00  0.00000000000E+00 -0.18946425396E+04  0.18946425396E+04  0.25500000920E-02 0. -1.
    10030    2    1    2    0    0  0.00000000000E+00  0.00000000000E+00 -0.10669876916E+04  0.27222973876E+04  0.25044840452E+04 0.  0.
        3    1    3    3  502    0 -0.43878386078E+03 -0.11306704229E+04 -0.87231317813E+03  0.14939468440E+04  0.10100000352E+00 0.  1.
       -3    1    3    3    0  502  0.43878386078E+03  0.11306704229E+04 -0.19467451351E+03  0.12283505437E+04  0.10100000352E+00 0. -1.
</event>
<event>
 5   0  0.8056723E-06  0.2504294E+04  0.7818609E-02  0.8401457E-01
        2   -1    0    0  501    0  0.00000000000E+00  0.00000000000E+00  0.18264667474E+04  0.18264667474E+04  0.25500000920E-02 0.  1.
       -2   -1    0    0    0  501  0.00000000000E+00  0.00000000000E+00 -0.85841838992E+03  0.85841838992E+03  0.25500000920E-02 0. -1.
    10030    2    1    2    0    0  0.00000000000E+00  0.00000000000E+00  0.96804835748E+03  0.26848851373E+04  0.25042944272E+04 0.  0.
        2    1    3    3  502    0 -0.67952467026E+03  0.99326651757E+03  0.85470305982E+03  0.14760926370E+04  0.25500000920E-02 0.  1.
       -2    1    3    3    0  502  0.67952467026E+03 -0.99326651757E+03  0.11334529766E+03  0.12087925004E+04  0.25500000920E-02 0. -1.
</event>
<event>
 5   0  0.8056723E-06  0.2473986E+04  0.7818609E-02  0.8412312E-01
        2   -1    0    0  501    0  0.00000000000E+00  0.00000000000E+00  0.20062338744E+04  0.20062338744E+04  0.25500000920E-02 0.  1.
       -2   -1    0    0    0  501  0.00000000000E+00  0.00000000000E+00 -0.76269871950E+03  0.76269871951E+03  0.25500000920E-02 0. -1.
    10030    2    1    2    0    0  0.00000000000E+00  0.00000000000E+00  0.12435351549E+04  0.27689325939E+04  0.24739862627E+04 0.  0.
        2    1    3    3  502    0  0.99538526043E+02 -0.11494325890E+04  0.12242925845E+03  0.11602121005E+04  0.25500000920E-02 0. -1.
       -2    1    3    3    0  502 -0.99538526043E+02  0.11494325890E+04  0.11211058964E+04  0.16087204934E+04  0.25500000920E-02 0.  1.
</event>
<event>
 5   0  0.8948286E-06  0.2467529E+04  0.7818609E-02  0.8414646E-01
       -2   -1    0    0    0  501  0.00000000000E+00  0.00000000000E+00  0.10255442236E+04  0.10255442236E+04  0.25500000920E-02 0.  1.
        2   -1    0    0  501    0  0.00000000000E+00  0.00000000000E+00 -0.14842606736E+04  0.14842606736E+04  0.25500000920E-02 0. -1.
    10030    2    1    2    0    0  0.00000000000E+00  0.00000000000E+00 -0.45871645007E+03  0.25098048972E+04  0.24675290962E+04 0.  0.
        4    1    3    3  502    0 -0.56335844069E+03  0.58482780101E+03  0.71541368869E+03  0.10822267084E+04  0.12699999809E+01 0.  1.
       -4    1    3    3    0  502  0.56335844069E+03 -0.58482780101E+03 -0.11741301388E+04  0.14275781888E+04  0.12699999809E+01 0. -1.
</event>
<event>
 5   0  0.8407986E-06  0.2489252E+04  0.7818609E-02  0.8406824E-01
       -2   -1    0    0    0  501  0.00000000000E+00  0.00000000000E+00  0.13420673188E+04  0.13420673188E+04  0.25500000920E-02 0.  1.
        2   -1    0    0  501    0  0.00000000000E+00  0.00000000000E+00 -0.11542598317E+04  0.11542598317E+04  0.25500000920E-02 0. -1.
    10030    2    1    2    0    0  0.00000000000E+00  0.00000000000E+00  0.18780748718E+03  0.24963271505E+04  0.24892524159E+04 0.  0.
        5    1    3    3  502    0 -0.32991931152E+03  0.45652749121E+03 -0.10191191804E+04  0.11644269390E+04  0.46999998093E+01 0. -1.
       -5    1    3    3    0  502  0.32991931152E+03 -0.45652749121E+03  0.12069266676E+04  0.13319002115E+04  0.46999998093E+01 0.  1.
</event>
<event>
 5   0  0.8407986E-06  0.2496733E+04  0.7818609E-02  0.8404150E-01
        2   -1    0    0  501    0  0.00000000000E+00  0.00000000000E+00  0.15478585685E+04  0.15478585685E+04  0.25500000920E-02 0.  1.
       -2   -1    0    0    0  501  0.00000000000E+00  0.00000000000E+00 -0.10068222133E+04  0.10068222134E+04  0.25500000920E-02 0. -1.
    10030    2    1    2    0    0  0.00000000000E+00  0.00000000000E+00  0.54103635518E+03  0.25546807819E+04  0.24967325767E+04 0.  0.
        5    1    3    3  502    0  0.67836542677E+03 -0.10261172687E+04  0.52740326959E+02  0.12312188812E+04  0.46999998093E+01 0. -1.
       -5    1    3    3    0  502 -0.67836542677E+03  0.10261172687E+04  0.48829602822E+03  0.13234619007E+04  0.46999998093E+01 0.  1.
</event>
<event>
 5   0  0.8354653E-06  0.2499966E+04  0.7818609E-02  0.8402998E-01
       -2   -1    0    0    0  501  0.00000000000E+00  0.00000000000E+00  0.98137613211E+03  0.98137613212E+03  0.25500000920E-02 0.  1.
        2   -1    0    0  501    0  0.00000000000E+00  0.00000000000E+00 -0.15921083354E+04  0.15921083354E+04  0.25500000920E-02 0. -1.
    10030    2    1    2    0    0  0.00000000000E+00  0.00000000000E+00 -0.61073220331E+03  0.25734844675E+04  0.24999656959E+04 0.  0.
        3    1    3    3  502    0 -0.10735926379E+03  0.12375479822E+04 -0.44876853646E+03  0.13207741023E+04  0.10100000352E+00 0. -1.
       -3    1    3    3    0  502  0.10735926379E+03 -0.12375479822E+04 -0.16196366685E+03  0.12527103653E+04  0.10100000352E+00 0.  1.
</event>
<event>
 5   0  0.3424193E-06  0.2512973E+04  0.7818609E-02  0.8398378E-01
       -1   -1    0    0    0  501  0.00000000000E+00  0.00000000000E+00  0.97945690683E+03  0.97945690684E+03  0.50400001928E-02 0.  1.
        1   -1    0    0  501    0  0.00000000000E+00  0.00000000000E+00 -0.16118715433E+04  0.16118715433E+04  0.50400001928E-02 0. -1.
    10030    2    1    2    0    0  0.00000000000E+00  0.00000000000E+00 -0.63241463647E+03  0.25913284502E+04  0.25129733115E+04 0.  0.
        1    1    3    3  502    0  0.71365273706E+03  0.82936888592E+03  0.32079649931E+03  0.11402032152E+04  0.50400001928E-02 0.  1.
       -1    1    3    3    0  502 -0.71365273706E+03 -0.82936888592E+03 -0.95321113577E+03  0.14511252349E+04  0.50400001928E-02 0. -1.
</event>
<event>
 5   0  0.3424193E-06  0.2494972E+04  0.7818609E-02  0.8404779E-01
       -1   -1    0    0    0  501  0.00000000000E+00  0.00000000000E+00  0.11060661622E+04  0.11060661623E+04  0.50400001928E-02 0. -1.
        1   -1    0    0  501    0  0.00000000000E+00  0.00000000000E+00 -0.14069877878E+04  0.14069877878E+04  0.50400001928E-02 0.  1.
    10030    2    1    2    0    0  0.00000000000E+00  0.00000000000E+00 -0.30092162557E+03  0.25130539501E+04  0.24949722105E+04 0.  0.
        1    1    3    3  502    0 -0.10736316192E+04  0.59771713881E+03 -0.36712658656E+03  0.12824712716E+04  0.50400001928E-02 0.  1.
       -1    1    3    3    0  502  0.10736316192E+04 -0.59771713881E+03  0.66204960993E+02  0.12305826785E+04  0.50400001928E-02 0. -1.
</event>
<event>
 5   0  0.8056723E-06  0.2540710E+04  0.7818609E-02  0.8388624E-01
       -2   -1    0    0    0  501  0.00000000000E+00  0.00000000000E+00  0.64926798231E+03  0.64926798231E+03  0.25500000920E-02 0. -1.
        2   -1    0    0  501    0  0.00000000000E+00  0.00000000000E+00 -0.24855704548E+04  0.24855704548E+04  0.25500000920E-02 0.  1.
    10030    2    1    2    0    0  0.00000000000E+00  0.00000000000E+00 -0.18363024725E+04  0.31348384371E+04  0.25407095970E+04 0.  0.
        2    1    3    3  502    0 -0.57815540061E+03 -0.10158414806E+04 -0.15321093301E+04  0.19270590496E+04  0.25500000920E-02 0.  1.
       -2    1    3    3    0  502  0.57815540061E+03  0.10158414806E+04 -0.30419314231E+03  0.12077793875E+04  0.25500000920E-02 0. -1.
</event>
<event>
 5   0  0.8948286E-06  0.2478501E+04  0.7818609E-02  0.8410685E-01
       -2   -1    0    0    0  501  0.00000000000E+00  0.00000000000E+00  0.12486614620E+04  0.12486614620E+04  0.25500000920E-02 0. -1.
        2   -1    0    0  501    0  0.00000000000E+00  0.00000000000E+00 -0.12299105416E+04  0.12299105416E+04  0.25500000920E-02 0.  1.
    10030    2    1    2    0    0  0.00000000000E+00  0.00000000000E+00  0.18750920351E+02  0.24785720036E+04  0.24785010753E+04 0.  0.
        4    1    3    3  502    0 -0.97640659035E+03  0.12123086557E+03  0.76283814729E+03  0.12449861061E+04  0.12699999809E+01 0. -1.
       -4    1    3    3    0  502  0.97640659035E+03 -0.12123086557E+03 -0.74408722694E+03  0.12335858976E+04  0.12699999809E+01 0.  1.
</event>
<event>
 5   0  0.3642184E-06  0.2495191E+04  0.7818609E-02  0.8404701E-01
        1   -1    0    0  501    0  0.00000000000E+00  0.00000000000E+00  0.12519111353E+04  0.12519111353E+04  0.50400001928E-02 0. -1.
       -1   -1    0    0    0  501  0.00000000000E+00  0.00000000000E+00 -0.12432949063E+04  0.12432949063E+04  0.50400001928E-02 0.  1.
    10030    2    1    2    0    0  0.00000000000E+00  0.00000000000E+00  0.86162289531E+01  0.24952060416E+04  0.24951911651E+04 0.  0.
        5    1    3    3  502    0  0.92125882450E+02  0.50300806373E+02 -0.12388627211E+04  0.12433102112E+04  0.46999998093E+01 0.  1.
       -5    1    3    3    0  502 -0.92125882450E+02 -0.50300806373E+02  0.12474789501E+04  0.12518958304E+04  0.46999998093E+01 0. -1.
</event>
<event>
 5   0  0.8579923E-06  0.2498908E+04  0.7818609E-02  0.8403375E-01
       -2   -1    0    0    0  501  0.00000000000E+00  0.00000000000E+00  0.84018661975E+03  0.84018661975E+03  0.25500000920E-02 0.  1.
        2   -1    0    0  501    0  0.00000000000E+00  0.00000000000E+00 -0.18580822775E+04  0.18580822775E+04  0.25500000920E-02 0. -1.
    10030    2    1    2    0    0  0.00000000000E+00  0.00000000000E+00 -0.10178956578E+04  0.26982688973E+04  0.24989084561E+04 0.  0.
        1    1    3    3  502    0 -0.22851045456E+03  0.88862893028E+03  0.40680247083E+03  0.10036765684E+04  0.50400001928E-02 0.  1.
       -1    1    3    3    0  502  0.22851045456E+03 -0.88862893028E+03 -0.14246981286E+04  0.16945923289E+04  0.50400001928E-02 0. -1.
</event>
<event>
 5   0  0.3642184E-06  0.2491668E+04  0.7818609E-02  0.8405960E-01
        1   -1    0    0  501    0  0.00000000000E+00  0.00000000000E+00  0.93273786039E+03  0.93273786041E+03  0.50400001928E-02 0. -1.
       -1   -1    0    0    0  501  0.00000000000E+00  0.00000000000E+00 -0.16640287983E+04  0.16640287983E+04  0.50400001928E-02 0.  1.
    10030    2    1    2    0    0  0.00000000000E+00  0.00000000000E+00 -0.73129093788E+03  0.25967666587E+04  0.24916682451E+04 0.  0.
        5    1    3    3  502    0  0.11245130571E+04 -0.12390511877E+03  0.17808735903E+03  0.11452594865E+04  0.46999998093E+01 0. -1.
       -5    1    3    3    0  502 -0.11245130571E+04  0.12390511877E+03 -0.90937829691E+03  0.14515071722E+04  0.46999998093E+01 0.  1.
</event>
<event>
 5   0  0.3481387E-06  0.2631235E+04  0.7818609E-02  0.8357668E-01
        1   -1    0    0  501    0  0.00000000000E+00  0.00000000000E+00  0.21972776657E+04  0.21972776658E+04  0.50400001928E-02 0. -1.
       -1   -1    0    0    0  501  0.00000000000E+00  0.00000000000E+00 -0.78772446229E+03  0.78772446230E+03  0.50400001928E-02 0.  1.
    10030    2    1    2    0    0  0.00000000000E+00  0.00000000000E+00  0.14095532035E+04  0.29850021281E+04  0.26312349707E+04 0.  0.
        4    1    3    3  502    0  0.80125840849E+03  0.30544646759E+03 -0.42713709947E+03  0.95799806700E+03  0.12699999809E+01 0. -1.
       -4    1    3    3    0  502 -0.80125840849E+03 -0.30544646759E+03  0.18366903029E+04  0.20270040611E+04  0.12699999809E+01 0.  1.
</event>
<event>
 5   0  0.3424193E-06  0.2498354E+04  0.7818609E-02  0.8403572E-01
        1   -1    0    0  501    0  0.00000000000E+00  0.00000000000E+00  0.24315090108E+04  0.24315090108E+04  0.50400001928E-02 0. -1.
       -1   -1    0    0    0  501  0.00000000000E+00  0.00000000000E+00 -0.64175894112E+03  0.64175894114E+03  0.50400001928E-02 0.  1.
    10030    2    1    2    0    0  0.00000000000E+00  0.00000000000E+00  0.17897500696E+04  0.30732679519E+04  0.24983535763E+04 0.  0.
        1    1    3    3  502    0 -0.10578894589E+04 -0.42750528812E+03  0.15203649082E+04  0.19008946138E+04  0.50400001928E-02 0. -1.
       -1    1    3    3    0  502  0.10578894589E+04  0.42750528812E+03  0.26938516148E+03  0.11723733381E+04  0.50400001928E-02 0.  1.
</event>
<event>
 5   0  0.3424193E-06  0.2503266E+04  0.7818609E-02  0.8401823E-01
        1   -1    0    0  501    0  0.00000000000E+00  0.00000000000E+00  0.10644181396E+04  0.10644181396E+04  0.50400001928E-02 0.  1.
       -1   -1    0    0    0  501  0.00000000000E+00  0.00000000000E+00 -0.14717765098E+04  0.14717765098E+04  0.50400001928E-02 0. -1.
    10030    2    1    2    0    0  0.00000000000E+00  0.00000000000E+00 -0.40735837015E+03  0.25361946494E+04  0.25032663578E+04 0.  0.
        1    1    3    3  502    0  0.74596435552E+03 -0.13309796185E+03  0.80562154599E+03  0.11059855164E+04  0.50400001928E-02 0.  1.
       -1    1    3    3    0  502 -0.74596435552E+03  0.13309796185E+03 -0.12129799161E+04  0.14302091330E+04  0.50400001928E-02 0. -1.
</event>
<event>
 5   0  0.3424193E-06  0.2495105E+04  0.7818609E-02  0.8404731E-01
        1   -1    0    0  501    0  0.00000000000E+00  0.00000000000E+00  0.13625619985E+04  0.13625619985E+04  0.50400001928E-02 0. -1.
       -1   -1    0    0    0  501  0.00000000000E+00  0.00000000000E+00 -0.11422506846E+04  0.11422506846E+04  0.50400001928E-02 0.  1.
    10030    2    1    2    0    0  0.00000000000E+00  0.00000000000E+00  0.22031131391E+03  0.25048126831E+04  0.24951051085E+04 0.  0.
        1    1    3    3  502    0  0.33371762657E+02 -0.98153038942E+03  0.88248090193E+03  0.13203363671E+04  0.50400001928E-02 0. -1.
       -1    1    3    3    0  502 -0.33371762657E+02  0.98153038942E+03 -0.66216958802E+03  0.11844763160E+04  0.50400001928E-02 0.  1.
</event>
<event>
 5   0  0.3522870E-06  0.2648890E+04  0.7818609E-02  0.8351782E-01
       -1   -1    0    0    0  501  0.00000000000E+00  0.00000000000E+00  0.87993576067E+03  0.87993576068E+03  0.50400001928E-02 0.  1.
        1   -1    0    0  501    0  0.00000000000E+00  0.00000000000E+00 -0.19935023841E+04  0.19935023841E+04  0.50400001928E-02 0. -1.
    10030    2    1    2    0    0  0.00000000000E+00  0.00000000000E+00 -0.11135666234E+04  0.28734381448E+04  0.26488896064E+04 0.  0.
        2    1    3    3  502    0  0.51798060295E+02 -0.11511611359E+04  0.15148069050E+03  0.11622398201E+04  0.25500000920E-02 0.  1.
       -2    1    3    3    0  502 -0.51798060295E+02  0.11511611359E+04 -0.12650473139E+04  0.17111983247E+04  0.25500000920E-02 0. -1.
</event>
<event>
 5   0  0.3642184E-06  0.2503528E+04  0.7818609E-02  0.8401730E-01
        1   -1    0    0  501    0  0.00000000000E+00  0.00000000000E+00  0.19532484452E+04  0.19532484452E+04  0.50400001928E-02 0.  1.
       -1   -1    0    0    0  501  0.00000000000E+00  0.00000000000E+00 -0.80220856633E+03  0.80220856634E+03  0.50400001928E-02 0. -1.
    10030    2    1    2    0    0  0.00000000000E+00  0.00000000000E+00  0.11510398788E+04  0.27554570115E+04  0.25035276191E+04 0.  0.
        5    1    3    3  502    0 -0.94778776538E+02  0.10648925874E+04  0.12921231549E+04  0.16770759007E+04  0.46999998093E+01 0.  1.
       -5    1    3    3    0  502  0.94778776538E+02 -0.10648925874E+04 -0.14108327612E+03  0.10783811108E+04  0.46999998093E+01 0. -1.
</event>
<event>
 5   0  0.8354653E-06  0.2478873E+04  0.7818609E-02  0.8410551E-01
        2   -1    0    0  501    0  0.00000000000E+00  0.00000000000E+00  0.12521963744E+04  0.12521963745E+04  0.25500000920E-02 0. -1.
       -2   -1    0    0    0  501  0.00000000000E+00  0.00000000000E+00 -0.12268070150E+04  0.12268070150E+04  0.25500000920E-02 0.  1.
    10030    2    1    2    0    0  0.00000000000E+00  0.00000000000E+00  0.25389359415E+02  0.24790033895E+04  0.24788733702E+04 0.  0.
        3    1    3    3  502    0  0.18043824424E+03  0.68697427763E+02 -0.12116758663E+04  0.12269619846E+04  0.10100000352E+00 0.  1.
       -3    1    3    3    0  502 -0.18043824424E+03 -0.68697427763E+02  0.12370652257E+04  0.12520414048E+04  0.10100000352E+00 0. -1.
</event>
<event>
 5   0  0.3484857E-06  0.2492694E+04  0.7818609E-02  0.8405593E-01
       -1   -1    0    0    0  501  0.00000000000E+00  0.00000000000E+00  0.15828952507E+04  0.15828952507E+04  0.50400001928E-02 0.  1.
        1   -1    0    0  501    0  0.00000000000E+00  0.00000000000E+00 -0.98135413415E+03  0.98135413416E+03  0.50400001928E-02 0. -1.
    10030    2    1    2    0    0  0.00000000000E+00  0.00000000000E+00  0.60154111658E+03  0.25642493849E+04  0.24926939630E+04 0.  0.
        3    1    3    3  502    0  0.81852170485E+03  0.67587402507E+03 -0.37112280901E+03  0.11245068380E+04  0.10100000352E+00 0. -1.
       -3    1    3    3    0  502 -0.81852170485E+03 -0.67587402507E+03  0.97266392559E+03  0.14397425469E+04  0.10100000352E+00 0.  1.
</event>
<event>
 5   0  0.3522870E-06  0.2494785E+04  0.7818609E-02  0.8404846E-01
        1   -1    0    0  501    0  0.00000000000E+00  0.00000000000E+00  0.66170195142E+03  0.66170195144E+03  0.50400001928E-02 0.  1.
       -1   -1    0    0    0  501  0.00000000000E+00  0.00000000000E+00 -0.23514932700E+04  0.23514932701E+04  0.50400001928E-02 0. -1.
    10030    2    1    2    0    0  0.00000000000E+00  0.00000000000E+00 -0.16897913186E+04  0.30131952215E+04  0.24947847086E+04 0.  0.
        2    1    3    3  502    0  0.35888445822E+03  0.83034231651E+03 -0.18822815783E+04  0.20883606865E+04  0.25500000920E-02 0. -1.
       -2    1    3    3    0  502 -0.35888445822E+03 -0.83034231651E+03  0.19249025972E+03  0.92483453495E+03  0.25500000920E-02 0.  1.
</event>
<event>
 5   0  0.8407986E-06  0.2498999E+04  0.7818609E-02  0.8403342E-01
        2   -1    0    0  501    0  0.00000000000E+00  0.00000000000E+00  0.14158244716E+04  0.14158244716E+04  0.25500000920E-02 0. -1.
       -2   -1    0    0    0  501  0.00000000000E+00  0.00000000000E+00 -0.11027139130E+04  0.11027139130E+04  0.25500000920E-02 0.  1.
    10030    2    1    2    0    0  0.00000000000E+00  0.00000000000E+00  0.31311055855E+03  0.25185383846E+04  0.24989992743E+04 0.  0.
        5    1    3    3  502    0 -0.17343096743E+03 -0.63348503037E+03  0.12278081700E+04  0.13924498470E+04  0.46999998093E+01 0. -1.
       -5    1    3    3    0  502  0.17343096743E+03  0.63348503037E+03 -0.91469761145E+03  0.11260885376E+04  0.46999998093E+01 0.  1.
</event>
<event>
 5   0  0.8354653E-06  0.2496189E+04  0.7818609E-02  0.8404345E-01
       -2   -1    0    0    0  501  0.00000000000E+00  0.00000000000E+00  0.13246813429E+04  0.13246813429E+04  0.25500000920E-02 0. -1.
        2   -1    0    0  501    0  0.00000000000E+00  0.00000000000E+00 -0.11759351973E+04  0.11759351973E+04  0.25500000920E-02 0.  1.
    10030    2    1    2    0    0  0.00000000000E+00  0.00000000000E+00  0.14874614557E+03  0.25006165402E+04  0.24961886277E+04 0.  0.
        3    1    3    3  502    0 -0.10574115133E+04  0.12624685149E+03  0.72643631853E+03  0.12890954623E+04  0.10100000352E+00 0. -1.
       -3    1    3    3    0  502  0.10574115133E+04 -0.12624685149E+03 -0.57769017297E+03  0.12115210778E+04  0.10100000352E+00 0.  1.
</event>
<event>
 5   0  0.3424193E-06  0.2506852E+04  0.7818609E-02  0.8400549E-01
       -1   -1    0    0    0  501  0.00000000000E+00  0.00000000000E+00  0.69589042760E+03  0.69589042761E+03  0.50400001928E-02 0.  1.
        1   -1    0    0  501    0  0.00000000000E+00  0.00000000000E+00 -0.22576493231E+04  0.22576493231E+04  0.50400001928E-02 0. -1.
    10030    2    1    2    0    0  0.00000000000E+00  0.00000000000E+00 -0.15617588955E+04  0.29535397507E+04  0.25068518527E+04 0.  0.
        1    1    3    3  502    0  0.76095422205E+03 -0.51047156141E+02  0.39105781854E+03  0.85707838479E+03  0.50400001928E-02 0.  1.
       -1    1    3    3    0  502 -0.76095422205E+03  0.51047156141E+02 -0.19528167140E+04  0.20964613659E+04  0.50400001928E-02 0. -1.
</event>
<event>
 5   0  0.8948286E-06  0.2326911E+04  0.7818609E-02  0.8467385E-01
        2   -1    0    0  501    0  0.00000000000E+00  0.00000000000E+00  0.15206498462E+04  0.15206498462E+04  0.25500000920E-02 0.  1.
       -2   -1    0    0    0  501  0.00000000000E+00  0.00000000000E+00 -0.89016476891E+03  0.89016476892E+03  0.25500000920E-02 0. -1.
    10030    2    1    2    0    0  0.00000000000E+00  0.00000000000E+00  0.63048507733E+03  0.24108146152E+04  0.23269111878E+04 0.  0.
        4    1    3    3  502    0  0.50615958396E+03  0.10469902592E+04  0.35174323819E+03  0.12149531043E+04  0.12699999809E+01 0.  1.
       -4    1    3    3    0  502 -0.50615958396E+03 -0.10469902592E+04  0.27874183913E+03  0.11958615108E+04  0.12699999809E+01 0. -1.
</event>
<event>
 5   0  0.8579923E-06  0.2505763E+04  0.7818609E-02  0.8400935E-01
        2   -1    0    0  501    0  0.00000000000E+00  0.00000000000E+00  0.12001859089E+04  0.12001859089E+04  0.25500000920E-02 0. -1.
       -2   -1    0    0    0  501  0.00000000000E+00  0.00000000000E+00 -0.13078912255E+04  0.13078912255E+04  0.25500000920E-02 0.  1.
    10030    2    1    2    0    0  0.00000000000E+00  0.00000000000E+00 -0.10770531659E+03  0.25080771343E+04  0.25057634518E+04 0.  0.
        1    1    3    3  502    0  0.11551715240E+04 -0.20556422747E+03 -0.49361550031E+03  0.12729234713E+04  0.50400001928E-02 0.  1.
       -1    1    3    3    0  502 -0.11551715240E+04  0.20556422747E+03  0.38591018372E+03  0.12351536631E+04  0.50400001928E-02 0. -1.
</event>
<event>
 5   0  0.8354653E-06  0.2507996E+04  0.7818609E-02  0.8400142E-01
        2   -1    0    0  501    0  0.00000000000E+00  0.00000000000E+00  0.16062517945E+04  0.16062517945E+04  0.25500000920E-02 0. -1.
       -2   -1    0    0    0  501  0.00000000000E+00  0.00000000000E+00 -0.97899420549E+03  0.97899420549E+03  0.25500000920E-02 0.  1.
    10030    2    1    2    0    0  0.00000000000E+00  0.00000000000E+00  0.62725758900E+03  0.25852460000E+04  0.25079961717E+04 0.  0.
        3    1    3    3  502    0 -0.39204102310E+03  0.10279139767E+04 -0.30674572787E+03  0.11421016851E+04  0.10100000352E+00 0.  1.
       -3    1    3    3    0  502  0.39204102310E+03 -0.10279139767E+04  0.93400331686E+03  0.14431443149E+04  0.10100000352E+00 0. -1.
</event>
<event>
 5   0  0.3642184E-06  0.2502967E+04  0.7818609E-02  0.8401929E-01
       -1   -1    0    0    0  501  0.00000000000E+00  0.00000000000E+00  0.13825853222E+04  0.13825853222E+04  0.50400001928E-02 0. -1.
        1   -1    0    0  501    0  0.00000000000E+00  0.00000000000E+00 -0.11328129644E+04  0.11328129644E+04  0.50400001928E-02 0.  1.
    10030    2    1    2    0    0  0.00000000000E+00  0.00000000000E+00  0.24977235780E+03  0.25153982866E+04  0.25029667017E+04 0.  0.
        5    1    3    3  502    0  0.50196100012E+03  0.59800667034E+03  0.11078092406E+04  0.13553007883E+04  0.46999998093E+01 0. -1.
       -5    1    3    3    0  502 -0.50196100012E+03 -0.59800667034E+03 -0.85803688275E+03  0.11600974983E+04  0.46999998093E+01 0.  1.
</event>
<event>
 5   0  0.3522870E-06  0.2470068E+04  0.7818609E-02  0.8413727E-01
       -1   -1    0    0    0  501  0.00000000000E+00  0.00000000000E+00  0.15522579162E+04  0.15522579163E+04  0.50400001928E-02 0. -1.
        1   -1    0    0  501    0  0.00000000000E+00  0.00000000000E+00 -0.98263883156E+03  0.98263883157E+03  0.50400001928E-02 0.  1.
    10030    2    1    2    0    0  0.00000000000E+00  0.00000000000E+00  0.56961908468E+03  0.25348967478E+04  0.24700679384E+04 0.  0.
        2    1    3    3  502    0 -0.42921120094E+03 -0.10959155709E+04  0.66887193909E+03  0.13537514042E+04  0.25500000920E-02 0.  1.
       -2    1    3    3    0  502  0.42921120094E+03  0.10959155709E+04 -0.99252854411E+02  0.11811453436E+04  0.25500000920E-02 0. -1.
</event>
<event>
 5   0  0.3424193E-06  0.2505150E+04  0.7818609E-02  0.8401153E-01
        1   -1    0    0  501    0  0.00000000000E+00  0.00000000000E+00  0.17721835236E+04  0.17721835236E+04  0.50400001928E-02 0. -1.
       -1   -1    0    0    0  501  0.00000000000E+00  0.00000000000E+00 -0.88531706387E+03  0.88531706389E+03  0.50400001928E-02 0.  1.
    10030    2    1    2    0    0  0.00000000000E+00  0.00000000000E+00  0.88686645971E+03  0.26575005875E+04  0.25051501462E+04 0.  0.
        1    1    3    3  502    0  0.46838385314E+03  0.10321733315E+04  0.10089372168E+04  0.15174714256E+04  0.50400001928E-02 0. -1.
       -1    1    3    3    0  502 -0.46838385314E+03 -0.10321733315E+04 -0.12207075710E+03  0.11400291619E+04  0.50400001928E-02 0.  1.
</event>
<event>
 5   0  0.8056723E-06  0.2500972E+04  0.7818609E-02  0.8402639E-01
        2   -1    0    0  501    0  0.00000000000E+00  0.00000000000E+00  0.19686073959E+04  0.19686073959E+04  0.25500000920E-02 0. -1.
       -2   -1    0    0    0  501  0.00000000000E+00  0.00000000000E+00 -0.79432538984E+03  0.79432538984E+03  0.25500000920E-02 0.  1.
    10030    2    1    2    0    0  0.00000000000E+00  0.00000000000E+00  0.11742820060E+04  0.27629327857E+04  0.25009716809E+04 0.  0.
        2    1    3    3  502    0 -0.18522057359E+03  0.85780472485E+03 -0.39699856256E+03  0.96319440693E+03  0.25500000920E-02 0.  1.
       -2    1    3    3    0  502  0.18522057359E+03 -0.85780472485E+03  0.15712805686E+04  0.17997383788E+04  0.25500000920E-02 0. -1.
</event>
<event>
 5   0  0.8948286E-06  0.2499594E+04  0.7818609E-02  0.8403130E-01
        2   -1    0    0  501    0  0.00000000000E+00  0.00000000000E+00  0.20718204627E+04  0.20718204627E+04  0.25500000920E-02 0. -1.
       -2   -1    0    0    0  501  0.00000000000E+00  0.00000000000E+00 -0.75392248921E+03  0.75392248921E+03  0.25500000920E-02 0.  1.
    10030    2    1    2    0    0  0.00000000000E+00  0.00000000000E+00  0.13178979735E+04  0.28257429519E+04  0.24995935993E+04 0.  0.
        4    1    3    3  502    0 -0.86388381670E+02 -0.42567902195E+03  0.19837476697E+04  0.20307442016E+04  0.12699999809E+01 0. -1.
       -4    1    3    3    0  502  0.86388381670E+02  0.42567902195E+03 -0.66584969621E+03  0.79499875035E+03  0.12699999809E+01 0.  1.
</event>
<event>
 5   0  0.3522870E-06  0.2457722E+04  0.7818609E-02  0.8418204E-01
       -1   -1    0    0    0  501  0.00000000000E+00  0.00000000000E+00  0.67728487320E+03  0.67728487322E+03  0.50400001928E-02 0.  1.
        1   -1    0    0  501    0  0.00000000000E+00  0.00000000000E+00 -0.22296375166E+04  0.22296375166E+04  0.50400001928E-02 0. -1.
    10030    2    1    2    0    0  0.00000000000E+00  0.00000000000E+00 -0.15523526434E+04  0.29069223898E+04  0.24577223299E+04 0.  0.
        2    1    3    3  502    0 -0.64594687067E+03 -0.32121734698E+03 -0.19528234076E+04  0.20818134414E+04  0.25500000920E-02 0. -1.
       -2    1    3    3    0  502  0.64594687067E+03  0.32121734698E+03  0.40047076419E+03  0.82510894838E+03  0.25500000920E-02 0.  1.
</event>
<event>
 5   0  0.3642184E-06  0.2500578E+04  0.7818609E-02  0.8402780E-01
        1   -1    0    0  501    0  0.00000000000E+00  0.00000000000E+00  0.17825835642E+04  0.17825835642E+04  0.50400001928E-02 0.  1.
       -1   -1    0    0    0  501  0.00000000000E+00  0.00000000000E+00 -0.87694194949E+03  0.87694194950E+03  0.50400001928E-02 0. -1.
    10030    2    1    2    0    0  0.00000000000E+00  0.00000000000E+00  0.90564161472E+03  0.26595255137E+04  0.25005777780E+04 0.  0.
        5    1    3    3  502    0 -0.36560085496E+03  0.11846284827E+04  0.28069550513E+03  0.12711493554E+04  0.46999998093E+01 0.  1.
       -5    1    3    3    0  502  0.36560085496E+03 -0.11846284827E+04  0.62494610959E+03  0.13883761583E+04  0.46999998093E+01 0. -1.
</event>
<event>
 5   0  0.3522870E-06  0.2487636E+04  0.7818609E-02  0.8407404E-01
        1   -1    0    0  501    0  0.00000000000E+00  0.00000000000E+00  0.20205883592E+04  0.20205883592E+04  0.50400001928E-02 0. -1.
       -1   -1    0    0    0  501  0.00000000000E+00  0.00000000000E+00 -0.76565947443E+03  0.76565947444E+03  0.50400001928E-02 0.  1.
    10030    2    1    2    0    0  0.00000000000E+00  0.00000000000E+00  0.12549288848E+04  0.27862478337E+04  0.24876355209E+04 0.  0.
        2    1    3    3  502    0  0.63705664730E+03 -0.98570350984E+03  0.16616346307E+03  0.11853534822E+04  0.25500000920E-02 0. -1.
       -2    1    3    3    0  502 -0.63705664730E+03  0.98570350984E+03  0.10887654217E+04  0.16008943515E+04  0.25500000920E-02 0.  1.
</event>
<event>
 5   0  0.8056723E-06  0.2494227E+04  0.7818609E-02  0.8405045E-01
        2   -1    0    0  501    0  0.00000000000E+00  0.00000000000E+00  0.15361857961E+04  0.15361857961E+04  0.25500000920E-02 0. -1.
       -2   -1    0    0    0  501  0.00000000000E+00  0.00000000000E+00 -0.10124373588E+04  0.10124373588E+04  0.25500000920E-02 0.  1.
    10030    2    1    2    0    0  0.00000000000E+00  0.00000000000E+00  0.52374843737E+03  0.25486231549E+04  0.24942268461E+04 0.  0.
        2    1    3    3  502    0 -0.89990675840E+03 -0.17024072534E+03 -0.60303603901E+03  0.10965703547E+04  0.25500000920E-02 0.  1.
       -2    1    3    3    0  502  0.89990675840E+03  0.17024072534E+03  0.11267844764E+04  0.14520528002E+04  0.25500000920E-02 0. -1.
</event>
<event>
 5   0  0.8354653E-06  0.2502006E+04  0.7818609E-02  0.8402271E-01
        2   -1    0    0  501    0  0.00000000000E+00  0.00000000000E+00  0.12587593517E+04  0.12587593517E+04  0.25500000920E-02 0. -1.
       -2   -1    0    0    0  501  0.00000000000E+00  0.00000000000E+00 -0.12432945002E+04  0.12432945002E+04  0.25500000920E-02 0.  1.
    10030    2    1    2    0    0  0.00000000000E+00  0.00000000000E+00  0.15464851446E+02  0.25020538519E+04  0.25020060584E+04 0.  0.
        3    1    3    3  502    0  0.13817204539E+03  0.46841869566E+03  0.11594926693E+04  0.12581457980E+04  0.10100000352E+00 0. -1.
       -3    1    3    3    0  502 -0.13817204539E+03 -0.46841869566E+03 -0.11440278178E+04  0.12439080540E+04  0.10100000352E+00 0.  1.
</event>
<event>
 5   0  0.8056723E-06  0.2460145E+04  0.7818609E-02  0.8417323E-01
        2   -1    0    0  501    0  0.00000000000E+00  0.00000000000E+00  0.23826799790E+04  0.23826799790E+04  0.25500000920E-02 0.  1.
       -2   -1    0    0    0  501  0.00000000000E+00  0.00000000000E+00 -0.63503198806E+03  0.63503198807E+03  0.25500000920E-02 0. -1.
    10030    2    1    2    0    0  0.00000000000E+00  0.00000000000E+00  0.17476479910E+04  0.30177119671E+04  0.24601447145E+04 0.  0.
        2    1    3    3  502    0 -0.14585072114E+03 -0.78359020882E+03 -0.27542181391E+03  0.84329308297E+03  0.25500000920E-02 0. -1.
       -2    1    3    3    0  502  0.14585072114E+03  0.78359020882E+03  0.20230698049E+04  0.21744188841E+04  0.25500000920E-02 0.  1.
</event>
<event>
 5   0  0.3484857E-06  0.2516173E+04  0.7818609E-02  0.8397246E-01
       -1   -1    0    0    0  501  0.00000000000E+00  0.00000000000E+00  0.90338538818E+03  0.90338538819E+03  0.50400001928E-02 0.  1.
        1   -1    0    0  501    0  0.00000000000E+00  0.00000000000E+00 -0.17520562742E+04  0.17520562742E+04  0.50400001928E-02 0. -1.
    10030    2    1    2    0    0  0.00000000000E+00  0.00000000000E+00 -0.84867088606E+03  0.26554416624E+04  0.25161733147E+04 0.  0.
        3    1    3    3  502    0  0.65006102239E+03 -0.61779230804E+02  0.71053851201E+03  0.96501864927E+03  0.10100000352E+00 0.  1.
       -3    1    3    3    0  502 -0.65006102239E+03  0.61779230804E+02 -0.15592093981E+04  0.16904230132E+04  0.10100000352E+00 0. -1.
</event>
<event>
 5   0  0.3642184E-06  0.2470548E+04  0.7818609E-02  0.8413554E-01
       -1   -1    0    0    0  501  0.00000000000E+00  0.00000000000E+00  0.10723441496E+04  0.10723441496E+04  0.50400001928E-02 0.  1.
        1   -1    0    0  501    0  0.00000000000E+00  0.00000000000E+00 -0.14229589412E+04  0.14229589412E+04  0.50400001928E-02 0. -1.
    10030    2    1    2    0    0  0.00000000000E+00  0.00000000000E+00 -0.35061479164E+03  0.24953030908E+04  0.24705478710E+04 0.  0.
        5    1    3    3  502    0  0.11964817446E+04  0.11612049409E+03 -0.46245715234E+03  0.12879989294E+04  0.46999998093E+01 0. -1.
       -5    1    3    3    0  502 -0.11964817446E+04 -0.11612049409E+03  0.11184236070E+03  0.12073041614E+04  0.46999998093E+01 0.  1.
</event>
<event>
 5   0  0.8407986E-06  0.2494894E+04  0.7818609E-02  0.8404807E-01
       -2   -1    0    0    0  501  0.00000000000E+00  0.00000000000E+00  0.66948413249E+03  0.66948413250E+03  0.25500000920E-02 0.  1.
        2   -1    0    0  501    0  0.00000000000E+00  0.00000000000E+00 -0.23243627883E+04  0.23243627883E+04  0.25500000920E-02 0. -1.
    10030    2    1    2    0    0  0.00000000000E+00  0.00000000000E+00 -0.16548786558E+04  0.29938469208E+04  0.24948939897E+04 0.  0.
        5    1    3    3  502    0 -0.65201657120E+03 -0.78391797306E+03  0.34925786306E+02  0.10202425683E+04  0.46999998093E+01 0.  1.
       -5    1    3    3    0  502  0.65201657120E+03  0.78391797306E+03 -0.16898044421E+04  0.19736043525E+04  0.46999998093E+01 0. -1.
</event>
<event>
 5   0  0.3642184E-06  0.2432105E+04  0.7818609E-02  0.8427581E-01
        1   -1    0    0  501    0  0.00000000000E+00  0.00000000000E+00  0.10395171869E+04  0.10395171869E+04  0.50400001928E-02 0. -1.
       -1   -1    0    0    0  501  0.00000000000E+00  0.00000000000E+00 -0.14225679157E+04  0.14225679157E+04  0.50400001928E-02 0.  1.
    10030    2    1    2    0    0  0.00000000000E+00  0.00000000000E+00 -0.38305072882E+03  0.24620851027E+04  0.24321050948E+04 0.  0.
        5    1    3    3  502    0  0.11176648140E+04  0.11771955823E+02  0.29338707745E+03  0.11555999665E+04  0.46999998093E+01 0. -1.
       -5    1    3    3    0  502 -0.11176648140E+04 -0.11771955823E+02 -0.67643780627E+03  0.13064851362E+04  0.46999998093E+01 0.  1.
</event>
<event>
 5   0  0.3522870E-06  0.2510865E+04  0.7818609E-02  0.8399125E-01
        1   -1    0    0  501    0  0.00000000000E+00  0.00000000000E+00  0.15407541930E+04  0.15407541930E+04  0.50400001928E-02 0.  1.
       -1   -1    0    0    0  501  0.00000000000E+00  0.00000000000E+00 -0.10229474928E+04  0.10229474928E+04  0.50400001928E-02 0. -1.
    10030    2    1    2    0    0  0.00000000000E+00  0.00000000000E+00  0.51780670020E+03  0.25637016858E+04  0.25108649018E+04 0.  0.
        2    1    3    3  502    0 -0.48072320368E+03  0.14446423348E+03  0.14338335511E+04  0.15191587691E+04  0.25500000920E-02 0.  1.
       -2    1    3    3    0  502  0.48072320368E+03 -0.14446423348E+03 -0.91602685094E+03  0.10445429168E+04  0.25500000920E-02 0. -1.
</event>
<event>
 5   0  0.8407986E-06  0.2497945E+04  0.7818609E-02  0.8403718E-01
        2   -1    0    0  501    0  0.00000000000E+00  0.00000000000E+00  0.17139817371E+04  0.17139817371E+04  0.25500000920E-02 0. -1.
       -2   -1    0    0    0  501  0.00000000000E+00  0.00000000000E+00 -0.91012214520E+03  0.91012214520E+03  0.25500000920E-02 0.  1.
    10030    2    1    2    0    0  0.00000000000E+00  0.00000000000E+00  0.80385959189E+03  0.26241038823E+04  0.24979453440E+04 0.  0.
        5    1    3    3  502    0 -0.12417207860E+04 -0.13171744997E+03  0.42953726520E+03  0.13205091250E+04  0.46999998093E+01 0. -1.
       -5    1    3    3    0  502  0.12417207860E+04  0.13171744997E+03  0.37432232669E+03  0.13035947573E+04  0.46999998093E+01 0.  1.
</event>
<event>
 5   0  0.3424193E-06  0.2502518E+04  0.7818609E-02  0.8402089E-01
       -1   -1    0    0    0  501  0.00000000000E+00  0.00000000000E+00  0.12559694128E+04  0.12559694128E+04  0.50400001928E-02 0.  1.
        1   -1    0    0  501    0  0.00000000000E+00  0.00000000000E+00 -0.12465665288E+04  0.12465665288E+04  0.50400001928E-02 0. -1.
    10030    2    1    2    0    0  0.00000000000E+00  0.00000000000E+00  0.94028839811E+01  0.25025359417E+04  0.25025182767E+04 0.  0.
        1    1    3    3  502    0 -0.89079645464E+03  0.14193538136E+03  0.87187851248E+03  0.12545262519E+04  0.50400001928E-02 0.  1.
       -1    1    3    3    0  502  0.89079645464E+03 -0.14193538136E+03 -0.86247562850E+03  0.12480096898E+04  0.50400001928E-02 0. -1.
</event>
<event>
 5   0  0.8354653E-06  0.2494812E+04  0.7818609E-02  0.8404836E-01
       -2   -1    0    0    0  501  0.00000000000E+00  0.00000000000E+00  0.14516336595E+04  0.14516336595E+04  0.25500000920E-02 0.  1.
        2   -1    0    0  501    0  0.00000000000E+00  0.00000000000E+00 -0.10719104641E+04  0.10719104641E+04  0.25500000920E-02 0. -1.
    10030    2    1    2    0    0  0.00000000000E+00  0.00000000000E+00  0.37972319543E+03  0.25235441236E+04  0.24948116640E+04 0.  0.
        3    1    3    3  502    0  0.23006900757E+03  0.55667552704E+01  0.14299741056E+04  0.14483744992E+04  0.10100000352E+00 0.  1.
       -3    1    3    3    0  502 -0.23006900757E+03 -0.55667552704E+01 -0.10502509101E+04  0.10751696245E+04  0.10100000352E+00 0. -1.
</event>
<event>
 5   0  0.8579923E-06  0.2496824E+04  0.7818609E-02  0.8404118E-01
       -2   -1    0    0    0  501  0.00000000000E+00  0.00000000000E+00  0.12565122333E+04  0.12565122333E+04  0.25500000920E-02 0.  1.
        2   -1    0    0  501    0  0.00000000000E+00  0.00000000000E+00 -0.12403640489E+04  0.12403640489E+04  0.25500000920E-02 0. -1.
    10030    2    1    2    0    0  0.00000000000E+00  0.00000000000E+00  0.16148184474E+02  0.24968762822E+04  0.24968240636E+04 0.  0.
        1    1    3    3  502    0  0.11568177861E+04 -0.44583739536E+03 -0.13867442943E+03  0.12474890664E+04  0.50400001928E-02 0.  1.
       -1    1    3    3    0  502 -0.11568177861E+04  0.44583739536E+03  0.15482261391E+03  0.12493872158E+04  0.50400001928E-02 0. -1.
</event>
<event>
 5   0  0.8354653E-06  0.2500522E+04  0.7818609E-02  0.8402800E-01
        2   -1    0    0  501    0  0.00000000000E+00  0.00000000000E+00  0.23651590709E+04  0.23651590709E+04  0.25500000920E-02 0. -1.
       -2   -1    0    0    0  501  0.00000000000E+00  0.00000000000E+00 -0.66090780929E+03  0.66090780930E+03  0.25500000920E-02 0.  1.
    10030    2    1    2    0    0  0.00000000000E+00  0.00000000000E+00  0.17042512616E+04  0.30260668802E+04  0.25005216257E+04 0.  0.
        3    1    3    3  502    0 -0.74532678758E+03 -0.98953791286E+03  0.64798681552E+03  0.13980644565E+04  0.10100000352E+00 0. -1.
       -3    1    3    3    0  502  0.74532678758E+03  0.98953791286E+03  0.10562644461E+04  0.16280024237E+04  0.10100000352E+00 0.  1.
</event>
<event>
 5   0  0.3522870E-06  0.2500796E+04  0.7818609E-02  0.8402702E-01
        1   -1    0    0  501    0  0.00000000000E+00  0.00000000000E+00  0.16455117676E+04  0.16455117676E+04  0.50400001928E-02 0.  1.
       -1   -1    0    0    0  501  0.00000000000E+00  0.00000000000E+00 -0.95015708307E+03  0.95015708309E+03  0.50400001928E-02 0. -1.
    10030    2    1    2    0    0  0.00000000000E+00  0.00000000000E+00  0.69535468450E+03  0.25956688507E+04  0.25007956024E+04 0.  0.
        2    1    3    3  502    0  0.11019376349E+04  0.23741508298E+03  0.90937516442E+03  0.14483078618E+04  0.25500000920E-02 0.  1.
       -2    1    3    3    0  502 -0.11019376349E+04 -0.23741508298E+03 -0.21402047992E+03  0.11473609889E+04  0.25500000920E-02 0. -1.
</event>
<event>
 5   0  0.8948286E-06  0.2494931E+04  0.7818609E-02  0.8404794E-01
       -2   -1    0    0    0  501  0.00000000000E+00  0.00000000000E+00  0.68699780785E+03  0.68699780785E+03  0.25500000920E-02 0. -1.
        2   -1    0    0  501    0  0.00000000000E+00  0.00000000000E+00 -0.22651754268E+04  0.22651754268E+04  0.25500000920E-02 0.  1.
    10030    2    1    2    0    0  0.00000000000E+00  0.00000000000E+00 -0.15781776190E+04  0.29521732347E+04  0.24949313038E+04 0.  0.
        4    1    3    3  502    0 -0.19930329539E+03  0.11898088025E+04 -0.41340875053E+03  0.12752549541E+04  0.12699999809E+01 0. -1.
       -4    1    3    3    0  502  0.19930329539E+03 -0.11898088025E+04 -0.11647688684E+04  0.16769182806E+04  0.12699999809E+01 0.  1.
</event>
<event>
 5   0  0.3642184E-06  0.2506736E+04  0.7818609E-02  0.8400590E-01
        1   -1    0    0  501    0  0.00000000000E+00  0.00000000000E+00  0.26716368474E+04  0.26716368474E+04  0.50400001928E-02 0.  1.
       -1   -1    0    0    0  501  0.00000000000E+00  0.00000000000E+00 -0.58800309998E+03  0.58800310000E+03  0.50400001928E-02 0. -1.
    10030    2    1    2    0    0  0.00000000000E+00  0.00000000000E+00  0.20836337474E+04  0.32596399474E+04  0.25067355252E+04 0.  0.
        5    1    3    3  502    0 -0.10287435831E+04 -0.92432814074E+02  0.19650227496E+04  0.22199535313E+04  0.46999998093E+01 0.  1.
       -5    1    3    3    0  502  0.10287435831E+04  0.92432814074E+02  0.11861099781E+03  0.10396864160E+04  0.46999998093E+01 0. -1.
</event>
<event>
 5   0  0.2901250E-06  0.2497218E+04  0.7818609E-02  0.8403977E-01
        4   -1    0    0  501    0  0.00000000000E+00  0.00000000000E+00  0.95586821383E+03  0.95586905751E+03  0.12699999809E+01 0. -1.
       -4   -1    0    0    0  501  0.00000000000E+00  0.00000000000E+00 -0.16310016786E+04  0.16310021731E+04  0.12699999809E+01 0.  1.
    10030    2    1    2    0    0  0.00000000000E+00  0.00000000000E+00 -0.67513346480E+03  0.25868712306E+04  0.24972179657E+04 0.  0.
        3    1    3    3  502    0  0.24024062398E+03 -0.76712139868E+03 -0.13272908770E+04  0.15517383414E+04  0.10100000352E+00 0.  1.
       -3    1    3    3    0  502 -0.24024062398E+03  0.76712139868E+03  0.65215741224E+03  0.10351328892E+04  0.10100000352E+00 0. -1.
</event>
<event>
 5   0  0.2901250E-06  0.2449096E+04  0.7818609E-02  0.8421348E-01
       -3   -1    0    0    0  501  0.00000000000E+00  0.00000000000E+00  0.72761300465E+03  0.72761301166E+03  0.10100000352E+00 0.  1.
        3   -1    0    0  501    0  0.00000000000E+00  0.00000000000E+00 -0.20608723979E+04  0.20608724004E+04  0.10100000352E+00 0. -1.
    10030    2    1    2    0    0  0.00000000000E+00  0.00000000000E+00 -0.13332593933E+04  0.27884854121E+04  0.24490958094E+04 0.  0.
        3    1    3    3  502    0 -0.57736440881E+03 -0.69356056498E+03 -0.16090676858E+04  0.18448508736E+04  0.10100000352E+00 0. -1.
       -3    1    3    3    0  502  0.57736440881E+03  0.69356056498E+03  0.27580829255E+03  0.94363453853E+03  0.10100000352E+00 0.  1.
</event>
<event>
 5   0  0.3522870E-06  0.2502322E+04  0.7818609E-02  0.8402159E-01
       -1   -1    0    0    0  501  0.00000000000E+00  0.00000000000E+00  0.12841534590E+04  0.12841534590E+04  0.50400001928E-02 0.  1.
        1   -1    0    0  501    0  0.00000000000E+00  0.00000000000E+00 -0.12190165043E+04  0.12190165043E+04  0.50400001928E-02 0. -1.
    10030    2    1    2    0    0  0.00000000000E+00  0.00000000000E+00  0.65136954659E+02  0.25031699633E+04  0.25023223299E+04 0.  0.
        2    1    3    3  502    0  0.94356194507E+03 -0.65104158388E+03  0.53397670497E+03  0.12646325196E+04  0.25500000920E-02 0.  1.
       -2    1    3    3    0  502 -0.94356194507E+03  0.65104158388E+03 -0.46883975032E+03  0.12385374438E+04  0.25500000920E-02 0. -1.
</event>
<event>
 5   0  0.3484857E-06  0.2465151E+04  0.7818609E-02  0.8415507E-01
        1   -1    0    0  501    0  0.00000000000E+00  0.00000000000E+00  0.18648111743E+04  0.18648111743E+04  0.50400001928E-02 0.  1.
       -1   -1    0    0    0  501  0.00000000000E+00  0.00000000000E+00 -0.81468995498E+03  0.81468995499E+03  0.50400001928E-02 0. -1.
    10030    2    1    2    0    0  0.00000000000E+00  0.00000000000E+00  0.10501212193E+04  0.26795011293E+04  0.24651514612E+04 0.  0.
        3    1    3    3  502    0  0.37454195024E+03  0.81310759855E+03  0.14459708274E+04  0.17006637772E+04  0.10100000352E+00 0.  1.
       -3    1    3    3    0  502 -0.37454195024E+03 -0.81310759855E+03 -0.39584960810E+03  0.97883735204E+03  0.10100000352E+00 0. -1.
</event>
<event>
 5   0  0.3642184E-06  0.2505109E+04  0.7818609E-02  0.8401168E-01
        1   -1    0    0  501    0  0.00000000000E+00  0.00000000000E+00  0.12079576396E+04  0.12079576396E+04  0.50400001928E-02 0. -1.
       -1   -1    0    0    0  501  0.00000000000E+00  0.00000000000E+00 -0.12987979249E+04  0.12987979249E+04  0.50400001928E-02 0.  1.
    10030    2    1    2    0    0  0.00000000000E+00  0.00000000000E+00 -0.90840285355E+02  0.25067555645E+04  0.25051090800E+04 0.  0.
        5    1    3    3  502    0  0.80299627082E+03 -0.50194447078E+03  0.77494765003E+03  0.12236491380E+04  0.46999998093E+01 0. -1.
       -5    1    3    3    0  502 -0.80299627082E+03  0.50194447078E+03 -0.86578793539E+03  0.12831064265E+04  0.46999998093E+01 0.  1.
</event>
<event>
 5   0  0.8407986E-06  0.2498531E+04  0.7818609E-02  0.8403509E-01
       -2   -1    0    0    0  501  0.00000000000E+00  0.00000000000E+00  0.15424310993E+04  0.15424310993E+04  0.25500000920E-02 0.  1.
        2   -1    0    0  501    0  0.00000000000E+00  0.00000000000E+00 -0.10118212819E+04  0.10118212819E+04  0.25500000920E-02 0. -1.
    10030    2    1    2    0    0  0.00000000000E+00  0.00000000000E+00  0.53060981732E+03  0.25542523812E+04  0.24985312583E+04 0.  0.
        5    1    3    3  502    0 -0.54339628106E+03 -0.11248813530E+04  0.26757834439E+03  0.12775984647E+04  0.46999998093E+01 0.  1.
       -5    1    3    3    0  502  0.54339628106E+03  0.11248813530E+04  0.26303147293E+03  0.12766539165E+04  0.46999998093E+01 0. -1.
</event>
<event>
 5   0  0.3424193E-06  0.2504581E+04  0.7818609E-02  0.8401355E-01
        1   -1    0    0  501    0  0.00000000000E+00  0.00000000000E+00  0.12544410250E+04  0.12544410250E+04  0.50400001928E-02 0.  1.
       -1   -1    0    0    0  501  0.00000000000E+00  0.00000000000E+00 -0.12501438746E+04  0.12501438746E+04  0.50400001928E-02 0. -1.
    10030    2    1    2    0    0  0.00000000000E+00  0.00000000000E+00  0.42971504639E+01  0.25045848996E+04  0.25045812133E+04 0.  0.
        1    1    3    3  502    0  0.11786755147E+04 -0.23134086771E+03  0.35632023775E+03  0.12529001070E+04  0.50400001928E-02 0. -1.
       -1    1    3    3    0  502 -0.11786755147E+04  0.23134086771E+03 -0.35202308729E+03  0.12516847926E+04  0.50400001928E-02 0.  1.
</event>
<event>
 5   0  0.3642184E-06  0.2513990E+04  0.7818609E-02  0.8398018E-01
        1   -1    0    0  501    0  0.00000000000E+00  0.00000000000E+00  0.13524614638E+04  0.13524614638E+04  0.50400001928E-02 0.  1.
       -1   -1    0    0    0  501  0.00000000000E+00  0.00000000000E+00 -0.11682670652E+04  0.11682670653E+04  0.50400001928E-02 0. -1.
    10030    2    1    2    0    0  0.00000000000E+00  0.00000000000E+00  0.18419439857E+03  0.25207285291E+04  0.25139898052E+04 0.  0.
        5    1    3    3  502    0  0.32567720385E+03 -0.18449006779E+03 -0.11110825681E+04  0.11724456446E+04  0.46999998093E+01 0. -1.
       -5    1    3    3    0  502 -0.32567720385E+03  0.18449006779E+03  0.12952769667E+04  0.13482828845E+04  0.46999998093E+01 0.  1.
</event>
<event>
 5   0  0.3481387E-06  0.2499831E+04  0.7818609E-02  0.8403046E-01
        1   -1    0    0  501    0  0.00000000000E+00  0.00000000000E+00  0.61315596142E+03  0.61315596144E+03  0.50400001928E-02 0. -1.
       -1   -1    0    0    0  501  0.00000000000E+00  0.00000000000E+00 -0.25479471825E+04  0.25479471825E+04  0.50400001928E-02 0.  1.
    10030    2    1    2    0    0  0.00000000000E+00  0.00000000000E+00 -0.19347912211E+04  0.31611031440E+04  0.24998311978E+04 0.  0.
        4    1    3    3  502    0 -0.70994842004E+03 -0.40519298843E+03 -0.21630784516E+04  0.23123836441E+04  0.12699999809E+01 0.  1.
       -4    1    3    3    0  502  0.70994842004E+03  0.40519298843E+03  0.22828723045E+03  0.84871949988E+03  0.12699999809E+01 0. -1.
</event>
<event>
 5   0  0.3522870E-06  0.2519963E+04  0.7818609E-02  0.8395908E-01
        1   -1    0    0  501    0  0.00000000000E+00  0.00000000000E+00  0.81078888061E+03  0.81078888062E+03  0.50400001928E-02 0.  1.
       -1   -1    0    0    0  501  0.00000000000E+00  0.00000000000E+00 -0.19580356860E+04  0.19580356860E+04  0.50400001928E-02 0. -1.
    10030    2    1    2    0    0  0.00000000000E+00  0.00000000000E+00 -0.11472468054E+04  0.27688245666E+04  0.25199631442E+04 0.  0.
        2    1    3    3  502    0 -0.33421053352E+03  0.24964904515E+03 -0.18799570378E+04  0.19256842395E+04  0.25500000920E-02 0. -1.
       -2    1    3    3    0  502  0.33421053352E+03 -0.24964904515E+03  0.73271023241E+03  0.84314032708E+03  0.25500000920E-02 0.  1.
</event>
<event>
 5   0  0.8056723E-06  0.2511291E+04  0.7818609E-02  0.8398974E-01
       -2   -1    0    0    0  501  0.00000000000E+00  0.00000000000E+00  0.66125320069E+03  0.66125320069E+03  0.25500000920E-02 0. -1.
        2   -1    0    0  501    0  0.00000000000E+00  0.00000000000E+00 -0.23843301612E+04  0.23843301612E+04  0.25500000920E-02 0.  1.
    10030    2    1    2    0    0  0.00000000000E+00  0.00000000000E+00 -0.17230769606E+04  0.30455833619E+04  0.25112912620E+04 0.  0.
        2    1    3    3  502    0 -0.56537972228E+03 -0.66390069935E+03 -0.19572066341E+04  0.21426796722E+04  0.25500000920E-02 0.  1.
       -2    1    3    3    0  502  0.56537972228E+03  0.66390069935E+03  0.23412967354E+03  0.90290368977E+03  0.25500000920E-02 0. -1.
</event>
<event>
 5   0  0.8354653E-06  0.2502180E+04  0.7818609E-02  0.8402209E-01
        2   -1    0    0  501    0  0.00000000000E+00  0.00000000000E+00  0.20525600286E+04  0.20525600286E+04  0.25500000920E-02 0. -1.
       -2   -1    0    0    0  501  0.00000000000E+00  0.00000000000E+00 -0.76257281214E+03  0.76257281214E+03  0.25500000920E-02 0.  1.
    10030    2    1    2    0    0  0.00000000000E+00  0.00000000000E+00  0.12899872165E+04  0.28151328408E+04  0.25021802278E+04 0.  0.
        3    1    3    3  502    0  0.22905650502E+03  0.10726431833E+04 -0.32105495742E+02  0.10972971586E+04  0.10100000352E+00 0.  1.
       -3    1    3    3    0  502 -0.22905650502E+03 -0.10726431833E+04  0.13220927122E+04  0.17178356822E+04  0.10100000352E+00 0. -1.
</event>
<event>
 5   0  0.8948286E-06  0.2502664E+04  0.7818609E-02  0.8402037E-01
       -2   -1    0    0    0  501  0.00000000000E+00  0.00000000000E+00  0.11935517541E+04  0.11935517541E+04  0.25500000920E-02 0.  1.
        2   -1    0    0  501    0  0.00000000000E+00  0.00000000000E+00 -0.13119095986E+04  0.13119095986E+04  0.25500000920E-02 0. -1.
    10030    2    1    2    0    0  0.00000000000E+00  0.00000000000E+00 -0.11835784459E+03  0.25054613527E+04  0.25026641825E+04 0.  0.
        4    1    3    3  502    0  0.49626780069E+03  0.78769394609E+03 -0.89622759891E+03  0.12922728058E+04  0.12699999809E+01 0. -1.
       -4    1    3    3    0  502 -0.49626780069E+03 -0.78769394609E+03  0.77786975432E+03  0.12131885469E+04  0.12699999809E+01 0.  1.
</event>
<event>
 5   0  0.3642184E-06  0.2497274E+04  0.7818609E-02  0.8403957E-01
        1   -1    0    0  501    0  0.00000000000E+00  0.00000000000E+00  0.13269355987E+04  0.13269355987E+04  0.50400001928E-02 0. -1.
       -1   -1    0    0    0  501  0.00000000000E+00  0.00000000000E+00 -0.11749588145E+04  0.11749588145E+04  0.50400001928E-02 0.  1.
    10030    2    1    2    0    0  0.00000000000E+00  0.00000000000E+00  0.15197678413E+03  0.25018944132E+04  0.24972742565E+04 0.  0.
        5    1    3    3  502    0  0.11335386682E+04  0.50285124700E+03  0.22221492060E+03  0.12598296908E+04  0.46999998093E+01 0.  1.
       -5    1    3    3    0  502 -0.11335386682E+04 -0.50285124700E+03 -0.70238136473E+02  0.12420647224E+04  0.46999998093E+01 0. -1.
</event>
<event>
 5   0  0.8579923E-06  0.2499953E+04  0.7818609E-02  0.8403002E-01
       -2   -1    0    0    0  501  0.00000000000E+00  0.00000000000E+00  0.11280296222E+04  0.11280296222E+04  0.25500000920E-02 0.  1.
        2   -1    0    0  501    0  0.00000000000E+00  0.00000000000E+00 -0.13851063391E+04  0.13851063391E+04  0.25500000920E-02 0. -1.
    10030    2    1    2    0    0  0.00000000000E+00  0.00000000000E+00 -0.25707671689E+03  0.25131359613E+04  0.24999527839E+04 0.  0.
        1    1    3    3  502    0  0.26950706534E+03 -0.84746309062E+03  0.75450903244E+03  0.11662382382E+04  0.50400001928E-02 0.  1.
       -1    1    3    3    0  502 -0.26950706534E+03  0.84746309062E+03 -0.10115857493E+04  0.13468977231E+04  0.50400001928E-02 0. -1.
</event>
<event>
 5   0  0.8407986E-06  0.2509763E+04  0.7818609E-02  0.8399516E-01
        2   -1    0    0  501    0  0.00000000000E+00  0.00000000000E+00  0.29999438520E+04  0.29999438520E+04  0.25500000920E-02 0. -1.
       -2   -1    0    0    0  501  0.00000000000E+00  0.00000000000E+00 -0.52491903908E+03  0.52491903909E+03  0.25500000920E-02 0.  1.
    10030    2    1    2    0    0  0.00000000000E+00  0.00000000000E+00  0.24750248129E+04  0.35248628911E+04  0.25097630519E+04 0.  0.
        5    1    3    3  502    0  0.10709776158E+03 -0.11814071480E+04  0.18123345274E+04  0.21660497015E+04  0.46999998093E+01 0. -1.
       -5    1    3    3    0  502 -0.10709776158E+03  0.11814071480E+04  0.66269028551E+03  0.13588131897E+04  0.46999998093E+01 0.  1.
</event>
<event>
 5   0  0.3481387E-06  0.2528025E+04  0.7818609E-02  0.8393069E-01
       -1   -1    0    0    0  501  0.00000000000E+00  0.00000000000E+00  0.11365647048E+04  0.11365647048E+04  0.50400001928E-02 0. -1.
        1   -1    0    0  501    0  0.00000000000E+00  0.00000000000E+00 -0.14057517622E+04  0.14057517622E+04  0.50400001928E-02 0.  1.
    10030    2    1    2    0    0  0.00000000000E+00  0.00000000000E+00 -0.26918705738E+03  0.25423164670E+04  0.25280251871E+04 0.  0.
        4    1    3    3  502    0 -0.72366555550E+03 -0.10032525566E+04  0.12671900084E+03  0.12434897855E+04  0.12699999809E+01 0. -1.
       -4    1    3    3    0  502  0.72366555550E+03  0.10032525566E+04 -0.39590605823E+03  0.12988266815E+04  0.12699999809E+01 0.  1.
</event>
<event>
 5   0  0.3522870E-06  0.2501813E+04  0.7818609E-02  0.8402340E-01
       -1   -1    0    0    0  501  0.00000000000E+00  0.00000000000E+00  0.13513622394E+04  0.13513622394E+04  0.50400001928E-02 0.  1.
        1   -1    0    0  501    0  0.00000000000E+00  0.00000000000E+00 -0.11579183257E+04  0.11579183257E+04  0.50400001928E-02 0. -1.
    10030    2    1    2    0    0  0.00000000000E+00  0.00000000000E+00  0.19344391372E+03  0.25092805650E+04  0.25018130239E+04 0.  0.
        2    1    3    3  502    0 -0.17983656380E+03 -0.64374613023E+03  0.11572411795E+04  0.13363971781E+04  0.25500000920E-02 0. -1.
       -2    1    3    3    0  502  0.17983656380E+03  0.64374613023E+03 -0.96379726583E+03  0.11728833870E+04  0.25500000920E-02 0.  1.
</event>
<event>
 5   0  0.3522870E-06  0.2501698E+04  0.7818609E-02  0.8402381E-01
        1   -1    0    0  501    0  0.00000000000E+00  0.00000000000E+00  0.16993405864E+04  0.16993405864E+04  0.50400001928E-02 0. -1.
       -1   -1    0    0    0  501  0.00000000000E+00  0.00000000000E+00 -0.92072366812E+03  0.92072366813E+03  0.50400001928E-02 0.  1.
    10030    2    1    2    0    0  0.00000000000E+00  0.00000000000E+00  0.77861691829E+03  0.26200642546E+04  0.25016979019E+04 0.  0.
        2    1    3    3  502    0  0.14106691036E+03  0.72442048638E+02 -0.91015314267E+03  0.92386496130E+03  0.25500000920E-02 0.  1.
       -2    1    3    3    0  502 -0.14106691036E+03 -0.72442048638E+02  0.16887700610E+04  0.16961992933E+04  0.25500000920E-02 0. -1.
</event>
<event>
 5   0  0.3484857E-06  0.2494361E+04  0.7818609E-02  0.8404997E-01
        1   -1    0    0  501    0  0.00000000000E+00  0.00000000000E+00  0.15544181345E+04  0.15544181345E+04  0.50400001928E-02 0.  1.
       -1   -1    0    0    0  501  0.00000000000E+00  0.00000000000E+00 -0.10006695286E+04  0.10006695286E+04  0.50400001928E-02 0. -1.
    10030    2    1    2    0    0  0.00000000000E+00  0.00000000000E+00  0.55374860584E+03  0.25550876631E+04  0.24943607292E+04 0.  0.
        3    1    3    3  502    0 -0.11727649419E+04  0.12886167954E+02  0.71136497760E+03  0.13717083523E+04  0.10100000352E+00 0.  1.
       -3    1    3    3    0  502  0.11727649419E+04 -0.12886167954E+02 -0.15761637176E+03  0.11833793108E+04  0.10100000352E+00 0. -1.
</event>
<event>
 5   0  0.3522870E-06  0.2546843E+04  0.7818609E-02  0.8386485E-01
       -1   -1    0    0    0  501  0.00000000000E+00  0.00000000000E+00  0.10744940882E+04  0.10744940882E+04  0.50400001928E-02 0.  1.
        1   -1    0    0  501    0  0.00000000000E+00  0.00000000000E+00 -0.15091777333E+04  0.15091777333E+04  0.50400001928E-02 0. -1.
    10030    2    1    2    0    0  0.00000000000E+00  0.00000000000E+00 -0.43468364517E+03  0.25836718215E+04  0.25468431852E+04 0.  0.
        2    1    3    3  502    0 -0.37374469016E+03  0.58150074447E+03  0.86759717140E+03  0.11093029618E+04  0.25500000920E-02 0.  1.
       -2    1    3    3    0  502  0.37374469016E+03 -0.58150074447E+03 -0.13022808166E+04  0.14743688597E+04  0.25500000920E-02 0. -1.
</event>
<event>
 5   0  0.8056723E-06  0.2509709E+04  0.7818609E-02  0.8399535E-01
        2   -1    0    0  501    0  0.00000000000E+00  0.00000000000E+00  0.18004726221E+04  0.18004726221E+04  0.25500000920E-02 0.  1.
       -2   -1    0    0    0  501  0.00000000000E+00  0.00000000000E+00 -0.87458145808E+03  0.87458145808E+03  0.25500000920E-02 0. -1.
    10030    2    1    2    0    0  0.00000000000E+00  0.00000000000E+00  0.92589116403E+03  0.26750540802E+04  0.25097091234E+04 0.  0.
        2    1    3    3  502    0  0.97990419749E+03  0.58187797341E+03  0.10227780420E+04  0.15312965537E+04  0.25500000920E-02 0.  1.
       -2    1    3    3    0  502 -0.97990419749E+03 -0.58187797341E+03 -0.96886877991E+02  0.11437575265E+04  0.25500000920E-02 0. -1.
</event>
<event>
 5   0  0.8056723E-06  0.2508156E+04  0.7818609E-02  0.8400086E-01
        2   -1    0    0  501    0  0.00000000000E+00  0.00000000000E+00  0.17370756045E+04  0.17370756045E+04  0.25500000920E-02 0.  1.
       -2   -1    0    0    0  501  0.00000000000E+00  0.00000000000E+00 -0.90537899752E+03  0.90537899752E+03  0.25500000920E-02 0. -1.
    10030    2    1    2    0    0  0.00000000000E+00  0.00000000000E+00  0.83169660697E+03  0.26424546020E+04  0.25081561111E+04 0.  0.
        2    1    3    3  502    0  0.10276704599E+04 -0.38138219873E+03  0.10576921018E+04  0.15232437553E+04  0.25500000920E-02 0.  1.
       -2    1    3    3    0  502 -0.10276704599E+04  0.38138219873E+03 -0.22599549486E+03  0.11192108467E+04  0.25500000920E-02 0. -1.
</event>
<event>
 5   0  0.8354653E-06  0.2510161E+04  0.7818609E-02  0.8399375E-01
       -2   -1    0    0    0  501  0.00000000000E+00  0.00000000000E+00  0.12154801719E+04  0.12154801719E+04  0.25500000920E-02 0. -1.
        2   -1    0    0  501    0  0.00000000000E+00  0.00000000000E+00 -0.12959710459E+04  0.12959710460E+04  0.25500000920E-02 0.  1.
    10030    2    1    2    0    0  0.00000000000E+00  0.00000000000E+00 -0.80490874024E+02  0.25114512179E+04  0.25101610385E+04 0.  0.
        3    1    3    3  502    0 -0.84284235013E+03  0.86166130875E+03  0.30976813397E+03  0.12445078325E+04  0.10100000352E+00 0. -1.
       -3    1    3    3    0  502  0.84284235013E+03 -0.86166130875E+03 -0.39025900800E+03  0.12669433854E+04  0.10100000352E+00 0.  1.
</event>
<event>
 5   0  0.3424193E-06  0.2499257E+04  0.7818609E-02  0.8403250E-01
        1   -1    0    0  501    0  0.00000000000E+00  0.00000000000E+00  0.13818064916E+04  0.13818064916E+04  0.50400001928E-02 0.  1.
       -1   -1    0    0    0  501  0.00000000000E+00  0.00000000000E+00 -0.11300945570E+04  0.11300945570E+04  0.50400001928E-02 0. -1.
    10030    2    1    2    0    0  0.00000000000E+00  0.00000000000E+00  0.25171193458E+03  0.25119010486E+04  0.24992574857E+04 0.  0.
        1    1    3    3  502    0 -0.12274794110E+04 -0.20097071452E+03  0.24678532525E+03  0.12680685823E+04  0.50400001928E-02 0.  1.
       -1    1    3    3    0  502  0.12274794110E+04  0.20097071452E+03  0.49266093337E+01  0.12438324663E+04  0.50400001928E-02 0. -1.
</event>
<event>
 5   0  0.3522870E-06  0.2485859E+04  0.7818609E-02  0.8408041E-01
       -1   -1    0    0    0  501  0.00000000000E+00  0.00000000000E+00  0.11609796694E+04  0.11609796694E+04  0.50400001928E-02 0. -1.
        1   -1    0    0  501    0  0.00000000000E+00  0.00000000000E+00 -0.13306640265E+04  0.13306640265E+04  0.50400001928E-02 0.  1.
    10030    2    1    2    0    0  0.00000000000E+00  0.00000000000E+00 -0.16968435712E+03  0.24916436959E+04  0.24858591123E+04 0.  0.
        2    1    3    3  502    0 -0.81431613509E+00 -0.55332385456E+02 -0.13294286449E+04  0.13305798953E+04  0.25500000920E-02 0.  1.
       -2    1    3    3    0  502  0.81431613509E+00  0.55332385456E+02  0.11597442878E+04  0.11610638006E+04  0.25500000920E-02 0. -1.
</event>
<event>
 5   0  0.3522870E-06  0.2515712E+04  0.7818609E-02  0.8397409E-01
       -1   -1    0    0    0  501  0.00000000000E+00  0.00000000000E+00  0.15798913519E+04  0.15798913519E+04  0.50400001928E-02 0. -1.
        1   -1    0    0  501    0  0.00000000000E+00  0.00000000000E+00 -0.10014623919E+04  0.10014623919E+04  0.50400001928E-02 0.  1.
    10030    2    1    2    0    0  0.00000000000E+00  0.00000000000E+00  0.57842896000E+03  0.25813537438E+04  0.25157120441E+04 0.  0.
        2    1    3    3  502    0  0.50568960152E+03  0.11440731756E+04  0.42524963712E+03  0.13211595885E+04  0.25500000920E-02 0.  1.
       -2    1    3    3    0  502 -0.50568960152E+03 -0.11440731756E+04  0.15317932287E+03  0.12601941554E+04  0.25500000920E-02 0. -1.
</event>
<event>
 5   0  0.8354653E-06  0.2496079E+04  0.7818609E-02  0.8404384E-01
       -2   -1    0    0    0  501  0.00000000000E+00  0.00000000000E+00  0.18879308626E+04  0.18879308626E+04  0.25500000920E-02 0.  1.
        2   -1    0    0  501    0  0.00000000000E+00  0.00000000000E+00 -0.82503149718E+03  0.82503149719E+03  0.25500000920E-02 0. -1.
    10030    2    1    2    0    0  0.00000000000E+00  0.00000000000E+00  0.10628993654E+04  0.27129623598E+04  0.24960788659E+04 0.  0.
        3    1    3    3  502    0 -0.11689467984E+04  0.10735746703E+03  0.99211678292E+03  0.15369638787E+04  0.10100000352E+00 0.  1.
       -3    1    3    3    0  502  0.11689467984E+04 -0.10735746703E+03  0.70782582512E+02  0.11759984811E+04  0.10100000352E+00 0. -1.
</event>
<event>
 5   0  0.8056723E-06  0.2518615E+04  0.7818609E-02  0.8396384E-01
        2   -1    0    0  501    0  0.00000000000E+00  0.00000000000E+00  0.18272870989E+04  0.18272870989E+04  0.25500000920E-02 0.  1.
       -2   -1    0    0    0  501  0.00000000000E+00  0.00000000000E+00 -0.86787417781E+03  0.86787417781E+03  0.25500000920E-02 0. -1.
    10030    2    1    2    0    0  0.00000000000E+00  0.00000000000E+00  0.95941292106E+03  0.26951612767E+04  0.25186149277E+04 0.  0.
        2    1    3    3  502    0 -0.59233658734E+03  0.21564215073E+03 -0.68689080861E+03  0.93229992644E+03  0.25500000920E-02 0. -1.
       -2    1    3    3    0  502  0.59233658734E+03 -0.21564215073E+03  0.16463037297E+04  0.17628613502E+04  0.25500000920E-02 0.  1.
</event>
<event>
 5   0  0.8056723E-06  0.2501704E+04  0.7818609E-02  0.8402379E-01
       -2   -1    0    0    0  501  0.00000000000E+00  0.00000000000E+00  0.21022951485E+04  0.21022951485E+04  0.25500000920E-02 0.  1.
        2   -1    0    0  501    0  0.00000000000E+00  0.00000000000E+00 -0.74424901936E+03  0.74424901936E+03  0.25500000920E-02 0. -1.
    10030    2    1    2    0    0  0.00000000000E+00  0.00000000000E+00  0.13580461291E+04  0.28465441678E+04  0.25017043012E+04 0.  0.
        2    1    3    3  502    0  0.84775774495E+03  0.84691679051E+03  0.27087253600E+03  0.12285492155E+04  0.25500000920E-02 0. -1.
       -2    1    3    3    0  502 -0.84775774495E+03 -0.84691679051E+03  0.10871735931E+04  0.16179949523E+04  0.25500000920E-02 0.  1.
</event>
<event>
 5   0  0.3481387E-06  0.2500527E+04  0.7818609E-02  0.8402798E-01
       -1   -1    0    0    0  501  0.00000000000E+00  0.00000000000E+00  0.63953617714E+03  0.63953617716E+03  0.50400001928E-02 0. -1.
        1   -1    0    0  501    0  0.00000000000E+00  0.00000000000E+00 -0.24442061161E+04  0.24442061161E+04  0.50400001928E-02 0.  1.
    10030    2    1    2    0    0  0.00000000000E+00  0.00000000000E+00 -0.18046699390E+04  0.30837422933E+04  0.25005265331E+04 0.  0.
        4    1    3    3  502    0 -0.15197001558E+03 -0.12196637779E+04 -0.61981326135E+03  0.13765335843E+04  0.12699999809E+01 0. -1.
       -4    1    3    3    0  502  0.15197001558E+03  0.12196637779E+04 -0.11848566776E+04  0.17072087090E+04  0.12699999809E+01 0.  1.
</event>
<event>
 5   0  0.2901250E-06  0.2487594E+04  0.7818609E-02  0.8407419E-01
       -3   -1    0    0    0  501  0.00000000000E+00  0.00000000000E+00  0.18620051562E+04  0.18620051589E+04  0.10100000352E+00 0. -1.
        3   -1    0    0  501    0  0.00000000000E+00  0.00000000000E+00 -0.83084135073E+03  0.83084135687E+03  0.10100000352E+00 0.  1.
    10030    2    1    2    0    0  0.00000000000E+00  0.00000000000E+00  0.10311638055E+04  0.26928465158E+04  0.24875939307E+04 0.  0.
        4    1    3    3  502    0 -0.10358820379E+04 -0.59154904070E+03  0.89684605193E+03  0.14924196185E+04  0.12699999809E+01 0. -1.
       -4    1    3    3    0  502  0.10358820379E+04  0.59154904070E+03  0.13431775353E+03  0.12004268973E+04  0.12699999809E+01 0.  1.
</event>
<event>
 5   0  0.8579923E-06  0.2497293E+04  0.7818609E-02  0.8403951E-01
        2   -1    0    0  501    0  0.00000000000E+00  0.00000000000E+00  0.13301174679E+04  0.13301174679E+04  0.25500000920E-02 0. -1.
       -2   -1    0    0    0  501  0.00000000000E+00  0.00000000000E+00 -0.11721654621E+04  0.11721654621E+04  0.25500000920E-02 0.  1.
    10030    2    1    2    0    0  0.00000000000E+00  0.00000000000E+00  0.15795200581E+03  0.25022829301E+04  0.24972927394E+04 0.  0.
        1    1    3    3  502    0 -0.12282589479E+04 -0.17762797957E+03  0.21689557116E+03  0.12598473840E+04  0.50400001928E-02 0. -1.
       -1    1    3    3    0  502  0.12282589479E+04  0.17762797957E+03 -0.58943565351E+02  0.12424355461E+04  0.50400001928E-02 0.  1.
</event>
<event>
 5   0  0.8354653E-06  0.2497205E+04  0.7818609E-02  0.8403982E-01
       -2   -1    0    0    0  501  0.00000000000E+00  0.00000000000E+00  0.14592235232E+04  0.14592235232E+04  0.25500000920E-02 0. -1.
        2   -1    0    0  501    0  0.00000000000E+00  0.00000000000E+00 -0.10683817732E+04  0.10683817732E+04  0.25500000920E-02 0.  1.
    10030    2    1    2    0    0  0.00000000000E+00  0.00000000000E+00  0.39084175004E+03  0.25276052965E+04  0.24972046895E+04 0.  0.
        3    1    3    3  502    0 -0.25803153358E+02 -0.11641710809E+04 -0.26067290400E+03  0.11932772023E+04  0.10100000352E+00 0.  1.
       -3    1    3    3    0  502  0.25803153358E+02  0.11641710809E+04  0.65151465404E+03  0.13343280942E+04  0.10100000352E+00 0. -1.
</event>
<event>
 5   0  0.3522870E-06  0.2502965E+04  0.7818609E-02  0.8401930E-01
        1   -1    0    0  501    0  0.00000000000E+00  0.00000000000E+00  0.13522979076E+04  0.13522979076E+04  0.50400001928E-02 0. -1.
       -1   -1    0    0    0  501  0.00000000000E+00  0.00000000000E+00 -0.11581832533E+04  0.11581832533E+04  0.50400001928E-02 0.  1.
    10030    2    1    2    0    0  0.00000000000E+00  0.00000000000E+00  0.19411465430E+03  0.25104811609E+04  0.25029652735E+04 0.  0.
        2    1    3    3  502    0 -0.94079061243E+03 -0.81496163329E+03 -0.33561789493E+02  0.12451408892E+04  0.25500000920E-02 0. -1.
       -2    1    3    3    0  502  0.94079061243E+03  0.81496163329E+03  0.22767644379E+03  0.12653402717E+04  0.25500000920E-02 0.  1.
</event>
<event>
 5   0  0.8354653E-06  0.2495351E+04  0.7818609E-02  0.8404644E-01
       -2   -1    0    0    0  501  0.00000000000E+00  0.00000000000E+00  0.83320114187E+03  0.83320114188E+03  0.25500000920E-02 0.  1.
        2   -1    0    0  501    0  0.00000000000E+00  0.00000000000E+00 -0.18683296376E+04  0.18683296376E+04  0.25500000920E-02 0. -1.
    10030    2    1    2    0    0  0.00000000000E+00  0.00000000000E+00 -0.10351284958E+04  0.27015307795E+04  0.24953511877E+04 0.  0.
        3    1    3    3  502    0 -0.47083802507E+03 -0.10471984771E+04  0.11020124567E+02  0.11482310524E+04  0.10100000352E+00 0. -1.
       -3    1    3    3    0  502  0.47083802507E+03  0.10471984771E+04 -0.10461486203E+04  0.15532997271E+04  0.10100000352E+00 0.  1.
</event>
<event>
 5   0  0.8056723E-06  0.2500268E+04  0.7818609E-02  0.8402890E-01
       -2   -1    0    0    0  501  0.00000000000E+00  0.00000000000E+00  0.18362054938E+04  0.18362054938E+04  0.25500000920E-02 0.  1.
        2   -1    0    0  501    0  0.00000000000E+00  0.00000000000E+00 -0.85112238483E+03  0.85112238483E+03  0.25500000920E-02 0. -1.
    10030    2    1    2    0    0  0.00000000000E+00  0.00000000000E+00  0.98508310893E+03  0.26873278786E+04  0.25002684647E+04 0.  0.
        2    1    3    3  502    0  0.20360467808E+03 -0.10481324505E+04  0.11914190266E+04  0.15998486790E+04  0.25500000920E-02 0.  1.
       -2    1    3    3    0  502 -0.20360467808E+03  0.10481324505E+04 -0.20633591763E+03  0.10874791996E+04  0.25500000920E-02 0. -1.
</event>
<event>
 5   0  0.8354653E-06  0.2491895E+04  0.7818609E-02  0.8405879E-01
        2   -1    0    0  501    0  0.00000000000E+00  0.00000000000E+00  0.16949645101E+04  0.16949645101E+04  0.25500000920E-02 0.  1.
       -2   -1    0    0    0  501  0.00000000000E+00  0.00000000000E+00 -0.91588098109E+03  0.91588098110E+03  0.25500000920E-02 0. -1.
    10030    2    1    2    0    0  0.00000000000E+00  0.00000000000E+00  0.77908352897E+03  0.26108454912E+04  0.24918954700E+04 0.  0.
        3    1    3    3  502    0  0.24039045536E+03  0.62398403865E+03  0.14910304987E+04  0.16341100360E+04  0.10100000352E+00 0.  1.
       -3    1    3    3    0  502 -0.24039045536E+03 -0.62398403865E+03 -0.71194696971E+03  0.97673545518E+03  0.10100000352E+00 0. -1.
</event>
<event>
 5   0  0.3642184E-06  0.2507467E+04  0.7818609E-02  0.8400330E-01
        1   -1    0    0  501    0  0.00000000000E+00  0.00000000000E+00  0.11536263023E+04  0.11536263024E+04  0.50400001928E-02 0. -1.
       -1   -1    0    0    0  501  0.00000000000E+00  0.00000000000E+00 -0.13625271266E+04  0.13625271266E+04  0.50400001928E-02 0.  1.
    10030    2    1    2    0    0  0.00000000000E+00  0.00000000000E+00 -0.20890082427E+03  0.25161534290E+04  0.25074665549E+04 0.  0.
        5    1    3    3  502    0 -0.36279360979E+02  0.94444742890E+03 -0.93103218948E+03  0.13267027421E+04  0.46999998093E+01 0.  1.
       -5    1    3    3    0  502  0.36279360979E+02 -0.94444742890E+03  0.72213136521E+03  0.11894506869E+04  0.46999998093E+01 0. -1.
</event>
<event>
 5   0  0.3642184E-06  0.2497991E+04  0.7818609E-02  0.8403702E-01
       -1   -1    0    0    0  501  0.00000000000E+00  0.00000000000E+00  0.17448508126E+04  0.17448508126E+04  0.50400001928E-02 0. -1.
        1   -1    0    0  501    0  0.00000000000E+00  0.00000000000E+00 -0.89405328227E+03  0.89405328229E+03  0.50400001928E-02 0.  1.
    10030    2    1    2    0    0  0.00000000000E+00  0.00000000000E+00  0.85079753031E+03  0.26389040949E+04  0.24979908696E+04 0.  0.
        5    1    3    3  502    0 -0.27832754926E+03  0.66880386797E+03  0.15002428026E+04  0.16659878137E+04  0.46999998093E+01 0. -1.
       -5    1    3    3    0  502  0.27832754926E+03 -0.66880386797E+03 -0.64944527232E+03  0.97291628120E+03  0.46999998093E+01 0.  1.
</event>
<event>
 5   0  0.8579923E-06  0.2491066E+04  0.7818609E-02  0.8406175E-01
        2   -1    0    0  501    0  0.00000000000E+00  0.00000000000E+00  0.61387181905E+03  0.61387181906E+03  0.25500000920E-02 0.  1.
       -2   -1    0    0    0  501  0.00000000000E+00  0.00000000000E+00 -0.25271599419E+04  0.25271599419E+04  0.25500000920E-02 0. -1.
    10030    2    1    2    0    0  0.00000000000E+00  0.00000000000E+00 -0.19132881228E+04  0.31410317609E+04  0.24910658526E+04 0.  0.
        1    1    3    3  502    0 -0.34858668754E+03 -0.32724647543E+03  0.49354924241E+03  0.68716358250E+03  0.50400001928E-02 0.  1.
       -1    1    3    3    0  502  0.34858668754E+03  0.32724647543E+03 -0.24068373652E+04  0.24538681784E+04  0.50400001928E-02 0. -1.
</event>
<event>
 5   0  0.3522870E-06  0.2495491E+04  0.7818609E-02  0.8404594E-01
       -1   -1    0    0    0  501  0.00000000000E+00  0.00000000000E+00  0.17186383414E+04  0.17186383414E+04  0.50400001928E-02 0. -1.
        1   -1    0    0  501    0  0.00000000000E+00  0.00000000000E+00 -0.90587370458E+03  0.90587370459E+03  0.50400001928E-02 0.  1.
    10030    2    1    2    0    0  0.00000000000E+00  0.00000000000E+00  0.81276463686E+03  0.26245120460E+04  0.24954913594E+04 0.  0.
        2    1    3    3  502    0 -0.11799419600E+04 -0.18010705848E+03  0.78872709896E+03  0.14306613918E+04  0.25500000920E-02 0. -1.
       -2    1    3    3    0  502  0.11799419600E+04  0.18010705848E+03  0.24037537896E+02  0.11938506542E+04  0.25500000920E-02 0.  1.
</event>
<event>
 5   0  0.8056723E-06  0.2500602E+04  0.7818609E-02  0.8402771E-01
       -2   -1    0    0    0  501  0.00000000000E+00  0.00000000000E+00  0.67835937322E+03  0.67835937322E+03  0.25500000920E-02 0. -1.
        2   -1    0    0  501    0  0.00000000000E+00  0.00000000000E+00 -0.23044613399E+04  0.23044613399E+04  0.25500000920E-02 0.  1.
    10030    2    1    2    0    0  0.00000000000E+00  0.00000000000E+00 -0.16261019667E+04  0.29828207131E+04  0.25006022876E+04 0.  0.
        2    1    3    3  502    0  0.61206224711E+03 -0.35850975622E+03  0.41511386293E+03  0.82186918597E+03  0.25500000920E-02 0. -1.
       -2    1    3    3    0  502 -0.61206224711E+03  0.35850975622E+03 -0.20412158296E+04  0.21609515271E+04  0.25500000920E-02 0.  1.
</event>
<event>
 5   0  0.3424193E-06  0.2500900E+04  0.7818609E-02  0.8402665E-01
        1   -1    0    0  501    0  0.00000000000E+00  0.00000000000E+00  0.11654618346E+04  0.11654618346E+04  0.50400001928E-02 0. -1.
       -1   -1    0    0    0  501  0.00000000000E+00  0.00000000000E+00 -0.13416356248E+04  0.13416356248E+04  0.50400001928E-02 0.  1.
    10030    2    1    2    0    0  0.00000000000E+00  0.00000000000E+00 -0.17617379020E+03  0.25070974593E+04  0.25008999313E+04 0.  0.
        1    1    3    3  502    0 -0.87542495291E+03  0.67784904230E+03  0.49453916127E+03  0.12126075847E+04  0.50400001928E-02 0. -1.
       -1    1    3    3    0  502  0.87542495291E+03 -0.67784904230E+03 -0.67071295148E+03  0.12944898747E+04  0.50400001928E-02 0.  1.
</event>
<event>
 5   0  0.8948286E-06  0.2557178E+04  0.7818609E-02  0.8382894E-01
        2   -1    0    0  501    0  0.00000000000E+00  0.00000000000E+00  0.14884066349E+04  0.14884066349E+04  0.25500000920E-02 0.  1.
       -2   -1    0    0    0  501  0.00000000000E+00  0.00000000000E+00 -0.10983487324E+04  0.10983487324E+04  0.25500000920E-02 0. -1.
    10030    2    1    2    0    0  0.00000000000E+00  0.00000000000E+00  0.39005790247E+03  0.25867553672E+04  0.25571777730E+04 0.  0.
        4    1    3    3  502    0 -0.11252909676E+03 -0.55477174044E+03 -0.96468403965E+03  0.11185040862E+04  0.12699999809E+01 0. -1.
       -4    1    3    3    0  502  0.11252909676E+03  0.55477174044E+03  0.13547419421E+04  0.14682512810E+04  0.12699999809E+01 0.  1.
</event>
<event>
 5   0  0.3481387E-06  0.2499864E+04  0.7818609E-02  0.8403034E-01
       -1   -1    0    0    0  501  0.00000000000E+00  0.00000000000E+00  0.15500300113E+04  0.15500300113E+04  0.50400001928E-02 0. -1.
        1   -1    0    0  501    0  0.00000000000E+00  0.00000000000E+00 -0.10079351533E+04  0.10079351534E+04  0.50400001928E-02 0.  1.
    10030    2    1    2    0    0  0.00000000000E+00  0.00000000000E+00  0.54209485792E+03  0.25579651646E+04  0.24998637860E+04 0.  0.
        4    1    3    3  502    0  0.81005615380E+02 -0.41818091422E+03 -0.93137749642E+03  0.10241595776E+04  0.12699999809E+01 0.  1.
       -4    1    3    3    0  502 -0.81005615380E+02  0.41818091422E+03  0.14734723543E+04  0.15338055870E+04  0.12699999809E+01 0. -1.
</event>
<event>
 5   0  0.8407986E-06  0.2447535E+04  0.7818609E-02  0.8421919E-01
       -2   -1    0    0    0  501  0.00000000000E+00  0.00000000000E+00  0.15032879801E+04  0.15032879801E+04  0.25500000920E-02 0. -1.
        2   -1    0    0  501    0  0.00000000000E+00  0.00000000000E+00 -0.99622081516E+03  0.99622081517E+03  0.25500000920E-02 0.  1.
    10030    2    1    2    0    0  0.00000000000E+00  0.00000000000E+00  0.50706716491E+03  0.24995087952E+04  0.24475349043E+04 0.  0.
        5    1    3    3  502    0  0.65412063911E+03  0.93586861239E+03 -0.19611247971E+03  0.11585361733E+04  0.46999998093E+01 0.  1.
       -5    1    3    3    0  502 -0.65412063911E+03 -0.93586861239E+03  0.70317964462E+03  0.13409726219E+04  0.46999998093E+01 0. -1.
</event>
<event>
 5   0  0.3481387E-06  0.2502364E+04  0.7818609E-02  0.8402144E-01
        1   -1    0    0  501    0  0.00000000000E+00  0.00000000000E+00  0.15619882362E+04  0.15619882362E+04  0.50400001928E-02 0.  1.
       -1   -1    0    0    0  501  0.00000000000E+00  0.00000000000E+00 -0.10022206306E+04  0.10022206306E+04  0.50400001928E-02 0. -1.
    10030    2    1    2    0    0  0.00000000000E+00  0.00000000000E+00  0.55976760556E+03  0.25642088669E+04  0.25023643501E+04 0.  0.
        4    1    3    3  502    0 -0.98632554095E+03  0.73995712583E+03  0.49745314775E+03  0.13295998902E+04  0.12699999809E+01 0.  1.
       -4    1    3    3    0  502  0.98632554095E+03 -0.73995712583E+03  0.62314457816E+02  0.12346089767E+04  0.12699999809E+01 0. -1.
</event>
<event>
 5   0  0.3642184E-06  0.2502334E+04  0.7818609E-02  0.8402154E-01
       -1   -1    0    0    0  501  0.00000000000E+00  0.00000000000E+00  0.21858641390E+04  0.21858641390E+04  0.50400001928E-02 0. -1.
        1   -1    0    0  501    0  0.00000000000E+00  0.00000000000E+00 -0.71615587294E+03  0.71615587296E+03  0.50400001928E-02 0.  1.
    10030    2    1    2    0    0  0.00000000000E+00  0.00000000000E+00  0.14697082660E+04  0.29020200119E+04  0.25023344625E+04 0.  0.
        5    1    3    3  502    0  0.74710545536E+03 -0.42805223022E+03  0.17875894653E+04  0.19841606436E+04  0.46999998093E+01 0. -1.
       -5    1    3    3    0  502 -0.74710545536E+03  0.42805223022E+03 -0.31788119924E+03  0.91785936835E+03  0.46999998093E+01 0.  1.
</event>
<event>
 5   0  0.8579923E-06  0.2495529E+04  0.7818609E-02  0.8404580E-01
       -2   -1    0    0    0  501  0.00000000000E+00  0.00000000000E+00  0.72709824776E+03  0.72709824776E+03  0.25500000920E-02 0.  1.
        2   -1    0    0  501    0  0.00000000000E+00  0.00000000000E+00 -0.21412735753E+04  0.21412735753E+04  0.25500000920E-02 0. -1.
    10030    2    1    2    0    0  0.00000000000E+00  0.00000000000E+00 -0.14141753276E+04  0.28683718231E+04  0.24955290137E+04 0.  0.
        1    1    3    3  502    0  0.28908004171E+03 -0.43275195750E+03 -0.20105723337E+04  0.20768347638E+04  0.50400001928E-02 0. -1.
       -1    1    3    3    0  502 -0.28908004171E+03  0.43275195750E+03  0.59639700612E+03  0.79153705926E+03  0.50400001928E-02 0.  1.
</event>
<event>
 5   0  0.3484857E-06  0.2504473E+04  0.7818609E-02  0.8401394E-01
       -1   -1    0    0    0  501  0.00000000000E+00  0.00000000000E+00  0.95086465418E+03  0.95086465419E+03  0.50400001928E-02 0.  1.
        1   -1    0    0  501    0  0.00000000000E+00  0.00000000000E+00 -0.16491268025E+04  0.16491268025E+04  0.50400001928E-02 0. -1.
    10030    2    1    2    0    0  0.00000000000E+00  0.00000000000E+00 -0.69826214833E+03  0.25999914567E+04  0.25044731077E+04 0.  0.
        3    1    3    3  502    0  0.99321979232E+03  0.64099767066E+03  0.79826201508E+02  0.11847935695E+04  0.10100000352E+00 0.  1.
       -3    1    3    3    0  502 -0.99321979232E+03 -0.64099767066E+03 -0.77808834983E+03  0.14151978872E+04  0.10100000352E+00 0. -1.
</event>
<event>
 5   0  0.8579923E-06  0.2500814E+04  0.7818609E-02  0.8402696E-01
       -2   -1    0    0    0  501  0.00000000000E+00  0.00000000000E+00  0.11210418524E+04  0.11210418524E+04  0.25500000920E-02 0.  1.
        2   -1    0    0  501    0  0.00000000000E+00  0.00000000000E+00 -0.13947004968E+04  0.13947004968E+04  0.25500000920E-02 0. -1.
    10030    2    1    2    0    0  0.00000000000E+00  0.00000000000E+00 -0.27365864447E+03  0.25157423492E+04  0.25008139703E+04 0.  0.
        1    1    3    3  502    0 -0.47673706339E+03  0.71950474450E+03  0.77331024795E+03  0.11588675699E+04  0.50400001928E-02 0.  1.
       -1    1    3    3    0  502  0.47673706339E+03 -0.71950474450E+03 -0.10469688924E+04  0.13568747793E+04  0.50400001928E-02 0. -1.
</event>
<event>
 5   0  0.3484857E-06  0.2501389E+04  0.7818609E-02  0.8402491E-01
        1   -1    0    0  501    0  0.00000000000E+00  0.00000000000E+00  0.11098109673E+04  0.11098109674E+04  0.50400001928E-02 0.  1.
       -1   -1    0    0    0  501  0.00000000000E+00  0.00000000000E+00 -0.14094617518E+04  0.14094617518E+04  0.50400001928E-02 0. -1.
    10030    2    1    2    0    0  0.00000000000E+00  0.00000000000E+00 -0.29965078446E+03  0.25192727192E+04  0.25013885026E+04 0.  0.
        3    1    3    3  502    0  0.87305368085E+03 -0.70684947858E+03 -0.70364527617E+03  0.13255095624E+04  0.10100000352E+00 0. -1.
       -3    1    3    3    0  502 -0.87305368085E+03  0.70684947858E+03  0.40399449172E+03  0.11937631568E+04  0.10100000352E+00 0.  1.
</event>
<event>
 5   0  0.3642184E-06  0.2544895E+04  0.7818609E-02  0.8387164E-01
        1   -1    0    0  501    0  0.00000000000E+00  0.00000000000E+00  0.20958918797E+04  0.20958918797E+04  0.50400001928E-02 0.  1.
       -1   -1    0    0    0  501  0.00000000000E+00  0.00000000000E+00 -0.77252175293E+03  0.77252175295E+03  0.50400001928E-02 0. -1.
    10030    2    1    2    0    0  0.00000000000E+00  0.00000000000E+00  0.13233701268E+04  0.28684136327E+04  0.25448945510E+04 0.  0.
        5    1    3    3  502    0 -0.78324528075E+03  0.18171250259E+03  0.17732651688E+04  0.19470449539E+04  0.46999998093E+01 0.  1.
       -5    1    3    3    0  502  0.78324528075E+03 -0.18171250259E+03 -0.44989504205E+03  0.92136867880E+03  0.46999998093E+01 0. -1.
</event>
<event>
 5   0  0.8948286E-06  0.2495385E+04  0.7818609E-02  0.8404632E-01
        2   -1    0    0  501    0  0.00000000000E+00  0.00000000000E+00  0.10666816127E+04  0.10666816127E+04  0.25500000920E-02 0. -1.
       -2   -1    0    0    0  501  0.00000000000E+00  0.00000000000E+00 -0.14594200176E+04  0.14594200176E+04  0.25500000920E-02 0.  1.
    10030    2    1    2    0    0  0.00000000000E+00  0.00000000000E+00 -0.39273840495E+03  0.25261016303E+04  0.24953849386E+04 0.  0.
        4    1    3    3  502    0 -0.58901410529E+03 -0.92250582388E+03 -0.80272501918E+03  0.13573222464E+04  0.12699999809E+01 0.  1.
       -4    1    3    3    0  502  0.58901410529E+03  0.92250582388E+03  0.40998661423E+03  0.11687793838E+04  0.12699999809E+01 0. -1.
</event>
<event>
 5   0  0.8056723E-06  0.2415617E+04  0.7818609E-02  0.8433680E-01
        2   -1    0    0  501    0  0.00000000000E+00  0.00000000000E+00  0.13076793903E+04  0.13076793903E+04  0.25500000920E-02 0. -1.
       -2   -1    0    0    0  501  0.00000000000E+00  0.00000000000E+00 -0.11155649313E+04  0.11155649313E+04  0.25500000920E-02 0.  1.
    10030    2    1    2    0    0  0.00000000000E+00  0.00000000000E+00  0.19211445898E+03  0.24232443216E+04  0.24156169143E+04 0.  0.
        2    1    3    3  502    0  0.71063091517E+03  0.85182846107E+03  0.57526133863E+03  0.12496133932E+04  0.25500000920E-02 0. -1.
       -2    1    3    3    0  502 -0.71063091517E+03 -0.85182846107E+03 -0.38314687965E+03  0.11736309284E+04  0.25500000920E-02 0.  1.
</event>
<event>
 5   0  0.3481387E-06  0.2489641E+04  0.7818609E-02  0.8406685E-01
        1   -1    0    0  501    0  0.00000000000E+00  0.00000000000E+00  0.97764030165E+03  0.97764030166E+03  0.50400001928E-02 0. -1.
       -1   -1    0    0    0  501  0.00000000000E+00  0.00000000000E+00 -0.15850179794E+04  0.15850179794E+04  0.50400001928E-02 0.  1.
    10030    2    1    2    0    0  0.00000000000E+00  0.00000000000E+00 -0.60737767778E+03  0.25626582811E+04  0.24896405006E+04 0.  0.
        4    1    3    3  502    0  0.99279367675E+03  0.28282281337E+03 -0.10197552869E+04  0.14510446190E+04  0.12699999809E+01 0.  1.
       -4    1    3    3    0  502 -0.99279367675E+03 -0.28282281337E+03  0.41237760909E+03  0.11116136621E+04  0.12699999809E+01 0. -1.
</event>
<event>
 5   0  0.8407986E-06  0.2497653E+04  0.7818609E-02  0.8403822E-01
       -2   -1    0    0    0  501  0.00000000000E+00  0.00000000000E+00  0.68489050735E+03  0.68489050735E+03  0.25500000920E-02 0. -1.
        2   -1    0    0  501    0  0.00000000000E+00  0.00000000000E+00 -0.22771054256E+04  0.22771054256E+04  0.25500000920E-02 0.  1.
    10030    2    1    2    0    0  0.00000000000E+00  0.00000000000E+00 -0.15922149182E+04  0.29619959329E+04  0.24976532107E+04 0.  0.
        5    1    3    3  502    0 -0.58701319946E+03 -0.90103642847E+03 -0.15490396083E+04  0.18857351192E+04  0.46999998093E+01 0.  1.
       -5    1    3    3    0  502  0.58701319946E+03  0.90103642847E+03 -0.43175309945E+02  0.10762608137E+04  0.46999998093E+01 0. -1.
</event>
<event>
 5   0  0.3424193E-06  0.2566424E+04  0.7818609E-02  0.8379696E-01
        1   -1    0    0  501    0  0.00000000000E+00  0.00000000000E+00  0.19636257230E+04  0.19636257230E+04  0.50400001928E-02 0. -1.
       -1   -1    0    0    0  501  0.00000000000E+00  0.00000000000E+00 -0.83856759071E+03  0.83856759072E+03  0.50400001928E-02 0.  1.
    10030    2    1    2    0    0  0.00000000000E+00  0.00000000000E+00  0.11250581323E+04  0.28021933137E+04  0.25664238867E+04 0.  0.
        1    1    3    3  502    0  0.10575672096E+04  0.67472436344E+03  0.26766127088E+03  0.12827096029E+04  0.50400001928E-02 0.  1.
       -1    1    3    3    0  502 -0.10575672096E+04 -0.67472436344E+03  0.85739686138E+03  0.15194837108E+04  0.50400001928E-02 0. -1.
</event>
<event>
 5   0  0.8948286E-06  0.2539884E+04  0.7818609E-02  0.8388913E-01
        2   -1    0    0  501    0  0.00000000000E+00  0.00000000000E+00  0.81040058236E+03  0.81040058236E+03  0.25500000920E-02 0. -1.
       -2   -1    0    0    0  501  0.00000000000E+00  0.00000000000E+00 -0.19900680738E+04  0.19900680738E+04  0.25500000920E-02 0.  1.
    10030    2    1    2    0    0  0.00000000000E+00  0.00000000000E+00 -0.11796674914E+04  0.28004686562E+04  0.25398837186E+04 0.  0.
        4    1    3    3  502    0 -0.11055707485E+04  0.14949384133E+03 -0.12588073895E+04  0.16820323259E+04  0.12699999809E+01 0.  1.
       -4    1    3    3    0  502  0.11055707485E+04 -0.14949384133E+03  0.79139898038E+02  0.11184363303E+04  0.12699999809E+01 0. -1.
</event>
<event>
 5   0  0.3522870E-06  0.2502062E+04  0.7818609E-02  0.8402251E-01
        1   -1    0    0  501    0  0.00000000000E+00  0.00000000000E+00  0.11414653428E+04  0.11414653428E+04  0.50400001928E-02 0. -1.
       -1   -1    0    0    0  501  0.00000000000E+00  0.00000000000E+00 -0.13711137804E+04  0.13711137804E+04  0.50400001928E-02 0.  1.
    10030    2    1    2    0    0  0.00000000000E+00  0.00000000000E+00 -0.22964843760E+03  0.25125791232E+04  0.25020622385E+04 0.  0.
        2    1    3    3  502    0 -0.11795471036E+04 -0.28356592890E+03  0.19197238506E+03  0.12282485100E+04  0.25500000920E-02 0. -1.
       -2    1    3    3    0  502  0.11795471036E+04  0.28356592890E+03 -0.42162082266E+03  0.12843306131E+04  0.25500000920E-02 0.  1.
</event>
<event>
 5   0  0.3522870E-06  0.2490063E+04  0.7818609E-02  0.8406534E-01
       -1   -1    0    0    0  501  0.00000000000E+00  0.00000000000E+00  0.72289483499E+03  0.72289483501E+03  0.50400001928E-02 0. -1.
        1   -1    0    0  501    0  0.00000000000E+00  0.00000000000E+00 -0.21443007159E+04  0.21443007159E+04  0.50400001928E-02 0.  1.
    10030    2    1    2    0    0  0.00000000000E+00  0.00000000000E+00 -0.14214058809E+04  0.28671955509E+04  0.24900633825E+04 0.  0.
        2    1    3    3  502    0 -0.56949930209E+03 -0.11046887449E+04 -0.79560846078E+03  0.14756895002E+04  0.25500000920E-02 0.  1.
       -2    1    3    3    0  502  0.56949930209E+03  0.11046887449E+04 -0.62579742012E+03  0.13915060507E+04  0.25500000920E-02 0. -1.
</event>
<event>
 5   0  0.8056723E-06  0.2491762E+04  0.7818609E-02  0.8405926E-01
       -2   -1    0    0    0  501  0.00000000000E+00  0.00000000000E+00  0.88561568443E+03  0.88561568443E+03  0.25500000920E-02 0. -1.
        2   -1    0    0  501    0  0.00000000000E+00  0.00000000000E+00 -0.17527007672E+04  0.17527007672E+04  0.25500000920E-02 0.  1.
    10030    2    1    2    0    0  0.00000000000E+00  0.00000000000E+00 -0.86708508281E+03  0.26383164517E+04  0.24917618583E+04 0.  0.
        2    1    3    3  502    0 -0.27274350792E+03  0.13438471518E+03  0.84572894540E+03  0.89872449721E+03  0.25500000920E-02 0. -1.
       -2    1    3    3    0  502  0.27274350792E+03 -0.13438471518E+03 -0.17128140282E+04  0.17395919545E+04  0.25500000920E-02 0.  1.
</event>
<event>
 5   0  0.3642184E-06  0.2460244E+04  0.7818609E-02  0.8417287E-01
        1   -1    0    0  501    0  0.00000000000E+00  0.00000000000E+00  0.15679598416E+04  0.15679598416E+04  0.50400001928E-02 0. -1.
       -1   -1    0    0    0  501  0.00000000000E+00  0.00000000000E+00 -0.96507570462E+03  0.96507570463E+03  0.50400001928E-02 0.  1.
    10030    2    1    2    0    0  0.00000000000E+00  0.00000000000E+00  0.60288413698E+03  0.25330355462E+04  0.24602438489E+04 0.  0.
        5    1    3    3  502    0  0.62950772472E+02 -0.84033353070E+03  0.12240892750E+04  0.14861157040E+04  0.46999998093E+01 0. -1.
       -5    1    3    3    0  502 -0.62950772472E+02  0.84033353070E+03 -0.62120513800E+03  0.10469198422E+04  0.46999998093E+01 0.  1.
</event>
<event>
 5   0  0.3481387E-06  0.2496472E+04  0.7818609E-02  0.8404244E-01
        1   -1    0    0  501    0  0.00000000000E+00  0.00000000000E+00  0.18812826030E+04  0.18812826031E+04  0.50400001928E-02 0.  1.
       -1   -1    0    0    0  501  0.00000000000E+00  0.00000000000E+00 -0.82820774858E+03  0.82820774859E+03  0.50400001928E-02 0. -1.
    10030    2    1    2    0    0  0.00000000000E+00  0.00000000000E+00  0.10530748545E+04  0.27094903516E+04  0.24964717736E+04 0.  0.
        4    1    3    3  502    0  0.79450773458E+03 -0.22196830644E+03  0.15432635857E+04  0.17499075910E+04  0.12699999809E+01 0.  1.
       -4    1    3    3    0  502 -0.79450773458E+03  0.22196830644E+03 -0.49018873120E+03  0.95958276062E+03  0.12699999809E+01 0. -1.
</event>
<event>
 5   0  0.3642184E-06  0.2498730E+04  0.7818609E-02  0.8403438E-01
       -1   -1    0    0    0  501  0.00000000000E+00  0.00000000000E+00  0.23549040039E+04  0.23549040039E+04  0.50400001928E-02 0.  1.
        1   -1    0    0  501    0  0.00000000000E+00  0.00000000000E+00 -0.66283493489E+03  0.66283493491E+03  0.50400001928E-02 0. -1.
    10030    2    1    2    0    0  0.00000000000E+00  0.00000000000E+00  0.16920690690E+04  0.30177389388E+04  0.24987297910E+04 0.  0.
        5    1    3    3  502    0 -0.45442754554E+03  0.80427312593E+03  0.18618973806E+04  0.20784714579E+04  0.46999998093E+01 0.  1.
       -5    1    3    3    0  502  0.45442754554E+03 -0.80427312593E+03 -0.16982831165E+03  0.93926748090E+03  0.46999998093E+01 0. -1.
</event>
<event>
 5   0  0.8056723E-06  0.2503239E+04  0.7818609E-02  0.8401833E-01
       -2   -1    0    0    0  501  0.00000000000E+00  0.00000000000E+00  0.29666150034E+04  0.29666150034E+04  0.25500000920E-02 0. -1.
        2   -1    0    0  501    0  0.00000000000E+00  0.00000000000E+00 -0.52806024175E+03  0.52806024175E+03  0.25500000920E-02 0.  1.
    10030    2    1    2    0    0  0.00000000000E+00  0.00000000000E+00  0.24385547616E+04  0.34946752451E+04  0.25032390504E+04 0.  0.
        2    1    3    3  502    0 -0.76952373925E+03  0.74850866020E+03  0.32088242364E+03  0.11204452372E+04  0.25500000920E-02 0.  1.
       -2    1    3    3    0  502  0.76952373925E+03 -0.74850866020E+03  0.21176723380E+04  0.23742300080E+04  0.25500000920E-02 0. -1.
</event>
<event>
 5   0  0.8056723E-06  0.2503145E+04  0.7818609E-02  0.8401866E-01
        2   -1    0    0  501    0  0.00000000000E+00  0.00000000000E+00  0.21485025231E+04  0.21485025231E+04  0.25500000920E-02 0. -1.
       -2   -1    0    0    0  501  0.00000000000E+00  0.00000000000E+00 -0.72908147140E+03  0.72908147140E+03  0.25500000920E-02 0.  1.
    10030    2    1    2    0    0  0.00000000000E+00  0.00000000000E+00  0.14194210517E+04  0.28775839945E+04  0.25031447268E+04 0.  0.
        2    1    3    3  502    0  0.79766082057E+03 -0.96142143512E+03  0.79755752189E+03  0.14821241383E+04  0.25500000920E-02 0. -1.
       -2    1    3    3    0  502 -0.79766082057E+03  0.96142143512E+03  0.62186352980E+03  0.13954598562E+04  0.25500000920E-02 0.  1.
</event>
<event>
 5   0  0.3424193E-06  0.2495170E+04  0.7818609E-02  0.8404708E-01
        1   -1    0    0  501    0  0.00000000000E+00  0.00000000000E+00  0.11373121331E+04  0.11373121332E+04  0.50400001928E-02 0.  1.
       -1   -1    0    0    0  501  0.00000000000E+00  0.00000000000E+00 -0.13685493262E+04  0.13685493262E+04  0.50400001928E-02 0. -1.
    10030    2    1    2    0    0  0.00000000000E+00  0.00000000000E+00 -0.23123719303E+03  0.25058614593E+04  0.24951695361E+04 0.  0.
        1    1    3    3  502    0 -0.13840520836E+03  0.96090379494E+03 -0.90254219729E+03  0.13255468769E+04  0.50400001928E-02 0. -1.
       -1    1    3    3    0  502  0.13840520836E+03 -0.96090379494E+03  0.67130500426E+03  0.11803145825E+04  0.50400001928E-02 0.  1.
</event>
<event>
 5   0  0.8354653E-06  0.2494419E+04  0.7818609E-02  0.8404976E-01
       -2   -1    0    0    0  501  0.00000000000E+00  0.00000000000E+00  0.12674385176E+04  0.12674385176E+04  0.25500000920E-02 0.  1.
        2   -1    0    0  501    0  0.00000000000E+00  0.00000000000E+00 -0.12273034471E+04  0.12273034471E+04  0.25500000920E-02 0. -1.
    10030    2    1    2    0    0  0.00000000000E+00  0.00000000000E+00  0.40135070501E+02  0.24947419647E+04  0.24944191001E+04 0.  0.
        3    1    3    3  502    0 -0.10842363612E+04  0.58800894881E+03 -0.16491218488E+03  0.12443950537E+04  0.10100000352E+00 0. -1.
       -3    1    3    3    0  502  0.10842363612E+04 -0.58800894881E+03  0.20504725539E+03  0.12503469110E+04  0.10100000352E+00 0.  1.
</event>
<event>
 5   0  0.8354653E-06  0.2495257E+04  0.7818609E-02  0.8404677E-01
        2   -1    0    0  501    0  0.00000000000E+00  0.00000000000E+00  0.95322296175E+03  0.95322296176E+03  0.25500000920E-02 0. -1.
       -2   -1    0    0    0  501  0.00000000000E+00  0.00000000000E+00 -0.16329619345E+04  0.16329619345E+04  0.25500000920E-02 0.  1.
    10030    2    1    2    0    0  0.00000000000E+00  0.00000000000E+00 -0.67973897271E+03  0.25861848962E+04  0.24952569500E+04 0.  0.
        3    1    3    3  502    0 -0.11211306205E+04  0.30340730358E+03  0.13235044329E+03  0.11689766935E+04  0.10100000352E+00 0. -1.
       -3    1    3    3    0  502  0.11211306205E+04 -0.30340730358E+03 -0.81208941600E+03  0.14172082027E+04  0.10100000352E+00 0.  1.
</event>
<event>
 5   0  0.8948286E-06  0.2510745E+04  0.7818609E-02  0.8399168E-01
        2   -1    0    0  501    0  0.00000000000E+00  0.00000000000E+00  0.24218725033E+04  0.24218725033E+04  0.25500000920E-02 0.  1.
       -2   -1    0    0    0  501  0.00000000000E+00  0.00000000000E+00 -0.65071963005E+03  0.65071963005E+03  0.25500000920E-02 0. -1.
    10030    2    1    2    0    0  0.00000000000E+00  0.00000000000E+00  0.17711528733E+04  0.30725921334E+04  0.25107448930E+04 0.  0.
        4    1    3    3  502    0  0.10385174380E+04 -0.21004099562E+03  0.61616588278E+02  0.10613359062E+04  0.12699999809E+01 0. -1.
       -4    1    3    3    0  502 -0.10385174380E+04  0.21004099562E+03  0.17095362850E+04  0.20112562272E+04  0.12699999809E+01 0.  1.
</event>
<event>
 5   0  0.3481387E-06  0.2500291E+04  0.7818609E-02  0.8402882E-01
        1   -1    0    0  501    0  0.00000000000E+00  0.00000000000E+00  0.22629968557E+04  0.22629968557E+04  0.50400001928E-02 0. -1.
       -1   -1    0    0    0  501  0.00000000000E+00  0.00000000000E+00 -0.69061699410E+03  0.69061699412E+03  0.50400001928E-02 0.  1.
    10030    2    1    2    0    0  0.00000000000E+00  0.00000000000E+00  0.15723798616E+04  0.29536138498E+04  0.25002912520E+04 0.  0.
        4    1    3    3  502    0  0.21438035062E+03 -0.11230838089E+04  0.18897329432E+03  0.11588738910E+04  0.12699999809E+01 0.  1.
       -4    1    3    3    0  502 -0.21438035062E+03  0.11230838089E+04  0.13834065673E+04  0.17947399588E+04  0.12699999809E+01 0. -1.
</event>
<event>
 5   0  0.3481387E-06  0.2498693E+04  0.7818609E-02  0.8403451E-01
       -1   -1    0    0    0  501  0.00000000000E+00  0.00000000000E+00  0.67317341527E+03  0.67317341529E+03  0.50400001928E-02 0. -1.
        1   -1    0    0  501    0  0.00000000000E+00  0.00000000000E+00 -0.23186691953E+04  0.23186691953E+04  0.50400001928E-02 0.  1.
    10030    2    1    2    0    0  0.00000000000E+00  0.00000000000E+00 -0.16454957800E+04  0.29918426106E+04  0.24986928272E+04 0.  0.
        4    1    3    3  502    0  0.64073764608E+03 -0.82551707618E+03 -0.16426065287E+04  0.19468387183E+04  0.12699999809E+01 0.  1.
       -4    1    3    3    0  502 -0.64073764608E+03  0.82551707618E+03 -0.28892513273E+01  0.10450038923E+04  0.12699999809E+01 0. -1.
</event>
<event>
 5   0  0.8407986E-06  0.2494408E+04  0.7818609E-02  0.8404980E-01
       -2   -1    0    0    0  501  0.00000000000E+00  0.00000000000E+00  0.98137155221E+03  0.98137155221E+03  0.25500000920E-02 0.  1.
        2   -1    0    0  501    0  0.00000000000E+00  0.00000000000E+00 -0.15850445612E+04  0.15850445612E+04  0.25500000920E-02 0. -1.
    10030    2    1    2    0    0  0.00000000000E+00  0.00000000000E+00 -0.60367300902E+03  0.25664161134E+04  0.24944078587E+04 0.  0.
        5    1    3    3  502    0  0.16830756943E+03 -0.96069105139E+03  0.49793262521E+03  0.10950861717E+04  0.46999998093E+01 0.  1.
       -5    1    3    3    0  502 -0.16830756943E+03  0.96069105139E+03 -0.11016056342E+04  0.14713299418E+04  0.46999998093E+01 0. -1.
</event>
<event>
 5   0  0.3481387E-06  0.2541969E+04  0.7818609E-02  0.8388184E-01
        1   -1    0    0  501    0  0.00000000000E+00  0.00000000000E+00  0.89657922457E+03  0.89657922458E+03  0.50400001928E-02 0.  1.
       -1   -1    0    0    0  501  0.00000000000E+00  0.00000000000E+00 -0.18017392546E+04  0.18017392546E+04  0.50400001928E-02 0. -1.
    10030    2    1    2    0    0  0.00000000000E+00  0.00000000000E+00 -0.90516003006E+03  0.26983184792E+04  0.25419693026E+04 0.  0.
        4    1    3    3  502    0 -0.12261092358E+04  0.11847917382E+03 -0.12024318050E+03  0.12376757281E+04  0.12699999809E+01 0. -1.
       -4    1    3    3    0  502  0.12261092358E+04 -0.11847917382E+03 -0.78491684955E+03  0.14606427511E+04  0.12699999809E+01 0.  1.
</event>
<event>
 5   0  0.8354653E-06  0.2514760E+04  0.7818609E-02  0.8397746E-01
        2   -1    0    0  501    0  0.00000000000E+00  0.00000000000E+00  0.11751120306E+04  0.11751120306E+04  0.25500000920E-02 0. -1.
       -2   -1    0    0    0  501  0.00000000000E+00  0.00000000000E+00 -0.13454069331E+04  0.13454069331E+04  0.25500000920E-02 0.  1.
    10030    2    1    2    0    0  0.00000000000E+00  0.00000000000E+00 -0.17029490252E+03  0.25205189637E+04  0.25147595298E+04 0.  0.
        3    1    3    3  502    0 -0.61077793082E+03  0.10985337265E+04 -0.50749264004E+02  0.12579354224E+04  0.10100000352E+00 0. -1.
       -3    1    3    3    0  502  0.61077793082E+03 -0.10985337265E+04 -0.11954563852E+03  0.12625835413E+04  0.10100000352E+00 0.  1.
</event>
<event>
 5   0  0.8354653E-06  0.2501082E+04  0.7818609E-02  0.8402600E-01
        2   -1    0    0  501    0  0.00000000000E+00  0.00000000000E+00  0.13819427315E+04  0.13819427315E+04  0.25500000920E-02 0.  1.
       -2   -1    0    0    0  501  0.00000000000E+00  0.00000000000E+00 -0.11316333522E+04  0.11316333522E+04  0.25500000920E-02 0. -1.
    10030    2    1    2    0    0  0.00000000000E+00  0.00000000000E+00  0.25030937931E+03  0.25135760836E+04  0.25010817545E+04 0.  0.
        3    1    3    3  502    0  0.11929094111E+04  0.19739505894E+03 -0.19558662442E+03  0.12248476682E+04  0.10100000352E+00 0. -1.
       -3    1    3    3    0  502 -0.11929094111E+04 -0.19739505894E+03  0.44589600373E+03  0.12887284154E+04  0.10100000352E+00 0.  1.
</event>
<event>
 5   0  0.3481387E-06  0.2494575E+04  0.7818609E-02  0.8404921E-01
        1   -1    0    0  501    0  0.00000000000E+00  0.00000000000E+00  0.78670177197E+03  0.78670177198E+03  0.50400001928E-02 0.  1.
       -1   -1    0    0    0  501  0.00000000000E+00  0.00000000000E+00 -0.19775302797E+04  0.19775302797E+04  0.50400001928E-02 0. -1.
    10030    2    1    2    0    0  0.00000000000E+00  0.00000000000E+00 -0.11908285077E+04  0.27642320517E+04  0.24945753748E+04 0.  0.
        4    1    3    3  502    0 -0.72204195479E+03  0.99690125521E+03 -0.81860237973E+03  0.14782652557E+04  0.12699999809E+01 0. -1.
       -4    1    3    3    0  502  0.72204195479E+03 -0.99690125521E+03 -0.37222612796E+03  0.12859667960E+04  0.12699999809E+01 0.  1.
</event>
<event>
 5   0  0.3484857E-06  0.2504676E+04  0.7818609E-02  0.8401321E-01
       -1   -1    0    0    0  501  0.00000000000E+00  0.00000000000E+00  0.89211846825E+03  0.89211846826E+03  0.50400001928E-02 0.  1.
        1   -1    0    0  501    0  0.00000000000E+00  0.00000000000E+00 -0.17580076442E+04  0.17580076442E+04  0.50400001928E-02 0. -1.
    10030    2    1    2    0    0  0.00000000000E+00  0.00000000000E+00 -0.86588917594E+03  0.26501261125E+04  0.25046764955E+04 0.  0.
        3    1    3    3  502    0  0.30993258818E+02  0.29165906542E+02  0.89135310911E+03  0.89236853794E+03  0.10100000352E+00 0.  1.
       -3    1    3    3    0  502 -0.30993258818E+02 -0.29165906542E+02 -0.17572422851E+04  0.17577575745E+04  0.10100000352E+00 0. -1.
</event>
<event>
 5   0  0.3481387E-06  0.2495039E+04  0.7818609E-02  0.8404755E-01
       -1   -1    0    0    0  501  0.00000000000E+00  0.00000000000E+00  0.87511788191E+03  0.87511788192E+03  0.50400001928E-02 0. -1.
        1   -1    0    0  501    0  0.00000000000E+00  0.00000000000E+00 -0.17783946610E+04  0.17783946610E+04  0.50400001928E-02 0.  1.
    10030    2    1    2    0    0  0.00000000000E+00  0.00000000000E+00 -0.90327677910E+03  0.26535125429E+04  0.24950390530E+04 0.  0.
        4    1    3    3  502    0  0.73346362402E+03 -0.91753982034E+03 -0.89838468695E+03  0.14788322651E+04  0.12699999809E+01 0.  1.
       -4    1    3    3    0  502 -0.73346362402E+03  0.91753982034E+03 -0.48920921565E+01  0.11746802778E+04  0.12699999809E+01 0. -1.
</event>
<event>
 5   0  0.8407986E-06  0.2502830E+04  0.7818609E-02  0.8401978E-01
        2   -1    0    0  501    0  0.00000000000E+00  0.00000000000E+00  0.22717799997E+04  0.22717799997E+04  0.25500000920E-02 0.  1.
       -2   -1    0    0    0  501  0.00000000000E+00  0.00000000000E+00 -0.68934462043E+03  0.68934462043E+03  0.25500000920E-02 0. -1.
    10030    2    1    2    0    0  0.00000000000E+00  0.00000000000E+00  0.15824353792E+04  0.29611246201E+04  0.25028298556E+04 0.  0.
        5    1    3    3  502    0 -0.10349160391E+04 -0.63165707908E+03  0.11577440623E+04  0.16764352887E+04  0.46999998093E+01 0.  1.
       -5    1    3    3    0  502  0.10349160391E+04  0.63165707908E+03  0.42469131692E+03  0.12846893314E+04  0.46999998093E+01 0. -1.
</event>
<event>
 5   0  0.3481387E-06  0.2512998E+04  0.7818609E-02  0.8398370E-01
        1   -1    0    0  501    0  0.00000000000E+00  0.00000000000E+00  0.16162766172E+04  0.16162766172E+04  0.50400001928E-02 0. -1.
       -1   -1    0    0    0  501  0.00000000000E+00  0.00000000000E+00 -0.97680653588E+03  0.97680653589E+03  0.50400001928E-02 0.  1.
    10030    2    1    2    0    0  0.00000000000E+00  0.00000000000E+00  0.63947008136E+03  0.25930831531E+04  0.25129978619E+04 0.  0.
        4    1    3    3  502    0 -0.64736566311E+02  0.11019548907E+04  0.93910760422E+03  0.14492826189E+04  0.12699999809E+01 0. -1.
       -4    1    3    3    0  502  0.64736566311E+02 -0.11019548907E+04 -0.29963752286E+03  0.11438005343E+04  0.12699999809E+01 0.  1.
</event>
<event>
 5   0  0.3522870E-06  0.2469516E+04  0.7818609E-02  0.8413927E-01
       -1   -1    0    0    0  501  0.00000000000E+00  0.00000000000E+00  0.11941014007E+04  0.11941014007E+04  0.50400001928E-02 0.  1.
        1   -1    0    0  501    0  0.00000000000E+00  0.00000000000E+00 -0.12767984422E+04  0.12767984422E+04  0.50400001928E-02 0. -1.
    10030    2    1    2    0    0  0.00000000000E+00  0.00000000000E+00 -0.82697041564E+02  0.24708998429E+04  0.24695155867E+04 0.  0.
        2    1    3    3  502    0  0.16241491246E+03  0.10737245176E+04 -0.62935460241E+03  0.12551295388E+04  0.25500000920E-02 0. -1.
       -2    1    3    3    0  502 -0.16241491246E+03 -0.10737245176E+04  0.54665756084E+03  0.12157703041E+04  0.25500000920E-02 0.  1.
</event>
<event>
 5   0  0.3642184E-06  0.2500000E+04  0.7818609E-02  0.8402985E-01
       -1   -1    0    0    0  501  0.00000000000E+00  0.00000000000E+00  0.80812182851E+03  0.80812182853E+03  0.50400001928E-02 0. -1.
        1   -1    0    0  501    0  0.00000000000E+00  0.00000000000E+00 -0.19334959666E+04  0.19334959666E+04  0.50400001928E-02 0.  1.
    10030    2    1    2    0    0  0.00000000000E+00  0.00000000000E+00 -0.11253741381E+04  0.27416177952E+04  0.25000002368E+04 0.  0.
        5    1    3    3  502    0 -0.86979405519E+03 -0.45522952678E+03  0.28585314129E+03  0.10225017012E+04  0.46999998093E+01 0. -1.
       -5    1    3    3    0  502  0.86979405519E+03  0.45522952678E+03 -0.14112272794E+04  0.17191160940E+04  0.46999998093E+01 0.  1.
</event>
<event>
 5   0  0.8056723E-06  0.2491386E+04  0.7818609E-02  0.8406061E-01
       -2   -1    0    0    0  501  0.00000000000E+00  0.00000000000E+00  0.95513461994E+03  0.95513461994E+03  0.25500000920E-02 0.  1.
        2   -1    0    0  501    0  0.00000000000E+00  0.00000000000E+00 -0.16246406369E+04  0.16246406369E+04  0.25500000920E-02 0. -1.
    10030    2    1    2    0    0  0.00000000000E+00  0.00000000000E+00 -0.66950601701E+03  0.25797752569E+04  0.24913855722E+04 0.  0.
        2    1    3    3  502    0 -0.82548277681E+03 -0.88797719297E+03 -0.38553396716E+02  0.12130175903E+04  0.25500000920E-02 0. -1.
       -2    1    3    3    0  502  0.82548277681E+03  0.88797719297E+03 -0.63095262029E+03  0.13667576666E+04  0.25500000920E-02 0.  1.
</event>
<event>
 5   0  0.8948286E-06  0.2541608E+04  0.7818609E-02  0.8388311E-01
       -2   -1    0    0    0  501  0.00000000000E+00  0.00000000000E+00  0.81491927876E+03  0.81491927877E+03  0.25500000920E-02 0. -1.
        2   -1    0    0  501    0  0.00000000000E+00  0.00000000000E+00 -0.19817209485E+04  0.19817209485E+04  0.25500000920E-02 0.  1.
    10030    2    1    2    0    0  0.00000000000E+00  0.00000000000E+00 -0.11668016698E+04  0.27966402273E+04  0.25416078424E+04 0.  0.
        4    1    3    3  502    0 -0.12698161696E+04  0.41783738373E+02 -0.55302642985E+03  0.13856474409E+04  0.12699999809E+01 0. -1.
       -4    1    3    3    0  502  0.12698161696E+04 -0.41783738373E+02 -0.61377523993E+03  0.14109927864E+04  0.12699999809E+01 0.  1.
</event>
<event>
 5   0  0.8354653E-06  0.2499647E+04  0.7818609E-02  0.8403111E-01
        2   -1    0    0  501    0  0.00000000000E+00  0.00000000000E+00  0.13348753728E+04  0.13348753728E+04  0.25500000920E-02 0. -1.
       -2   -1    0    0    0  501  0.00000000000E+00  0.00000000000E+00 -0.11701905227E+04  0.11701905227E+04  0.25500000920E-02 0.  1.
    10030    2    1    2    0    0  0.00000000000E+00  0.00000000000E+00  0.16468485010E+03  0.25050658955E+04  0.24996467832E+04 0.  0.
        3    1    3    3  502    0 -0.10241036787E+04 -0.56994967829E+03 -0.35268103233E+03  0.12239341899E+04  0.10100000352E+00 0.  1.
       -3    1    3    3    0  502  0.10241036787E+04  0.56994967829E+03  0.51736588244E+03  0.12811317056E+04  0.10100000352E+00 0. -1.
</event>
<event>
 5   0  0.3481387E-06  0.2467616E+04  0.7818609E-02  0.8414614E-01
        1   -1    0    0  501    0  0.00000000000E+00  0.00000000000E+00  0.11573408421E+04  0.11573408421E+04  0.50400001928E-02 0. -1.
       -1   -1    0    0    0  501  0.00000000000E+00  0.00000000000E+00 -0.13153272696E+04  0.13153272696E+04  0.50400001928E-02 0.  1.
    10030    2    1    2    0    0  0.00000000000E+00  0.00000000000E+00 -0.15798642747E+03  0.24726681117E+04  0.24676158290E+04 0.  0.
        4    1    3    3  502    0 -0.64951310501E+03  0.10433396372E+04  0.30112611592E+02  0.12293629466E+04  0.12699999809E+01 0.  1.
       -4    1    3    3    0  502  0.64951310501E+03 -0.10433396372E+04 -0.18809903906E+03  0.12433051651E+04  0.12699999809E+01 0. -1.
</event>
<event>
 5   0  0.3484857E-06  0.2503927E+04  0.7818609E-02  0.8401588E-01
       -1   -1    0    0    0  501  0.00000000000E+00  0.00000000000E+00  0.71570254375E+03  0.71570254377E+03  0.50400001928E-02 0.  1.
        1   -1    0    0  501    0  0.00000000000E+00  0.00000000000E+00 -0.21900332524E+04  0.21900332524E+04  0.50400001928E-02 0. -1.
    10030    2    1    2    0    0  0.00000000000E+00  0.00000000000E+00 -0.14743307086E+04  0.29057357962E+04  0.25039268118E+04 0.  0.
        3    1    3    3  502    0  0.11664980562E+04 -0.30997167226E+03 -0.11231197766E+04  0.16486959075E+04  0.10100000352E+00 0. -1.
       -3    1    3    3    0  502 -0.11664980562E+04  0.30997167226E+03 -0.35121093207E+03  0.12570398887E+04  0.10100000352E+00 0.  1.
</event>
<event>
 5   0  0.3642184E-06  0.2501979E+04  0.7818609E-02  0.8402281E-01
       -1   -1    0    0    0  501  0.00000000000E+00  0.00000000000E+00  0.89352090413E+03  0.89352090414E+03  0.50400001928E-02 0. -1.
        1   -1    0    0  501    0  0.00000000000E+00  0.00000000000E+00 -0.17514703066E+04  0.17514703066E+04  0.50400001928E-02 0.  1.
    10030    2    1    2    0    0  0.00000000000E+00  0.00000000000E+00 -0.85794940245E+03  0.26449912107E+04  0.25019794819E+04 0.  0.
        5    1    3    3  502    0  0.56527412449E+03  0.11097499985E+04 -0.55349240742E+03  0.13628851126E+04  0.46999998093E+01 0. -1.
       -5    1    3    3    0  502 -0.56527412449E+03 -0.11097499985E+04 -0.30445699503E+03  0.12821060981E+04  0.46999998093E+01 0.  1.
</event>
<event>
 5   0  0.3642184E-06  0.2499137E+04  0.7818609E-02  0.8403293E-01
       -1   -1    0    0    0  501  0.00000000000E+00  0.00000000000E+00  0.15038638150E+04  0.15038638150E+04  0.50400001928E-02 0. -1.
        1   -1    0    0  501    0  0.00000000000E+00  0.00000000000E+00 -0.10382734671E+04  0.10382734671E+04  0.50400001928E-02 0.  1.
    10030    2    1    2    0    0  0.00000000000E+00  0.00000000000E+00  0.46559034791E+03  0.25421372821E+04  0.24991373689E+04 0.  0.
        5    1    3    3  502    0  0.10582578410E+04 -0.59955012870E+03  0.52413152563E+03  0.13244266537E+04  0.46999998093E+01 0. -1.
       -5    1    3    3    0  502 -0.10582578410E+04  0.59955012870E+03 -0.58541177722E+02  0.12177106283E+04  0.46999998093E+01 0.  1.
</event>
<event>
 5   0  0.8056723E-06  0.2495711E+04  0.7818609E-02  0.8404515E-01
       -2   -1    0    0    0  501  0.00000000000E+00  0.00000000000E+00  0.80843686907E+03  0.80843686907E+03  0.25500000920E-02 0. -1.
        2   -1    0    0  501    0  0.00000000000E+00  0.00000000000E+00 -0.19261169613E+04  0.19261169613E+04  0.25500000920E-02 0.  1.
    10030    2    1    2    0    0  0.00000000000E+00  0.00000000000E+00 -0.11176800923E+04  0.27345538304E+04  0.24957114943E+04 0.  0.
        2    1    3    3  502    0  0.89693456081E+03  0.59590813354E+03  0.13201305749E+03  0.10849080871E+04  0.25500000920E-02 0. -1.
       -2    1    3    3    0  502 -0.89693456081E+03 -0.59590813354E+03 -0.12496931498E+04  0.16496457433E+04  0.25500000920E-02 0.  1.
</event>
<event>
 5   0  0.8056723E-06  0.2497774E+04  0.7818609E-02  0.8403779E-01
        2   -1    0    0  501    0  0.00000000000E+00  0.00000000000E+00  0.13268357417E+04  0.13268357417E+04  0.25500000920E-02 0.  1.
       -2   -1    0    0    0  501  0.00000000000E+00  0.00000000000E+00 -0.11755177182E+04  0.11755177182E+04  0.25500000920E-02 0. -1.
    10030    2    1    2    0    0  0.00000000000E+00  0.00000000000E+00  0.15131802345E+03  0.25023534599E+04  0.24977741480E+04 0.  0.
        2    1    3    3  502    0  0.97079815454E+03  0.17848532372E+03 -0.69086650332E+03  0.12048247147E+04  0.25500000920E-02 0. -1.
       -2    1    3    3    0  502 -0.97079815454E+03 -0.17848532372E+03  0.84218452678E+03  0.12975287453E+04  0.25500000920E-02 0.  1.
</event>
<event>
 5   0  0.3484857E-06  0.2497747E+04  0.7818609E-02  0.8403789E-01
        1   -1    0    0  501    0  0.00000000000E+00  0.00000000000E+00  0.17854006499E+04  0.17854006499E+04  0.50400001928E-02 0.  1.
       -1   -1    0    0    0  501  0.00000000000E+00  0.00000000000E+00 -0.87357691735E+03  0.87357691736E+03  0.50400001928E-02 0. -1.
    10030    2    1    2    0    0  0.00000000000E+00  0.00000000000E+00  0.91182373256E+03  0.26589775673E+04  0.24977468214E+04 0.  0.
        3    1    3    3  502    0  0.12991966839E+03 -0.74849559579E+03 -0.59931490387E+03  0.96762758402E+03  0.10100000352E+00 0. -1.
       -3    1    3    3    0  502 -0.12991966839E+03  0.74849559579E+03  0.15111386364E+04  0.16913499833E+04  0.10100000352E+00 0.  1.
</event>
<event>
 5   0  0.3424193E-06  0.2506034E+04  0.7818609E-02  0.8400839E-01
       -1   -1    0    0    0  501  0.00000000000E+00  0.00000000000E+00  0.11733158664E+04  0.11733158664E+04  0.50400001928E-02 0. -1.
        1   -1    0    0  501    0  0.00000000000E+00  0.00000000000E+00 -0.13381320004E+04  0.13381320004E+04  0.50400001928E-02 0.  1.
    10030    2    1    2    0    0  0.00000000000E+00  0.00000000000E+00 -0.16481613397E+03  0.25114478668E+04  0.25060339242E+04 0.  0.
        1    1    3    3  502    0  0.92866700687E+03 -0.84013075612E+03 -0.39779007429E+02  0.12529263612E+04  0.50400001928E-02 0.  1.
       -1    1    3    3    0  502 -0.92866700687E+03  0.84013075612E+03 -0.12503712654E+03  0.12585215056E+04  0.50400001928E-02 0. -1.
</event>
<event>
 5   0  0.8579923E-06  0.2500830E+04  0.7818609E-02  0.8402690E-01
       -2   -1    0    0    0  501  0.00000000000E+00  0.00000000000E+00  0.87928696210E+03  0.87928696210E+03  0.25500000920E-02 0. -1.
        2   -1    0    0  501    0  0.00000000000E+00  0.00000000000E+00 -0.17781876160E+04  0.17781876160E+04  0.25500000920E-02 0.  1.
    10030    2    1    2    0    0  0.00000000000E+00  0.00000000000E+00 -0.89890065393E+03  0.26574745781E+04  0.25008296119E+04 0.  0.
        1    1    3    3  502    0  0.10026607898E+04  0.45878061229E+03  0.17717132154E+03  0.11167801873E+04  0.50400001928E-02 0. -1.
       -1    1    3    3    0  502 -0.10026607898E+04 -0.45878061229E+03 -0.10760719755E+04  0.15406943908E+04  0.50400001928E-02 0.  1.
</event>
<event>
 5   0  0.8407986E-06  0.2495218E+04  0.7818609E-02  0.8404691E-01
        2   -1    0    0  501    0  0.00000000000E+00  0.00000000000E+00  0.24473281645E+04  0.24473281645E+04  0.25500000920E-02 0. -1.
       -2   -1    0    0    0  501  0.00000000000E+00  0.00000000000E+00 -0.63601105869E+03  0.63601105870E+03  0.25500000920E-02 0.  1.
    10030    2    1    2    0    0  0.00000000000E+00  0.00000000000E+00  0.18113171058E+04  0.30833392232E+04  0.24952176473E+04 0.  0.
        5    1    3    3  502    0 -0.87916569551E+03 -0.77620952375E+03  0.37983662417E+03  0.12327739030E+04  0.46999998093E+01 0.  1.
       -5    1    3    3    0  502  0.87916569551E+03  0.77620952375E+03  0.14314804816E+04  0.18505653202E+04  0.46999998093E+01 0. -1.
</event>
<event>
 5   0  0.3522870E-06  0.2498108E+04  0.7818609E-02  0.8403660E-01
       -1   -1    0    0    0  501  0.00000000000E+00  0.00000000000E+00  0.10377408488E+04  0.10377408488E+04  0.50400001928E-02 0. -1.
        1   -1    0    0  501    0  0.00000000000E+00  0.00000000000E+00 -0.15033968086E+04  0.15033968086E+04  0.50400001928E-02 0.  1.
    10030    2    1    2    0    0  0.00000000000E+00  0.00000000000E+00 -0.46565595978E+03  0.25411376573E+04  0.24981083084E+04 0.  0.
        2    1    3    3  502    0 -0.10052837309E+04 -0.68281236725E+03 -0.52643114307E+03  0.13243707399E+04  0.25500000920E-02 0.  1.
       -2    1    3    3    0  502  0.10052837309E+04  0.68281236725E+03  0.60775183291E+02  0.12167669174E+04  0.25500000920E-02 0. -1.
</event>
<event>
 5   0  0.3522870E-06  0.2522494E+04  0.7818609E-02  0.8395016E-01
        1   -1    0    0  501    0  0.00000000000E+00  0.00000000000E+00  0.21215128874E+04  0.21215128874E+04  0.50400001928E-02 0. -1.
       -1   -1    0    0    0  501  0.00000000000E+00  0.00000000000E+00 -0.74981569851E+03  0.74981569853E+03  0.50400001928E-02 0.  1.
    10030    2    1    2    0    0  0.00000000000E+00  0.00000000000E+00  0.13716971889E+04  0.28713285859E+04  0.25224937404E+04 0.  0.
        2    1    3    3  502    0  0.82951574841E+03 -0.78019960545E+03  0.68715141796E+02  0.11408459896E+04  0.25500000920E-02 0.  1.
       -2    1    3    3    0  502 -0.82951574841E+03  0.78019960545E+03  0.13029820471E+04  0.17304825963E+04  0.25500000920E-02 0. -1.
</event>
<event>
 5   0  0.3484857E-06  0.2501036E+04  0.7818609E-02  0.8402617E-01
        1   -1    0    0  501    0  0.00000000000E+00  0.00000000000E+00  0.85722628128E+03  0.85722628129E+03  0.50400001928E-02 0. -1.
       -1   -1    0    0    0  501  0.00000000000E+00  0.00000000000E+00 -0.18242497614E+04  0.18242497614E+04  0.50400001928E-02 0.  1.
    10030    2    1    2    0    0  0.00000000000E+00  0.00000000000E+00 -0.96702348010E+03  0.26814760427E+04  0.25010356568E+04 0.  0.
        3    1    3    3  502    0  0.70542100971E+03 -0.48903826151E+03  0.49150352579E+03  0.98911725706E+03  0.10100000352E+00 0. -1.
       -3    1    3    3    0  502 -0.70542100971E+03  0.48903826151E+03 -0.14585270059E+04  0.16923587856E+04  0.10100000352E+00 0.  1.
</event>
<event>
 5   0  0.8354653E-06  0.2502040E+04  0.7818609E-02  0.8402259E-01
       -2   -1    0    0    0  501  0.00000000000E+00  0.00000000000E+00  0.11236248132E+04  0.11236248132E+04  0.25500000920E-02 0.  1.
        2   -1    0    0  501    0  0.00000000000E+00  0.00000000000E+00 -0.13928594839E+04  0.13928594839E+04  0.25500000920E-02 0. -1.
    10030    2    1    2    0    0  0.00000000000E+00  0.00000000000E+00 -0.26923467076E+03  0.25164842971E+04  0.25020403493E+04 0.  0.
        3    1    3    3  502    0  0.10771984969E+04 -0.24577039491E+03 -0.72476846347E+03  0.13213814834E+04  0.10100000352E+00 0. -1.
       -3    1    3    3    0  502 -0.10771984969E+04  0.24577039491E+03  0.45553379271E+03  0.11951028137E+04  0.10100000352E+00 0.  1.
</event>
<event>
 5   0  0.3642184E-06  0.2499091E+04  0.7818609E-02  0.8403310E-01
       -1   -1    0    0    0  501  0.00000000000E+00  0.00000000000E+00  0.66717230375E+03  0.66717230376E+03  0.50400001928E-02 0.  1.
        1   -1    0    0  501    0  0.00000000000E+00  0.00000000000E+00 -0.23402702325E+04  0.23402702325E+04  0.50400001928E-02 0. -1.
    10030    2    1    2    0    0  0.00000000000E+00  0.00000000000E+00 -0.16730979288E+04  0.30074425363E+04  0.24990906206E+04 0.  0.
        5    1    3    3  502    0  0.73116605725E+03  0.84425269078E+03 -0.15108640200E+04  0.18788556587E+04  0.46999998093E+01 0. -1.
       -5    1    3    3    0  502 -0.73116605725E+03 -0.84425269078E+03 -0.16223390876E+03  0.11285868776E+04  0.46999998093E+01 0.  1.
</event>
<event>
 5   0  0.3522870E-06  0.2504034E+04  0.7818609E-02  0.8401550E-01
       -1   -1    0    0    0  501  0.00000000000E+00  0.00000000000E+00  0.90954829640E+03  0.90954829642E+03  0.50400001928E-02 0. -1.
        1   -1    0    0  501    0  0.00000000000E+00  0.00000000000E+00 -0.17234336581E+04  0.17234336581E+04  0.50400001928E-02 0.  1.
    10030    2    1    2    0    0  0.00000000000E+00  0.00000000000E+00 -0.81388536173E+03  0.26329819546E+04  0.25040336641E+04 0.  0.
        2    1    3    3  502    0 -0.51748113151E+02 -0.10808759971E+04 -0.10691143302E+04  0.15211759397E+04  0.25500000920E-02 0.  1.
       -2    1    3    3    0  502  0.51748113151E+02  0.10808759971E+04  0.25522896848E+03  0.11118060149E+04  0.25500000920E-02 0. -1.
</event>
<event>
 5   0  0.8354653E-06  0.2542211E+04  0.7818609E-02  0.8388100E-01
       -2   -1    0    0    0  501  0.00000000000E+00  0.00000000000E+00  0.95118745068E+03  0.95118745068E+03  0.25500000920E-02 0. -1.
        2   -1    0    0  501    0  0.00000000000E+00  0.00000000000E+00 -0.16986233507E+04  0.16986233507E+04  0.25500000920E-02 0.  1.
    10030    2    1    2    0    0  0.00000000000E+00  0.00000000000E+00 -0.74743590005E+03  0.26498108014E+04  0.25422110177E+04 0.  0.
        3    1    3    3  502    0  0.12128876458E+04  0.24150930248E+03 -0.67989560187E+03  0.14112693663E+04  0.10100000352E+00 0.  1.
       -3    1    3    3    0  502 -0.12128876458E+04 -0.24150930248E+03 -0.67540298176E+02  0.12385414352E+04  0.10100000352E+00 0. -1.
</event>
<event>
 5   0  0.8407986E-06  0.2492498E+04  0.7818609E-02  0.8405663E-01
        2   -1    0    0  501    0  0.00000000000E+00  0.00000000000E+00  0.18415014676E+04  0.18415014676E+04  0.25500000920E-02 0. -1.
       -2   -1    0    0    0  501  0.00000000000E+00  0.00000000000E+00 -0.84340787825E+03  0.84340787825E+03  0.25500000920E-02 0.  1.
    10030    2    1    2    0    0  0.00000000000E+00  0.00000000000E+00  0.99809358935E+03  0.26849093459E+04  0.24924982211E+04 0.  0.
        5    1    3    3  502    0 -0.75995628177E+03 -0.15933292644E+03 -0.55098140488E+03  0.95211508242E+03  0.46999998093E+01 0.  1.
       -5    1    3    3    0  502  0.75995628177E+03  0.15933292644E+03  0.15490749942E+04  0.17327942634E+04  0.46999998093E+01 0. -1.
</event>
<event>
 5   0  0.8407986E-06  0.2491012E+04  0.7818609E-02  0.8406194E-01
        2   -1    0    0  501    0  0.00000000000E+00  0.00000000000E+00  0.22335230363E+04  0.22335230363E+04  0.25500000920E-02 0. -1.
       -2   -1    0    0    0  501  0.00000000000E+00  0.00000000000E+00 -0.69454646142E+03  0.69454646142E+03  0.25500000920E-02 0.  1.
    10030    2    1    2    0    0  0.00000000000E+00  0.00000000000E+00  0.15389765748E+04  0.29280694977E+04  0.24910122612E+04 0.  0.
        5    1    3    3  502    0  0.75219704356E+03 -0.86233108342E+03  0.13475535769E+04  0.17678625576E+04  0.46999998093E+01 0.  1.
       -5    1    3    3    0  502 -0.75219704356E+03  0.86233108342E+03  0.19142299792E+03  0.11602069401E+04  0.46999998093E+01 0. -1.
</event>
<event>
 5   0  0.8407986E-06  0.2503292E+04  0.7818609E-02  0.8401814E-01
       -2   -1    0    0    0  501  0.00000000000E+00  0.00000000000E+00  0.89621580417E+03  0.89621580418E+03  0.25500000920E-02 0. -1.
        2   -1    0    0  501    0  0.00000000000E+00  0.00000000000E+00 -0.17480355902E+04  0.17480355902E+04  0.25500000920E-02 0.  1.
    10030    2    1    2    0    0  0.00000000000E+00  0.00000000000E+00 -0.85181978598E+03  0.26442513943E+04  0.25032915309E+04 0.  0.
        5    1    3    3  502    0 -0.12068620338E+04  0.57242073021E+02 -0.77111867495E+03  0.14333313380E+04  0.46999998093E+01 0.  1.
       -5    1    3    3    0  502  0.12068620338E+04 -0.57242073021E+02 -0.80701111030E+02  0.12109200564E+04  0.46999998093E+01 0. -1.
</event>
<event>
 5   0  0.8056723E-06  0.2515111E+04  0.7818609E-02  0.8397622E-01
        2   -1    0    0  501    0  0.00000000000E+00  0.00000000000E+00  0.10901062307E+04  0.10901062307E+04  0.25500000920E-02 0. -1.
       -2   -1    0    0    0  501  0.00000000000E+00  0.00000000000E+00 -0.14507258642E+04  0.14507258642E+04  0.25500000920E-02 0.  1.
    10030    2    1    2    0    0  0.00000000000E+00  0.00000000000E+00 -0.36061963348E+03  0.25408320949E+04  0.25151105770E+04 0.  0.
        2    1    3    3  502    0 -0.29535022110E+03  0.61054531567E+03 -0.12501242362E+04  0.14222545277E+04  0.25500000920E-02 0.  1.
       -2    1    3    3    0  502  0.29535022110E+03 -0.61054531567E+03  0.88950460274E+03  0.11185775672E+04  0.25500000920E-02 0. -1.
</event>
<event>
 5   0  0.8948286E-06  0.2501976E+04  0.7818609E-02  0.8402282E-01
       -2   -1    0    0    0  501  0.00000000000E+00  0.00000000000E+00  0.10731983108E+04  0.10731983108E+04  0.25500000920E-02 0. -1.
        2   -1    0    0  501    0  0.00000000000E+00  0.00000000000E+00 -0.14582309613E+04  0.14582309613E+04  0.25500000920E-02 0.  1.
    10030    2    1    2    0    0  0.00000000000E+00  0.00000000000E+00 -0.38503265053E+03  0.25314292721E+04  0.25019760226E+04 0.  0.
        4    1    3    3  502    0 -0.11466225398E+04  0.31646169528E+02 -0.69761724905E+03  0.13425409372E+04  0.12699999809E+01 0. -1.
       -4    1    3    3    0  502  0.11466225398E+04 -0.31646169528E+02  0.31258459852E+03  0.11888883350E+04  0.12699999809E+01 0.  1.
</event>
<event>
 5   0  0.8354653E-06  0.2503468E+04  0.7818609E-02  0.8401751E-01
        2   -1    0    0  501    0  0.00000000000E+00  0.00000000000E+00  0.14422269960E+04  0.14422269960E+04  0.25500000920E-02 0. -1.
       -2   -1    0    0    0  501  0.00000000000E+00  0.00000000000E+00 -0.10864013854E+04  0.10864013854E+04  0.25500000920E-02 0.  1.
    10030    2    1    2    0    0  0.00000000000E+00  0.00000000000E+00  0.35582561062E+03  0.25286283814E+04  0.25034675205E+04 0.  0.
        3    1    3    3  502    0 -0.15880739361E+03 -0.12405429256E+04  0.23011255557E+03  0.12716596782E+04  0.10100000352E+00 0.  1.
       -3    1    3    3    0  502  0.15880739361E+03  0.12405429256E+04  0.12571305505E+03  0.12569687033E+04  0.10100000352E+00 0. -1.
</event>
<event>
 5   0  0.8407986E-06  0.2503711E+04  0.7818609E-02  0.8401665E-01
        2   -1    0    0  501    0  0.00000000000E+00  0.00000000000E+00  0.20067142666E+04  0.20067142666E+04  0.25500000920E-02 0. -1.
       -2   -1    0    0    0  501  0.00000000000E+00  0.00000000000E+00 -0.78094932288E+03  0.78094932289E+03  0.25500000920E-02 0.  1.
    10030    2    1    2    0    0  0.00000000000E+00  0.00000000000E+00  0.12257649437E+04  0.27876635895E+04  0.25037109639E+04 0.  0.
        5    1    3    3  502    0  0.31338918853E+03 -0.11912542245E+04  0.36436275376E+03  0.12845550659E+04  0.46999998093E+01 0.  1.
       -5    1    3    3    0  502 -0.31338918853E+03  0.11912542245E+04  0.86140218992E+03  0.15031085236E+04  0.46999998093E+01 0. -1.
</event>
<event>
 5   0  0.8579923E-06  0.2501897E+04  0.7818609E-02  0.8402310E-01
        2   -1    0    0  501    0  0.00000000000E+00  0.00000000000E+00  0.24117155103E+04  0.24117155103E+04  0.25500000920E-02 0.  1.
       -2   -1    0    0    0  501  0.00000000000E+00  0.00000000000E+00 -0.64886266301E+03  0.64886266301E+03  0.25500000920E-02 0. -1.
    10030    2    1    2    0    0  0.00000000000E+00  0.00000000000E+00  0.17628528473E+04  0.30605781733E+04  0.25018969990E+04 0.  0.
        1    1    3    3  502    0 -0.20299601715E+03  0.40861025741E+03 -0.54344721210E+03  0.70958057879E+03  0.50400001928E-02 0. -1.
       -1    1    3    3    0  502  0.20299601715E+03 -0.40861025741E+03  0.23063000594E+04  0.23509975945E+04  0.50400001928E-02 0.  1.
</event>
<event>
 5   0  0.2901250E-06  0.2493774E+04  0.7818609E-02  0.8405207E-01
        3   -1    0    0  501    0  0.00000000000E+00  0.00000000000E+00  0.76912779498E+03  0.76912780161E+03  0.10100000352E+00 0. -1.
       -3   -1    0    0    0  501  0.00000000000E+00  0.00000000000E+00 -0.20214160129E+04  0.20214160154E+04  0.10100000352E+00 0.  1.
    10030    2    1    2    0    0  0.00000000000E+00  0.00000000000E+00 -0.12522882179E+04  0.27905438170E+04  0.24937740503E+04 0.  0.
        3    1    3    3  502    0  0.56787929633E+03  0.37501752768E+03 -0.17952771821E+04  0.19199336478E+04  0.10100000352E+00 0.  1.
       -3    1    3    3    0  502 -0.56787929633E+03 -0.37501752768E+03  0.54298896420E+03  0.87061016920E+03  0.10100000352E+00 0. -1.
</event>
<event>
 5   0  0.8579923E-06  0.2493182E+04  0.7818609E-02  0.8405418E-01
        2   -1    0    0  501    0  0.00000000000E+00  0.00000000000E+00  0.16943299479E+04  0.16943299479E+04  0.25500000920E-02 0. -1.
       -2   -1    0    0    0  501  0.00000000000E+00  0.00000000000E+00 -0.91717044608E+03  0.91717044608E+03  0.25500000920E-02 0.  1.
    10030    2    1    2    0    0  0.00000000000E+00  0.00000000000E+00  0.77715950179E+03  0.26115003940E+04  0.24931821868E+04 0.  0.
        1    1    3    3  502    0 -0.78825114430E+03  0.96301661021E+03  0.31269517388E+03  0.12831676156E+04  0.50400001928E-02 0. -1.
       -1    1    3    3    0  502  0.78825114430E+03 -0.96301661021E+03  0.46446432791E+03  0.13283327783E+04  0.50400001928E-02 0.  1.
</event>
<event>
 5   0  0.3522870E-06  0.2478453E+04  0.7818609E-02  0.8410702E-01
       -1   -1    0    0    0  501  0.00000000000E+00  0.00000000000E+00  0.86286561123E+03  0.86286561125E+03  0.50400001928E-02 0.  1.
        1   -1    0    0  501    0  0.00000000000E+00  0.00000000000E+00 -0.17797461424E+04  0.17797461424E+04  0.50400001928E-02 0. -1.
    10030    2    1    2    0    0  0.00000000000E+00  0.00000000000E+00 -0.91688053121E+03  0.26426117537E+04  0.24784525358E+04 0.  0.
        2    1    3    3  502    0  0.52377268556E+03 -0.39491191644E+03  0.66257164285E+03  0.93235960327E+03  0.25500000920E-02 0.  1.
       -2    1    3    3    0  502 -0.52377268556E+03  0.39491191644E+03 -0.15794521741E+04  0.17102521504E+04  0.25500000920E-02 0. -1.
</event>
<event>
 5   0  0.8354653E-06  0.2497124E+04  0.7818609E-02  0.8404011E-01
       -2   -1    0    0    0  501  0.00000000000E+00  0.00000000000E+00  0.92564885532E+03  0.92564885532E+03  0.25500000920E-02 0. -1.
        2   -1    0    0  501    0  0.00000000000E+00  0.00000000000E+00 -0.16841232126E+04  0.16841232126E+04  0.25500000920E-02 0.  1.
    10030    2    1    2    0    0  0.00000000000E+00  0.00000000000E+00 -0.75847435726E+03  0.26097720679E+04  0.24971237246E+04 0.  0.
        3    1    3    3  502    0 -0.85982342481E+03 -0.68154193653E+03  0.24355703464E+03  0.11238842344E+04  0.10100000352E+00 0. -1.
       -3    1    3    3    0  502  0.85982342481E+03  0.68154193653E+03 -0.10020313919E+04  0.14858878335E+04  0.10100000352E+00 0.  1.
</event>
<event>
 5   0  0.3481387E-06  0.2506208E+04  0.7818609E-02  0.8400777E-01
       -1   -1    0    0    0  501  0.00000000000E+00  0.00000000000E+00  0.13857112617E+04  0.13857112617E+04  0.50400001928E-02 0.  1.
        1   -1    0    0  501    0  0.00000000000E+00  0.00000000000E+00 -0.11331865018E+04  0.11331865018E+04  0.50400001928E-02 0. -1.
    10030    2    1    2    0    0  0.00000000000E+00  0.00000000000E+00  0.25252475985E+03  0.25188977635E+04  0.25062077306E+04 0.  0.
        4    1    3    3  502    0  0.85499547825E+02  0.76216732674E+02  0.13804384046E+04  0.13851826468E+04  0.12699999809E+01 0.  1.
       -4    1    3    3    0  502 -0.85499547825E+02 -0.76216732674E+02 -0.11279136448E+04  0.11337151168E+04  0.12699999809E+01 0. -1.
</event>
<event>
 5   0  0.3424193E-06  0.2483446E+04  0.7818609E-02  0.8408907E-01
        1   -1    0    0  501    0  0.00000000000E+00  0.00000000000E+00  0.13682103615E+04  0.13682103615E+04  0.50400001928E-02 0. -1.
       -1   -1    0    0    0  501  0.00000000000E+00  0.00000000000E+00 -0.11269291366E+04  0.11269291366E+04  0.50400001928E-02 0.  1.
    10030    2    1    2    0    0  0.00000000000E+00  0.00000000000E+00  0.24128122495E+03  0.24951394981E+04  0.24834460907E+04 0.  0.
        1    1    3    3  502    0  0.33410372809E+03 -0.67656083222E+03  0.11114463889E+04  0.13433811582E+04  0.50400001928E-02 0. -1.
       -1    1    3    3    0  502 -0.33410372809E+03  0.67656083222E+03 -0.87016516399E+03  0.11517583399E+04  0.50400001928E-02 0.  1.
</event>
<event>
 5   0  0.3642184E-06  0.2510290E+04  0.7818609E-02  0.8399329E-01
       -1   -1    0    0    0  501  0.00000000000E+00  0.00000000000E+00  0.11689640610E+04  0.11689640610E+04  0.50400001928E-02 0.  1.
        1   -1    0    0  501    0  0.00000000000E+00  0.00000000000E+00 -0.13476791411E+04  0.13476791411E+04  0.50400001928E-02 0. -1.
    10030    2    1    2    0    0  0.00000000000E+00  0.00000000000E+00 -0.17871508012E+03  0.25166432021E+04  0.25102896101E+04 0.  0.
        5    1    3    3  502    0 -0.78162129131E+03  0.80547679416E+03 -0.65259949095E+03  0.12983192576E+04  0.46999998093E+01 0. -1.
       -5    1    3    3    0  502  0.78162129131E+03 -0.80547679416E+03  0.47388441084E+03  0.12183239445E+04  0.46999998093E+01 0.  1.
</event>
<event>
 5   0  0.8948286E-06  0.2502271E+04  0.7818609E-02  0.8402177E-01
        2   -1    0    0  501    0  0.00000000000E+00  0.00000000000E+00  0.23675038577E+04  0.23675038577E+04  0.25500000920E-02 0. -1.
       -2   -1    0    0    0  501  0.00000000000E+00  0.00000000000E+00 -0.66117755565E+03  0.66117755565E+03  0.25500000920E-02 0.  1.
    10030    2    1    2    0    0  0.00000000000E+00  0.00000000000E+00  0.17063263021E+04  0.30286814134E+04  0.25022712992E+04 0.  0.
        4    1    3    3  502    0  0.10235877267E+04  0.34971351874E+03  0.92159603037E+02  0.10855995508E+04  0.12699999809E+01 0.  1.
       -4    1    3    3    0  502 -0.10235877267E+04 -0.34971351874E+03  0.16141666990E+04  0.19430818626E+04  0.12699999809E+01 0. -1.
</event>
<event>
 5   0  0.3522870E-06  0.2506995E+04  0.7818609E-02  0.8400498E-01
       -1   -1    0    0    0  501  0.00000000000E+00  0.00000000000E+00  0.81209729350E+03  0.81209729351E+03  0.50400001928E-02 0.  1.
        1   -1    0    0  501    0  0.00000000000E+00  0.00000000000E+00 -0.19348122786E+04  0.19348122786E+04  0.50400001928E-02 0. -1.
    10030    2    1    2    0    0  0.00000000000E+00  0.00000000000E+00 -0.11227149851E+04  0.27469095722E+04  0.25069948663E+04 0.  0.
        2    1    3    3  502    0  0.90479380619E+03  0.86102728470E+03 -0.44521350073E+03  0.13259844939E+04  0.25500000920E-02 0.  1.
       -2    1    3    3    0  502 -0.90479380619E+03 -0.86102728470E+03 -0.67750148440E+03  0.14209250783E+04  0.25500000920E-02 0. -1.
</event>
<event>
 5   0  0.8056723E-06  0.2491092E+04  0.7818609E-02  0.8406166E-01
        2   -1    0    0  501    0  0.00000000000E+00  0.00000000000E+00  0.12385854636E+04  0.12385854636E+04  0.25500000920E-02 0. -1.
       -2   -1    0    0    0  501  0.00000000000E+00  0.00000000000E+00 -0.12525459261E+04  0.12525459261E+04  0.25500000920E-02 0.  1.
    10030    2    1    2    0    0  0.00000000000E+00  0.00000000000E+00 -0.13960462471E+02  0.24911313896E+04  0.24910922717E+04 0.  0.
        2    1    3    3  502    0 -0.28096670003E+03 -0.56402826968E+03 -0.10813876279E+04  0.12515867438E+04  0.25500000920E-02 0.  1.
       -2    1    3    3    0  502  0.28096670003E+03  0.56402826968E+03  0.10674271654E+04  0.12395446458E+04  0.25500000920E-02 0. -1.
</event>
<event>
 5   0  0.8579923E-06  0.2546085E+04  0.7818609E-02  0.8386749E-01
       -2   -1    0    0    0  501  0.00000000000E+00  0.00000000000E+00  0.20593570044E+04  0.20593570044E+04  0.25500000920E-02 0.  1.
        2   -1    0    0  501    0  0.00000000000E+00  0.00000000000E+00 -0.78696267782E+03  0.78696267783E+03  0.25500000920E-02 0. -1.
    10030    2    1    2    0    0  0.00000000000E+00  0.00000000000E+00  0.12723943266E+04  0.28463196822E+04  0.25460849183E+04 0.  0.
        1    1    3    3  502    0 -0.96139731580E+03  0.51459304182E+03  0.13705833388E+04  0.17514535353E+04  0.50400001928E-02 0.  1.
       -1    1    3    3    0  502  0.96139731580E+03 -0.51459304182E+03 -0.98189012297E+02  0.10948661469E+04  0.50400001928E-02 0. -1.
</event>
<event>
 5   0  0.8407986E-06  0.2494748E+04  0.7818609E-02  0.8404859E-01
        2   -1    0    0  501    0  0.00000000000E+00  0.00000000000E+00  0.13709070831E+04  0.13709070831E+04  0.25500000920E-02 0. -1.
       -2   -1    0    0    0  501  0.00000000000E+00  0.00000000000E+00 -0.11349729460E+04  0.11349729460E+04  0.25500000920E-02 0.  1.
    10030    2    1    2    0    0  0.00000000000E+00  0.00000000000E+00  0.23593413706E+03  0.25058800291E+04  0.24947484448E+04 0.  0.
        5    1    3    3  502    0 -0.87545708288E+03 -0.13369520371E+03 -0.76437196305E+03  0.11698658467E+04  0.46999998093E+01 0.  1.
       -5    1    3    3    0  502  0.87545708288E+03  0.13369520371E+03  0.10003061001E+04  0.13360141823E+04  0.46999998093E+01 0. -1.
</event>
<event>
 5   0  0.3522870E-06  0.2503260E+04  0.7818609E-02  0.8401825E-01
        1   -1    0    0  501    0  0.00000000000E+00  0.00000000000E+00  0.10517782859E+04  0.10517782859E+04  0.50400001928E-02 0. -1.
       -1   -1    0    0    0  501  0.00000000000E+00  0.00000000000E+00 -0.14894556025E+04  0.14894556025E+04  0.50400001928E-02 0.  1.
    10030    2    1    2    0    0  0.00000000000E+00  0.00000000000E+00 -0.43767731655E+03  0.25412338884E+04  0.25032595236E+04 0.  0.
        2    1    3    3  502    0 -0.11224150530E+04  0.41537185109E+03  0.15309021252E+03  0.12065595464E+04  0.25500000920E-02 0.  1.
       -2    1    3    3    0  502  0.11224150530E+04 -0.41537185109E+03 -0.59076752907E+03  0.13346743420E+04  0.25500000920E-02 0. -1.
</event>
<event>
 5   0  0.3481387E-06  0.2498277E+04  0.7818609E-02  0.8403600E-01
        1   -1    0    0  501    0  0.00000000000E+00  0.00000000000E+00  0.17582136861E+04  0.17582136861E+04  0.50400001928E-02 0.  1.
       -1   -1    0    0    0  501  0.00000000000E+00  0.00000000000E+00 -0.88746129395E+03  0.88746129397E+03  0.50400001928E-02 0. -1.
    10030    2    1    2    0    0  0.00000000000E+00  0.00000000000E+00  0.87075239214E+03  0.26456749801E+04  0.24982766804E+04 0.  0.
        4    1    3    3  502    0 -0.17387100546E+02 -0.10063135619E+04  0.12188756651E+04  0.15807051578E+04  0.12699999809E+01 0.  1.
       -4    1    3    3    0  502  0.17387100546E+02  0.10063135619E+04 -0.34812327295E+03  0.10649698222E+04  0.12699999809E+01 0. -1.
</event>
<event>
 5   0  0.8948286E-06  0.2464933E+04  0.7818609E-02  0.8415586E-01
        2   -1    0    0  501    0  0.00000000000E+00  0.00000000000E+00  0.70149983207E+03  0.70149983208E+03  0.25500000920E-02 0. -1.
       -2   -1    0    0    0  501  0.00000000000E+00  0.00000000000E+00 -0.21653233802E+04  0.21653233802E+04  0.25500000920E-02 0.  1.
    10030    2    1    2    0    0  0.00000000000E+00  0.00000000000E+00 -0.14638235481E+04  0.28668232123E+04  0.24649332548E+04 0.  0.
        4    1    3    3  502    0 -0.11286172698E+04 -0.39425876245E+03 -0.38347323048E+03  0.12554960155E+04  0.12699999809E+01 0.  1.
       -4    1    3    3    0  502  0.11286172698E+04  0.39425876245E+03 -0.10803503176E+04  0.16113271968E+04  0.12699999809E+01 0. -1.
</event>
<event>
 5   0  0.8354653E-06  0.2525867E+04  0.7818609E-02  0.8393828E-01
        2   -1    0    0  501    0  0.00000000000E+00  0.00000000000E+00  0.17290768076E+04  0.17290768076E+04  0.25500000920E-02 0. -1.
       -2   -1    0    0    0  501  0.00000000000E+00  0.00000000000E+00 -0.92245791729E+03  0.92245791729E+03  0.25500000920E-02 0.  1.
    10030    2    1    2    0    0  0.00000000000E+00  0.00000000000E+00  0.80661889036E+03  0.26515347249E+04  0.25258666559E+04 0.  0.
        3    1    3    3  502    0 -0.24270099691E+02 -0.84765272198E+03  0.13857658119E+04  0.16246387508E+04  0.10100000352E+00 0. -1.
       -3    1    3    3    0  502  0.24270099691E+02  0.84765272198E+03 -0.57914692156E+03  0.10268959742E+04  0.10100000352E+00 0.  1.
</event>
<event>
 5   0  0.3424193E-06  0.2481207E+04  0.7818609E-02  0.8409711E-01
       -1   -1    0    0    0  501  0.00000000000E+00  0.00000000000E+00  0.15558219915E+04  0.15558219915E+04  0.50400001928E-02 0. -1.
        1   -1    0    0  501    0  0.00000000000E+00  0.00000000000E+00 -0.98924999042E+03  0.98924999044E+03  0.50400001928E-02 0.  1.
    10030    2    1    2    0    0  0.00000000000E+00  0.00000000000E+00  0.56657200105E+03  0.25450719819E+04  0.24812068759E+04 0.  0.
        1    1    3    3  502    0  0.31610168431E+03 -0.10638801842E+04 -0.28536198734E+03  0.11459462400E+04  0.50400001928E-02 0.  1.
       -1    1    3    3    0  502 -0.31610168431E+03  0.10638801842E+04  0.85193398839E+03  0.13991257419E+04  0.50400001928E-02 0. -1.
</event>
<event>
 5   0  0.3424193E-06  0.2448023E+04  0.7818609E-02  0.8421740E-01
        1   -1    0    0  501    0  0.00000000000E+00  0.00000000000E+00  0.15088591799E+04  0.15088591799E+04  0.50400001928E-02 0. -1.
       -1   -1    0    0    0  501  0.00000000000E+00  0.00000000000E+00 -0.99293799811E+03  0.99293799812E+03  0.50400001928E-02 0.  1.
    10030    2    1    2    0    0  0.00000000000E+00  0.00000000000E+00  0.51592118176E+03  0.25017971780E+04  0.24480225599E+04 0.  0.
        1    1    3    3  502    0  0.90663724370E+03  0.82218249803E+03  0.27340756556E+03  0.12540840676E+04  0.50400001928E-02 0.  1.
       -1    1    3    3    0  502 -0.90663724370E+03 -0.82218249803E+03  0.24251361619E+03  0.12477131104E+04  0.50400001928E-02 0. -1.
</event>
<event>
 5   0  0.3522870E-06  0.2561675E+04  0.7818609E-02  0.8381337E-01
       -1   -1    0    0    0  501  0.00000000000E+00  0.00000000000E+00  0.84664072251E+03  0.84664072252E+03  0.50400001928E-02 0.  1.
        1   -1    0    0  501    0  0.00000000000E+00  0.00000000000E+00 -0.19377106575E+04  0.19377106575E+04  0.50400001928E-02 0. -1.
    10030    2    1    2    0    0  0.00000000000E+00  0.00000000000E+00 -0.10910699350E+04  0.27843513801E+04  0.25616750388E+04 0.  0.
        2    1    3    3  502    0  0.98180626507E+01  0.10734349399E+04 -0.13049733984E+04  0.16897675979E+04  0.25500000920E-02 0. -1.
       -2    1    3    3    0  502 -0.98180626507E+01 -0.10734349399E+04  0.21390346335E+03  0.10945837821E+04  0.25500000920E-02 0.  1.
</event>
<event>
 5   0  0.3522870E-06  0.2465761E+04  0.7818609E-02  0.8415286E-01
       -1   -1    0    0    0  501  0.00000000000E+00  0.00000000000E+00  0.10205373330E+04  0.10205373331E+04  0.50400001928E-02 0.  1.
        1   -1    0    0  501    0  0.00000000000E+00  0.00000000000E+00 -0.14894063125E+04  0.14894063126E+04  0.50400001928E-02 0. -1.
    10030    2    1    2    0    0  0.00000000000E+00  0.00000000000E+00 -0.46886897950E+03  0.25099436456E+04  0.24657613397E+04 0.  0.
        2    1    3    3  502    0 -0.40451444927E+03 -0.58386605127E+02  0.94957291010E+03  0.10337938126E+04  0.25500000920E-02 0.  1.
       -2    1    3    3    0  502  0.40451444927E+03  0.58386605127E+02 -0.14184418896E+04  0.14761498330E+04  0.25500000920E-02 0. -1.
</event>
<event>
 5   0  0.8407986E-06  0.2499556E+04  0.7818609E-02  0.8403144E-01
       -2   -1    0    0    0  501  0.00000000000E+00  0.00000000000E+00  0.99980057078E+03  0.99980057078E+03  0.25500000920E-02 0.  1.
        2   -1    0    0  501    0  0.00000000000E+00  0.00000000000E+00 -0.15622566043E+04  0.15622566043E+04  0.25500000920E-02 0. -1.
    10030    2    1    2    0    0  0.00000000000E+00  0.00000000000E+00 -0.56245603354E+03  0.25620571751E+04  0.24995559963E+04 0.  0.
        5    1    3    3  502    0  0.20800332344E+03 -0.31138504278E+03 -0.15033919384E+04  0.15493338691E+04  0.46999998093E+01 0. -1.
       -5    1    3    3    0  502 -0.20800332344E+03  0.31138504278E+03  0.94093590488E+03  0.10127233060E+04  0.46999998093E+01 0.  1.
</event>
<event>
 5   0  0.3642184E-06  0.2322791E+04  0.7818609E-02  0.8468989E-01
       -1   -1    0    0    0  501  0.00000000000E+00  0.00000000000E+00  0.10049195555E+04  0.10049195556E+04  0.50400001928E-02 0.  1.
        1   -1    0    0  501    0  0.00000000000E+00  0.00000000000E+00 -0.13422359154E+04  0.13422359154E+04  0.50400001928E-02 0. -1.
    10030    2    1    2    0    0  0.00000000000E+00  0.00000000000E+00 -0.33731635989E+03  0.23471554710E+04  0.23227906661E+04 0.  0.
        5    1    3    3  502    0  0.10770009905E+04 -0.36077557460E+03  0.76220092329E+02  0.11383855855E+04  0.46999998093E+01 0. -1.
       -5    1    3    3    0  502 -0.10770009905E+04  0.36077557460E+03 -0.41353645221E+03  0.12087698855E+04  0.46999998093E+01 0.  1.
</event>
<event>
 5   0  0.3484857E-06  0.2479267E+04  0.7818609E-02  0.8410409E-01
        1   -1    0    0  501    0  0.00000000000E+00  0.00000000000E+00  0.11473128030E+04  0.11473128030E+04  0.50400001928E-02 0.  1.
       -1   -1    0    0    0  501  0.00000000000E+00  0.00000000000E+00 -0.13393827791E+04  0.13393827791E+04  0.50400001928E-02 0. -1.
    10030    2    1    2    0    0  0.00000000000E+00  0.00000000000E+00 -0.19206997612E+03  0.24866955821E+04  0.24792668357E+04 0.  0.
        3    1    3    3  502    0  0.27470835262E+03  0.11689961214E+03 -0.13027862427E+04  0.13365560978E+04  0.10100000352E+00 0. -1.
       -3    1    3    3    0  502 -0.27470835262E+03 -0.11689961214E+03  0.11107162666E+04  0.11501394843E+04  0.10100000352E+00 0.  1.
</event>
<event>
 5   0  0.3642184E-06  0.2502045E+04  0.7818609E-02  0.8402257E-01
        1   -1    0    0  501    0  0.00000000000E+00  0.00000000000E+00  0.23385311568E+04  0.23385311568E+04  0.50400001928E-02 0.  1.
       -1   -1    0    0    0  501  0.00000000000E+00  0.00000000000E+00 -0.66924820524E+03  0.66924820525E+03  0.50400001928E-02 0. -1.
    10030    2    1    2    0    0  0.00000000000E+00  0.00000000000E+00  0.16692829516E+04  0.30077793621E+04  0.25020453870E+04 0.  0.
        5    1    3    3  502    0 -0.11042060924E+04 -0.58668548416E+03  0.78708917077E+03  0.14774986987E+04  0.46999998093E+01 0. -1.
       -5    1    3    3    0  502  0.11042060924E+04  0.58668548416E+03  0.88219378080E+03  0.15302806634E+04  0.46999998093E+01 0.  1.
</event>
<event>
 5   0  0.3424193E-06  0.2498714E+04  0.7818609E-02  0.8403444E-01
       -1   -1    0    0    0  501  0.00000000000E+00  0.00000000000E+00  0.74622230607E+03  0.74622230609E+03  0.50400001928E-02 0.  1.
        1   -1    0    0  501    0  0.00000000000E+00  0.00000000000E+00 -0.20917264341E+04  0.20917264341E+04  0.50400001928E-02 0. -1.
    10030    2    1    2    0    0  0.00000000000E+00  0.00000000000E+00 -0.13455041280E+04  0.28379487402E+04  0.24987140079E+04 0.  0.
        1    1    3    3  502    0  0.12967996370E+03 -0.68806210740E+03 -0.18479501073E+04  0.19761492747E+04  0.50400001928E-02 0. -1.
       -1    1    3    3    0  502 -0.12967996370E+03  0.68806210740E+03  0.50244597929E+03  0.86179946551E+03  0.50400001928E-02 0.  1.
</event>
<event>
 5   0  0.8056723E-06  0.2501809E+04  0.7818609E-02  0.8402341E-01
       -2   -1    0    0    0  501  0.00000000000E+00  0.00000000000E+00  0.15627274512E+04  0.15627274513E+04  0.25500000920E-02 0. -1.
        2   -1    0    0  501    0  0.00000000000E+00  0.00000000000E+00 -0.10013018313E+04  0.10013018313E+04  0.25500000920E-02 0.  1.
    10030    2    1    2    0    0  0.00000000000E+00  0.00000000000E+00  0.56142561994E+03  0.25640292826E+04  0.25018088327E+04 0.  0.
        2    1    3    3  502    0  0.16366577994E+03  0.10174986237E+04  0.10073392104E+04  0.14411183926E+04  0.25500000920E-02 0. -1.
       -2    1    3    3    0  502 -0.16366577994E+03 -0.10174986237E+04 -0.44591359043E+03  0.11229108900E+04  0.25500000920E-02 0.  1.
</event>
<event>
 5   0  0.8579923E-06  0.2495779E+04  0.7818609E-02  0.8404491E-01
        2   -1    0    0  501    0  0.00000000000E+00  0.00000000000E+00  0.19970176161E+04  0.19970176161E+04  0.25500000920E-02 0. -1.
       -2   -1    0    0    0  501  0.00000000000E+00  0.00000000000E+00 -0.77977659979E+03  0.77977659980E+03  0.25500000920E-02 0.  1.
    10030    2    1    2    0    0  0.00000000000E+00  0.00000000000E+00  0.12172410163E+04  0.27767942159E+04  0.24957785209E+04 0.  0.
        1    1    3    3  502    0 -0.88807161877E+03 -0.46434987971E+03 -0.21870216709E+03  0.10257303002E+04  0.50400001928E-02 0.  1.
       -1    1    3    3    0  502  0.88807161877E+03  0.46434987971E+03  0.14359431833E+04  0.17510639156E+04  0.50400001928E-02 0. -1.
</event>
<event>
 5   0  0.3642184E-06  0.2486081E+04  0.7818609E-02  0.8407961E-01
       -1   -1    0    0    0  501  0.00000000000E+00  0.00000000000E+00  0.28427394374E+04  0.28427394374E+04  0.50400001928E-02 0.  1.
        1   -1    0    0  501    0  0.00000000000E+00  0.00000000000E+00 -0.54354269656E+03  0.54354269658E+03  0.50400001928E-02 0. -1.
    10030    2    1    2    0    0  0.00000000000E+00  0.00000000000E+00  0.22991967408E+04  0.33862821340E+04  0.24860814624E+04 0.  0.
        5    1    3    3  502    0  0.62829379132E+03  0.30506349573E+03 -0.25098585331E+03  0.74218111886E+03  0.46999998093E+01 0. -1.
       -5    1    3    3    0  502 -0.62829379132E+03 -0.30506349573E+03  0.25501825942E+04  0.26441010151E+04  0.46999998093E+01 0.  1.
</event>
<event>
 5   0  0.3522870E-06  0.2505504E+04  0.7818609E-02  0.8401027E-01
       -1   -1    0    0    0  501  0.00000000000E+00  0.00000000000E+00  0.12196144508E+04  0.12196144508E+04  0.50400001928E-02 0.  1.
        1   -1    0    0  501    0  0.00000000000E+00  0.00000000000E+00 -0.12867900089E+04  0.12867900089E+04  0.50400001928E-02 0. -1.
    10030    2    1    2    0    0  0.00000000000E+00  0.00000000000E+00 -0.67175558119E+02  0.25064044597E+04  0.25055040930E+04 0.  0.
        2    1    3    3  502    0  0.90544080991E+03  0.55083763435E+03  0.63459126545E+03  0.12352939868E+04  0.25500000920E-02 0.  1.
       -2    1    3    3    0  502 -0.90544080991E+03 -0.55083763435E+03 -0.70176682357E+03  0.12711104729E+04  0.25500000920E-02 0. -1.
</event>
<event>
 5   0  0.3484857E-06  0.2500647E+04  0.7818609E-02  0.8402755E-01
       -1   -1    0    0    0  501  0.00000000000E+00  0.00000000000E+00  0.11694278489E+04  0.11694278489E+04  0.50400001928E-02 0.  1.
        1   -1    0    0  501    0  0.00000000000E+00  0.00000000000E+00 -0.13368154814E+04  0.13368154814E+04  0.50400001928E-02 0. -1.
    10030    2    1    2    0    0  0.00000000000E+00  0.00000000000E+00 -0.16738763251E+03  0.25062433303E+04  0.25006473184E+04 0.  0.
        3    1    3    3  502    0  0.81344699190E+02 -0.33627758451E+03 -0.12878856575E+04  0.13335475436E+04  0.10100000352E+00 0. -1.
       -3    1    3    3    0  502 -0.81344699190E+02  0.33627758451E+03  0.11204980250E+04  0.11726957867E+04  0.10100000352E+00 0.  1.
</event>
<event>
 5   0  0.8056723E-06  0.2500864E+04  0.7818609E-02  0.8402678E-01
       -2   -1    0    0    0  501  0.00000000000E+00  0.00000000000E+00  0.12549722504E+04  0.12549722504E+04  0.25500000920E-02 0.  1.
        2   -1    0    0  501    0  0.00000000000E+00  0.00000000000E+00 -0.12459083781E+04  0.12459083781E+04  0.25500000920E-02 0. -1.
    10030    2    1    2    0    0  0.00000000000E+00  0.00000000000E+00  0.90638722962E+01  0.25008806286E+04  0.25008642036E+04 0.  0.
        2    1    3    3  502    0  0.10941901697E+04 -0.48136153785E+03  0.37143948825E+03  0.12517700872E+04  0.25500000920E-02 0.  1.
       -2    1    3    3    0  502 -0.10941901697E+04  0.48136153785E+03 -0.36237561595E+03  0.12491105414E+04  0.25500000920E-02 0. -1.
</event>
<event>
 5   0  0.8579923E-06  0.2514653E+04  0.7818609E-02  0.8397784E-01
        2   -1    0    0  501    0  0.00000000000E+00  0.00000000000E+00  0.13819558916E+04  0.13819558916E+04  0.25500000920E-02 0. -1.
       -2   -1    0    0    0  501  0.00000000000E+00  0.00000000000E+00 -0.11439365304E+04  0.11439365304E+04  0.25500000920E-02 0.  1.
    10030    2    1    2    0    0  0.00000000000E+00  0.00000000000E+00  0.23801936114E+03  0.25258924220E+04  0.25146529206E+04 0.  0.
        1    1    3    3  502    0  0.11245602978E+04  0.15354485396E+03 -0.42438696889E+03  0.12117409727E+04  0.50400001928E-02 0.  1.
       -1    1    3    3    0  502 -0.11245602978E+04 -0.15354485396E+03  0.66240633003E+03  0.13141514493E+04  0.50400001928E-02 0. -1.
</event>
<event>
 5   0  0.3424193E-06  0.2490349E+04  0.7818609E-02  0.8406432E-01
       -1   -1    0    0    0  501  0.00000000000E+00  0.00000000000E+00  0.65757973054E+03  0.65757973056E+03  0.50400001928E-02 0.  1.
        1   -1    0    0  501    0  0.00000000000E+00  0.00000000000E+00 -0.23578281316E+04  0.23578281316E+04  0.50400001928E-02 0. -1.
    10030    2    1    2    0    0  0.00000000000E+00  0.00000000000E+00 -0.17002484011E+04  0.30154078622E+04  0.24903493631E+04 0.  0.
        1    1    3    3  502    0  0.66804749513E+02 -0.55055822220E+03  0.49977352986E+03  0.74655931563E+03  0.50400001928E-02 0.  1.
       -1    1    3    3    0  502 -0.66804749513E+02  0.55055822220E+03 -0.22000219310E+04  0.22688485466E+04  0.50400001928E-02 0. -1.
</event>
<event>
 5   0  0.8056723E-06  0.2497741E+04  0.7818609E-02  0.8403791E-01
        2   -1    0    0  501    0  0.00000000000E+00  0.00000000000E+00  0.87425285170E+03  0.87425285171E+03  0.25500000920E-02 0. -1.
       -2   -1    0    0    0  501  0.00000000000E+00  0.00000000000E+00 -0.17840119445E+04  0.17840119445E+04  0.25500000920E-02 0.  1.
    10030    2    1    2    0    0  0.00000000000E+00  0.00000000000E+00 -0.90975909282E+03  0.26582647962E+04  0.24977410034E+04 0.  0.
        2    1    3    3  502    0 -0.10100277647E+04  0.72284756660E+03 -0.31606363648E+03  0.12816243258E+04  0.25500000920E-02 0.  1.
       -2    1    3    3    0  502  0.10100277647E+04 -0.72284756660E+03 -0.59369545634E+03  0.13766404705E+04  0.25500000920E-02 0. -1.
</event>
<event>
 5   0  0.3481387E-06  0.2493974E+04  0.7818609E-02  0.8405135E-01
        1   -1    0    0  501    0  0.00000000000E+00  0.00000000000E+00  0.15090868330E+04  0.15090868330E+04  0.50400001928E-02 0.  1.
       -1   -1    0    0    0  501  0.00000000000E+00  0.00000000000E+00 -0.10304093196E+04  0.10304093196E+04  0.50400001928E-02 0. -1.
    10030    2    1    2    0    0  0.00000000000E+00  0.00000000000E+00  0.47867751339E+03  0.25394961525E+04  0.24939744479E+04 0.  0.
        4    1    3    3  502    0 -0.72962288431E+03 -0.38819478971E+03 -0.71147742226E+03  0.10905257830E+04  0.12699999809E+01 0. -1.
       -4    1    3    3    0  502  0.72962288431E+03  0.38819478971E+03  0.11901549357E+04  0.14489703695E+04  0.12699999809E+01 0.  1.
</event>
<event>
 5   0  0.3484857E-06  0.2506040E+04  0.7818609E-02  0.8400837E-01
        1   -1    0    0  501    0  0.00000000000E+00  0.00000000000E+00  0.19836666664E+04  0.19836666664E+04  0.50400001928E-02 0.  1.
       -1   -1    0    0    0  501  0.00000000000E+00  0.00000000000E+00 -0.79149365165E+03  0.79149365167E+03  0.50400001928E-02 0. -1.
    10030    2    1    2    0    0  0.00000000000E+00  0.00000000000E+00  0.11921730147E+04  0.27751603181E+04  0.25060403616E+04 0.  0.
        3    1    3    3  502    0 -0.47518955444E+03  0.10432619510E+04  0.11562313272E+04  0.16282111360E+04  0.10100000352E+00 0.  1.
       -3    1    3    3    0  502  0.47518955444E+03 -0.10432619510E+04  0.35941687506E+02  0.11469491821E+04  0.10100000352E+00 0. -1.
</event>
<event>
 5   0  0.8407986E-06  0.2498253E+04  0.7818609E-02  0.8403608E-01
        2   -1    0    0  501    0  0.00000000000E+00  0.00000000000E+00  0.79546966545E+03  0.79546966545E+03  0.25500000920E-02 0.  1.
       -2   -1    0    0    0  501  0.00000000000E+00  0.00000000000E+00 -0.19615038942E+04  0.19615038942E+04  0.25500000920E-02 0. -1.
    10030    2    1    2    0    0  0.00000000000E+00  0.00000000000E+00 -0.11660342288E+04  0.27569735597E+04  0.24982528667E+04 0.  0.
        5    1    3    3  502    0 -0.92103172393E+03 -0.75487484011E+03 -0.16693041016E+03  0.12025070946E+04  0.46999998093E+01 0.  1.
       -5    1    3    3    0  502  0.92103172393E+03  0.75487484011E+03 -0.99910381863E+03  0.15544664651E+04  0.46999998093E+01 0. -1.
</event>
<event>
 5   0  0.8056723E-06  0.2510117E+04  0.7818609E-02  0.8399390E-01
       -2   -1    0    0    0  501  0.00000000000E+00  0.00000000000E+00  0.92384879407E+03  0.92384879407E+03  0.25500000920E-02 0.  1.
        2   -1    0    0  501    0  0.00000000000E+00  0.00000000000E+00 -0.17050106346E+04  0.17050106346E+04  0.25500000920E-02 0. -1.
    10030    2    1    2    0    0  0.00000000000E+00  0.00000000000E+00 -0.78116184057E+03  0.26288594287E+04  0.25101171436E+04 0.  0.
        2    1    3    3  502    0  0.39609198228E+03  0.76474226294E+03 -0.13467039590E+04  0.15985403156E+04  0.25500000920E-02 0. -1.
       -2    1    3    3    0  502 -0.39609198228E+03 -0.76474226294E+03  0.56554211847E+03  0.10303191132E+04  0.25500000920E-02 0.  1.
</event>
<event>
 5   0  0.2901250E-06  0.2498385E+04  0.7818609E-02  0.8403561E-01
       -3   -1    0    0    0  501  0.00000000000E+00  0.00000000000E+00  0.11356041637E+04  0.11356041682E+04  0.10100000352E+00 0. -1.
        3   -1    0    0  501    0  0.00000000000E+00  0.00000000000E+00 -0.13741425496E+04  0.13741425533E+04  0.10100000352E+00 0.  1.
    10030    2    1    2    0    0  0.00000000000E+00  0.00000000000E+00 -0.23853838586E+03  0.25097467215E+04  0.24983850874E+04 0.  0.
        4    1    3    3  502    0 -0.73238772530E+03 -0.73128488653E+03  0.58341958971E+03  0.11880864430E+04  0.12699999809E+01 0. -1.
       -4    1    3    3    0  502  0.73238772530E+03  0.73128488653E+03 -0.82195797557E+03  0.13216602786E+04  0.12699999809E+01 0.  1.
</event>
<event>
 5   0  0.3642184E-06  0.2489070E+04  0.7818609E-02  0.8406890E-01
       -1   -1    0    0    0  501  0.00000000000E+00  0.00000000000E+00  0.89329035227E+03  0.89329035228E+03  0.50400001928E-02 0. -1.
        1   -1    0    0  501    0  0.00000000000E+00  0.00000000000E+00 -0.17338906259E+04  0.17338906259E+04  0.50400001928E-02 0.  1.
    10030    2    1    2    0    0  0.00000000000E+00  0.00000000000E+00 -0.84060027363E+03  0.26271809782E+04  0.24890703229E+04 0.  0.
        5    1    3    3  502    0 -0.11312950989E+04 -0.49931871863E+03 -0.27216341557E+03  0.12661922438E+04  0.46999998093E+01 0. -1.
       -5    1    3    3    0  502  0.11312950989E+04  0.49931871863E+03 -0.56843685806E+03  0.13609887344E+04  0.46999998093E+01 0.  1.
</event>
<event>
 5   0  0.3522870E-06  0.2502362E+04  0.7818609E-02  0.8402145E-01
        1   -1    0    0  501    0  0.00000000000E+00  0.00000000000E+00  0.18981836047E+04  0.18981836047E+04  0.50400001928E-02 0.  1.
       -1   -1    0    0    0  501  0.00000000000E+00  0.00000000000E+00 -0.82471160108E+03  0.82471160109E+03  0.50400001928E-02 0. -1.
    10030    2    1    2    0    0  0.00000000000E+00  0.00000000000E+00  0.10734720036E+04  0.27228952058E+04  0.25023621159E+04 0.  0.
        2    1    3    3  502    0 -0.10453463507E+04  0.32093778671E+03  0.11983547999E+04  0.16222836628E+04  0.25500000920E-02 0.  1.
       -2    1    3    3    0  502  0.10453463507E+04 -0.32093778671E+03 -0.12488279630E+03  0.11006115431E+04  0.25500000920E-02 0. -1.
</event>
<event>
 5   0  0.3424193E-06  0.2475786E+04  0.7818609E-02  0.8411663E-01
       -1   -1    0    0    0  501  0.00000000000E+00  0.00000000000E+00  0.16878432457E+04  0.16878432457E+04  0.50400001928E-02 0.  1.
        1   -1    0    0  501    0  0.00000000000E+00  0.00000000000E+00 -0.90789147218E+03  0.90789147220E+03  0.50400001928E-02 0. -1.
    10030    2    1    2    0    0  0.00000000000E+00  0.00000000000E+00  0.77995177347E+03  0.25957347179E+04  0.24757855231E+04 0.  0.
        1    1    3    3  502    0 -0.60386354743E+03 -0.41254137689E+03  0.14371328268E+04  0.16125111886E+04  0.50400001928E-02 0.  1.
       -1    1    3    3    0  502  0.60386354743E+03  0.41254137689E+03 -0.65718105332E+03  0.98322352923E+03  0.50400001928E-02 0. -1.
</event>
<event>
 5   0  0.8056723E-06  0.2501560E+04  0.7818609E-02  0.8402430E-01
        2   -1    0    0  501    0  0.00000000000E+00  0.00000000000E+00  0.14066800429E+04  0.14066800429E+04  0.25500000920E-02 0. -1.
       -2   -1    0    0    0  501  0.00000000000E+00  0.00000000000E+00 -0.11121579076E+04  0.11121579076E+04  0.25500000920E-02 0.  1.
    10030    2    1    2    0    0  0.00000000000E+00  0.00000000000E+00  0.29452213532E+03  0.25188379506E+04  0.25015597800E+04 0.  0.
        2    1    3    3  502    0  0.17542016915E+03  0.90717431451E+03  0.99612177174E+03  0.13586743748E+04  0.25500000920E-02 0. -1.
       -2    1    3    3    0  502 -0.17542016915E+03 -0.90717431451E+03 -0.70159963642E+03  0.11601635757E+04  0.25500000920E-02 0.  1.
</event>
<event>
 5   0  0.3424193E-06  0.2495182E+04  0.7818609E-02  0.8404704E-01
        1   -1    0    0  501    0  0.00000000000E+00  0.00000000000E+00  0.13998324477E+04  0.13998324477E+04  0.50400001928E-02 0. -1.
       -1   -1    0    0    0  501  0.00000000000E+00  0.00000000000E+00 -0.11119069776E+04  0.11119069776E+04  0.50400001928E-02 0.  1.
    10030    2    1    2    0    0  0.00000000000E+00  0.00000000000E+00  0.28792547009E+03  0.25117394253E+04  0.24951821305E+04 0.  0.
        1    1    3    3  502    0 -0.39645097455E+03  0.45277674333E+02 -0.10459385891E+04  0.11194690595E+04  0.50400001928E-02 0.  1.
       -1    1    3    3    0  502  0.39645097455E+03 -0.45277674333E+02  0.13338640592E+04  0.13922703658E+04  0.50400001928E-02 0. -1.
</event>
<event>
 5   0  0.8407986E-06  0.2442379E+04  0.7818609E-02  0.8423806E-01
        2   -1    0    0  501    0  0.00000000000E+00  0.00000000000E+00  0.16772877571E+04  0.16772877571E+04  0.25500000920E-02 0.  1.
       -2   -1    0    0    0  501  0.00000000000E+00  0.00000000000E+00 -0.88911626704E+03  0.88911626704E+03  0.25500000920E-02 0. -1.
    10030    2    1    2    0    0  0.00000000000E+00  0.00000000000E+00  0.78817149008E+03  0.25664040242E+04  0.24423790282E+04 0.  0.
        5    1    3    3  502    0  0.82448157064E+03 -0.88983146688E+03  0.24655737516E+03  0.12378943933E+04  0.46999998093E+01 0. -1.
       -5    1    3    3    0  502 -0.82448157064E+03  0.88983146688E+03  0.54161411492E+03  0.13285096308E+04  0.46999998093E+01 0.  1.
</event>
<event>
 5   0  0.3484857E-06  0.2494487E+04  0.7818609E-02  0.8404952E-01
        1   -1    0    0  501    0  0.00000000000E+00  0.00000000000E+00  0.14375368936E+04  0.14375368936E+04  0.50400001928E-02 0. -1.
       -1   -1    0    0    0  501  0.00000000000E+00  0.00000000000E+00 -0.10821400945E+04  0.10821400945E+04  0.50400001928E-02 0.  1.
    10030    2    1    2    0    0  0.00000000000E+00  0.00000000000E+00  0.35539679910E+03  0.25196769881E+04  0.24944869692E+04 0.  0.
        3    1    3    3  502    0  0.85513879569E+03  0.83634031234E+03 -0.17926641805E+03  0.12094891222E+04  0.10100000352E+00 0.  1.
       -3    1    3    3    0  502 -0.85513879569E+03 -0.83634031234E+03  0.53466321715E+03  0.13101878659E+04  0.10100000352E+00 0. -1.
</event>
<event>
 5   0  0.2901250E-06  0.2502290E+04  0.7818609E-02  0.8402170E-01
        3   -1    0    0  501    0  0.00000000000E+00  0.00000000000E+00  0.16292988399E+04  0.16292988430E+04  0.10100000352E+00 0. -1.
       -3   -1    0    0    0  501  0.00000000000E+00  0.00000000000E+00 -0.96075883775E+03  0.96075884306E+03  0.10100000352E+00 0.  1.
    10030    2    1    2    0    0  0.00000000000E+00  0.00000000000E+00  0.66854000213E+03  0.25900576861E+04  0.25022895681E+04 0.  0.
        4    1    3    3  502    0 -0.95111595095E+03 -0.74917468781E+03  0.78069248717E+01  0.12107629107E+04  0.12699999809E+01 0.  1.
       -4    1    3    3    0  502  0.95111595095E+03  0.74917468781E+03  0.66073307726E+03  0.13792947753E+04  0.12699999809E+01 0. -1.
</event>
<event>
 5   0  0.3642184E-06  0.2493906E+04  0.7818609E-02  0.8405160E-01
        1   -1    0    0  501    0  0.00000000000E+00  0.00000000000E+00  0.23103693228E+04  0.23103693228E+04  0.50400001928E-02 0. -1.
       -1   -1    0    0    0  501  0.00000000000E+00  0.00000000000E+00 -0.67300580127E+03  0.67300580129E+03  0.50400001928E-02 0.  1.
    10030    2    1    2    0    0  0.00000000000E+00  0.00000000000E+00  0.16373635215E+04  0.29833751241E+04  0.24939061389E+04 0.  0.
        5    1    3    3  502    0  0.55375957172E+02 -0.37221894218E+03  0.22408083124E+04  0.22721922059E+04  0.46999998093E+01 0. -1.
       -5    1    3    3    0  502 -0.55375957172E+02  0.37221894218E+03 -0.60344479087E+03  0.71118291822E+03  0.46999998093E+01 0.  1.
</event>
<event>
 5   0  0.8056723E-06  0.2627078E+04  0.7818609E-02  0.8359061E-01
        2   -1    0    0  501    0  0.00000000000E+00  0.00000000000E+00  0.11428911154E+04  0.11428911154E+04  0.25500000920E-02 0.  1.
       -2   -1    0    0    0  501  0.00000000000E+00  0.00000000000E+00 -0.15096666937E+04  0.15096666937E+04  0.25500000920E-02 0. -1.
    10030    2    1    2    0    0  0.00000000000E+00  0.00000000000E+00 -0.36677557830E+03  0.26525578090E+04  0.26270779595E+04 0.  0.
        2    1    3    3  502    0 -0.12785321728E+04 -0.27270938922E+03 -0.54202646371E+02  0.13084161626E+04  0.25500000920E-02 0.  1.
       -2    1    3    3    0  502  0.12785321728E+04  0.27270938922E+03 -0.31257293193E+03  0.13441416464E+04  0.25500000920E-02 0. -1.
</event>
<event>
 5   0  0.2901250E-06  0.2484660E+04  0.7818609E-02  0.8408471E-01
        3   -1    0    0  501    0  0.00000000000E+00  0.00000000000E+00  0.17804920809E+04  0.17804920838E+04  0.10100000352E+00 0.  1.
       -3   -1    0    0    0  501  0.00000000000E+00  0.00000000000E+00 -0.86683006272E+03  0.86683006861E+03  0.10100000352E+00 0. -1.
    10030    2    1    2    0    0  0.00000000000E+00  0.00000000000E+00  0.91366201818E+03  0.26473221524E+04  0.24846601971E+04 0.  0.
        4    1    3    3  502    0  0.60111610978E+03  0.59521283808E+03 -0.51254650842E+03  0.98910284412E+03  0.12699999809E+01 0. -1.
       -4    1    3    3    0  502 -0.60111610978E+03 -0.59521283808E+03  0.14262085266E+04  0.16582193083E+04  0.12699999809E+01 0.  1.
</event>
<event>
 5   0  0.3424193E-06  0.2482462E+04  0.7818609E-02  0.8409260E-01
        1   -1    0    0  501    0  0.00000000000E+00  0.00000000000E+00  0.73670999147E+03  0.73670999149E+03  0.50400001928E-02 0. -1.
       -1   -1    0    0    0  501  0.00000000000E+00  0.00000000000E+00 -0.20912633465E+04  0.20912633465E+04  0.50400001928E-02 0.  1.
    10030    2    1    2    0    0  0.00000000000E+00  0.00000000000E+00 -0.13545533550E+04  0.28279733380E+04  0.24824621666E+04 0.  0.
        1    1    3    3  502    0  0.40883184501E+03  0.27418473136E+03 -0.19753100655E+04  0.20357236059E+04  0.50400001928E-02 0.  1.
       -1    1    3    3    0  502 -0.40883184501E+03 -0.27418473136E+03  0.62075671051E+03  0.79224973214E+03  0.50400001928E-02 0. -1.
</event>
<event>
 5   0  0.8056723E-06  0.2488506E+04  0.7818609E-02  0.8407092E-01
       -2   -1    0    0    0  501  0.00000000000E+00  0.00000000000E+00  0.64074156960E+03  0.64074156961E+03  0.25500000920E-02 0. -1.
        2   -1    0    0  501    0  0.00000000000E+00  0.00000000000E+00 -0.24162096492E+04  0.24162096492E+04  0.25500000920E-02 0.  1.
    10030    2    1    2    0    0  0.00000000000E+00  0.00000000000E+00 -0.17754680796E+04  0.30569512188E+04  0.24885063497E+04 0.  0.
        2    1    3    3  502    0  0.10802426334E+04 -0.19856293460E+03 -0.16953462778E+03  0.11113475496E+04  0.25500000920E-02 0. -1.
       -2    1    3    3    0  502 -0.10802426334E+04  0.19856293460E+03 -0.16059334518E+04  0.19456036692E+04  0.25500000920E-02 0.  1.
</event>
<event>
 5   0  0.3522870E-06  0.2522957E+04  0.7818609E-02  0.8394852E-01
        1   -1    0    0  501    0  0.00000000000E+00  0.00000000000E+00  0.13028750582E+04  0.13028750582E+04  0.50400001928E-02 0. -1.
       -1   -1    0    0    0  501  0.00000000000E+00  0.00000000000E+00 -0.12213976098E+04  0.12213976098E+04  0.50400001928E-02 0.  1.
    10030    2    1    2    0    0  0.00000000000E+00  0.00000000000E+00  0.81477448424E+02  0.25242726680E+04  0.25229573773E+04 0.  0.
        2    1    3    3  502    0  0.45725816886E+03  0.45996134653E+03  0.11232820003E+04  0.12970782264E+04  0.25500000920E-02 0. -1.
       -2    1    3    3    0  502 -0.45725816886E+03 -0.45996134653E+03 -0.10418045518E+04  0.12271944416E+04  0.25500000920E-02 0.  1.
</event>
<event>
 5   0  0.3522870E-06  0.2469602E+04  0.7818609E-02  0.8413896E-01
       -1   -1    0    0    0  501  0.00000000000E+00  0.00000000000E+00  0.11840219649E+04  0.11840219649E+04  0.50400001928E-02 0. -1.
        1   -1    0    0  501    0  0.00000000000E+00  0.00000000000E+00 -0.12877577752E+04  0.12877577752E+04  0.50400001928E-02 0.  1.
    10030    2    1    2    0    0  0.00000000000E+00  0.00000000000E+00 -0.10373581029E+03  0.24717797401E+04  0.24696019852E+04 0.  0.
        2    1    3    3  502    0 -0.22466577183E+03 -0.12103144572E+04  0.45159300232E+02  0.12318178261E+04  0.25500000920E-02 0.  1.
       -2    1    3    3    0  502  0.22466577183E+03  0.12103144572E+04 -0.14889511052E+03  0.12399619140E+04  0.25500000920E-02 0. -1.
</event>
<event>
 5   0  0.3481387E-06  0.2475668E+04  0.7818609E-02  0.8411706E-01
       -1   -1    0    0    0  501  0.00000000000E+00  0.00000000000E+00  0.10540952080E+04  0.10540952080E+04  0.50400001928E-02 0. -1.
        1   -1    0    0  501    0  0.00000000000E+00  0.00000000000E+00 -0.14536003236E+04  0.14536003236E+04  0.50400001928E-02 0.  1.
    10030    2    1    2    0    0  0.00000000000E+00  0.00000000000E+00 -0.39950511561E+03  0.25076955317E+04  0.24756681001E+04 0.  0.
        4    1    3    3  502    0  0.57332705696E+03  0.10571567007E+04  0.97207850173E+02  0.12065385129E+04  0.12699999809E+01 0.  1.
       -4    1    3    3    0  502 -0.57332705696E+03 -0.10571567007E+04 -0.49671296578E+03  0.13011570187E+04  0.12699999809E+01 0. -1.
</event>
<event>
 5   0  0.3481387E-06  0.2450822E+04  0.7818609E-02  0.8420718E-01
        1   -1    0    0  501    0  0.00000000000E+00  0.00000000000E+00  0.18027058615E+04  0.18027058615E+04  0.50400001928E-02 0.  1.
       -1   -1    0    0    0  501  0.00000000000E+00  0.00000000000E+00 -0.83298760066E+03  0.83298760067E+03  0.50400001928E-02 0. -1.
    10030    2    1    2    0    0  0.00000000000E+00  0.00000000000E+00  0.96971826083E+03  0.26356934622E+04  0.24508216012E+04 0.  0.
        4    1    3    3  502    0 -0.10090976215E+04  0.68105277797E+03  0.33460952818E+03  0.12625672439E+04  0.12699999809E+01 0. -1.
       -4    1    3    3    0  502  0.10090976215E+04 -0.68105277797E+03  0.63510873266E+03  0.13731262183E+04  0.12699999809E+01 0.  1.
</event>
<event>
 5   0  0.3642184E-06  0.2463809E+04  0.7818609E-02  0.8415993E-01
       -1   -1    0    0    0  501  0.00000000000E+00  0.00000000000E+00  0.15527309380E+04  0.15527309380E+04  0.50400001928E-02 0.  1.
        1   -1    0    0  501    0  0.00000000000E+00  0.00000000000E+00 -0.97736739491E+03  0.97736739492E+03  0.50400001928E-02 0. -1.
    10030    2    1    2    0    0  0.00000000000E+00  0.00000000000E+00  0.57536354307E+03  0.25300983329E+04  0.24638089146E+04 0.  0.
        5    1    3    3  502    0 -0.78417485015E+03 -0.90644347278E+03  0.57993788430E+03  0.13315104223E+04  0.46999998093E+01 0. -1.
       -5    1    3    3    0  502  0.78417485015E+03  0.90644347278E+03 -0.45743412272E+01  0.11985879106E+04  0.46999998093E+01 0.  1.
</event>
<event>
 5   0  0.3484857E-06  0.2491521E+04  0.7818609E-02  0.8406012E-01
       -1   -1    0    0    0  501  0.00000000000E+00  0.00000000000E+00  0.87042422589E+03  0.87042422591E+03  0.50400001928E-02 0. -1.
        1   -1    0    0  501    0  0.00000000000E+00  0.00000000000E+00 -0.17829460338E+04  0.17829460338E+04  0.50400001928E-02 0.  1.
    10030    2    1    2    0    0  0.00000000000E+00  0.00000000000E+00 -0.91252180794E+03  0.26533702598E+04  0.24915211589E+04 0.  0.
        3    1    3    3  502    0  0.61300856877E+03  0.91505567971E+03 -0.10761490275E+04  0.15398711446E+04  0.10100000352E+00 0.  1.
       -3    1    3    3    0  502 -0.61300856877E+03 -0.91505567971E+03  0.16362721951E+03  0.11134991152E+04  0.10100000352E+00 0. -1.
</event>
<event>
 5   0  0.8407986E-06  0.2497722E+04  0.7818609E-02  0.8403797E-01
        2   -1    0    0  501    0  0.00000000000E+00  0.00000000000E+00  0.16352671757E+04  0.16352671757E+04  0.25500000920E-02 0.  1.
       -2   -1    0    0    0  501  0.00000000000E+00  0.00000000000E+00 -0.95376102437E+03  0.95376102438E+03  0.25500000920E-02 0. -1.
    10030    2    1    2    0    0  0.00000000000E+00  0.00000000000E+00  0.68150615132E+03  0.25890282001E+04  0.24977222397E+04 0.  0.
        5    1    3    3  502    0  0.68271103729E+03 -0.10307104235E+04  0.52376803976E+03  0.13426888645E+04  0.46999998093E+01 0.  1.
       -5    1    3    3    0  502 -0.68271103729E+03  0.10307104235E+04  0.15773811156E+03  0.12463393355E+04  0.46999998093E+01 0. -1.
</event>
<event>
 5   0  0.3642184E-06  0.2510726E+04  0.7818609E-02  0.8399174E-01
       -1   -1    0    0    0  501  0.00000000000E+00  0.00000000000E+00  0.96893993121E+03  0.96893993122E+03  0.50400001928E-02 0. -1.
        1   -1    0    0  501    0  0.00000000000E+00  0.00000000000E+00 -0.16264542774E+04  0.16264542774E+04  0.50400001928E-02 0.  1.
    10030    2    1    2    0    0  0.00000000000E+00  0.00000000000E+00 -0.65751434619E+03  0.25953942086E+04  0.25107261863E+04 0.  0.
        5    1    3    3  502    0  0.74533195365E+03  0.82704632984E+03 -0.92830648109E+03  0.14495862740E+04  0.46999998093E+01 0.  1.
       -5    1    3    3    0  502 -0.74533195365E+03 -0.82704632984E+03  0.27079213490E+03  0.11458079347E+04  0.46999998093E+01 0. -1.
</event>
<event>
 5   0  0.8579923E-06  0.2496432E+04  0.7818609E-02  0.8404258E-01
        2   -1    0    0  501    0  0.00000000000E+00  0.00000000000E+00  0.19179542355E+04  0.19179542355E+04  0.25500000920E-02 0. -1.
       -2   -1    0    0    0  501  0.00000000000E+00  0.00000000000E+00 -0.81234642254E+03  0.81234642254E+03  0.25500000920E-02 0.  1.
    10030    2    1    2    0    0  0.00000000000E+00  0.00000000000E+00  0.11056078130E+04  0.27303006581E+04  0.24964320634E+04 0.  0.
        1    1    3    3  502    0  0.17186492871E+03  0.23218494049E+03 -0.77528523903E+03  0.82735397636E+03  0.50400001928E-02 0.  1.
       -1    1    3    3    0  502 -0.17186492871E+03 -0.23218494049E+03  0.18808930520E+04  0.19029466817E+04  0.50400001928E-02 0. -1.
</event>
<event>
 5   0  0.3484857E-06  0.2494535E+04  0.7818609E-02  0.8404935E-01
        1   -1    0    0  501    0  0.00000000000E+00  0.00000000000E+00  0.22360522612E+04  0.22360522612E+04  0.50400001928E-02 0. -1.
       -1   -1    0    0    0  501  0.00000000000E+00  0.00000000000E+00 -0.69572423690E+03  0.69572423692E+03  0.50400001928E-02 0.  1.
    10030    2    1    2    0    0  0.00000000000E+00  0.00000000000E+00  0.15403280243E+04  0.29317764981E+04  0.24945346284E+04 0.  0.
        3    1    3    3  502    0 -0.57901923160E+03  0.53823046177E+03  0.19040018566E+04  0.20615960760E+04  0.10100000352E+00 0. -1.
       -3    1    3    3    0  502  0.57901923160E+03 -0.53823046177E+03 -0.36367383229E+03  0.87018042211E+03  0.10100000352E+00 0.  1.
</event>
<event>
 5   0  0.3481387E-06  0.2480122E+04  0.7818609E-02  0.8410101E-01
        1   -1    0    0  501    0  0.00000000000E+00  0.00000000000E+00  0.18969900848E+04  0.18969900848E+04  0.50400001928E-02 0. -1.
       -1   -1    0    0    0  501  0.00000000000E+00  0.00000000000E+00 -0.81062726777E+03  0.81062726779E+03  0.50400001928E-02 0.  1.
    10030    2    1    2    0    0  0.00000000000E+00  0.00000000000E+00  0.10863628170E+04  0.27076173526E+04  0.24801224885E+04 0.  0.
        4    1    3    3  502    0  0.34876468607E+03  0.10662317362E+04  0.11201087670E+04  0.15852861522E+04  0.12699999809E+01 0. -1.
       -4    1    3    3    0  502 -0.34876468607E+03 -0.10662317362E+04 -0.33745949952E+02  0.11223312004E+04  0.12699999809E+01 0.  1.
</event>
<event>
 5   0  0.8579923E-06  0.2485316E+04  0.7818609E-02  0.8408236E-01
        2   -1    0    0  501    0  0.00000000000E+00  0.00000000000E+00  0.26182762159E+04  0.26182762159E+04  0.25500000920E-02 0. -1.
       -2   -1    0    0    0  501  0.00000000000E+00  0.00000000000E+00 -0.58977688316E+03  0.58977688317E+03  0.25500000920E-02 0.  1.
    10030    2    1    2    0    0  0.00000000000E+00  0.00000000000E+00  0.20284993328E+04  0.32080530991E+04  0.24853159042E+04 0.  0.
        1    1    3    3  502    0 -0.85472533862E+02  0.16710331851E+03 -0.57137433302E+03  0.60141308729E+03  0.50400001928E-02 0.  1.
       -1    1    3    3    0  502  0.85472533862E+02 -0.16710331851E+03  0.25998736658E+04  0.26066400118E+04  0.50400001928E-02 0. -1.
</event>
<event>
 5   0  0.8354653E-06  0.2483284E+04  0.7818609E-02  0.8408965E-01
       -2   -1    0    0    0  501  0.00000000000E+00  0.00000000000E+00  0.62365409436E+03  0.62365409437E+03  0.25500000920E-02 0.  1.
        2   -1    0    0  501    0  0.00000000000E+00  0.00000000000E+00 -0.24720026652E+04  0.24720026652E+04  0.25500000920E-02 0. -1.
    10030    2    1    2    0    0  0.00000000000E+00  0.00000000000E+00 -0.18483485709E+04  0.30956567596E+04  0.24832837804E+04 0.  0.
        3    1    3    3  502    0 -0.10617561884E+04  0.24434548019E+02 -0.12231872245E+03  0.10690580577E+04  0.10100000352E+00 0.  1.
       -3    1    3    3    0  502  0.10617561884E+04 -0.24434548019E+02 -0.17260298484E+04  0.20265987019E+04  0.10100000352E+00 0. -1.
</event>
<event>
 5   0  0.8579923E-06  0.2493752E+04  0.7818609E-02  0.8405215E-01
        2   -1    0    0  501    0  0.00000000000E+00  0.00000000000E+00  0.25273352833E+04  0.25273352833E+04  0.25500000920E-02 0. -1.
       -2   -1    0    0    0  501  0.00000000000E+00  0.00000000000E+00 -0.61515397926E+03  0.61515397927E+03  0.25500000920E-02 0.  1.
    10030    2    1    2    0    0  0.00000000000E+00  0.00000000000E+00  0.19121813041E+04  0.31424892626E+04  0.24937524789E+04 0.  0.
        1    1    3    3  502    0 -0.36841849128E+03  0.11911005701E+04  0.93626173528E+03  0.15591788832E+04  0.50400001928E-02 0. -1.
       -1    1    3    3    0  502  0.36841849128E+03 -0.11911005701E+04  0.97591956878E+03  0.15833103794E+04  0.50400001928E-02 0.  1.
</event>
<event>
 5   0  0.8354653E-06  0.2496474E+04  0.7818609E-02  0.8404243E-01
       -2   -1    0    0    0  501  0.00000000000E+00  0.00000000000E+00  0.96139222029E+03  0.96139222029E+03  0.25500000920E-02 0.  1.
        2   -1    0    0  501    0  0.00000000000E+00  0.00000000000E+00 -0.16206657223E+04  0.16206657223E+04  0.25500000920E-02 0. -1.
    10030    2    1    2    0    0  0.00000000000E+00  0.00000000000E+00 -0.65927350202E+03  0.25820579426E+04  0.24964738469E+04 0.  0.
        3    1    3    3  502    0 -0.54397973067E+03  0.85457385203E+03  0.42466971529E+03  0.10984328806E+04  0.10100000352E+00 0.  1.
       -3    1    3    3    0  502  0.54397973067E+03 -0.85457385203E+03 -0.10839432173E+04  0.14836250620E+04  0.10100000352E+00 0. -1.
</event>
<event>
 5   0  0.8056723E-06  0.2497571E+04  0.7818609E-02  0.8403851E-01
        2   -1    0    0  501    0  0.00000000000E+00  0.00000000000E+00  0.19712325658E+04  0.19712325658E+04  0.25500000920E-02 0.  1.
       -2   -1    0    0    0  501  0.00000000000E+00  0.00000000000E+00 -0.79111180321E+03  0.79111180321E+03  0.25500000920E-02 0. -1.
    10030    2    1    2    0    0  0.00000000000E+00  0.00000000000E+00  0.11801207626E+04  0.27623443690E+04  0.24975710998E+04 0.  0.
        2    1    3    3  502    0  0.92872422654E+01  0.10171010101E+04 -0.21123361258E+03  0.10388456847E+04  0.25500000920E-02 0. -1.
       -2    1    3    3    0  502 -0.92872422654E+01 -0.10171010101E+04  0.13913543752E+04  0.17234986843E+04  0.25500000920E-02 0.  1.
</event>
<event>
 5   0  0.8579923E-06  0.2495201E+04  0.7818609E-02  0.8404697E-01
        2   -1    0    0  501    0  0.00000000000E+00  0.00000000000E+00  0.15818733760E+04  0.15818733760E+04  0.25500000920E-02 0. -1.
       -2   -1    0    0    0  501  0.00000000000E+00  0.00000000000E+00 -0.98396428419E+03  0.98396428419E+03  0.25500000920E-02 0.  1.
    10030    2    1    2    0    0  0.00000000000E+00  0.00000000000E+00  0.59790909179E+03  0.25658376602E+04  0.24952009170E+04 0.  0.
        1    1    3    3  502    0 -0.69626786804E+03  0.52321464285E+03  0.12175312166E+04  0.14969718668E+04  0.50400001928E-02 0. -1.
       -1    1    3    3    0  502  0.69626786804E+03 -0.52321464285E+03 -0.61962212485E+03  0.10688657933E+04  0.50400001928E-02 0.  1.
</event>
<event>
 5   0  0.3642184E-06  0.2496237E+04  0.7818609E-02  0.8404327E-01
       -1   -1    0    0    0  501  0.00000000000E+00  0.00000000000E+00  0.91110788886E+03  0.91110788888E+03  0.50400001928E-02 0.  1.
        1   -1    0    0  501    0  0.00000000000E+00  0.00000000000E+00 -0.17097860654E+04  0.17097860655E+04  0.50400001928E-02 0. -1.
    10030    2    1    2    0    0  0.00000000000E+00  0.00000000000E+00 -0.79867817658E+03  0.26208939543E+04  0.24962368257E+04 0.  0.
        5    1    3    3  502    0 -0.72970318801E+03 -0.18307942323E+03  0.64628145967E+03  0.99180977658E+03  0.46999998093E+01 0.  1.
       -5    1    3    3    0  502  0.72970318801E+03  0.18307942323E+03 -0.14449596363E+04  0.16290841778E+04  0.46999998093E+01 0. -1.
</event>
<event>
 5   0  0.3642184E-06  0.2501998E+04  0.7818609E-02  0.8402274E-01
        1   -1    0    0  501    0  0.00000000000E+00  0.00000000000E+00  0.14725199230E+04  0.14725199230E+04  0.50400001928E-02 0. -1.
       -1   -1    0    0    0  501  0.00000000000E+00  0.00000000000E+00 -0.10628027815E+04  0.10628027815E+04  0.50400001928E-02 0.  1.
    10030    2    1    2    0    0  0.00000000000E+00  0.00000000000E+00  0.40971714150E+03  0.25353227046E+04  0.25019978178E+04 0.  0.
        5    1    3    3  502    0  0.22877883767E+03  0.98578533466E+03  0.95008840934E+03  0.13880931374E+04  0.46999998093E+01 0. -1.
       -5    1    3    3    0  502 -0.22877883767E+03 -0.98578533466E+03 -0.54037126784E+03  0.11472295671E+04  0.46999998093E+01 0.  1.
</event>
<event>
 5   0  0.8056723E-06  0.2501783E+04  0.7818609E-02  0.8402351E-01
        2   -1    0    0  501    0  0.00000000000E+00  0.00000000000E+00  0.20922342025E+04  0.20922342025E+04  0.25500000920E-02 0. -1.
       -2   -1    0    0    0  501  0.00000000000E+00  0.00000000000E+00 -0.74787508771E+03  0.74787508771E+03  0.25500000920E-02 0.  1.
    10030    2    1    2    0    0  0.00000000000E+00  0.00000000000E+00  0.13443591148E+04  0.28401092902E+04  0.25017832342E+04 0.  0.
        2    1    3    3  502    0  0.10273840069E+04  0.43777427812E+03  0.32441605918E+02  0.11172361764E+04  0.25500000920E-02 0.  1.
       -2    1    3    3    0  502 -0.10273840069E+04 -0.43777427812E+03  0.13119175089E+04  0.17228731138E+04  0.25500000920E-02 0. -1.
</event>
<event>
 5   0  0.3484857E-06  0.2491589E+04  0.7818609E-02  0.8405988E-01
        1   -1    0    0  501    0  0.00000000000E+00  0.00000000000E+00  0.25504410149E+04  0.25504410149E+04  0.50400001928E-02 0.  1.
       -1   -1    0    0    0  501  0.00000000000E+00  0.00000000000E+00 -0.60852378741E+03  0.60852378743E+03  0.50400001928E-02 0. -1.
    10030    2    1    2    0    0  0.00000000000E+00  0.00000000000E+00  0.19419172275E+04  0.31589648023E+04  0.24915890721E+04 0.  0.
        3    1    3    3  502    0 -0.36541089505E+03 -0.55050066618E+03  0.23099849630E+04  0.24026249489E+04  0.10100000352E+00 0.  1.
       -3    1    3    3    0  502  0.36541089505E+03  0.55050066618E+03 -0.36806773553E+03  0.75633985339E+03  0.10100000352E+00 0. -1.
</event>
<event>
 5   0  0.3642184E-06  0.2495172E+04  0.7818609E-02  0.8404708E-01
       -1   -1    0    0    0  501  0.00000000000E+00  0.00000000000E+00  0.83993691184E+03  0.83993691186E+03  0.50400001928E-02 0.  1.
        1   -1    0    0  501    0  0.00000000000E+00  0.00000000000E+00 -0.18530802394E+04  0.18530802394E+04  0.50400001928E-02 0. -1.
    10030    2    1    2    0    0  0.00000000000E+00  0.00000000000E+00 -0.10131433276E+04  0.26930171513E+04  0.24951717325E+04 0.  0.
        5    1    3    3  502    0 -0.96379107168E+03  0.66865328740E+00  0.34842511824E+03  0.10248491742E+04  0.46999998093E+01 0.  1.
       -5    1    3    3    0  502  0.96379107168E+03 -0.66865328740E+00 -0.13615684458E+04  0.16681679770E+04  0.46999998093E+01 0. -1.
</event>
<event>
 5   0  0.8407986E-06  0.2504397E+04  0.7818609E-02  0.8401421E-01
        2   -1    0    0  501    0  0.00000000000E+00  0.00000000000E+00  0.14459115767E+04  0.14459115767E+04  0.25500000920E-02 0. -1.
       -2   -1    0    0    0  501  0.00000000000E+00  0.00000000000E+00 -0.10844374162E+04  0.10844374162E+04  0.25500000920E-02 0.  1.
    10030    2    1    2    0    0  0.00000000000E+00  0.00000000000E+00  0.36147416051E+03  0.25303489929E+04  0.25043966254E+04 0.  0.
        5    1    3    3  502    0  0.32695448642E+03  0.46355598295E+03  0.13086364161E+04  0.14263010710E+04  0.46999998093E+01 0. -1.
       -5    1    3    3    0  502 -0.32695448642E+03 -0.46355598295E+03 -0.94716225560E+03  0.11040479219E+04  0.46999998093E+01 0.  1.
</event>
<event>
 5   0  0.8354653E-06  0.2509411E+04  0.7818609E-02  0.8399641E-01
        2   -1    0    0  501    0  0.00000000000E+00  0.00000000000E+00  0.21712425767E+04  0.21712425767E+04  0.25500000920E-02 0.  1.
       -2   -1    0    0    0  501  0.00000000000E+00  0.00000000000E+00 -0.72506206725E+03  0.72506206725E+03  0.25500000920E-02 0. -1.
    10030    2    1    2    0    0  0.00000000000E+00  0.00000000000E+00  0.14461805094E+04  0.28963046439E+04  0.25094107923E+04 0.  0.
        3    1    3    3  502    0 -0.12442635448E+04 -0.11321219195E+03  0.59009993502E+03  0.13817477023E+04  0.10100000352E+00 0.  1.
       -3    1    3    3    0  502  0.12442635448E+04  0.11321219195E+03  0.85608057438E+03  0.15145569416E+04  0.10100000352E+00 0. -1.
</event>
<event>
 5   0  0.3642184E-06  0.2508806E+04  0.7818609E-02  0.8399855E-01
       -1   -1    0    0    0  501  0.00000000000E+00  0.00000000000E+00  0.14173080134E+04  0.14173080134E+04  0.50400001928E-02 0. -1.
        1   -1    0    0  501    0  0.00000000000E+00  0.00000000000E+00 -0.11102222479E+04  0.11102222479E+04  0.50400001928E-02 0.  1.
    10030    2    1    2    0    0  0.00000000000E+00  0.00000000000E+00  0.30708576548E+03  0.25275302613E+04  0.25088060017E+04 0.  0.
        5    1    3    3  502    0  0.54149370019E+03  0.78462879792E+03  0.97488636505E+03  0.13635553867E+04  0.46999998093E+01 0. -1.
       -5    1    3    3    0  502 -0.54149370019E+03 -0.78462879792E+03 -0.66780059956E+03  0.11639748746E+04  0.46999998093E+01 0.  1.
</event>
<event>
 5   0  0.8056723E-06  0.2464596E+04  0.7818609E-02  0.8415708E-01
       -2   -1    0    0    0  501  0.00000000000E+00  0.00000000000E+00  0.83639866393E+03  0.83639866393E+03  0.25500000920E-02 0. -1.
        2   -1    0    0  501    0  0.00000000000E+00  0.00000000000E+00 -0.18155915379E+04  0.18155915379E+04  0.25500000920E-02 0.  1.
    10030    2    1    2    0    0  0.00000000000E+00  0.00000000000E+00 -0.97919287399E+03  0.26519902018E+04  0.24645959803E+04 0.  0.
        2    1    3    3  502    0 -0.55324625009E+02  0.11455062660E+04 -0.44099855364E+01  0.11468499761E+04  0.25500000920E-02 0. -1.
       -2    1    3    3    0  502  0.55324625009E+02 -0.11455062660E+04 -0.97478288845E+03  0.15051402258E+04  0.25500000920E-02 0.  1.
</event>
<event>
 5   0  0.3424193E-06  0.2500986E+04  0.7818609E-02  0.8402634E-01
       -1   -1    0    0    0  501  0.00000000000E+00  0.00000000000E+00  0.14865468673E+04  0.14865468673E+04  0.50400001928E-02 0.  1.
        1   -1    0    0  501    0  0.00000000000E+00  0.00000000000E+00 -0.10519233077E+04  0.10519233077E+04  0.50400001928E-02 0. -1.
    10030    2    1    2    0    0  0.00000000000E+00  0.00000000000E+00  0.43462355960E+03  0.25384701750E+04  0.25009864436E+04 0.  0.
        1    1    3    3  502    0  0.90576048821E+03 -0.83381352980E+03 -0.52605166518E+01  0.12311274254E+04  0.50400001928E-02 0.  1.
       -1    1    3    3    0  502 -0.90576048821E+03  0.83381352980E+03  0.43988407625E+03  0.13073427496E+04  0.50400001928E-02 0. -1.
</event>
<event>
 5   0  0.8354653E-06  0.2650082E+04  0.7818609E-02  0.8351386E-01
       -2   -1    0    0    0  501  0.00000000000E+00  0.00000000000E+00  0.12273382659E+04  0.12273382659E+04  0.25500000920E-02 0. -1.
        2   -1    0    0  501    0  0.00000000000E+00  0.00000000000E+00 -0.14305212811E+04  0.14305212811E+04  0.25500000920E-02 0.  1.
    10030    2    1    2    0    0  0.00000000000E+00  0.00000000000E+00 -0.20318301518E+03  0.26578595470E+04  0.26500818920E+04 0.  0.
        3    1    3    3  502    0 -0.44305028837E+03 -0.14406364260E+03  0.11424866876E+04  0.12338248388E+04  0.10100000352E+00 0. -1.
       -3    1    3    3    0  502  0.44305028837E+03  0.14406364260E+03 -0.13456697028E+04  0.14240347083E+04  0.10100000352E+00 0.  1.
</event>
<event>
 5   0  0.3522870E-06  0.2493756E+04  0.7818609E-02  0.8405213E-01
        1   -1    0    0  501    0  0.00000000000E+00  0.00000000000E+00  0.87196058636E+03  0.87196058637E+03  0.50400001928E-02 0.  1.
       -1   -1    0    0    0  501  0.00000000000E+00  0.00000000000E+00 -0.17829985101E+04  0.17829985101E+04  0.50400001928E-02 0. -1.
    10030    2    1    2    0    0  0.00000000000E+00  0.00000000000E+00 -0.91103792370E+03  0.26549590964E+04  0.24937557429E+04 0.  0.
        2    1    3    3  502    0  0.27275708348E+03  0.86283263243E+03  0.45773598092E+03  0.10140999982E+04  0.25500000920E-02 0.  1.
       -2    1    3    3    0  502 -0.27275708348E+03 -0.86283263243E+03 -0.13687739046E+04  0.16408590982E+04  0.25500000920E-02 0. -1.
</event>
<event>
 5   0  0.3484857E-06  0.2458564E+04  0.7818609E-02  0.8417898E-01
       -1   -1    0    0    0  501  0.00000000000E+00  0.00000000000E+00  0.12298175876E+04  0.12298175876E+04  0.50400001928E-02 0.  1.
        1   -1    0    0  501    0  0.00000000000E+00  0.00000000000E+00 -0.12287466978E+04  0.12287466978E+04  0.50400001928E-02 0. -1.
    10030    2    1    2    0    0  0.00000000000E+00  0.00000000000E+00  0.10708898350E+01  0.24585642855E+04  0.24585640522E+04 0.  0.
        3    1    3    3  502    0  0.54592039975E+03  0.71380140878E+02  0.10996306689E+04  0.12297608814E+04  0.10100000352E+00 0.  1.
       -3    1    3    3    0  502 -0.54592039975E+03 -0.71380140878E+02 -0.10985597790E+04  0.12288034040E+04  0.10100000352E+00 0. -1.
</event>
<event>
 5   0  0.3642184E-06  0.2499338E+04  0.7818609E-02  0.8403221E-01
       -1   -1    0    0    0  501  0.00000000000E+00  0.00000000000E+00  0.71159147826E+03  0.71159147828E+03  0.50400001928E-02 0. -1.
        1   -1    0    0  501    0  0.00000000000E+00  0.00000000000E+00 -0.21946192441E+04  0.21946192441E+04  0.50400001928E-02 0.  1.
    10030    2    1    2    0    0  0.00000000000E+00  0.00000000000E+00 -0.14830277658E+04  0.29062107224E+04  0.24993377940E+04 0.  0.
        5    1    3    3  502    0  0.54019788373E+03  0.76449785503E+02  0.56578321294E+03  0.78599685580E+03  0.46999998093E+01 0. -1.
       -5    1    3    3    0  502 -0.54019788373E+03 -0.76449785503E+02 -0.20488109788E+04  0.21202138666E+04  0.46999998093E+01 0.  1.
</event>
<event>
 5   0  0.3522870E-06  0.2598600E+04  0.7818609E-02  0.8368677E-01
        1   -1    0    0  501    0  0.00000000000E+00  0.00000000000E+00  0.12634235088E+04  0.12634235088E+04  0.50400001928E-02 0.  1.
       -1   -1    0    0    0  501  0.00000000000E+00  0.00000000000E+00 -0.13361957203E+04  0.13361957204E+04  0.50400001928E-02 0. -1.
    10030    2    1    2    0    0  0.00000000000E+00  0.00000000000E+00 -0.72772211584E+02  0.25996192291E+04  0.25986004583E+04 0.  0.
        2    1    3    3  502    0  0.11761302907E+03 -0.12759284493E+04 -0.25177228619E+03  0.13058390086E+04  0.25500000920E-02 0. -1.
       -2    1    3    3    0  502 -0.11761302907E+03  0.12759284493E+04  0.17900007461E+03  0.12937802205E+04  0.25500000920E-02 0.  1.
</event>
<event>
 5   0  0.8948286E-06  0.2508158E+04  0.7818609E-02  0.8400085E-01
        2   -1    0    0  501    0  0.00000000000E+00  0.00000000000E+00  0.17522268438E+04  0.17522268438E+04  0.25500000920E-02 0.  1.
       -2   -1    0    0    0  501  0.00000000000E+00  0.00000000000E+00 -0.89755136529E+03  0.89755136529E+03  0.25500000920E-02 0. -1.
    10030    2    1    2    0    0  0.00000000000E+00  0.00000000000E+00  0.85467547851E+03  0.26497782091E+04  0.25081575676E+04 0.  0.
        4    1    3    3  502    0 -0.12193724079E+03 -0.10757626781E+04 -0.24131130686E+03  0.11092190000E+04  0.12699999809E+01 0. -1.
       -4    1    3    3    0  502  0.12193724079E+03  0.10757626781E+04  0.10959867854E+04  0.15405592091E+04  0.12699999809E+01 0.  1.
</event>
<event>
 5   0  0.3481387E-06  0.2497239E+04  0.7818609E-02  0.8403970E-01
       -1   -1    0    0    0  501  0.00000000000E+00  0.00000000000E+00  0.73710142903E+03  0.73710142905E+03  0.50400001928E-02 0.  1.
        1   -1    0    0  501    0  0.00000000000E+00  0.00000000000E+00 -0.21151092538E+04  0.21151092538E+04  0.50400001928E-02 0. -1.
    10030    2    1    2    0    0  0.00000000000E+00  0.00000000000E+00 -0.13780078248E+04  0.28522106828E+04  0.24972385177E+04 0.  0.
        4    1    3    3  502    0  0.49163451189E+03  0.94843758780E+02 -0.19954254024E+04  0.20572855858E+04  0.12699999809E+01 0. -1.
       -4    1    3    3    0  502 -0.49163451189E+03 -0.94843758780E+02  0.61741757766E+03  0.79492509708E+03  0.12699999809E+01 0.  1.
</event>
<event>
 5   0  0.3642184E-06  0.2454735E+04  0.7818609E-02  0.8419291E-01
        1   -1    0    0  501    0  0.00000000000E+00  0.00000000000E+00  0.13112438341E+04  0.13112438341E+04  0.50400001928E-02 0. -1.
       -1   -1    0    0    0  501  0.00000000000E+00  0.00000000000E+00 -0.11488561811E+04  0.11488561811E+04  0.50400001928E-02 0.  1.
    10030    2    1    2    0    0  0.00000000000E+00  0.00000000000E+00  0.16238765300E+03  0.24601000153E+04  0.24547346771E+04 0.  0.
        5    1    3    3  502    0 -0.59911789134E+03  0.14773647629E+03 -0.98208704099E+03  0.11598643715E+04  0.46999998093E+01 0.  1.
       -5    1    3    3    0  502  0.59911789134E+03 -0.14773647629E+03  0.11444746940E+04  0.13002356438E+04  0.46999998093E+01 0. -1.
</event>
<event>
 5   0  0.2901250E-06  0.2507021E+04  0.7818609E-02  0.8400489E-01
        4   -1    0    0  501    0  0.00000000000E+00  0.00000000000E+00  0.13886062590E+04  0.13886068397E+04  0.12699999809E+01 0. -1.
       -4   -1    0    0    0  501  0.00000000000E+00  0.00000000000E+00 -0.11315564199E+04  0.11315571326E+04  0.12699999809E+01 0.  1.
    10030    2    1    2    0    0  0.00000000000E+00  0.00000000000E+00  0.25704983910E+03  0.25201639723E+04  0.25070205080E+04 0.  0.
        3    1    3    3  502    0 -0.47778551948E+03 -0.44788381518E+03  0.12029638259E+04  0.13696718188E+04  0.10100000352E+00 0. -1.
       -3    1    3    3    0  502  0.47778551948E+03  0.44788381518E+03 -0.94591398683E+03  0.11504921535E+04  0.10100000352E+00 0.  1.
</event>
<event>
 5   0  0.8579923E-06  0.2507339E+04  0.7818609E-02  0.8400376E-01
        2   -1    0    0  501    0  0.00000000000E+00  0.00000000000E+00  0.13426760542E+04  0.13426760542E+04  0.25500000920E-02 0. -1.
       -2   -1    0    0    0  501  0.00000000000E+00  0.00000000000E+00 -0.11705629050E+04  0.11705629050E+04  0.25500000920E-02 0.  1.
    10030    2    1    2    0    0  0.00000000000E+00  0.00000000000E+00  0.17211314919E+03  0.25132389592E+04  0.25073386548E+04 0.  0.
        1    1    3    3  502    0  0.53327156034E+03  0.54856416908E+03 -0.90945002645E+03  0.11884445950E+04  0.50400001928E-02 0.  1.
       -1    1    3    3    0  502 -0.53327156034E+03 -0.54856416908E+03  0.10815631756E+04  0.13247943643E+04  0.50400001928E-02 0. -1.
</event>
<event>
 5   0  0.8354653E-06  0.2495848E+04  0.7818609E-02  0.8404466E-01
        2   -1    0    0  501    0  0.00000000000E+00  0.00000000000E+00  0.21386633809E+04  0.21386633809E+04  0.25500000920E-02 0. -1.
       -2   -1    0    0    0  501  0.00000000000E+00  0.00000000000E+00 -0.72817163821E+03  0.72817163821E+03  0.25500000920E-02 0.  1.
    10030    2    1    2    0    0  0.00000000000E+00  0.00000000000E+00  0.14104917427E+04  0.28668350191E+04  0.24958477659E+04 0.  0.
        3    1    3    3  502    0  0.48347254973E+03  0.74232509145E+03 -0.30433234060E+03  0.93670189040E+03  0.10100000352E+00 0.  1.
       -3    1    3    3    0  502 -0.48347254973E+03 -0.74232509145E+03  0.17148240833E+04  0.19301331287E+04  0.10100000352E+00 0. -1.
</event>
<event>
 5   0  0.8354653E-06  0.2506859E+04  0.7818609E-02  0.8400546E-01
        2   -1    0    0  501    0  0.00000000000E+00  0.00000000000E+00  0.16601764223E+04  0.16601764223E+04  0.25500000920E-02 0. -1.
       -2   -1    0    0    0  501  0.00000000000E+00  0.00000000000E+00 -0.94633626033E+03  0.94633626033E+03  0.25500000920E-02 0.  1.
    10030    2    1    2    0    0  0.00000000000E+00  0.00000000000E+00  0.71384016199E+03  0.26065126827E+04  0.25068587092E+04 0.  0.
        3    1    3    3  502    0  0.97287775431E+03 -0.15274890638E+03  0.11631553373E+04  0.15240583001E+04  0.10100000352E+00 0. -1.
       -3    1    3    3    0  502 -0.97287775431E+03  0.15274890638E+03 -0.44931517534E+03  0.10824543825E+04  0.10100000352E+00 0.  1.
</event>
<event>
 5   0  0.3481387E-06  0.2500988E+04  0.7818609E-02  0.8402634E-01
        1   -1    0    0  501    0  0.00000000000E+00  0.00000000000E+00  0.98389808262E+03  0.98389808263E+03  0.50400001928E-02 0. -1.
       -1   -1    0    0    0  501  0.00000000000E+00  0.00000000000E+00 -0.15893258313E+04  0.15893258313E+04  0.50400001928E-02 0.  1.
    10030    2    1    2    0    0  0.00000000000E+00  0.00000000000E+00 -0.60542774867E+03  0.25732239139E+04  0.25009875154E+04 0.  0.
        4    1    3    3  502    0  0.37280258025E+03  0.47790285854E+03 -0.14280882408E+04  0.15513898744E+04  0.12699999809E+01 0.  1.
       -4    1    3    3    0  502 -0.37280258025E+03 -0.47790285854E+03  0.82266049214E+03  0.10218340395E+04  0.12699999809E+01 0. -1.
</event>
<event>
 5   0  0.8579923E-06  0.2509980E+04  0.7818609E-02  0.8399439E-01
       -2   -1    0    0    0  501  0.00000000000E+00  0.00000000000E+00  0.71433042619E+03  0.71433042619E+03  0.25500000920E-02 0.  1.
        2   -1    0    0  501    0  0.00000000000E+00  0.00000000000E+00 -0.22048614069E+04  0.22048614069E+04  0.25500000920E-02 0. -1.
    10030    2    1    2    0    0  0.00000000000E+00  0.00000000000E+00 -0.14905309807E+04  0.29191918331E+04  0.25099797517E+04 0.  0.
        1    1    3    3  502    0 -0.73328582671E+03  0.41988421686E+03  0.33390770699E+03  0.90857317594E+03  0.50400001928E-02 0.  1.
       -1    1    3    3    0  502  0.73328582671E+03 -0.41988421686E+03 -0.18244386877E+04  0.20106186571E+04  0.50400001928E-02 0. -1.
</event>
<event>
 5   0  0.3522870E-06  0.2476177E+04  0.7818609E-02  0.8411522E-01
       -1   -1    0    0    0  501  0.00000000000E+00  0.00000000000E+00  0.87914284631E+03  0.87914284632E+03  0.50400001928E-02 0. -1.
        1   -1    0    0  501    0  0.00000000000E+00  0.00000000000E+00 -0.17435886460E+04  0.17435886460E+04  0.50400001928E-02 0.  1.
    10030    2    1    2    0    0  0.00000000000E+00  0.00000000000E+00 -0.86444579973E+03  0.26227314924E+04  0.24761772837E+04 0.  0.
        2    1    3    3  502    0  0.24006657192E+03  0.87012874331E+03 -0.13297897949E+04  0.16072015703E+04  0.25500000920E-02 0.  1.
       -2    1    3    3    0  502 -0.24006657192E+03 -0.87012874331E+03  0.46534399514E+03  0.10155299221E+04  0.25500000920E-02 0. -1.
</event>
<event>
 5   0  0.3424193E-06  0.2501501E+04  0.7818609E-02  0.8402451E-01
        1   -1    0    0  501    0  0.00000000000E+00  0.00000000000E+00  0.16556565257E+04  0.16556565257E+04  0.50400001928E-02 0. -1.
       -1   -1    0    0    0  501  0.00000000000E+00  0.00000000000E+00 -0.94486806454E+03  0.94486806456E+03  0.50400001928E-02 0.  1.
    10030    2    1    2    0    0  0.00000000000E+00  0.00000000000E+00  0.71078846113E+03  0.26005245902E+04  0.25015011309E+04 0.  0.
        1    1    3    3  502    0 -0.84621294648E+02 -0.71644233017E+03  0.14175671956E+04  0.15905807524E+04  0.50400001928E-02 0. -1.
       -1    1    3    3    0  502  0.84621294648E+02  0.71644233017E+03 -0.70677873448E+03  0.10099438378E+04  0.50400001928E-02 0.  1.
</event>
<event>
 5   0  0.3642184E-06  0.2476584E+04  0.7818609E-02  0.8411375E-01
       -1   -1    0    0    0  501  0.00000000000E+00  0.00000000000E+00  0.85427692958E+03  0.85427692960E+03  0.50400001928E-02 0. -1.
        1   -1    0    0  501    0  0.00000000000E+00  0.00000000000E+00 -0.17949295030E+04  0.17949295030E+04  0.50400001928E-02 0.  1.
    10030    2    1    2    0    0  0.00000000000E+00  0.00000000000E+00 -0.94065257341E+03  0.26492064326E+04  0.24765838283E+04 0.  0.
        5    1    3    3  502    0 -0.68981095025E+03  0.14275085367E+02  0.62959666428E+03  0.93405405348E+03  0.46999998093E+01 0. -1.
       -5    1    3    3    0  502  0.68981095025E+03 -0.14275085367E+02 -0.15702492377E+04  0.17151523791E+04  0.46999998093E+01 0.  1.
</event>
<event>
 5   0  0.8056723E-06  0.2500478E+04  0.7818609E-02  0.8402815E-01
       -2   -1    0    0    0  501  0.00000000000E+00  0.00000000000E+00  0.55065007830E+03  0.55065007831E+03  0.25500000920E-02 0.  1.
        2   -1    0    0  501    0  0.00000000000E+00  0.00000000000E+00 -0.28386413042E+04  0.28386413042E+04  0.25500000920E-02 0. -1.
    10030    2    1    2    0    0  0.00000000000E+00  0.00000000000E+00 -0.22879912259E+04  0.33892913825E+04  0.25004783994E+04 0.  0.
        2    1    3    3  502    0 -0.46850340725E+03 -0.32442214154E+03  0.36437482017E+03  0.67639794360E+03  0.25500000920E-02 0.  1.
       -2    1    3    3    0  502  0.46850340725E+03  0.32442214154E+03 -0.26523660461E+04  0.27128934389E+04  0.25500000920E-02 0. -1.
</event>
<event>
 5   0  0.8579923E-06  0.2501183E+04  0.7818609E-02  0.8402564E-01
       -2   -1    0    0    0  501  0.00000000000E+00  0.00000000000E+00  0.10603792374E+04  0.10603792375E+04  0.25500000920E-02 0.  1.
        2   -1    0    0  501    0  0.00000000000E+00  0.00000000000E+00 -0.14749241373E+04  0.14749241373E+04  0.25500000920E-02 0. -1.
    10030    2    1    2    0    0  0.00000000000E+00  0.00000000000E+00 -0.41454489988E+03  0.25353033748E+04  0.25011828658E+04 0.  0.
        1    1    3    3  502    0  0.11208681631E+04  0.11001745683E+03  0.34376995513E+03  0.11775512990E+04  0.50400001928E-02 0. -1.
       -1    1    3    3    0  502 -0.11208681631E+04 -0.11001745683E+03 -0.75831485501E+03  0.13577520757E+04  0.50400001928E-02 0.  1.
</event>
<event>
 5   0  0.8354653E-06  0.2512248E+04  0.7818609E-02  0.8398635E-01
       -2   -1    0    0    0  501  0.00000000000E+00  0.00000000000E+00  0.13979947698E+04  0.13979947698E+04  0.25500000920E-02 0.  1.
        2   -1    0    0  501    0  0.00000000000E+00  0.00000000000E+00 -0.11286503729E+04  0.11286503729E+04  0.25500000920E-02 0. -1.
    10030    2    1    2    0    0  0.00000000000E+00  0.00000000000E+00  0.26934439683E+03  0.25266451427E+04  0.25122478527E+04 0.  0.
        3    1    3    3  502    0 -0.99361287630E+03 -0.60677817988E+03 -0.33962453761E+03  0.12127617838E+04  0.10100000352E+00 0. -1.
       -3    1    3    3    0  502  0.99361287630E+03  0.60677817988E+03  0.60896893444E+03  0.13138833589E+04  0.10100000352E+00 0.  1.
</event>
<event>
 5   0  0.2901250E-06  0.2482533E+04  0.7818609E-02  0.8409235E-01
        3   -1    0    0  501    0  0.00000000000E+00  0.00000000000E+00  0.10101499412E+04  0.10101499462E+04  0.10100000352E+00 0. -1.
       -3   -1    0    0    0  501  0.00000000000E+00  0.00000000000E+00 -0.15252606003E+04  0.15252606036E+04  0.10100000352E+00 0.  1.
    10030    2    1    2    0    0  0.00000000000E+00  0.00000000000E+00 -0.51511065913E+03  0.25354105499E+04  0.24825325104E+04 0.  0.
        3    1    3    3  502    0  0.48184645127E+03 -0.11437998892E+04 -0.24023180964E+03  0.12641857149E+04  0.10100000352E+00 0.  1.
       -3    1    3    3    0  502 -0.48184645127E+03  0.11437998892E+04 -0.27487884949E+03  0.12712248350E+04  0.10100000352E+00 0. -1.
</event>
<event>
 5   0  0.2901250E-06  0.2491868E+04  0.7818609E-02  0.8405888E-01
        4   -1    0    0  501    0  0.00000000000E+00  0.00000000000E+00  0.19836186009E+04  0.19836190074E+04  0.12699999809E+01 0.  1.
       -4   -1    0    0    0  501  0.00000000000E+00  0.00000000000E+00 -0.78258462212E+03  0.78258565262E+03  0.12699999809E+01 0. -1.
    10030    2    1    2    0    0  0.00000000000E+00  0.00000000000E+00  0.12010339788E+04  0.27662046601E+04  0.24918678944E+04 0.  0.
        1    1    3    3  502    0  0.75059606409E+03 -0.17645941172E+03  0.16869451737E+04  0.18548089914E+04  0.50400001928E-02 0.  1.
       -1    1    3    3    0  502 -0.75059606409E+03  0.17645941172E+03 -0.48591119497E+03  0.91139566865E+03  0.50400001928E-02 0. -1.
</event>
<event>
 5   0  0.8948286E-06  0.2497648E+04  0.7818609E-02  0.8403824E-01
       -2   -1    0    0    0  501  0.00000000000E+00  0.00000000000E+00  0.94671714971E+03  0.94671714971E+03  0.25500000920E-02 0.  1.
        2   -1    0    0  501    0  0.00000000000E+00  0.00000000000E+00 -0.16473361187E+04  0.16473361187E+04  0.25500000920E-02 0. -1.
    10030    2    1    2    0    0  0.00000000000E+00  0.00000000000E+00 -0.70061896902E+03  0.25940532684E+04  0.24976479775E+04 0.  0.
        4    1    3    3  502    0  0.32891850907E+03  0.84263386895E+03  0.54393553652E+03  0.10555030571E+04  0.12699999809E+01 0. -1.
       -4    1    3    3    0  502 -0.32891850907E+03 -0.84263386895E+03 -0.12445545055E+04  0.15385502114E+04  0.12699999809E+01 0.  1.
</event>
<event>
 5   0  0.8579923E-06  0.2504387E+04  0.7818609E-02  0.8401424E-01
       -2   -1    0    0    0  501  0.00000000000E+00  0.00000000000E+00  0.80695469333E+03  0.80695469333E+03  0.25500000920E-02 0.  1.
        2   -1    0    0  501    0  0.00000000000E+00  0.00000000000E+00 -0.19430941897E+04  0.19430941897E+04  0.25500000920E-02 0. -1.
    10030    2    1    2    0    0  0.00000000000E+00  0.00000000000E+00 -0.11361394964E+04  0.27500488831E+04  0.25043873311E+04 0.  0.
        1    1    3    3  502    0  0.95253688812E+03 -0.49893074940E+03 -0.12726743366E+04  0.16661207588E+04  0.50400001928E-02 0. -1.
       -1    1    3    3    0  502 -0.95253688812E+03  0.49893074940E+03  0.13653484018E+03  0.10839281242E+04  0.50400001928E-02 0.  1.
</event>
<event>
 5   0  0.3424193E-06  0.2501590E+04  0.7818609E-02  0.8402419E-01
        1   -1    0    0  501    0  0.00000000000E+00  0.00000000000E+00  0.20604620014E+04  0.20604620014E+04  0.50400001928E-02 0.  1.
       -1   -1    0    0    0  501  0.00000000000E+00  0.00000000000E+00 -0.75928977268E+03  0.75928977270E+03  0.50400001928E-02 0. -1.
    10030    2    1    2    0    0  0.00000000000E+00  0.00000000000E+00  0.13011722287E+04  0.28197517741E+04  0.25015896743E+04 0.  0.
        1    1    3    3  502    0 -0.83206182332E+02  0.90293862358E+03 -0.32053785609E+03  0.96175149802E+03  0.50400001928E-02 0. -1.
       -1    1    3    3    0  502  0.83206182332E+02 -0.90293862358E+03  0.16217100848E+04  0.18580002761E+04  0.50400001928E-02 0.  1.
</event>
<event>
 5   0  0.3642184E-06  0.2498151E+04  0.7818609E-02  0.8403644E-01
       -1   -1    0    0    0  501  0.00000000000E+00  0.00000000000E+00  0.16722607011E+04  0.16722607011E+04  0.50400001928E-02 0.  1.
        1   -1    0    0  501    0  0.00000000000E+00  0.00000000000E+00 -0.93298247627E+03  0.93298247629E+03  0.50400001928E-02 0. -1.
    10030    2    1    2    0    0  0.00000000000E+00  0.00000000000E+00  0.73927822486E+03  0.26052431774E+04  0.24981512604E+04 0.  0.
        5    1    3    3  502    0  0.45950339363E+03  0.36213015408E+03  0.15205266707E+04  0.16292038128E+04  0.46999998093E+01 0.  1.
       -5    1    3    3    0  502 -0.45950339363E+03 -0.36213015408E+03 -0.78124844583E+03  0.97603936466E+03  0.46999998093E+01 0. -1.
</event>
<event>
 5   0  0.8407986E-06  0.2498747E+04  0.7818609E-02  0.8403432E-01
       -2   -1    0    0    0  501  0.00000000000E+00  0.00000000000E+00  0.79106411364E+03  0.79106411365E+03  0.25500000920E-02 0.  1.
        2   -1    0    0  501    0  0.00000000000E+00  0.00000000000E+00 -0.19732080114E+04  0.19732080114E+04  0.25500000920E-02 0. -1.
    10030    2    1    2    0    0  0.00000000000E+00  0.00000000000E+00 -0.11821438978E+04  0.27642721251E+04  0.24987469232E+04 0.  0.
        5    1    3    3  502    0 -0.22973036222E+03 -0.93351735561E+03  0.29164112076E+03  0.10046428847E+04  0.46999998093E+01 0.  1.
       -5    1    3    3    0  502  0.22973036222E+03  0.93351735561E+03 -0.14737850186E+04  0.17596292403E+04  0.46999998093E+01 0. -1.
</event>
<event>
 5   0  0.8407986E-06  0.2508590E+04  0.7818609E-02  0.8399932E-01
        2   -1    0    0  501    0  0.00000000000E+00  0.00000000000E+00  0.16038625736E+04  0.16038625736E+04  0.25500000920E-02 0. -1.
       -2   -1    0    0    0  501  0.00000000000E+00  0.00000000000E+00 -0.98091705519E+03  0.98091705520E+03  0.25500000920E-02 0.  1.
    10030    2    1    2    0    0  0.00000000000E+00  0.00000000000E+00  0.62294551839E+03  0.25847796288E+04  0.25085901639E+04 0.  0.
        5    1    3    3  502    0  0.19342874025E+03  0.12078112629E+04  0.59741027656E+03  0.13613022636E+04  0.46999998093E+01 0. -1.
       -5    1    3    3    0  502 -0.19342874025E+03 -0.12078112629E+04  0.25535241834E+02  0.12234773651E+04  0.46999998093E+01 0.  1.
</event>
<event>
 5   0  0.8407986E-06  0.2502796E+04  0.7818609E-02  0.8401990E-01
        2   -1    0    0  501    0  0.00000000000E+00  0.00000000000E+00  0.13024854638E+04  0.13024854638E+04  0.25500000920E-02 0.  1.
       -2   -1    0    0    0  501  0.00000000000E+00  0.00000000000E+00 -0.12023147866E+04  0.12023147866E+04  0.25500000920E-02 0. -1.
    10030    2    1    2    0    0  0.00000000000E+00  0.00000000000E+00  0.10017067714E+03  0.25048002504E+04  0.25027964619E+04 0.  0.
        5    1    3    3  502    0 -0.45979491991E+02  0.10990052421E+04  0.64726132115E+03  0.12762820785E+04  0.46999998093E+01 0.  1.
       -5    1    3    3    0  502  0.45979491991E+02 -0.10990052421E+04 -0.54709064401E+03  0.12285181719E+04  0.46999998093E+01 0. -1.
</event>
<event>
 5   0  0.8948286E-06  0.2504079E+04  0.7818609E-02  0.8401534E-01
        2   -1    0    0  501    0  0.00000000000E+00  0.00000000000E+00  0.16437565021E+04  0.16437565021E+04  0.25500000920E-02 0. -1.
       -2   -1    0    0    0  501  0.00000000000E+00  0.00000000000E+00 -0.95367109625E+03  0.95367109625E+03  0.25500000920E-02 0.  1.
    10030    2    1    2    0    0  0.00000000000E+00  0.00000000000E+00  0.69008540580E+03  0.25974275983E+04  0.25040791244E+04 0.  0.
        4    1    3    3  502    0 -0.41412835453E+03 -0.61504087941E+03 -0.70143919422E+03  0.10206841497E+04  0.12699999809E+01 0.  1.
       -4    1    3    3    0  502  0.41412835453E+03  0.61504087941E+03  0.13915246000E+04  0.15767434486E+04  0.12699999809E+01 0. -1.
</event>
<event>
 5   0  0.8948286E-06  0.2507497E+04  0.7818609E-02  0.8400320E-01
       -2   -1    0    0    0  501  0.00000000000E+00  0.00000000000E+00  0.10186372625E+04  0.10186372625E+04  0.25500000920E-02 0. -1.
        2   -1    0    0  501    0  0.00000000000E+00  0.00000000000E+00 -0.15431253406E+04  0.15431253406E+04  0.25500000920E-02 0.  1.
    10030    2    1    2    0    0  0.00000000000E+00  0.00000000000E+00 -0.52448807810E+03  0.25617626030E+04  0.25074967378E+04 0.  0.
        4    1    3    3  502    0  0.80096042167E+03 -0.32623959960E+03  0.66509663893E+03  0.10910201765E+04  0.12699999809E+01 0. -1.
       -4    1    3    3    0  502 -0.80096042167E+03  0.32623959960E+03 -0.11895847170E+04  0.14707424266E+04  0.12699999809E+01 0.  1.
</event>
<event>
 5   0  0.3642184E-06  0.2499692E+04  0.7818609E-02  0.8403095E-01
        1   -1    0    0  501    0  0.00000000000E+00  0.00000000000E+00  0.13519129607E+04  0.13519129607E+04  0.50400001928E-02 0. -1.
       -1   -1    0    0    0  501  0.00000000000E+00  0.00000000000E+00 -0.11554846931E+04  0.11554846931E+04  0.50400001928E-02 0.  1.
    10030    2    1    2    0    0  0.00000000000E+00  0.00000000000E+00  0.19642826754E+03  0.25073976538E+04  0.24996917670E+04 0.  0.
        5    1    3    3  502    0 -0.79633538035E+03  0.89489578828E+03  0.45582984540E+03  0.12817142614E+04  0.46999998093E+01 0.  1.
       -5    1    3    3    0  502  0.79633538035E+03 -0.89489578828E+03 -0.25940157786E+03  0.12256833924E+04  0.46999998093E+01 0. -1.
</event>
<event>
 5   0  0.8354653E-06  0.2501457E+04  0.7818609E-02  0.8402467E-01
       -2   -1    0    0    0  501  0.00000000000E+00  0.00000000000E+00  0.62832323443E+03  0.62832323444E+03  0.25500000920E-02 0.  1.
        2   -1    0    0  501    0  0.00000000000E+00  0.00000000000E+00 -0.24896764203E+04  0.24896764203E+04  0.25500000920E-02 0. -1.
    10030    2    1    2    0    0  0.00000000000E+00  0.00000000000E+00 -0.18613531858E+04  0.31179996547E+04  0.25014568084E+04 0.  0.
        3    1    3    3  502    0 -0.23004674412E+03 -0.10892326764E+04 -0.16412454375E+04  0.19831883229E+04  0.10100000352E+00 0. -1.
       -3    1    3    3    0  502  0.23004674412E+03  0.10892326764E+04 -0.22010774835E+03  0.11348113318E+04  0.10100000352E+00 0.  1.
</event>
<event>
 5   0  0.8056723E-06  0.2497910E+04  0.7818609E-02  0.8403731E-01
        2   -1    0    0  501    0  0.00000000000E+00  0.00000000000E+00  0.10284348825E+04  0.10284348825E+04  0.25500000920E-02 0. -1.
       -2   -1    0    0    0  501  0.00000000000E+00  0.00000000000E+00 -0.15167592617E+04  0.15167592617E+04  0.25500000920E-02 0.  1.
    10030    2    1    2    0    0  0.00000000000E+00  0.00000000000E+00 -0.48832437927E+03  0.25451941442E+04  0.24979096326E+04 0.  0.
        2    1    3    3  502    0 -0.67854684227E+02  0.11821797698E+04  0.16051436547E+03  0.11949552828E+04  0.25500000920E-02 0. -1.
       -2    1    3    3    0  502  0.67854684227E+02 -0.11821797698E+04 -0.64883874474E+03  0.13502388615E+04  0.25500000920E-02 0.  1.
</event>
<event>
 5   0  0.3484857E-06  0.2509386E+04  0.7818609E-02  0.8399649E-01
       -1   -1    0    0    0  501  0.00000000000E+00  0.00000000000E+00  0.19903636384E+04  0.19903636384E+04  0.50400001928E-02 0. -1.
        1   -1    0    0  501    0  0.00000000000E+00  0.00000000000E+00 -0.79093792386E+03  0.79093792388E+03  0.50400001928E-02 0.  1.
    10030    2    1    2    0    0  0.00000000000E+00  0.00000000000E+00  0.11994257145E+04  0.27813015623E+04  0.25093856490E+04 0.  0.
        3    1    3    3  502    0  0.10284361810E+04  0.64959486770E+03  0.94061154329E+03  0.15376620422E+04  0.10100000352E+00 0. -1.
       -3    1    3    3    0  502 -0.10284361810E+04 -0.64959486770E+03  0.25881417122E+03  0.12436395201E+04  0.10100000352E+00 0.  1.
</event>
<event>
 5   0  0.8407986E-06  0.2502163E+04  0.7818609E-02  0.8402215E-01
        2   -1    0    0  501    0  0.00000000000E+00  0.00000000000E+00  0.18540131723E+04  0.18540131723E+04  0.25500000920E-02 0. -1.
       -2   -1    0    0    0  501  0.00000000000E+00  0.00000000000E+00 -0.84422523446E+03  0.84422523446E+03  0.25500000920E-02 0.  1.
    10030    2    1    2    0    0  0.00000000000E+00  0.00000000000E+00  0.10097879379E+04  0.26982384068E+04  0.25021628285E+04 0.  0.
        5    1    3    3  502    0  0.12494826376E+04  0.47494693645E+02  0.46017107324E+03  0.13323821202E+04  0.46999998093E+01 0.  1.
       -5    1    3    3    0  502 -0.12494826376E+04 -0.47494693645E+02  0.54961686465E+03  0.13658562866E+04  0.46999998093E+01 0. -1.
</event>
<event>
 5   0  0.8056723E-06  0.2528943E+04  0.7818609E-02  0.8392747E-01
       -2   -1    0    0    0  501  0.00000000000E+00  0.00000000000E+00  0.14585448231E+04  0.14585448231E+04  0.25500000920E-02 0.  1.
        2   -1    0    0  501    0  0.00000000000E+00  0.00000000000E+00 -0.10962212747E+04  0.10962212747E+04  0.25500000920E-02 0. -1.
    10030    2    1    2    0    0  0.00000000000E+00  0.00000000000E+00  0.36232354839E+03  0.25547660978E+04  0.25289427555E+04 0.  0.
        2    1    3    3  502    0  0.59814715491E+03  0.51538460427E+03 -0.81659064543E+03  0.11358792152E+04  0.25500000920E-02 0. -1.
       -2    1    3    3    0  502 -0.59814715491E+03 -0.51538460427E+03  0.11789141938E+04  0.14188868826E+04  0.25500000920E-02 0.  1.
</event>
<event>
 5   0  0.3424193E-06  0.2520029E+04  0.7818609E-02  0.8395885E-01
       -1   -1    0    0    0  501  0.00000000000E+00  0.00000000000E+00  0.12928036385E+04  0.12928036385E+04  0.50400001928E-02 0.  1.
        1   -1    0    0  501    0  0.00000000000E+00  0.00000000000E+00 -0.12280573692E+04  0.12280573692E+04  0.50400001928E-02 0. -1.
    10030    2    1    2    0    0  0.00000000000E+00  0.00000000000E+00  0.64746269329E+02  0.25208610077E+04  0.25200293929E+04 0.  0.
        1    1    3    3  502    0 -0.10991281014E+04 -0.23367940405E+03 -0.53785742451E+03  0.12457845947E+04  0.50400001928E-02 0. -1.
       -1    1    3    3    0  502  0.10991281014E+04  0.23367940405E+03  0.60260369384E+03  0.12750764130E+04  0.50400001928E-02 0.  1.
</event>
<event>
 5   0  0.8407986E-06  0.2504394E+04  0.7818609E-02  0.8401422E-01
       -2   -1    0    0    0  501  0.00000000000E+00  0.00000000000E+00  0.20344485443E+04  0.20344485443E+04  0.25500000920E-02 0. -1.
        2   -1    0    0  501    0  0.00000000000E+00  0.00000000000E+00 -0.77072347436E+03  0.77072347436E+03  0.25500000920E-02 0.  1.
    10030    2    1    2    0    0  0.00000000000E+00  0.00000000000E+00  0.12637250700E+04  0.28051720187E+04  0.25043939390E+04 0.  0.
        5    1    3    3  502    0  0.10926478396E+03  0.20571964330E+03  0.20099571179E+04  0.20234151997E+04  0.46999998093E+01 0. -1.
       -5    1    3    3    0  502 -0.10926478396E+03 -0.20571964330E+03 -0.74623204793E+03  0.78175681897E+03  0.46999998093E+01 0.  1.
</event>
<event>
 5   0  0.8407986E-06  0.2497810E+04  0.7818609E-02  0.8403766E-01
        2   -1    0    0  501    0  0.00000000000E+00  0.00000000000E+00  0.17745590955E+04  0.17745590955E+04  0.25500000920E-02 0. -1.
       -2   -1    0    0    0  501  0.00000000000E+00  0.00000000000E+00 -0.87895860701E+03  0.87895860701E+03  0.25500000920E-02 0.  1.
    10030    2    1    2    0    0  0.00000000000E+00  0.00000000000E+00  0.89560048852E+03  0.26535177025E+04  0.24978102335E+04 0.  0.
        5    1    3    3  502    0  0.79698267448E+03 -0.96144327650E+03  0.43325966616E+03  0.13218511965E+04  0.46999998093E+01 0. -1.
       -5    1    3    3    0  502 -0.79698267448E+03  0.96144327650E+03  0.46234082236E+03  0.13316665061E+04  0.46999998093E+01 0.  1.
</event>
<event>
 5   0  0.8354653E-06  0.2552899E+04  0.7818609E-02  0.8384379E-01
       -2   -1    0    0    0  501  0.00000000000E+00  0.00000000000E+00  0.14139953009E+04  0.14139953009E+04  0.25500000920E-02 0. -1.
        2   -1    0    0  501    0  0.00000000000E+00  0.00000000000E+00 -0.11522831689E+04  0.11522831689E+04  0.25500000920E-02 0.  1.
    10030    2    1    2    0    0  0.00000000000E+00  0.00000000000E+00  0.26171213197E+03  0.25662784698E+04  0.25528987337E+04 0.  0.
        3    1    3    3  502    0 -0.12090455928E+04 -0.22836937342E+03 -0.21059925006E+03  0.12483172155E+04  0.10100000352E+00 0.  1.
       -3    1    3    3    0  502  0.12090455928E+04  0.22836937342E+03  0.47231138203E+03  0.13179612543E+04  0.10100000352E+00 0. -1.
</event>
<event>
 5   0  0.3522870E-06  0.2518252E+04  0.7818609E-02  0.8396512E-01
       -1   -1    0    0    0  501  0.00000000000E+00  0.00000000000E+00  0.16759322671E+04  0.16759322671E+04  0.50400001928E-02 0. -1.
        1   -1    0    0  501    0  0.00000000000E+00  0.00000000000E+00 -0.94597988879E+03  0.94597988880E+03  0.50400001928E-02 0.  1.
    10030    2    1    2    0    0  0.00000000000E+00  0.00000000000E+00  0.72995237832E+03  0.26219121559E+04  0.25182519490E+04 0.  0.
        2    1    3    3  502    0 -0.10294705515E+04  0.43380091241E+03 -0.23980037667E+03  0.11425835062E+04  0.25500000920E-02 0.  1.
       -2    1    3    3    0  502  0.10294705515E+04 -0.43380091241E+03  0.96975275499E+03  0.14793286497E+04  0.25500000920E-02 0. -1.
</event>
<event>
 5   0  0.3642184E-06  0.2487737E+04  0.7818609E-02  0.8407367E-01
        1   -1    0    0  501    0  0.00000000000E+00  0.00000000000E+00  0.84435155853E+03  0.84435155854E+03  0.50400001928E-02 0.  1.
       -1   -1    0    0    0  501  0.00000000000E+00  0.00000000000E+00 -0.18324224699E+04  0.18324224699E+04  0.50400001928E-02 0. -1.
    10030    2    1    2    0    0  0.00000000000E+00  0.00000000000E+00 -0.98807091136E+03  0.26767740284E+04  0.24877369382E+04 0.  0.
        5    1    3    3  502    0  0.10891737064E+04  0.57543046913E+03 -0.30839379211E+03  0.12698615706E+04  0.46999998093E+01 0.  1.
       -5    1    3    3    0  502 -0.10891737064E+04 -0.57543046913E+03 -0.67967711925E+03  0.14069124578E+04  0.46999998093E+01 0. -1.
</event>
<event>
 5   0  0.8056723E-06  0.2493542E+04  0.7818609E-02  0.8405290E-01
        2   -1    0    0  501    0  0.00000000000E+00  0.00000000000E+00  0.16038259100E+04  0.16038259100E+04  0.25500000920E-02 0.  1.
       -2   -1    0    0    0  501  0.00000000000E+00  0.00000000000E+00 -0.96920647613E+03  0.96920647614E+03  0.25500000920E-02 0. -1.
    10030    2    1    2    0    0  0.00000000000E+00  0.00000000000E+00  0.63461943388E+03  0.25730323862E+04  0.24935424268E+04 0.  0.
        2    1    3    3  502    0 -0.10324318317E+04 -0.30440935678E+03 -0.33191965120E+03  0.11263885646E+04  0.25500000920E-02 0. -1.
       -2    1    3    3    0  502  0.10324318317E+04  0.30440935678E+03  0.96653908508E+03  0.14466438216E+04  0.25500000920E-02 0.  1.
</event>
<event>
 5   0  0.8579923E-06  0.2500902E+04  0.7818609E-02  0.8402664E-01
        2   -1    0    0  501    0  0.00000000000E+00  0.00000000000E+00  0.15722748679E+04  0.15722748679E+04  0.25500000920E-02 0.  1.
       -2   -1    0    0    0  501  0.00000000000E+00  0.00000000000E+00 -0.99449997861E+03  0.99449997861E+03  0.25500000920E-02 0. -1.
    10030    2    1    2    0    0  0.00000000000E+00  0.00000000000E+00  0.57777488925E+03  0.25667748465E+04  0.25009016954E+04 0.  0.
        1    1    3    3  502    0  0.88075624490E+02 -0.11474245348E+04  0.79094170313E+03  0.13963986381E+04  0.50400001928E-02 0.  1.
       -1    1    3    3    0  502 -0.88075624490E+02  0.11474245348E+04 -0.21316681387E+03  0.11703762084E+04  0.50400001928E-02 0. -1.
</event>
<event>
 5   0  0.3522870E-06  0.2502161E+04  0.7818609E-02  0.8402216E-01
       -1   -1    0    0    0  501  0.00000000000E+00  0.00000000000E+00  0.76442079101E+03  0.76442079102E+03  0.50400001928E-02 0.  1.
        1   -1    0    0  501    0  0.00000000000E+00  0.00000000000E+00 -0.20475660800E+04  0.20475660800E+04  0.50400001928E-02 0. -1.
    10030    2    1    2    0    0  0.00000000000E+00  0.00000000000E+00 -0.12831452890E+04  0.28119868710E+04  0.25021607323E+04 0.  0.
        2    1    3    3  502    0 -0.96540170241E+03 -0.32366535300E+03  0.17538003635E+03  0.10332075614E+04  0.25500000920E-02 0.  1.
       -2    1    3    3    0  502  0.96540170241E+03  0.32366535300E+03 -0.14585253253E+04  0.17787793096E+04  0.25500000920E-02 0. -1.
</event>
<event>
 5   0  0.3484857E-06  0.2497784E+04  0.7818609E-02  0.8403775E-01
       -1   -1    0    0    0  501  0.00000000000E+00  0.00000000000E+00  0.12599623126E+04  0.12599623126E+04  0.50400001928E-02 0. -1.
        1   -1    0    0  501    0  0.00000000000E+00  0.00000000000E+00 -0.12379188732E+04  0.12379188732E+04  0.50400001928E-02 0.  1.
    10030    2    1    2    0    0  0.00000000000E+00  0.00000000000E+00  0.22043439410E+02  0.24978811858E+04  0.24977839189E+04 0.  0.
        3    1    3    3  502    0 -0.11640712636E+04 -0.11746767539E+03 -0.42588264111E+03  0.12450849753E+04  0.10100000352E+00 0. -1.
       -3    1    3    3    0  502  0.11640712636E+04  0.11746767539E+03  0.44792608052E+03  0.12527962106E+04  0.10100000352E+00 0.  1.
</event>
<event>
 5   0  0.8056723E-06  0.2499759E+04  0.7818609E-02  0.8403071E-01
       -2   -1    0    0    0  501  0.00000000000E+00  0.00000000000E+00  0.13554033453E+04  0.13554033453E+04  0.25500000920E-02 0.  1.
        2   -1    0    0  501    0  0.00000000000E+00  0.00000000000E+00 -0.11525708921E+04  0.11525708921E+04  0.25500000920E-02 0. -1.
    10030    2    1    2    0    0  0.00000000000E+00  0.00000000000E+00  0.20283245317E+03  0.25079742374E+04  0.24997587426E+04 0.  0.
        2    1    3    3  502    0 -0.28462493732E+03 -0.11133441066E+04 -0.39178047253E+03  0.12140998284E+04  0.25500000920E-02 0. -1.
       -2    1    3    3    0  502  0.28462493732E+03  0.11133441066E+04  0.59461292570E+03  0.12938744089E+04  0.25500000920E-02 0.  1.
</event>
<event>
 5   0  0.3424193E-06  0.2484507E+04  0.7818609E-02  0.8408526E-01
        1   -1    0    0  501    0  0.00000000000E+00  0.00000000000E+00  0.11172523434E+04  0.11172523434E+04  0.50400001928E-02 0. -1.
       -1   -1    0    0    0  501  0.00000000000E+00  0.00000000000E+00 -0.13812396395E+04  0.13812396395E+04  0.50400001928E-02 0.  1.
    10030    2    1    2    0    0  0.00000000000E+00  0.00000000000E+00 -0.26398729605E+03  0.24984919829E+04  0.24845065700E+04 0.  0.
        1    1    3    3  502    0  0.17963431478E+03 -0.35339281772E+03  0.10519346988E+04  0.11241537178E+04  0.50400001928E-02 0. -1.
       -1    1    3    3    0  502 -0.17963431478E+03  0.35339281772E+03 -0.13159219948E+04  0.13743382652E+04  0.50400001928E-02 0.  1.
</event>
<event>
 5   0  0.3424193E-06  0.2501990E+04  0.7818609E-02  0.8402277E-01
        1   -1    0    0  501    0  0.00000000000E+00  0.00000000000E+00  0.15810798598E+04  0.15810798598E+04  0.50400001928E-02 0. -1.
       -1   -1    0    0    0  501  0.00000000000E+00  0.00000000000E+00 -0.98982241709E+03  0.98982241711E+03  0.50400001928E-02 0.  1.
    10030    2    1    2    0    0  0.00000000000E+00  0.00000000000E+00  0.59125744268E+03  0.25709022769E+04  0.25019898389E+04 0.  0.
        1    1    3    3  502    0  0.56144235313E+03  0.51121358169E+02  0.14431497627E+04  0.15493586243E+04  0.50400001928E-02 0. -1.
       -1    1    3    3    0  502 -0.56144235313E+03 -0.51121358169E+02 -0.85189232002E+03  0.10215436526E+04  0.50400001928E-02 0.  1.
</event>
<event>
 5   0  0.3522870E-06  0.2493228E+04  0.7818609E-02  0.8405402E-01
        1   -1    0    0  501    0  0.00000000000E+00  0.00000000000E+00  0.20780950520E+04  0.20780950520E+04  0.50400001928E-02 0. -1.
       -1   -1    0    0    0  501  0.00000000000E+00  0.00000000000E+00 -0.74782257107E+03  0.74782257109E+03  0.50400001928E-02 0.  1.
    10030    2    1    2    0    0  0.00000000000E+00  0.00000000000E+00  0.13302724809E+04  0.28259176230E+04  0.24932279356E+04 0.  0.
        2    1    3    3  502    0  0.59904700540E+02  0.19753222211E+03  0.20585907697E+04  0.20689136060E+04  0.25500000920E-02 0. -1.
       -2    1    3    3    0  502 -0.59904700540E+02 -0.19753222211E+03 -0.72831828886E+03  0.75700401703E+03  0.25500000920E-02 0.  1.
</event>
<event>
 5   0  0.8948286E-06  0.2432339E+04  0.7818609E-02  0.8427494E-01
       -2   -1    0    0    0  501  0.00000000000E+00  0.00000000000E+00  0.68526812687E+03  0.68526812687E+03  0.25500000920E-02 0. -1.
        2   -1    0    0  501    0  0.00000000000E+00  0.00000000000E+00 -0.21583796438E+04  0.21583796438E+04  0.25500000920E-02 0.  1.
    10030    2    1    2    0    0  0.00000000000E+00  0.00000000000E+00 -0.14731115169E+04  0.28436477707E+04  0.24323394299E+04 0.  0.
        4    1    3    3  502    0  0.25522079533E+03 -0.91416188378E+03 -0.16255619177E+04  0.18823609551E+04  0.12699999809E+01 0.  1.
       -4    1    3    3    0  502 -0.25522079533E+03  0.91416188378E+03  0.15245040080E+03  0.96128681554E+03  0.12699999809E+01 0. -1.
</event>
<event>
 5   0  0.8407986E-06  0.2495315E+04  0.7818609E-02  0.8404656E-01
        2   -1    0    0  501    0  0.00000000000E+00  0.00000000000E+00  0.10373581674E+04  0.10373581674E+04  0.25500000920E-02 0.  1.
       -2   -1    0    0    0  501  0.00000000000E+00  0.00000000000E+00 -0.15005904608E+04  0.15005904608E+04  0.25500000920E-02 0. -1.
    10030    2    1    2    0    0  0.00000000000E+00  0.00000000000E+00 -0.46323229344E+03  0.25379486282E+04  0.24953154273E+04 0.  0.
        5    1    3    3  502    0 -0.12052025633E+04  0.70392595816E+02 -0.55189200131E+03  0.13274318089E+04  0.46999998093E+01 0. -1.
       -5    1    3    3    0  502  0.12052025633E+04 -0.70392595816E+02  0.88659707877E+02  0.12105168193E+04  0.46999998093E+01 0.  1.
</event>
<event>
 5   0  0.8948286E-06  0.2542089E+04  0.7818609E-02  0.8388143E-01
       -2   -1    0    0    0  501  0.00000000000E+00  0.00000000000E+00  0.89600565104E+03  0.89600565104E+03  0.25500000920E-02 0.  1.
        2   -1    0    0  501    0  0.00000000000E+00  0.00000000000E+00 -0.18030626581E+04  0.18030626581E+04  0.25500000920E-02 0. -1.
    10030    2    1    2    0    0  0.00000000000E+00  0.00000000000E+00 -0.90705700710E+03  0.26990683092E+04  0.25420891651E+04 0.  0.
        4    1    3    3  502    0  0.11441371762E+04  0.55158683048E+03 -0.40311139570E+03  0.13325908298E+04  0.12699999809E+01 0.  1.
       -4    1    3    3    0  502 -0.11441371762E+04 -0.55158683048E+03 -0.50394561141E+03  0.13664774794E+04  0.12699999809E+01 0. -1.
</event>
<event>
 5   0  0.8579923E-06  0.2471130E+04  0.7818609E-02  0.8413343E-01
        2   -1    0    0  501    0  0.00000000000E+00  0.00000000000E+00  0.18876912697E+04  0.18876912697E+04  0.25500000920E-02 0.  1.
       -2   -1    0    0    0  501  0.00000000000E+00  0.00000000000E+00 -0.80872400299E+03  0.80872400300E+03  0.25500000920E-02 0. -1.
    10030    2    1    2    0    0  0.00000000000E+00  0.00000000000E+00  0.10789672667E+04  0.26964152727E+04  0.24711303001E+04 0.  0.
        1    1    3    3  502    0  0.92098312542E+02  0.11872075272E+03 -0.79871776330E+03  0.81272798754E+03  0.50400001928E-02 0. -1.
       -1    1    3    3    0  502 -0.92098312542E+02 -0.11872075272E+03  0.18776850300E+04  0.18836872852E+04  0.50400001928E-02 0.  1.
</event>
<event>
 5   0  0.8407986E-06  0.2499842E+04  0.7818609E-02  0.8403042E-01
       -2   -1    0    0    0  501  0.00000000000E+00  0.00000000000E+00  0.20595424965E+04  0.20595424965E+04  0.25500000920E-02 0. -1.
        2   -1    0    0  501    0  0.00000000000E+00  0.00000000000E+00 -0.75856777285E+03  0.75856777286E+03  0.25500000920E-02 0.  1.
    10030    2    1    2    0    0  0.00000000000E+00  0.00000000000E+00  0.13009747236E+04  0.28181102693E+04  0.24998420467E+04 0.  0.
        5    1    3    3  502    0 -0.18555230174E+03 -0.12252250457E+04  0.46637082958E+03  0.13240581219E+04  0.46999998093E+01 0.  1.
       -5    1    3    3    0  502  0.18555230174E+03  0.12252250457E+04  0.83460389404E+03  0.14940521475E+04  0.46999998093E+01 0. -1.
</event>
<event>
 5   0  0.8354653E-06  0.2499564E+04  0.7818609E-02  0.8403141E-01
        2   -1    0    0  501    0  0.00000000000E+00  0.00000000000E+00  0.15913257266E+04  0.15913257266E+04  0.25500000920E-02 0.  1.
       -2   -1    0    0    0  501  0.00000000000E+00  0.00000000000E+00 -0.98154321167E+03  0.98154321167E+03  0.25500000920E-02 0. -1.
    10030    2    1    2    0    0  0.00000000000E+00  0.00000000000E+00  0.60978251494E+03  0.25728689383E+04  0.24995639336E+04 0.  0.
        3    1    3    3  502    0  0.11150429815E+04 -0.44721242389E+03  0.65942706844E+03  0.13704611894E+04  0.10100000352E+00 0. -1.
       -3    1    3    3    0  502 -0.11150429815E+04  0.44721242389E+03 -0.49644553498E+02  0.12024077489E+04  0.10100000352E+00 0.  1.
</event>
<event>
 5   0  0.8948286E-06  0.2503860E+04  0.7818609E-02  0.8401612E-01
       -2   -1    0    0    0  501  0.00000000000E+00  0.00000000000E+00  0.65259968469E+03  0.65259968470E+03  0.25500000920E-02 0. -1.
        2   -1    0    0  501    0  0.00000000000E+00  0.00000000000E+00 -0.24016692425E+04  0.24016692425E+04  0.25500000920E-02 0.  1.
    10030    2    1    2    0    0  0.00000000000E+00  0.00000000000E+00 -0.17490695578E+04  0.30542689272E+04  0.25038598926E+04 0.  0.
        4    1    3    3  502    0 -0.37629315551E+03  0.27129028563E+03 -0.22929611564E+04  0.23394160459E+04  0.12699999809E+01 0.  1.
       -4    1    3    3    0  502  0.37629315551E+03 -0.27129028563E+03  0.54389159863E+03  0.71485288131E+03  0.12699999809E+01 0. -1.
</event>
<event>
 5   0  0.3484857E-06  0.2501922E+04  0.7818609E-02  0.8402301E-01
       -1   -1    0    0    0  501  0.00000000000E+00  0.00000000000E+00  0.11713531234E+04  0.11713531235E+04  0.50400001928E-02 0. -1.
        1   -1    0    0  501    0  0.00000000000E+00  0.00000000000E+00 -0.13359788779E+04  0.13359788779E+04  0.50400001928E-02 0.  1.
    10030    2    1    2    0    0  0.00000000000E+00  0.00000000000E+00 -0.16462575446E+03  0.25073320014E+04  0.25019216866E+04 0.  0.
        3    1    3    3  502    0  0.12472431574E+04  0.21022811631E+01 -0.17887011491E+03  0.12600057308E+04  0.10100000352E+00 0. -1.
       -3    1    3    3    0  502 -0.12472431574E+04 -0.21022811631E+01  0.14244360447E+02  0.12473262706E+04  0.10100000352E+00 0.  1.
</event>
<event>
 5   0  0.3522870E-06  0.2494345E+04  0.7818609E-02  0.8405003E-01
        1   -1    0    0  501    0  0.00000000000E+00  0.00000000000E+00  0.23285619407E+04  0.23285619407E+04  0.50400001928E-02 0. -1.
       -1   -1    0    0    0  501  0.00000000000E+00  0.00000000000E+00 -0.66798274989E+03  0.66798274991E+03  0.50400001928E-02 0.  1.
    10030    2    1    2    0    0  0.00000000000E+00  0.00000000000E+00  0.16605791908E+04  0.29965446906E+04  0.24943449709E+04 0.  0.
        2    1    3    3  502    0 -0.11475281174E+04 -0.34671772959E+03  0.12436698338E+04  0.17273530675E+04  0.25500000920E-02 0. -1.
       -2    1    3    3    0  502  0.11475281174E+04  0.34671772959E+03  0.41690935698E+03  0.12691916231E+04  0.25500000920E-02 0.  1.
</event>
<event>
 5   0  0.3642184E-06  0.2493071E+04  0.7818609E-02  0.8405458E-01
       -1   -1    0    0    0  501  0.00000000000E+00  0.00000000000E+00  0.14310378936E+04  0.14310378936E+04  0.50400001928E-02 0.  1.
        1   -1    0    0  501    0  0.00000000000E+00  0.00000000000E+00 -0.10858211924E+04  0.10858211925E+04  0.50400001928E-02 0. -1.
    10030    2    1    2    0    0  0.00000000000E+00  0.00000000000E+00  0.34521670111E+03  0.25168590860E+04  0.24930714166E+04 0.  0.
        5    1    3    3  502    0  0.47636716717E+03  0.11458518377E+04  0.53469320102E+02  0.12420882296E+04  0.46999998093E+01 0. -1.
       -5    1    3    3    0  502 -0.47636716717E+03 -0.11458518377E+04  0.29174738101E+03  0.12747708564E+04  0.46999998093E+01 0.  1.
</event>
<event>
 5   0  0.8948286E-06  0.2506896E+04  0.7818609E-02  0.8400533E-01
       -2   -1    0    0    0  501  0.00000000000E+00  0.00000000000E+00  0.11331805628E+04  0.11331805628E+04  0.25500000920E-02 0.  1.
        2   -1    0    0  501    0  0.00000000000E+00  0.00000000000E+00 -0.13864800618E+04  0.13864800618E+04  0.25500000920E-02 0. -1.
    10030    2    1    2    0    0  0.00000000000E+00  0.00000000000E+00 -0.25329949901E+03  0.25196606247E+04  0.25068962937E+04 0.  0.
        4    1    3    3  502    0  0.78130497961E+03  0.63906737735E+03  0.62029369782E+03  0.11847406756E+04  0.12699999809E+01 0.  1.
       -4    1    3    3    0  502 -0.78130497961E+03 -0.63906737735E+03 -0.87359319683E+03  0.13349199491E+04  0.12699999809E+01 0. -1.
</event>
<event>
 5   0  0.3424193E-06  0.2511744E+04  0.7818609E-02  0.8398814E-01
        1   -1    0    0  501    0  0.00000000000E+00  0.00000000000E+00  0.19141263849E+04  0.19141263849E+04  0.50400001928E-02 0.  1.
       -1   -1    0    0    0  501  0.00000000000E+00  0.00000000000E+00 -0.82398663507E+03  0.82398663509E+03  0.50400001928E-02 0. -1.
    10030    2    1    2    0    0  0.00000000000E+00  0.00000000000E+00  0.10901397498E+04  0.27381130200E+04  0.25117440626E+04 0.  0.
        1    1    3    3  502    0 -0.94586804784E+03 -0.32897944307E+03  0.13712090731E+04  0.16979717784E+04  0.50400001928E-02 0.  1.
       -1    1    3    3    0  502  0.94586804784E+03  0.32897944307E+03 -0.28106932335E+03  0.10401412416E+04  0.50400001928E-02 0. -1.
</event>
<event>
 5   0  0.3642184E-06  0.2502502E+04  0.7818609E-02  0.8402095E-01
       -1   -1    0    0    0  501  0.00000000000E+00  0.00000000000E+00  0.59553252661E+03  0.59553252663E+03  0.50400001928E-02 0.  1.
        1   -1    0    0  501    0  0.00000000000E+00  0.00000000000E+00 -0.26289556477E+04  0.26289556477E+04  0.50400001928E-02 0. -1.
    10030    2    1    2    0    0  0.00000000000E+00  0.00000000000E+00 -0.20334231211E+04  0.32244881743E+04  0.25025016278E+04 0.  0.
        5    1    3    3  502    0 -0.30822972668E+01 -0.10176035058E+03 -0.26235987392E+04  0.26255774801E+04  0.46999998093E+01 0. -1.
       -5    1    3    3    0  502  0.30822972668E+01  0.10176035058E+03  0.59017561810E+03  0.59891069427E+03  0.46999998093E+01 0.  1.
</event>
<event>
 5   0  0.3424193E-06  0.2470925E+04  0.7818609E-02  0.8413417E-01
        1   -1    0    0  501    0  0.00000000000E+00  0.00000000000E+00  0.11282241242E+04  0.11282241242E+04  0.50400001928E-02 0. -1.
       -1   -1    0    0    0  501  0.00000000000E+00  0.00000000000E+00 -0.13528941994E+04  0.13528941994E+04  0.50400001928E-02 0.  1.
    10030    2    1    2    0    0  0.00000000000E+00  0.00000000000E+00 -0.22467007515E+03  0.24811183236E+04  0.24709252302E+04 0.  0.
        1    1    3    3  502    0 -0.10390609864E+04  0.66836067344E+03 -0.10855786375E+03  0.12402171314E+04  0.50400001928E-02 0.  1.
       -1    1    3    3    0  502  0.10390609864E+04 -0.66836067344E+03 -0.11611221140E+03  0.12409011922E+04  0.50400001928E-02 0. -1.
</event>
<event>
 5   0  0.3522870E-06  0.2493598E+04  0.7818609E-02  0.8405270E-01
       -1   -1    0    0    0  501  0.00000000000E+00  0.00000000000E+00  0.16039409328E+04  0.16039409329E+04  0.50400001928E-02 0. -1.
        1   -1    0    0  501    0  0.00000000000E+00  0.00000000000E+00 -0.96917980107E+03  0.96917980108E+03  0.50400001928E-02 0.  1.
    10030    2    1    2    0    0  0.00000000000E+00  0.00000000000E+00  0.63476113178E+03  0.25731207339E+04  0.24935975251E+04 0.  0.
        2    1    3    3  502    0  0.95448040133E+03 -0.61269319022E+03  0.85165836112E+03  0.14183609364E+04  0.25500000920E-02 0. -1.
       -2    1    3    3    0  502 -0.95448040133E+03  0.61269319022E+03 -0.21689722934E+03  0.11547597975E+04  0.25500000920E-02 0.  1.
</event>
<event>
 5   0  0.8407986E-06  0.2499016E+04  0.7818609E-02  0.8403336E-01
       -2   -1    0    0    0  501  0.00000000000E+00  0.00000000000E+00  0.92712870977E+03  0.92712870977E+03  0.25500000920E-02 0. -1.
        2   -1    0    0  501    0  0.00000000000E+00  0.00000000000E+00 -0.16839837396E+04  0.16839837396E+04  0.25500000920E-02 0.  1.
    10030    2    1    2    0    0  0.00000000000E+00  0.00000000000E+00 -0.75685502981E+03  0.26111124494E+04  0.24990155436E+04 0.  0.
        5    1    3    3  502    0 -0.35269155310E+03  0.97207065238E+03 -0.11112696542E+04  0.15179772789E+04  0.46999998093E+01 0.  1.
       -5    1    3    3    0  502  0.35269155310E+03 -0.97207065238E+03  0.35441462444E+03  0.10931351704E+04  0.46999998093E+01 0. -1.
</event>
<event>
 5   0  0.8948286E-06  0.2491389E+04  0.7818609E-02  0.8406060E-01
       -2   -1    0    0    0  501  0.00000000000E+00  0.00000000000E+00  0.79027877235E+03  0.79027877235E+03  0.25500000920E-02 0. -1.
        2   -1    0    0  501    0  0.00000000000E+00  0.00000000000E+00 -0.19635533879E+04  0.19635533879E+04  0.25500000920E-02 0.  1.
    10030    2    1    2    0    0  0.00000000000E+00  0.00000000000E+00 -0.11732746156E+04  0.27538321603E+04  0.24913888182E+04 0.  0.
        4    1    3    3  502    0  0.23076656280E+03  0.53895403670E+03  0.62824584218E+03  0.85931316253E+03  0.12699999809E+01 0. -1.
       -4    1    3    3    0  502 -0.23076656280E+03 -0.53895403670E+03 -0.18015204578E+04  0.18945189978E+04  0.12699999809E+01 0.  1.
</event>
<event>
 5   0  0.3484857E-06  0.2508380E+04  0.7818609E-02  0.8400006E-01
       -1   -1    0    0    0  501  0.00000000000E+00  0.00000000000E+00  0.88891555952E+03  0.88891555954E+03  0.50400001928E-02 0. -1.
        1   -1    0    0  501    0  0.00000000000E+00  0.00000000000E+00 -0.17695633553E+04  0.17695633553E+04  0.50400001928E-02 0.  1.
    10030    2    1    2    0    0  0.00000000000E+00  0.00000000000E+00 -0.88064779580E+03  0.26584789149E+04  0.25083798756E+04 0.  0.
        3    1    3    3  502    0 -0.21214406834E+03  0.44029150587E+03  0.78383867404E+03  0.92372333141E+03  0.10100000352E+00 0. -1.
       -3    1    3    3    0  502  0.21214406834E+03 -0.44029150587E+03 -0.16644864698E+04  0.17347555835E+04  0.10100000352E+00 0.  1.
</event>
<event>
 5   0  0.3522870E-06  0.2512862E+04  0.7818609E-02  0.8398418E-01
       -1   -1    0    0    0  501  0.00000000000E+00  0.00000000000E+00  0.10240456498E+04  0.10240456498E+04  0.50400001928E-02 0.  1.
        1   -1    0    0  501    0  0.00000000000E+00  0.00000000000E+00 -0.15415507958E+04  0.15415507958E+04  0.50400001928E-02 0. -1.
    10030    2    1    2    0    0  0.00000000000E+00  0.00000000000E+00 -0.51750514602E+03  0.25655964456E+04  0.25128616248E+04 0.  0.
        2    1    3    3  502    0 -0.15728485246E+03 -0.76076010599E+03  0.74945435343E+03  0.10794333196E+04  0.25500000920E-02 0.  1.
       -2    1    3    3    0  502  0.15728485246E+03  0.76076010599E+03 -0.12669594994E+04  0.14861631259E+04  0.25500000920E-02 0. -1.
</event>
<event>
 5   0  0.8056723E-06  0.2500499E+04  0.7818609E-02  0.8402808E-01
       -2   -1    0    0    0  501  0.00000000000E+00  0.00000000000E+00  0.85016735761E+03  0.85016735761E+03  0.25500000920E-02 0.  1.
        2   -1    0    0  501    0  0.00000000000E+00  0.00000000000E+00 -0.18386074222E+04  0.18386074222E+04  0.25500000920E-02 0. -1.
    10030    2    1    2    0    0  0.00000000000E+00  0.00000000000E+00 -0.98844006463E+03  0.26887747799E+04  0.25004991613E+04 0.  0.
        2    1    3    3  502    0  0.84226979106E+03  0.72716629875E+03 -0.11071711157E+04  0.15697187985E+04  0.25500000920E-02 0. -1.
       -2    1    3    3    0  502 -0.84226979106E+03 -0.72716629875E+03  0.11873105102E+03  0.11190559814E+04  0.25500000920E-02 0.  1.
</event>
<event>
 5   0  0.3424193E-06  0.2491834E+04  0.7818609E-02  0.8405901E-01
        1   -1    0    0  501    0  0.00000000000E+00  0.00000000000E+00  0.15491569829E+04  0.15491569829E+04  0.50400001928E-02 0. -1.
       -1   -1    0    0    0  501  0.00000000000E+00  0.00000000000E+00 -0.10020345476E+04  0.10020345476E+04  0.50400001928E-02 0.  1.
    10030    2    1    2    0    0  0.00000000000E+00  0.00000000000E+00  0.54712243530E+03  0.25511915305E+04  0.24918337156E+04 0.  0.
        1    1    3    3  502    0 -0.79169250472E+02  0.11907027838E+03 -0.99360625011E+03  0.10038420601E+04  0.50400001928E-02 0.  1.
       -1    1    3    3    0  502  0.79169250472E+02 -0.11907027838E+03  0.15407286854E+04  0.15473494704E+04  0.50400001928E-02 0. -1.
</event>
<event>
 5   0  0.8579923E-06  0.2470535E+04  0.7818609E-02  0.8413559E-01
        2   -1    0    0  501    0  0.00000000000E+00  0.00000000000E+00  0.16253272932E+04  0.16253272932E+04  0.25500000920E-02 0. -1.
       -2   -1    0    0    0  501  0.00000000000E+00  0.00000000000E+00 -0.93881720503E+03  0.93881720504E+03  0.25500000920E-02 0.  1.
    10030    2    1    2    0    0  0.00000000000E+00  0.00000000000E+00  0.68651008819E+03  0.25641444983E+04  0.24705345387E+04 0.  0.
        1    1    3    3  502    0 -0.11700550360E+04  0.87828789373E+02  0.74407777053E+03  0.13893863437E+04  0.50400001928E-02 0.  1.
       -1    1    3    3    0  502  0.11700550360E+04 -0.87828789373E+02 -0.57567682340E+02  0.11747581545E+04  0.50400001928E-02 0. -1.
</event>
<event>
 5   0  0.3424193E-06  0.2495508E+04  0.7818609E-02  0.8404588E-01
        1   -1    0    0  501    0  0.00000000000E+00  0.00000000000E+00  0.28344097397E+04  0.28344097397E+04  0.50400001928E-02 0. -1.
       -1   -1    0    0    0  501  0.00000000000E+00  0.00000000000E+00 -0.54928187346E+03  0.54928187349E+03  0.50400001928E-02 0.  1.
    10030    2    1    2    0    0  0.00000000000E+00  0.00000000000E+00  0.22851278662E+04  0.33836916132E+04  0.24955078778E+04 0.  0.
        1    1    3    3  502    0 -0.54715818140E+03 -0.10557454839E+04  0.62998345684E+03  0.13456818933E+04  0.50400001928E-02 0.  1.
       -1    1    3    3    0  502  0.54715818140E+03  0.10557454839E+04  0.16551444094E+04  0.20380097198E+04  0.50400001928E-02 0. -1.
</event>
<event>
 5   0  0.3424193E-06  0.2500011E+04  0.7818609E-02  0.8402981E-01
        1   -1    0    0  501    0  0.00000000000E+00  0.00000000000E+00  0.14710955427E+04  0.14710955427E+04  0.50400001928E-02 0. -1.
       -1   -1    0    0    0  501  0.00000000000E+00  0.00000000000E+00 -0.10621432898E+04  0.10621432898E+04  0.50400001928E-02 0.  1.
    10030    2    1    2    0    0  0.00000000000E+00  0.00000000000E+00  0.40895225294E+03  0.25332388325E+04  0.25000114074E+04 0.  0.
        1    1    3    3  502    0 -0.12191705419E+04  0.25909749242E+03  0.10831520075E+03  0.12510957211E+04  0.50400001928E-02 0.  1.
       -1    1    3    3    0  502  0.12191705419E+04 -0.25909749242E+03  0.30063705220E+03  0.12821431113E+04  0.50400001928E-02 0. -1.
</event>
<event>
 5   0  0.8354653E-06  0.2505772E+04  0.7818609E-02  0.8400932E-01
        2   -1    0    0  501    0  0.00000000000E+00  0.00000000000E+00  0.25870982102E+04  0.25870982102E+04  0.25500000920E-02 0.  1.
       -2   -1    0    0    0  501  0.00000000000E+00  0.00000000000E+00 -0.60675073889E+03  0.60675073889E+03  0.25500000920E-02 0. -1.
    10030    2    1    2    0    0  0.00000000000E+00  0.00000000000E+00  0.19803474713E+04  0.31938489491E+04  0.25057723365E+04 0.  0.
        3    1    3    3  502    0 -0.49813245845E+03  0.70190329249E+03  0.21506304796E+04  0.23164661984E+04  0.10100000352E+00 0.  1.
       -3    1    3    3    0  502  0.49813245845E+03 -0.70190329249E+03 -0.17028300829E+03  0.87738275073E+03  0.10100000352E+00 0. -1.
</event>
<event>
 5   0  0.3642184E-06  0.2504977E+04  0.7818609E-02  0.8401214E-01
        1   -1    0    0  501    0  0.00000000000E+00  0.00000000000E+00  0.11858280243E+04  0.11858280243E+04  0.50400001928E-02 0. -1.
       -1   -1    0    0    0  501  0.00000000000E+00  0.00000000000E+00 -0.13228966329E+04  0.13228966329E+04  0.50400001928E-02 0.  1.
    10030    2    1    2    0    0  0.00000000000E+00  0.00000000000E+00 -0.13706860856E+03  0.25087246572E+04  0.25049773656E+04 0.  0.
        5    1    3    3  502    0 -0.83426585824E+03  0.41578397106E+03 -0.90634415666E+03  0.13001375516E+04  0.46999998093E+01 0.  1.
       -5    1    3    3    0  502  0.83426585824E+03 -0.41578397106E+03  0.76927554810E+03  0.12085871056E+04  0.46999998093E+01 0. -1.
</event>
<event>
 5   0  0.8354653E-06  0.2499061E+04  0.7818609E-02  0.8403320E-01
       -2   -1    0    0    0  501  0.00000000000E+00  0.00000000000E+00  0.84568925186E+03  0.84568925187E+03  0.25500000920E-02 0. -1.
        2   -1    0    0  501    0  0.00000000000E+00  0.00000000000E+00 -0.18462171438E+04  0.18462171438E+04  0.25500000920E-02 0.  1.
    10030    2    1    2    0    0  0.00000000000E+00  0.00000000000E+00 -0.10005278919E+04  0.26919063956E+04  0.24990606196E+04 0.  0.
        3    1    3    3  502    0 -0.69418126964E+03  0.16262904282E+03  0.60507460331E+03  0.93512091542E+03  0.10100000352E+00 0. -1.
       -3    1    3    3    0  502  0.69418126964E+03 -0.16262904282E+03 -0.16056024952E+04  0.17567854802E+04  0.10100000352E+00 0.  1.
</event>
<event>
 5   0  0.8948286E-06  0.2481503E+04  0.7818609E-02  0.8409605E-01
       -2   -1    0    0    0  501  0.00000000000E+00  0.00000000000E+00  0.87507303087E+03  0.87507303087E+03  0.25500000920E-02 0. -1.
        2   -1    0    0  501    0  0.00000000000E+00  0.00000000000E+00 -0.17592411623E+04  0.17592411624E+04  0.25500000920E-02 0.  1.
    10030    2    1    2    0    0  0.00000000000E+00  0.00000000000E+00 -0.88416813148E+03  0.26343141932E+04  0.24815031702E+04 0.  0.
        4    1    3    3  502    0  0.26850659367E+03  0.86661993967E+02 -0.17247331772E+04  0.17476590736E+04  0.12699999809E+01 0.  1.
       -4    1    3    3    0  502 -0.26850659367E+03 -0.86661993967E+02  0.84056504576E+03  0.88665511959E+03  0.12699999809E+01 0. -1.
</event>
<event>
 5   0  0.8354653E-06  0.2365884E+04  0.7818609E-02  0.8452388E-01
        2   -1    0    0  501    0  0.00000000000E+00  0.00000000000E+00  0.16702043161E+04  0.16702043161E+04  0.25500000920E-02 0. -1.
       -2   -1    0    0    0  501  0.00000000000E+00  0.00000000000E+00 -0.83783246423E+03  0.83783246423E+03  0.25500000920E-02 0.  1.
    10030    2    1    2    0    0  0.00000000000E+00  0.00000000000E+00  0.83237185190E+03  0.25080367804E+04  0.23658836810E+04 0.  0.
        3    1    3    3  502    0 -0.84286301033E+03  0.71794239913E+03 -0.25364487447E+02  0.11074758282E+04  0.10100000352E+00 0.  1.
       -3    1    3    3    0  502  0.84286301033E+03 -0.71794239913E+03  0.85773633935E+03  0.14005609521E+04  0.10100000352E+00 0. -1.
</event>
<event>
 5   0  0.8579923E-06  0.2502686E+04  0.7818609E-02  0.8402029E-01
       -2   -1    0    0    0  501  0.00000000000E+00  0.00000000000E+00  0.95014083609E+03  0.95014083609E+03  0.25500000920E-02 0.  1.
        2   -1    0    0  501    0  0.00000000000E+00  0.00000000000E+00 -0.16480285512E+04  0.16480285512E+04  0.25500000920E-02 0. -1.
    10030    2    1    2    0    0  0.00000000000E+00  0.00000000000E+00 -0.69788771514E+03  0.25981693873E+04  0.25026859376E+04 0.  0.
        1    1    3    3  502    0 -0.52869701670E+03 -0.10471517483E+04 -0.80123994748E+03  0.14205748037E+04  0.50400001928E-02 0. -1.
       -1    1    3    3    0  502  0.52869701670E+03  0.10471517483E+04  0.10335223235E+03  0.11775945836E+04  0.50400001928E-02 0.  1.
</event>
<event>
 5   0  0.3522870E-06  0.2531060E+04  0.7818609E-02  0.8392003E-01
        1   -1    0    0  501    0  0.00000000000E+00  0.00000000000E+00  0.31503540981E+04  0.31503540981E+04  0.50400001928E-02 0.  1.
       -1   -1    0    0    0  501  0.00000000000E+00  0.00000000000E+00 -0.50837663827E+03  0.50837663830E+03  0.50400001928E-02 0. -1.
    10030    2    1    2    0    0  0.00000000000E+00  0.00000000000E+00  0.26419774599E+04  0.36587307364E+04  0.25310601935E+04 0.  0.
        2    1    3    3  502    0 -0.54559412386E+03 -0.10431538719E+04  0.19923815327E+04  0.23141795782E+04  0.25500000920E-02 0.  1.
       -2    1    3    3    0  502  0.54559412386E+03  0.10431538719E+04  0.64959592721E+03  0.13445511582E+04  0.25500000920E-02 0. -1.
</event>
<event>
 5   0  0.3481387E-06  0.2494624E+04  0.7818609E-02  0.8404903E-01
        1   -1    0    0  501    0  0.00000000000E+00  0.00000000000E+00  0.26675822961E+04  0.26675822961E+04  0.50400001928E-02 0.  1.
       -1   -1    0    0    0  501  0.00000000000E+00  0.00000000000E+00 -0.58322007305E+03  0.58322007308E+03  0.50400001928E-02 0. -1.
    10030    2    1    2    0    0  0.00000000000E+00  0.00000000000E+00  0.20843622231E+04  0.32508023692E+04  0.24946242536E+04 0.  0.
        4    1    3    3  502    0 -0.28463147338E+03  0.10704052257E+04  0.29472501227E+03  0.11461443490E+04  0.12699999809E+01 0. -1.
       -4    1    3    3    0  502  0.28463147338E+03 -0.10704052257E+04  0.17896372108E+04  0.21046580202E+04  0.12699999809E+01 0.  1.
</event>
<event>
 5   0  0.8407986E-06  0.2500780E+04  0.7818609E-02  0.8402708E-01
       -2   -1    0    0    0  501  0.00000000000E+00  0.00000000000E+00  0.13002368464E+04  0.13002368464E+04  0.25500000920E-02 0.  1.
        2   -1    0    0  501    0  0.00000000000E+00  0.00000000000E+00 -0.12024541912E+04  0.12024541912E+04  0.25500000920E-02 0. -1.
    10030    2    1    2    0    0  0.00000000000E+00  0.00000000000E+00  0.97782655173E+02  0.25026910375E+04  0.25007800747E+04 0.  0.
        5    1    3    3  502    0 -0.75608842303E+02 -0.80678126337E+03  0.10019007186E+04  0.12885805539E+04  0.46999998093E+01 0.  1.
       -5    1    3    3    0  502  0.75608842303E+02  0.80678126337E+03 -0.90411806341E+03  0.12141104837E+04  0.46999998093E+01 0. -1.
</event>
<event>
 5   0  0.3424193E-06  0.2491898E+04  0.7818609E-02  0.8405878E-01
        1   -1    0    0  501    0  0.00000000000E+00  0.00000000000E+00  0.51022854909E+03  0.51022854911E+03  0.50400001928E-02 0.  1.
       -1   -1    0    0    0  501  0.00000000000E+00  0.00000000000E+00 -0.30425354103E+04  0.30425354103E+04  0.50400001928E-02 0. -1.
    10030    2    1    2    0    0  0.00000000000E+00  0.00000000000E+00 -0.25323068612E+04  0.35527639594E+04  0.24918976127E+04 0.  0.
        1    1    3    3  502    0  0.10790721317E+04  0.25606440482E+03 -0.20757133935E+04  0.23534127850E+04  0.50400001928E-02 0. -1.
       -1    1    3    3    0  502 -0.10790721317E+04 -0.25606440482E+03 -0.45659346771E+03  0.11993511744E+04  0.50400001928E-02 0.  1.
</event>
<event>
 5   0  0.3481387E-06  0.2467007E+04  0.7818609E-02  0.8414835E-01
       -1   -1    0    0    0  501  0.00000000000E+00  0.00000000000E+00  0.12324316957E+04  0.12324316957E+04  0.50400001928E-02 0. -1.
        1   -1    0    0  501    0  0.00000000000E+00  0.00000000000E+00 -0.12345757772E+04  0.12345757772E+04  0.50400001928E-02 0.  1.
    10030    2    1    2    0    0  0.00000000000E+00  0.00000000000E+00 -0.21440814987E+01  0.24670074729E+04  0.24670065412E+04 0.  0.
        4    1    3    3  502    0  0.42360656868E+03 -0.15916779719E+03 -0.11485705321E+04  0.12345010299E+04  0.12699999809E+01 0.  1.
       -4    1    3    3    0  502 -0.42360656868E+03  0.15916779719E+03  0.11464264506E+04  0.12325064431E+04  0.12699999809E+01 0. -1.
</event>
<event>
 5   0  0.3642184E-06  0.2483866E+04  0.7818609E-02  0.8408756E-01
        1   -1    0    0  501    0  0.00000000000E+00  0.00000000000E+00  0.11990033282E+04  0.11990033282E+04  0.50400001928E-02 0. -1.
       -1   -1    0    0    0  501  0.00000000000E+00  0.00000000000E+00 -0.12863998888E+04  0.12863998888E+04  0.50400001928E-02 0.  1.
    10030    2    1    2    0    0  0.00000000000E+00  0.00000000000E+00 -0.87396560619E+02  0.24854032170E+04  0.24838661382E+04 0.  0.
        5    1    3    3  502    0 -0.18050819018E+03 -0.61480331988E+03 -0.11082219047E+04  0.12801344495E+04  0.46999998093E+01 0.  1.
       -5    1    3    3    0  502  0.18050819018E+03  0.61480331988E+03  0.10208253441E+04  0.12052687675E+04  0.46999998093E+01 0. -1.
</event>
<event>
 5   0  0.8948286E-06  0.2512908E+04  0.7818609E-02  0.8398401E-01
        2   -1    0    0  501    0  0.00000000000E+00  0.00000000000E+00  0.23002367050E+04  0.23002367051E+04  0.25500000920E-02 0.  1.
       -2   -1    0    0    0  501  0.00000000000E+00  0.00000000000E+00 -0.68631046631E+03  0.68631046631E+03  0.25500000920E-02 0. -1.
    10030    2    1    2    0    0  0.00000000000E+00  0.00000000000E+00  0.16139262387E+04  0.29865471714E+04  0.25129078978E+04 0.  0.
        4    1    3    3  502    0 -0.85851807707E+03  0.27288846409E+03 -0.23399665071E+03  0.93074026878E+03  0.12699999809E+01 0. -1.
       -4    1    3    3    0  502  0.85851807707E+03 -0.27288846409E+03  0.18479228894E+04  0.20558069026E+04  0.12699999809E+01 0.  1.
</event>
<event>
 5   0  0.3424193E-06  0.2506623E+04  0.7818609E-02  0.8400630E-01
       -1   -1    0    0    0  501  0.00000000000E+00  0.00000000000E+00  0.15264198377E+04  0.15264198377E+04  0.50400001928E-02 0. -1.
        1   -1    0    0  501    0  0.00000000000E+00  0.00000000000E+00 -0.10290682868E+04  0.10290682868E+04  0.50400001928E-02 0.  1.
    10030    2    1    2    0    0  0.00000000000E+00  0.00000000000E+00  0.49735155094E+03  0.25554881245E+04  0.25066234239E+04 0.  0.
        1    1    3    3  502    0 -0.16597391601E+03  0.29959523883E+03 -0.98043249221E+03  0.10385338318E+04  0.50400001928E-02 0.  1.
       -1    1    3    3    0  502  0.16597391601E+03 -0.29959523883E+03  0.14777840432E+04  0.15169542927E+04  0.50400001928E-02 0. -1.
</event>
<event>
 5   0  0.8056723E-06  0.2506952E+04  0.7818609E-02  0.8400513E-01
        2   -1    0    0  501    0  0.00000000000E+00  0.00000000000E+00  0.17165395551E+04  0.17165395551E+04  0.25500000920E-02 0. -1.
       -2   -1    0    0    0  501  0.00000000000E+00  0.00000000000E+00 -0.91533082832E+03  0.91533082833E+03  0.25500000920E-02 0.  1.
    10030    2    1    2    0    0  0.00000000000E+00  0.00000000000E+00  0.80120872673E+03  0.26318703834E+04  0.25069515933E+04 0.  0.
        2    1    3    3  502    0  0.92937737287E+03  0.18897530440E+03 -0.45983765899E+03  0.10539946108E+04  0.25500000920E-02 0.  1.
       -2    1    3    3    0  502 -0.92937737287E+03 -0.18897530440E+03  0.12610463857E+04  0.15778757726E+04  0.25500000920E-02 0. -1.
</event>
<event>
 5   0  0.8407986E-06  0.2500550E+04  0.7818609E-02  0.8402790E-01
       -2   -1    0    0    0  501  0.00000000000E+00  0.00000000000E+00  0.98658581093E+03  0.98658581093E+03  0.25500000920E-02 0.  1.
        2   -1    0    0  501    0  0.00000000000E+00  0.00000000000E+00 -0.15844419433E+04  0.15844419433E+04  0.25500000920E-02 0. -1.
    10030    2    1    2    0    0  0.00000000000E+00  0.00000000000E+00 -0.59785613239E+03  0.25710277543E+04  0.25005502911E+04 0.  0.
        5    1    3    3  502    0 -0.53814519024E+03  0.34138721740E+03 -0.14048938071E+04  0.15426905643E+04  0.46999998093E+01 0. -1.
       -5    1    3    3    0  502  0.53814519024E+03 -0.34138721740E+03  0.80703767466E+03  0.10283371900E+04  0.46999998093E+01 0.  1.
</event>
<event>
 5   0  0.3484857E-06  0.2503488E+04  0.7818609E-02  0.8401744E-01
        1   -1    0    0  501    0  0.00000000000E+00  0.00000000000E+00  0.10072129549E+04  0.10072129550E+04  0.50400001928E-02 0. -1.
       -1   -1    0    0    0  501  0.00000000000E+00  0.00000000000E+00 -0.15556428172E+04  0.15556428172E+04  0.50400001928E-02 0.  1.
    10030    2    1    2    0    0  0.00000000000E+00  0.00000000000E+00 -0.54842986222E+03  0.25628557721E+04  0.25034884451E+04 0.  0.
        3    1    3    3  502    0  0.21736336884E+03 -0.83095873198E+03 -0.12063705194E+04  0.14809014446E+04  0.10100000352E+00 0.  1.
       -3    1    3    3    0  502 -0.21736336884E+03  0.83095873198E+03  0.65794065714E+03  0.10819543275E+04  0.10100000352E+00 0. -1.
</event>
<event>
 5   0  0.3642184E-06  0.2508858E+04  0.7818609E-02  0.8399837E-01
       -1   -1    0    0    0  501  0.00000000000E+00  0.00000000000E+00  0.13519630629E+04  0.13519630629E+04  0.50400001928E-02 0.  1.
        1   -1    0    0  501    0  0.00000000000E+00  0.00000000000E+00 -0.11639312681E+04  0.11639312681E+04  0.50400001928E-02 0. -1.
    10030    2    1    2    0    0  0.00000000000E+00  0.00000000000E+00  0.18803179482E+03  0.25158943309E+04  0.25088579730E+04 0.  0.
        5    1    3    3  502    0  0.10145022515E+04 -0.65263380562E+03 -0.25107755086E+03  0.12321557244E+04  0.46999998093E+01 0.  1.
       -5    1    3    3    0  502 -0.10145022515E+04  0.65263380562E+03  0.43910934568E+03  0.12837386066E+04  0.46999998093E+01 0. -1.
</event>
<event>
 5   0  0.8056723E-06  0.2374342E+04  0.7818609E-02  0.8449172E-01
       -2   -1    0    0    0  501  0.00000000000E+00  0.00000000000E+00  0.12404420706E+04  0.12404420706E+04  0.25500000920E-02 0.  1.
        2   -1    0    0  501    0  0.00000000000E+00  0.00000000000E+00 -0.11361878920E+04  0.11361878920E+04  0.25500000920E-02 0. -1.
    10030    2    1    2    0    0  0.00000000000E+00  0.00000000000E+00  0.10425417861E+03  0.23766299626E+04  0.23743422342E+04 0.  0.
        2    1    3    3  502    0  0.81654755016E+03 -0.24555320703E+03  0.87895505935E+03  0.12245849401E+04  0.25500000920E-02 0.  1.
       -2    1    3    3    0  502 -0.81654755016E+03  0.24555320703E+03 -0.77470088074E+03  0.11520450225E+04  0.25500000920E-02 0. -1.
</event>
<event>
 5   0  0.3481387E-06  0.2501890E+04  0.7818609E-02  0.8402312E-01
       -1   -1    0    0    0  501  0.00000000000E+00  0.00000000000E+00  0.25315387892E+04  0.25315387892E+04  0.50400001928E-02 0. -1.
        1   -1    0    0  501    0  0.00000000000E+00  0.00000000000E+00 -0.61814730633E+03  0.61814730635E+03  0.50400001928E-02 0.  1.
    10030    2    1    2    0    0  0.00000000000E+00  0.00000000000E+00  0.19133914829E+04  0.31496860955E+04  0.25018903920E+04 0.  0.
        4    1    3    3  502    0  0.35528382863E+03  0.81397493205E+03  0.20657489292E+04  0.22485777817E+04  0.12699999809E+01 0. -1.
       -4    1    3    3    0  502 -0.35528382863E+03 -0.81397493205E+03 -0.15235744637E+03  0.90110831383E+03  0.12699999809E+01 0.  1.
</event>
<event>
 5   0  0.8354653E-06  0.2428150E+04  0.7818609E-02  0.8429039E-01
        2   -1    0    0  501    0  0.00000000000E+00  0.00000000000E+00  0.79681817489E+03  0.79681817489E+03  0.25500000920E-02 0.  1.
       -2   -1    0    0    0  501  0.00000000000E+00  0.00000000000E+00 -0.18498306115E+04  0.18498306115E+04  0.25500000920E-02 0. -1.
    10030    2    1    2    0    0  0.00000000000E+00  0.00000000000E+00 -0.10530124366E+04  0.26466487864E+04  0.24281504498E+04 0.  0.
        3    1    3    3  502    0 -0.55055249313E+03  0.60589802125E+03  0.45069370603E+03  0.93452944667E+03  0.10100000352E+00 0.  1.
       -3    1    3    3    0  502  0.55055249313E+03 -0.60589802125E+03 -0.15037061427E+04  0.17121193398E+04  0.10100000352E+00 0. -1.
</event>
<event>
 5   0  0.8407986E-06  0.2505333E+04  0.7818609E-02  0.8401088E-01
        2   -1    0    0  501    0  0.00000000000E+00  0.00000000000E+00  0.16083504969E+04  0.16083504969E+04  0.25500000920E-02 0.  1.
       -2   -1    0    0    0  501  0.00000000000E+00  0.00000000000E+00 -0.97564123249E+03  0.97564123249E+03  0.25500000920E-02 0. -1.
    10030    2    1    2    0    0  0.00000000000E+00  0.00000000000E+00  0.63270926437E+03  0.25839917294E+04  0.25053327612E+04 0.  0.
        5    1    3    3  502    0  0.31143480773E+03 -0.31435858051E+03 -0.89233395828E+03  0.99603962758E+03  0.46999998093E+01 0. -1.
       -5    1    3    3    0  502 -0.31143480773E+03  0.31435858051E+03  0.15250432227E+04  0.15879521018E+04  0.46999998093E+01 0.  1.
</event>
<event>
 5   0  0.8579923E-06  0.2495332E+04  0.7818609E-02  0.8404650E-01
       -2   -1    0    0    0  501  0.00000000000E+00  0.00000000000E+00  0.10822186711E+04  0.10822186711E+04  0.25500000920E-02 0.  1.
        2   -1    0    0  501    0  0.00000000000E+00  0.00000000000E+00 -0.14384064337E+04  0.14384064337E+04  0.25500000920E-02 0. -1.
    10030    2    1    2    0    0  0.00000000000E+00  0.00000000000E+00 -0.35618776254E+03  0.25206251048E+04  0.24953318811E+04 0.  0.
        1    1    3    3  502    0 -0.11989195052E+04 -0.58129679013E+02 -0.52196071800E+03  0.13089041335E+04  0.50400001928E-02 0. -1.
       -1    1    3    3    0  502  0.11989195052E+04  0.58129679013E+02  0.16577295545E+03  0.12117209713E+04  0.50400001928E-02 0.  1.
</event>
<event>
 5   0  0.3481387E-06  0.2483502E+04  0.7818609E-02  0.8408887E-01
       -1   -1    0    0    0  501  0.00000000000E+00  0.00000000000E+00  0.13557838638E+04  0.13557838638E+04  0.50400001928E-02 0. -1.
        1   -1    0    0  501    0  0.00000000000E+00  0.00000000000E+00 -0.11373094209E+04  0.11373094209E+04  0.50400001928E-02 0.  1.
    10030    2    1    2    0    0  0.00000000000E+00  0.00000000000E+00  0.21847444295E+03  0.24930932847E+04  0.24835021732E+04 0.  0.
        4    1    3    3  502    0 -0.55487346647E+02  0.32005968740E+03 -0.10939017083E+04  0.11411133202E+04  0.12699999809E+01 0.  1.
       -4    1    3    3    0  502  0.55487346647E+02 -0.32005968740E+03  0.13123761513E+04  0.13519799645E+04  0.12699999809E+01 0. -1.
</event>
<event>
 5   0  0.8579923E-06  0.2515358E+04  0.7818609E-02  0.8397535E-01
       -2   -1    0    0    0  501  0.00000000000E+00  0.00000000000E+00  0.88701940105E+03  0.88701940106E+03  0.25500000920E-02 0.  1.
        2   -1    0    0  501    0  0.00000000000E+00  0.00000000000E+00 -0.17832260017E+04  0.17832260017E+04  0.25500000920E-02 0. -1.
    10030    2    1    2    0    0  0.00000000000E+00  0.00000000000E+00 -0.89620660064E+03  0.26702454028E+04  0.25153576763E+04 0.  0.
        1    1    3    3  502    0  0.93683193277E+03  0.46184258322E+03 -0.11918160318E+04  0.15847328152E+04  0.50400001928E-02 0.  1.
       -1    1    3    3    0  502 -0.93683193277E+03 -0.46184258322E+03  0.29560943115E+03  0.10855125876E+04  0.50400001928E-02 0. -1.
</event>
<event>
 5   0  0.3481387E-06  0.2485028E+04  0.7818609E-02  0.8408339E-01
       -1   -1    0    0    0  501  0.00000000000E+00  0.00000000000E+00  0.10503811778E+04  0.10503811778E+04  0.50400001928E-02 0.  1.
        1   -1    0    0  501    0  0.00000000000E+00  0.00000000000E+00 -0.14697913654E+04  0.14697913654E+04  0.50400001928E-02 0. -1.
    10030    2    1    2    0    0  0.00000000000E+00  0.00000000000E+00 -0.41941018761E+03  0.25201725433E+04  0.24850281170E+04 0.  0.
        4    1    3    3  502    0  0.67392938609E+03 -0.93036795341E+03 -0.68976443160E+03  0.13399783320E+04  0.12699999809E+01 0. -1.
       -4    1    3    3    0  502 -0.67392938609E+03  0.93036795341E+03  0.27035424400E+03  0.11801942113E+04  0.12699999809E+01 0.  1.
</event>
<event>
 5   0  0.8948286E-06  0.2501206E+04  0.7818609E-02  0.8402556E-01
       -2   -1    0    0    0  501  0.00000000000E+00  0.00000000000E+00  0.95371414124E+03  0.95371414124E+03  0.25500000920E-02 0. -1.
        2   -1    0    0  501    0  0.00000000000E+00  0.00000000000E+00 -0.16399121330E+04  0.16399121330E+04  0.25500000920E-02 0.  1.
    10030    2    1    2    0    0  0.00000000000E+00  0.00000000000E+00 -0.68619799181E+03  0.25936262743E+04  0.25012056226E+04 0.  0.
        4    1    3    3  502    0 -0.21963143679E+03  0.85293968862E+03 -0.12637461460E+04  0.15403895660E+04  0.12699999809E+01 0.  1.
       -4    1    3    3    0  502  0.21963143679E+03 -0.85293968862E+03  0.57754815420E+03  0.10532367083E+04  0.12699999809E+01 0. -1.
</event>
<event>
 5   0  0.3424193E-06  0.2504458E+04  0.7818609E-02  0.8401399E-01
       -1   -1    0    0    0  501  0.00000000000E+00  0.00000000000E+00  0.73313898360E+03  0.73313898362E+03  0.50400001928E-02 0.  1.
        1   -1    0    0  501    0  0.00000000000E+00  0.00000000000E+00 -0.21388550206E+04  0.21388550206E+04  0.50400001928E-02 0. -1.
    10030    2    1    2    0    0  0.00000000000E+00  0.00000000000E+00 -0.14057160370E+04  0.28719940043E+04  0.25044584212E+04 0.  0.
        1    1    3    3  502    0 -0.24009116036E+03 -0.12181159166E+04 -0.51573047894E+03  0.13444062178E+04  0.50400001928E-02 0.  1.
       -1    1    3    3    0  502  0.24009116036E+03  0.12181159166E+04 -0.88998555809E+03  0.15275877864E+04  0.50400001928E-02 0. -1.
</event>
<event>
 5   0  0.8407986E-06  0.2497790E+04  0.7818609E-02  0.8403773E-01
        2   -1    0    0  501    0  0.00000000000E+00  0.00000000000E+00  0.71773065773E+03  0.71773065774E+03  0.25500000920E-02 0.  1.
       -2   -1    0    0    0  501  0.00000000000E+00  0.00000000000E+00 -0.21731526861E+04  0.21731526861E+04  0.25500000920E-02 0. -1.
    10030    2    1    2    0    0  0.00000000000E+00  0.00000000000E+00 -0.14554220284E+04  0.28908833438E+04  0.24977896683E+04 0.  0.
        5    1    3    3  502    0  0.16505149535E+03 -0.11333760103E+04 -0.13040021038E+04  0.17355767783E+04  0.46999998093E+01 0. -1.
       -5    1    3    3    0  502 -0.16505149535E+03  0.11333760103E+04 -0.15141992454E+03  0.11553065655E+04  0.46999998093E+01 0.  1.
</event>
<event>
 5   0  0.8407986E-06  0.2498490E+04  0.7818609E-02  0.8403524E-01
       -2   -1    0    0    0  501  0.00000000000E+00  0.00000000000E+00  0.10528170213E+04  0.10528170213E+04  0.25500000920E-02 0.  1.
        2   -1    0    0  501    0  0.00000000000E+00  0.00000000000E+00 -0.14823212276E+04  0.14823212276E+04  0.25500000920E-02 0. -1.
    10030    2    1    2    0    0  0.00000000000E+00  0.00000000000E+00 -0.42950420627E+03  0.25351382489E+04  0.24984899596E+04 0.  0.
        5    1    3    3  502    0 -0.92239705564E+03  0.79719386879E+03 -0.49124971494E+03  0.13144134681E+04  0.46999998093E+01 0.  1.
       -5    1    3    3    0  502  0.92239705564E+03 -0.79719386879E+03  0.61745508673E+02  0.12207247808E+04  0.46999998093E+01 0. -1.
</event>
<event>
 5   0  0.8056723E-06  0.2501423E+04  0.7818609E-02  0.8402479E-01
        2   -1    0    0  501    0  0.00000000000E+00  0.00000000000E+00  0.12049929942E+04  0.12049929942E+04  0.25500000920E-02 0. -1.
       -2   -1    0    0    0  501  0.00000000000E+00  0.00000000000E+00 -0.12981650380E+04  0.12981650380E+04  0.25500000920E-02 0.  1.
    10030    2    1    2    0    0  0.00000000000E+00  0.00000000000E+00 -0.93172043869E+02  0.25031580322E+04  0.25014234157E+04 0.  0.
        2    1    3    3  502    0  0.35302739708E+03 -0.70566829454E+02  0.11520224199E+04  0.12069646542E+04  0.25500000920E-02 0. -1.
       -2    1    3    3    0  502 -0.35302739708E+03  0.70566829454E+02 -0.12451944638E+04  0.12961933780E+04  0.25500000920E-02 0.  1.
</event>
<event>
 5   0  0.8056723E-06  0.2503642E+04  0.7818609E-02  0.8401689E-01
       -2   -1    0    0    0  501  0.00000000000E+00  0.00000000000E+00  0.13757942205E+04  0.13757942206E+04  0.25500000920E-02 0.  1.
        2   -1    0    0  501    0  0.00000000000E+00  0.00000000000E+00 -0.11390190916E+04  0.11390190916E+04  0.25500000920E-02 0. -1.
    10030    2    1    2    0    0  0.00000000000E+00  0.00000000000E+00  0.23677512891E+03  0.25148133122E+04  0.25036420538E+04 0.  0.
        2    1    3    3  502    0 -0.44373017307E+01  0.53956432809E+03  0.12529879918E+04  0.13642317477E+04  0.25500000920E-02 0.  1.
       -2    1    3    3    0  502  0.44373017307E+01 -0.53956432809E+03 -0.10162128629E+04  0.11505815645E+04  0.25500000920E-02 0. -1.
</event>
<event>
 5   0  0.8579923E-06  0.2504734E+04  0.7818609E-02  0.8401301E-01
       -2   -1    0    0    0  501  0.00000000000E+00  0.00000000000E+00  0.96353030601E+03  0.96353030601E+03  0.25500000920E-02 0.  1.
        2   -1    0    0  501    0  0.00000000000E+00  0.00000000000E+00 -0.16277884477E+04  0.16277884477E+04  0.25500000920E-02 0. -1.
    10030    2    1    2    0    0  0.00000000000E+00  0.00000000000E+00 -0.66425814173E+03  0.25913187538E+04  0.25047343182E+04 0.  0.
        1    1    3    3  502    0 -0.12606530416E+03  0.12202184086E+04 -0.59303332411E+03  0.13625395220E+04  0.50400001928E-02 0. -1.
       -1    1    3    3    0  502  0.12606530416E+03 -0.12202184086E+04 -0.71224817623E+02  0.12287792317E+04  0.50400001928E-02 0.  1.
</event>
<event>
 5   0  0.3484857E-06  0.2481060E+04  0.7818609E-02  0.8409764E-01
        1   -1    0    0  501    0  0.00000000000E+00  0.00000000000E+00  0.79016115267E+03  0.79016115269E+03  0.50400001928E-02 0.  1.
       -1   -1    0    0    0  501  0.00000000000E+00  0.00000000000E+00 -0.19475955711E+04  0.19475955711E+04  0.50400001928E-02 0. -1.
    10030    2    1    2    0    0  0.00000000000E+00  0.00000000000E+00 -0.11574344184E+04  0.27377567238E+04  0.24810597425E+04 0.  0.
        3    1    3    3  502    0  0.62975439844E+03  0.14998887844E+03 -0.17464221453E+04  0.18625459957E+04  0.10100000352E+00 0. -1.
       -3    1    3    3    0  502 -0.62975439844E+03 -0.14998887844E+03  0.58898772691E+03  0.87521072815E+03  0.10100000352E+00 0.  1.
</event>
<event>
 5   0  0.3484857E-06  0.2498509E+04  0.7818609E-02  0.8403517E-01
        1   -1    0    0  501    0  0.00000000000E+00  0.00000000000E+00  0.20120525239E+04  0.20120525239E+04  0.50400001928E-02 0.  1.
       -1   -1    0    0    0  501  0.00000000000E+00  0.00000000000E+00 -0.77564387642E+03  0.77564387644E+03  0.50400001928E-02 0. -1.
    10030    2    1    2    0    0  0.00000000000E+00  0.00000000000E+00  0.12364086475E+04  0.27876964004E+04  0.24985085305E+04 0.  0.
        3    1    3    3  502    0  0.50441198518E+03 -0.87295490594E+03 -0.20484478017E+03  0.10288066450E+04  0.10100000352E+00 0. -1.
       -3    1    3    3    0  502 -0.50441198518E+03  0.87295490594E+03  0.14412534277E+04  0.17588897554E+04  0.10100000352E+00 0.  1.
</event>
<event>
 5   0  0.8354653E-06  0.2465044E+04  0.7818609E-02  0.8415546E-01
        2   -1    0    0  501    0  0.00000000000E+00  0.00000000000E+00  0.10367731346E+04  0.10367731346E+04  0.25500000920E-02 0. -1.
       -2   -1    0    0    0  501  0.00000000000E+00  0.00000000000E+00 -0.14652298405E+04  0.14652298405E+04  0.25500000920E-02 0.  1.
    10030    2    1    2    0    0  0.00000000000E+00  0.00000000000E+00 -0.42845670593E+03  0.25020029751E+04  0.24650443685E+04 0.  0.
        3    1    3    3  502    0  0.28379542715E+03  0.97422073472E+03 -0.92433555946E+03  0.13726041385E+04  0.10100000352E+00 0.  1.
       -3    1    3    3    0  502 -0.28379542715E+03 -0.97422073472E+03  0.49587885353E+03  0.11293988366E+04  0.10100000352E+00 0. -1.
</event>
<event>
 5   0  0.3424193E-06  0.2480145E+04  0.7818609E-02  0.8410093E-01
        1   -1    0    0  501    0  0.00000000000E+00  0.00000000000E+00  0.10562070698E+04  0.10562070698E+04  0.50400001928E-02 0.  1.
       -1   -1    0    0    0  501  0.00000000000E+00  0.00000000000E+00 -0.14559457859E+04  0.14559457859E+04  0.50400001928E-02 0. -1.
    10030    2    1    2    0    0  0.00000000000E+00  0.00000000000E+00 -0.39973871611E+03  0.25121528556E+04  0.24801453443E+04 0.  0.
        1    1    3    3  502    0  0.44615614070E+03  0.10536935470E+04  0.28426857264E+03  0.11790394456E+04  0.50400001928E-02 0.  1.
       -1    1    3    3    0  502 -0.44615614070E+03 -0.10536935470E+04 -0.68400728875E+03  0.13331134100E+04  0.50400001928E-02 0. -1.
</event>
<event>
 5   0  0.8056723E-06  0.2498979E+04  0.7818609E-02  0.8403349E-01
        2   -1    0    0  501    0  0.00000000000E+00  0.00000000000E+00  0.13920000897E+04  0.13920000897E+04  0.25500000920E-02 0.  1.
       -2   -1    0    0    0  501  0.00000000000E+00  0.00000000000E+00 -0.11215692280E+04  0.11215692280E+04  0.25500000920E-02 0. -1.
    10030    2    1    2    0    0  0.00000000000E+00  0.00000000000E+00  0.27043086164E+03  0.25135693177E+04  0.24989793644E+04 0.  0.
        2    1    3    3  502    0 -0.74443386994E+03  0.84468650461E+03  0.68017879445E+03  0.13154163866E+04  0.25500000920E-02 0. -1.
       -2    1    3    3    0  502  0.74443386994E+03 -0.84468650461E+03 -0.40974793281E+03  0.11981529311E+04  0.25500000920E-02 0.  1.
</event>
<event>
 5   0  0.3481387E-06  0.2477917E+04  0.7818609E-02  0.8410895E-01
        1   -1    0    0  501    0  0.00000000000E+00  0.00000000000E+00  0.20077678906E+04  0.20077678906E+04  0.50400001928E-02 0.  1.
       -1   -1    0    0    0  501  0.00000000000E+00  0.00000000000E+00 -0.76453989801E+03  0.76453989803E+03  0.50400001928E-02 0. -1.
    10030    2    1    2    0    0  0.00000000000E+00  0.00000000000E+00  0.12432279926E+04  0.27723077886E+04  0.24779173984E+04 0.  0.
        4    1    3    3  502    0 -0.99399942636E+03 -0.24693566828E+03  0.14015787391E+04  0.17359253033E+04  0.12699999809E+01 0.  1.
       -4    1    3    3    0  502  0.99399942636E+03  0.24693566828E+03 -0.15835074660E+03  0.10363824852E+04  0.12699999809E+01 0. -1.
</event>
<event>
 5   0  0.3424193E-06  0.2499480E+04  0.7818609E-02  0.8403171E-01
        1   -1    0    0  501    0  0.00000000000E+00  0.00000000000E+00  0.17267462077E+04  0.17267462077E+04  0.50400001928E-02 0. -1.
       -1   -1    0    0    0  501  0.00000000000E+00  0.00000000000E+00 -0.90450480857E+03  0.90450480858E+03  0.50400001928E-02 0.  1.
    10030    2    1    2    0    0  0.00000000000E+00  0.00000000000E+00  0.82224139911E+03  0.26312510163E+04  0.24994801444E+04 0.  0.
        1    1    3    3  502    0 -0.42877326508E+03  0.37706263586E+03 -0.75916397560E+03  0.94992246319E+03  0.50400001928E-02 0.  1.
       -1    1    3    3    0  502  0.42877326508E+03 -0.37706263586E+03  0.15814053747E+04  0.16813285531E+04  0.50400001928E-02 0. -1.
</event>
<event>
 5   0  0.3522870E-06  0.2498413E+04  0.7818609E-02  0.8403551E-01
       -1   -1    0    0    0  501  0.00000000000E+00  0.00000000000E+00  0.67579885507E+03  0.67579885509E+03  0.50400001928E-02 0. -1.
        1   -1    0    0  501    0  0.00000000000E+00  0.00000000000E+00 -0.23091437108E+04  0.23091437108E+04  0.50400001928E-02 0.  1.
    10030    2    1    2    0    0  0.00000000000E+00  0.00000000000E+00 -0.16333448557E+04  0.29849425659E+04  0.24984128370E+04 0.  0.
        2    1    3    3  502    0  0.98529178980E+03  0.50487023623E+03 -0.15079927038E+04  0.18707580980E+04  0.25500000920E-02 0.  1.
       -2    1    3    3    0  502 -0.98529178980E+03 -0.50487023623E+03 -0.12535215190E+03  0.11141844679E+04  0.25500000920E-02 0. -1.
</event>
<event>
 5   0  0.3484857E-06  0.2498658E+04  0.7818609E-02  0.8403464E-01
       -1   -1    0    0    0  501  0.00000000000E+00  0.00000000000E+00  0.11264348405E+04  0.11264348405E+04  0.50400001928E-02 0.  1.
        1   -1    0    0  501    0  0.00000000000E+00  0.00000000000E+00 -0.13856305633E+04  0.13856305634E+04  0.50400001928E-02 0. -1.
    10030    2    1    2    0    0  0.00000000000E+00  0.00000000000E+00 -0.25919572289E+03  0.25120654038E+04  0.24986576737E+04 0.  0.
        3    1    3    3  502    0  0.50349781019E+03 -0.90616946301E+03  0.57140209168E+03  0.11837032995E+04  0.10100000352E+00 0.  1.
       -3    1    3    3    0  502 -0.50349781019E+03  0.90616946301E+03 -0.83059781457E+03  0.13283621044E+04  0.10100000352E+00 0. -1.
</event>
<event>
 5   0  0.8948286E-06  0.2503434E+04  0.7818609E-02  0.8401763E-01
       -2   -1    0    0    0  501  0.00000000000E+00  0.00000000000E+00  0.13046292365E+04  0.13046292365E+04  0.25500000920E-02 0. -1.
        2   -1    0    0  501    0  0.00000000000E+00  0.00000000000E+00 -0.12009503023E+04  0.12009503023E+04  0.25500000920E-02 0.  1.
    10030    2    1    2    0    0  0.00000000000E+00  0.00000000000E+00  0.10367893423E+03  0.25055795387E+04  0.25034335429E+04 0.  0.
        4    1    3    3  502    0  0.54502520395E+03 -0.87964860340E+03 -0.65300787964E+03  0.12236237339E+04  0.12699999809E+01 0.  1.
       -4    1    3    3    0  502 -0.54502520395E+03  0.87964860340E+03  0.75668681387E+03  0.12819558048E+04  0.12699999809E+01 0. -1.
</event>
<event>
 5   0  0.8948286E-06  0.2497156E+04  0.7818609E-02  0.8403999E-01
        2   -1    0    0  501    0  0.00000000000E+00  0.00000000000E+00  0.16392056771E+04  0.16392056771E+04  0.25500000920E-02 0.  1.
       -2   -1    0    0    0  501  0.00000000000E+00  0.00000000000E+00 -0.95103825865E+03  0.95103825866E+03  0.25500000920E-02 0. -1.
    10030    2    1    2    0    0  0.00000000000E+00  0.00000000000E+00  0.68816741847E+03  0.25902439358E+04  0.24971562328E+04 0.  0.
        4    1    3    3  502    0 -0.18292261360E+03  0.11520430683E+04 -0.11780395348E+03  0.11724091855E+04  0.12699999809E+01 0.  1.
       -4    1    3    3    0  502  0.18292261360E+03 -0.11520430683E+04  0.80597137195E+03  0.14178347503E+04  0.12699999809E+01 0. -1.
</event>
<event>
 5   0  0.3522870E-06  0.2486691E+04  0.7818609E-02  0.8407742E-01
       -1   -1    0    0    0  501  0.00000000000E+00  0.00000000000E+00  0.10422346179E+04  0.10422346179E+04  0.50400001928E-02 0.  1.
        1   -1    0    0  501    0  0.00000000000E+00  0.00000000000E+00 -0.14832625101E+04  0.14832625101E+04  0.50400001928E-02 0. -1.
    10030    2    1    2    0    0  0.00000000000E+00  0.00000000000E+00 -0.44102789227E+03  0.25254971280E+04  0.24866906003E+04 0.  0.
        2    1    3    3  502    0 -0.12191315998E+04  0.24417437299E+03 -0.21834676201E+03  0.12623701084E+04  0.25500000920E-02 0.  1.
       -2    1    3    3    0  502  0.12191315998E+04 -0.24417437299E+03 -0.22268113026E+03  0.12631270196E+04  0.25500000920E-02 0. -1.
</event>
<event>
 5   0  0.8948286E-06  0.2504905E+04  0.7818609E-02  0.8401240E-01
       -2   -1    0    0    0  501  0.00000000000E+00  0.00000000000E+00  0.73473614270E+03  0.73473614271E+03  0.25500000920E-02 0. -1.
        2   -1    0    0  501    0  0.00000000000E+00  0.00000000000E+00 -0.21349664071E+04  0.21349664071E+04  0.25500000920E-02 0.  1.
    10030    2    1    2    0    0  0.00000000000E+00  0.00000000000E+00 -0.14002302644E+04  0.28697025498E+04  0.25049047749E+04 0.  0.
        4    1    3    3  502    0 -0.11651520468E+04  0.41804261999E+03 -0.91837692157E+03  0.15413489895E+04  0.12699999809E+01 0. -1.
       -4    1    3    3    0  502  0.11651520468E+04 -0.41804261999E+03 -0.48185334286E+03  0.13283535604E+04  0.12699999809E+01 0.  1.
</event>
<event>
 5   0  0.8579923E-06  0.2517819E+04  0.7818609E-02  0.8396665E-01
        2   -1    0    0  501    0  0.00000000000E+00  0.00000000000E+00  0.16842638363E+04  0.16842638363E+04  0.25500000920E-02 0.  1.
       -2   -1    0    0    0  501  0.00000000000E+00  0.00000000000E+00 -0.94097673016E+03  0.94097673017E+03  0.25500000920E-02 0. -1.
    10030    2    1    2    0    0  0.00000000000E+00  0.00000000000E+00  0.74328710612E+03  0.26252405665E+04  0.25178189589E+04 0.  0.
        1    1    3    3  502    0  0.70358036304E+03  0.55050025887E+03 -0.55320472933E+03  0.10507670222E+04  0.50400001928E-02 0. -1.
       -1    1    3    3    0  502 -0.70358036304E+03 -0.55050025887E+03  0.12964918354E+04  0.15744735443E+04  0.50400001928E-02 0.  1.
</event>
<event>
 5   0  0.8948286E-06  0.2600526E+04  0.7818609E-02  0.8368023E-01
       -2   -1    0    0    0  501  0.00000000000E+00  0.00000000000E+00  0.15668634440E+04  0.15668634440E+04  0.25500000920E-02 0.  1.
        2   -1    0    0  501    0  0.00000000000E+00  0.00000000000E+00 -0.10790240955E+04  0.10790240955E+04  0.25500000920E-02 0. -1.
    10030    2    1    2    0    0  0.00000000000E+00  0.00000000000E+00  0.48783934851E+03  0.26458875394E+04  0.26005256471E+04 0.  0.
        4    1    3    3  502    0 -0.59004265864E+03  0.42434406012E+03  0.13409027236E+04  0.15252016088E+04  0.12699999809E+01 0.  1.
       -4    1    3    3    0  502  0.59004265864E+03 -0.42434406012E+03 -0.85306337507E+03  0.11206859307E+04  0.12699999809E+01 0. -1.
</event>
<event>
 5   0  0.3484857E-06  0.2497333E+04  0.7818609E-02  0.8403936E-01
        1   -1    0    0  501    0  0.00000000000E+00  0.00000000000E+00  0.17009453330E+04  0.17009453330E+04  0.50400001928E-02 0.  1.
       -1   -1    0    0    0  501  0.00000000000E+00  0.00000000000E+00 -0.91664756879E+03  0.91664756880E+03  0.50400001928E-02 0. -1.
    10030    2    1    2    0    0  0.00000000000E+00  0.00000000000E+00  0.78429776420E+03  0.26175929018E+04  0.24973325002E+04 0.  0.
        3    1    3    3  502    0  0.37265756776E+03 -0.33121294207E+03 -0.80779088042E+03  0.94926381606E+03  0.10100000352E+00 0. -1.
       -3    1    3    3    0  502 -0.37265756776E+03  0.33121294207E+03  0.15920886446E+04  0.16683290857E+04  0.10100000352E+00 0.  1.
</event>
<event>
 5   0  0.8407986E-06  0.2507635E+04  0.7818609E-02  0.8400271E-01
       -2   -1    0    0    0  501  0.00000000000E+00  0.00000000000E+00  0.62899544294E+03  0.62899544295E+03  0.25500000920E-02 0. -1.
        2   -1    0    0  501    0  0.00000000000E+00  0.00000000000E+00 -0.24993154275E+04  0.24993154275E+04  0.25500000920E-02 0.  1.
    10030    2    1    2    0    0  0.00000000000E+00  0.00000000000E+00 -0.18703199845E+04  0.31283108704E+04  0.25076347536E+04 0.  0.
        5    1    3    3  502    0  0.95723261723E+03  0.94535406960E+02  0.68143228470E+02  0.96431157633E+03  0.46999998093E+01 0.  1.
       -5    1    3    3    0  502 -0.95723261723E+03 -0.94535406960E+02 -0.19384632130E+04  0.21639992941E+04  0.46999998093E+01 0. -1.
</event>
<event>
 5   0  0.3642184E-06  0.2498479E+04  0.7818609E-02  0.8403528E-01
       -1   -1    0    0    0  501  0.00000000000E+00  0.00000000000E+00  0.74450058721E+03  0.74450058723E+03  0.50400001928E-02 0.  1.
        1   -1    0    0  501    0  0.00000000000E+00  0.00000000000E+00 -0.20961693393E+04  0.20961693393E+04  0.50400001928E-02 0. -1.
    10030    2    1    2    0    0  0.00000000000E+00  0.00000000000E+00 -0.13516687521E+04  0.28406699265E+04  0.24984789805E+04 0.  0.
        5    1    3    3  502    0 -0.11512891583E+04  0.32061865906E+02 -0.12259190815E+04  0.16820803707E+04  0.46999998093E+01 0. -1.
       -5    1    3    3    0  502  0.11512891583E+04 -0.32061865906E+02 -0.12574967057E+03  0.11585895558E+04  0.46999998093E+01 0.  1.
</event>
<event>
 5   0  0.3484857E-06  0.2492231E+04  0.7818609E-02  0.8405759E-01
        1   -1    0    0  501    0  0.00000000000E+00  0.00000000000E+00  0.15749969298E+04  0.15749969298E+04  0.50400001928E-02 0.  1.
       -1   -1    0    0    0  501  0.00000000000E+00  0.00000000000E+00 -0.98590908024E+03  0.98590908026E+03  0.50400001928E-02 0. -1.
    10030    2    1    2    0    0  0.00000000000E+00  0.00000000000E+00  0.58908784956E+03  0.25609060101E+04  0.24922309479E+04 0.  0.
        3    1    3    3  502    0 -0.64407267041E+03  0.10581284541E+04  0.15539325659E+03  0.12484440334E+04  0.10100000352E+00 0.  1.
       -3    1    3    3    0  502  0.64407267041E+03 -0.10581284541E+04  0.43369459297E+03  0.13124619767E+04  0.10100000352E+00 0. -1.
</event>
<event>
 5   0  0.8354653E-06  0.2502865E+04  0.7818609E-02  0.8401965E-01
       -2   -1    0    0    0  501  0.00000000000E+00  0.00000000000E+00  0.11273056894E+04  0.11273056894E+04  0.25500000920E-02 0.  1.
        2   -1    0    0  501    0  0.00000000000E+00  0.00000000000E+00 -0.13892272471E+04  0.13892272471E+04  0.25500000920E-02 0. -1.
    10030    2    1    2    0    0  0.00000000000E+00  0.00000000000E+00 -0.26192155773E+03  0.25165329365E+04  0.25028653816E+04 0.  0.
        3    1    3    3  502    0  0.16230216517E+03  0.96408694557E+03  0.65450819255E+03  0.11765146050E+04  0.10100000352E+00 0.  1.
       -3    1    3    3    0  502 -0.16230216517E+03 -0.96408694557E+03 -0.91642975028E+03  0.13400183315E+04  0.10100000352E+00 0. -1.
</event>
<event>
 5   0  0.3424193E-06  0.2494871E+04  0.7818609E-02  0.8404815E-01
       -1   -1    0    0    0  501  0.00000000000E+00  0.00000000000E+00  0.74697753708E+03  0.74697753709E+03  0.50400001928E-02 0. -1.
        1   -1    0    0  501    0  0.00000000000E+00  0.00000000000E+00 -0.20831894900E+04  0.20831894900E+04  0.50400001928E-02 0.  1.
    10030    2    1    2    0    0  0.00000000000E+00  0.00000000000E+00 -0.13362119529E+04  0.28301670271E+04  0.24948713430E+04 0.  0.
        1    1    3    3  502    0  0.15998346926E+03  0.16913520500E+03 -0.20583261961E+04  0.20714507374E+04  0.50400001928E-02 0.  1.
       -1    1    3    3    0  502 -0.15998346926E+03 -0.16913520500E+03  0.72211424317E+03  0.75871628968E+03  0.50400001928E-02 0. -1.
</event>
<event>
 5   0  0.3481387E-06  0.2484998E+04  0.7818609E-02  0.8408350E-01
        1   -1    0    0  501    0  0.00000000000E+00  0.00000000000E+00  0.12791033709E+04  0.12791033709E+04  0.50400001928E-02 0. -1.
       -1   -1    0    0    0  501  0.00000000000E+00  0.00000000000E+00 -0.12069418789E+04  0.12069418789E+04  0.50400001928E-02 0.  1.
    10030    2    1    2    0    0  0.00000000000E+00  0.00000000000E+00  0.72161491942E+02  0.24860452498E+04  0.24849977270E+04 0.  0.
        4    1    3    3  502    0  0.50435540817E+02 -0.33380325020E+03 -0.11601797498E+04  0.12082992255E+04  0.12699999809E+01 0.  1.
       -4    1    3    3    0  502 -0.50435540817E+02  0.33380325020E+03  0.12323412417E+04  0.12777460243E+04  0.12699999809E+01 0. -1.
</event>
<event>
 5   0  0.3642184E-06  0.2554237E+04  0.7818609E-02  0.8383914E-01
       -1   -1    0    0    0  501  0.00000000000E+00  0.00000000000E+00  0.11703002728E+04  0.11703002728E+04  0.50400001928E-02 0. -1.
        1   -1    0    0  501    0  0.00000000000E+00  0.00000000000E+00 -0.13936866708E+04  0.13936866709E+04  0.50400001928E-02 0.  1.
    10030    2    1    2    0    0  0.00000000000E+00  0.00000000000E+00 -0.22338639801E+03  0.25639869437E+04  0.25542371786E+04 0.  0.
        5    1    3    3  502    0  0.28299923537E+03 -0.82681910553E+03 -0.10465328131E+04  0.13634410216E+04  0.46999998093E+01 0.  1.
       -5    1    3    3    0  502 -0.28299923537E+03  0.82681910553E+03  0.82314641506E+03  0.12005459221E+04  0.46999998093E+01 0. -1.
</event>
<event>
 5   0  0.3481387E-06  0.2501546E+04  0.7818609E-02  0.8402435E-01
       -1   -1    0    0    0  501  0.00000000000E+00  0.00000000000E+00  0.11020504838E+04  0.11020504838E+04  0.50400001928E-02 0.  1.
        1   -1    0    0  501    0  0.00000000000E+00  0.00000000000E+00 -0.14195655923E+04  0.14195655923E+04  0.50400001928E-02 0. -1.
    10030    2    1    2    0    0  0.00000000000E+00  0.00000000000E+00 -0.31751510855E+03  0.25216160761E+04  0.25015458803E+04 0.  0.
        4    1    3    3  502    0 -0.10683647478E+04  0.31224152503E+03 -0.73389046889E+03  0.13332272265E+04  0.12699999809E+01 0. -1.
       -4    1    3    3    0  502  0.10683647478E+04 -0.31224152503E+03  0.41637536034E+03  0.11883888496E+04  0.12699999809E+01 0.  1.
</event>
<event>
 5   0  0.3424193E-06  0.2494149E+04  0.7818609E-02  0.8405073E-01
        1   -1    0    0  501    0  0.00000000000E+00  0.00000000000E+00  0.12128084635E+04  0.12128084635E+04  0.50400001928E-02 0. -1.
       -1   -1    0    0    0  501  0.00000000000E+00  0.00000000000E+00 -0.12823085387E+04  0.12823085387E+04  0.50400001928E-02 0.  1.
    10030    2    1    2    0    0  0.00000000000E+00  0.00000000000E+00 -0.69500075179E+02  0.24951170022E+04  0.24941488717E+04 0.  0.
        1    1    3    3  502    0 -0.75378443841E+03  0.86587213282E+03 -0.52204189202E+03  0.12611317406E+04  0.50400001928E-02 0.  1.
       -1    1    3    3    0  502  0.75378443841E+03 -0.86587213282E+03  0.45254181684E+03  0.12339852617E+04  0.50400001928E-02 0. -1.
</event>
<event>
 5   0  0.8948286E-06  0.2506301E+04  0.7818609E-02  0.8400744E-01
       -2   -1    0    0    0  501  0.00000000000E+00  0.00000000000E+00  0.17290989874E+04  0.17290989874E+04  0.25500000920E-02 0.  1.
        2   -1    0    0  501    0  0.00000000000E+00  0.00000000000E+00 -0.90821094614E+03  0.90821094614E+03  0.25500000920E-02 0. -1.
    10030    2    1    2    0    0  0.00000000000E+00  0.00000000000E+00  0.82088804125E+03  0.26373099335E+04  0.25063013604E+04 0.  0.
        4    1    3    3  502    0  0.85162466548E+03  0.79640369269E+03  0.89364369327E+03  0.14690555047E+04  0.12699999809E+01 0.  1.
       -4    1    3    3    0  502 -0.85162466548E+03 -0.79640369269E+03 -0.72755652019E+02  0.11682544288E+04  0.12699999809E+01 0. -1.
</event>
<event>
 5   0  0.3481387E-06  0.2539989E+04  0.7818609E-02  0.8388876E-01
        1   -1    0    0  501    0  0.00000000000E+00  0.00000000000E+00  0.21940555455E+04  0.21940555455E+04  0.50400001928E-02 0.  1.
       -1   -1    0    0    0  501  0.00000000000E+00  0.00000000000E+00 -0.73511627139E+03  0.73511627140E+03  0.50400001928E-02 0. -1.
    10030    2    1    2    0    0  0.00000000000E+00  0.00000000000E+00  0.14589392741E+04  0.29291718169E+04  0.25399889227E+04 0.  0.
        4    1    3    3  502    0 -0.25992586523E+03 -0.74079842348E+03 -0.42175616285E+03  0.89119225392E+03  0.12699999809E+01 0. -1.
       -4    1    3    3    0  502  0.25992586523E+03  0.74079842348E+03  0.18806954370E+04  0.20379795630E+04  0.12699999809E+01 0.  1.
</event>
<event>
 5   0  0.3424193E-06  0.2550204E+04  0.7818609E-02  0.8385315E-01
       -1   -1    0    0    0  501  0.00000000000E+00  0.00000000000E+00  0.73170650898E+03  0.73170650900E+03  0.50400001928E-02 0.  1.
        1   -1    0    0  501    0  0.00000000000E+00  0.00000000000E+00 -0.22220446366E+04  0.22220446366E+04  0.50400001928E-02 0. -1.
    10030    2    1    2    0    0  0.00000000000E+00  0.00000000000E+00 -0.14903381277E+04  0.29537511456E+04  0.25502035400E+04 0.  0.
        1    1    3    3  502    0 -0.97964632157E+03  0.72175106213E+03 -0.11865988489E+04  0.16996024062E+04  0.50400001928E-02 0.  1.
       -1    1    3    3    0  502  0.97964632157E+03 -0.72175106213E+03 -0.30373927875E+03  0.12541487394E+04  0.50400001928E-02 0. -1.
</event>
<event>
 5   0  0.3484857E-06  0.2500349E+04  0.7818609E-02  0.8402861E-01
       -1   -1    0    0    0  501  0.00000000000E+00  0.00000000000E+00  0.86139227975E+03  0.86139227976E+03  0.50400001928E-02 0.  1.
        1   -1    0    0  501    0  0.00000000000E+00  0.00000000000E+00 -0.18144301982E+04  0.18144301982E+04  0.50400001928E-02 0. -1.
    10030    2    1    2    0    0  0.00000000000E+00  0.00000000000E+00 -0.95303791847E+03  0.26758224780E+04  0.25003489076E+04 0.  0.
        3    1    3    3  502    0 -0.77360434668E+03  0.30708855271E+03  0.52177514901E+03  0.98235247276E+03  0.10100000352E+00 0. -1.
       -3    1    3    3    0  502  0.77360434668E+03 -0.30708855271E+03 -0.14748130675E+04  0.16934700052E+04  0.10100000352E+00 0.  1.
</event>
<event>
 5   0  0.3484857E-06  0.2496866E+04  0.7818609E-02  0.8404103E-01
       -1   -1    0    0    0  501  0.00000000000E+00  0.00000000000E+00  0.10741573938E+04  0.10741573938E+04  0.50400001928E-02 0. -1.
        1   -1    0    0  501    0  0.00000000000E+00  0.00000000000E+00 -0.14509839163E+04  0.14509839163E+04  0.50400001928E-02 0.  1.
    10030    2    1    2    0    0  0.00000000000E+00  0.00000000000E+00 -0.37682652246E+03  0.25251413101E+04  0.24968661173E+04 0.  0.
        3    1    3    3  502    0 -0.42617703001E+03  0.78515989446E+03  0.69351843085E+03  0.11309600987E+04  0.10100000352E+00 0. -1.
       -3    1    3    3    0  502  0.42617703001E+03 -0.78515989446E+03 -0.10703449533E+04  0.13941812113E+04  0.10100000352E+00 0.  1.
</event>
<event>
 5   0  0.8948286E-06  0.2497306E+04  0.7818609E-02  0.8403946E-01
        2   -1    0    0  501    0  0.00000000000E+00  0.00000000000E+00  0.22300485882E+04  0.22300485882E+04  0.25500000920E-02 0. -1.
       -2   -1    0    0    0  501  0.00000000000E+00  0.00000000000E+00 -0.69914834903E+03  0.69914834904E+03  0.25500000920E-02 0.  1.
    10030    2    1    2    0    0  0.00000000000E+00  0.00000000000E+00  0.15309002392E+04  0.29291969372E+04  0.24973063798E+04 0.  0.
        4    1    3    3  502    0  0.11308141095E+04  0.49774378399E+02  0.13837979560E+04  0.17877685630E+04  0.12699999809E+01 0. -1.
       -4    1    3    3    0  502 -0.11308141095E+04 -0.49774378399E+02  0.14710228317E+03  0.11414283742E+04  0.12699999809E+01 0.  1.
</event>
<event>
 5   0  0.3522870E-06  0.2515111E+04  0.7818609E-02  0.8397622E-01
        1   -1    0    0  501    0  0.00000000000E+00  0.00000000000E+00  0.22996615964E+04  0.22996615964E+04  0.50400001928E-02 0.  1.
       -1   -1    0    0    0  501  0.00000000000E+00  0.00000000000E+00 -0.68768606106E+03  0.68768606108E+03  0.50400001928E-02 0. -1.
    10030    2    1    2    0    0  0.00000000000E+00  0.00000000000E+00  0.16119755353E+04  0.29873476575E+04  0.25151105145E+04 0.  0.
        2    1    3    3  502    0 -0.24415431020E+03 -0.94483505881E+03 -0.13610929722E+03  0.98531738863E+03  0.25500000920E-02 0. -1.
       -2    1    3    3    0  502  0.24415431020E+03  0.94483505881E+03  0.17480848326E+04  0.20020302688E+04  0.25500000920E-02 0.  1.
</event>
<event>
 5   0  0.3481387E-06  0.2476023E+04  0.7818609E-02  0.8411578E-01
        1   -1    0    0  501    0  0.00000000000E+00  0.00000000000E+00  0.11973988173E+04  0.11973988173E+04  0.50400001928E-02 0.  1.
       -1   -1    0    0    0  501  0.00000000000E+00  0.00000000000E+00 -0.12800017248E+04  0.12800017249E+04  0.50400001928E-02 0. -1.
    10030    2    1    2    0    0  0.00000000000E+00  0.00000000000E+00 -0.82602907539E+02  0.24774005422E+04  0.24760230625E+04 0.  0.
        4    1    3    3  502    0  0.68464419544E+03  0.78057022309E+03 -0.71594906032E+03  0.12611947579E+04  0.12699999809E+01 0. -1.
       -4    1    3    3    0  502 -0.68464419544E+03 -0.78057022309E+03  0.63334615278E+03  0.12162057843E+04  0.12699999809E+01 0.  1.
</event>
<event>
 5   0  0.8948286E-06  0.2495031E+04  0.7818609E-02  0.8404758E-01
       -2   -1    0    0    0  501  0.00000000000E+00  0.00000000000E+00  0.18629709313E+04  0.18629709313E+04  0.25500000920E-02 0. -1.
        2   -1    0    0  501    0  0.00000000000E+00  0.00000000000E+00 -0.83538312443E+03  0.83538312443E+03  0.25500000920E-02 0.  1.
    10030    2    1    2    0    0  0.00000000000E+00  0.00000000000E+00  0.10275878069E+04  0.26983540558E+04  0.24950306430E+04 0.  0.
        4    1    3    3  502    0  0.11141394692E+04 -0.51440029213E+03  0.27105161715E+03  0.12567358551E+04  0.12699999809E+01 0.  1.
       -4    1    3    3    0  502 -0.11141394692E+04  0.51440029213E+03  0.75653618975E+03  0.14416182007E+04  0.12699999809E+01 0. -1.
</event>
<event>
 5   0  0.8407986E-06  0.2500202E+04  0.7818609E-02  0.8402913E-01
        2   -1    0    0  501    0  0.00000000000E+00  0.00000000000E+00  0.19553737690E+04  0.19553737690E+04  0.25500000920E-02 0. -1.
       -2   -1    0    0    0  501  0.00000000000E+00  0.00000000000E+00 -0.79920927133E+03  0.79920927133E+03  0.25500000920E-02 0.  1.
    10030    2    1    2    0    0  0.00000000000E+00  0.00000000000E+00  0.11561644976E+04  0.27545830403E+04  0.25002022679E+04 0.  0.
        5    1    3    3  502    0 -0.66600641831E+03 -0.52683340551E+03 -0.43265176804E+03  0.95306223762E+03  0.46999998093E+01 0.  1.
       -5    1    3    3    0  502  0.66600641831E+03  0.52683340551E+03  0.15888162657E+04  0.18015208027E+04  0.46999998093E+01 0. -1.
</event>
<event>
 5   0  0.3481387E-06  0.2501108E+04  0.7818609E-02  0.8402591E-01
       -1   -1    0    0    0  501  0.00000000000E+00  0.00000000000E+00  0.11700557266E+04  0.11700557266E+04  0.50400001928E-02 0.  1.
        1   -1    0    0  501    0  0.00000000000E+00  0.00000000000E+00 -0.13365906520E+04  0.13365906520E+04  0.50400001928E-02 0. -1.
    10030    2    1    2    0    0  0.00000000000E+00  0.00000000000E+00 -0.16653492539E+03  0.25066463786E+04  0.25011081916E+04 0.  0.
        4    1    3    3  502    0  0.61900272151E+03 -0.78326347417E+03  0.67153890257E+03  0.12031758599E+04  0.12699999809E+01 0.  1.
       -4    1    3    3    0  502 -0.61900272151E+03  0.78326347417E+03 -0.83807382796E+03  0.13034705187E+04  0.12699999809E+01 0. -1.
</event>
<event>
 5   0  0.8948286E-06  0.2501173E+04  0.7818609E-02  0.8402568E-01
        2   -1    0    0  501    0  0.00000000000E+00  0.00000000000E+00  0.91091896006E+03  0.91091896007E+03  0.25500000920E-02 0.  1.
       -2   -1    0    0    0  501  0.00000000000E+00  0.00000000000E+00 -0.17169101399E+04  0.17169101399E+04  0.25500000920E-02 0. -1.
    10030    2    1    2    0    0  0.00000000000E+00  0.00000000000E+00 -0.80599117983E+03  0.26278291000E+04  0.25011725244E+04 0.  0.
        4    1    3    3  502    0 -0.18144792722E+03  0.12372624966E+04 -0.38732202998E+03  0.13091072545E+04  0.12699999809E+01 0.  1.
       -4    1    3    3    0  502  0.18144792722E+03 -0.12372624966E+04 -0.41866914984E+03  0.13187218455E+04  0.12699999809E+01 0. -1.
</event>
<event>
 5   0  0.8354653E-06  0.2434884E+04  0.7818609E-02  0.8426558E-01
       -2   -1    0    0    0  501  0.00000000000E+00  0.00000000000E+00  0.54378929995E+03  0.54378929996E+03  0.25500000920E-02 0.  1.
        2   -1    0    0  501    0  0.00000000000E+00  0.00000000000E+00 -0.27256244761E+04  0.27256244761E+04  0.25500000920E-02 0. -1.
    10030    2    1    2    0    0  0.00000000000E+00  0.00000000000E+00 -0.21818351761E+04  0.32694137760E+04  0.24348843306E+04 0.  0.
        3    1    3    3  502    0  0.80033813692E+03 -0.19123405397E+03 -0.22956872164E+04  0.24387069119E+04  0.10100000352E+00 0. -1.
       -3    1    3    3    0  502 -0.80033813692E+03  0.19123405397E+03  0.11385204022E+03  0.83070686410E+03  0.10100000352E+00 0.  1.
</event>
<event>
 5   0  0.3642184E-06  0.2494299E+04  0.7818609E-02  0.8405019E-01
       -1   -1    0    0    0  501  0.00000000000E+00  0.00000000000E+00  0.73651305274E+03  0.73651305275E+03  0.50400001928E-02 0.  1.
        1   -1    0    0  501    0  0.00000000000E+00  0.00000000000E+00 -0.21118179189E+04  0.21118179189E+04  0.50400001928E-02 0. -1.
    10030    2    1    2    0    0  0.00000000000E+00  0.00000000000E+00 -0.13753048662E+04  0.28483309717E+04  0.24942986688E+04 0.  0.
        5    1    3    3  502    0 -0.73896251028E+03 -0.69610704947E+03 -0.15148503459E+04  0.18235745875E+04  0.46999998093E+01 0. -1.
       -5    1    3    3    0  502  0.73896251028E+03  0.69610704947E+03  0.13954547970E+03  0.10247563841E+04  0.46999998093E+01 0.  1.
</event>
<event>
 5   0  0.8056723E-06  0.2504492E+04  0.7818609E-02  0.8401387E-01
       -2   -1    0    0    0  501  0.00000000000E+00  0.00000000000E+00  0.93650835285E+03  0.93650835285E+03  0.25500000920E-02 0.  1.
        2   -1    0    0  501    0  0.00000000000E+00  0.00000000000E+00 -0.16744322930E+04  0.16744322930E+04  0.25500000920E-02 0. -1.
    10030    2    1    2    0    0  0.00000000000E+00  0.00000000000E+00 -0.73792394013E+03  0.26109406458E+04  0.25044918276E+04 0.  0.
        2    1    3    3  502    0 -0.10925840625E+04  0.61134607647E+03 -0.34267373383E+03  0.12980405413E+04  0.25500000920E-02 0. -1.
       -2    1    3    3    0  502  0.10925840625E+04 -0.61134607647E+03 -0.39525020630E+03  0.13129001046E+04  0.25500000920E-02 0.  1.
</event>
<event>
 5   0  0.2901250E-06  0.2500145E+04  0.7818609E-02  0.8402934E-01
        3   -1    0    0  501    0  0.00000000000E+00  0.00000000000E+00  0.14652680843E+04  0.14652680878E+04  0.10100000352E+00 0.  1.
       -3   -1    0    0    0  501  0.00000000000E+00  0.00000000000E+00 -0.10664811265E+04  0.10664811313E+04  0.10100000352E+00 0. -1.
    10030    2    1    2    0    0  0.00000000000E+00  0.00000000000E+00  0.39878695782E+03  0.25317492191E+04  0.25001446100E+04 0.  0.
        2    1    3    3  502    0  0.38689284645E+03  0.47217813741E+03 -0.90528728393E+03  0.10918714826E+04  0.25500000920E-02 0. -1.
       -2    1    3    3    0  502 -0.38689284645E+03 -0.47217813741E+03  0.13040742417E+04  0.14398777365E+04  0.25500000920E-02 0.  1.
</event>
<event>
 5   0  0.8056723E-06  0.2494380E+04  0.7818609E-02  0.8404990E-01
        2   -1    0    0  501    0  0.00000000000E+00  0.00000000000E+00  0.17835571203E+04  0.17835571203E+04  0.25500000920E-02 0. -1.
       -2   -1    0    0    0  501  0.00000000000E+00  0.00000000000E+00 -0.87212399948E+03  0.87212399948E+03  0.25500000920E-02 0.  1.
    10030    2    1    2    0    0  0.00000000000E+00  0.00000000000E+00  0.91143312082E+03  0.26556811198E+04  0.24943800585E+04 0.  0.
        2    1    3    3  502    0  0.70737194144E+02 -0.31620040967E+03 -0.82653030384E+03  0.88777181352E+03  0.25500000920E-02 0.  1.
       -2    1    3    3    0  502 -0.70737194144E+02  0.31620040967E+03  0.17379634247E+04  0.17679093063E+04  0.25500000920E-02 0. -1.
</event>
<event>
 5   0  0.3484857E-06  0.2504021E+04  0.7818609E-02  0.8401555E-01
        1   -1    0    0  501    0  0.00000000000E+00  0.00000000000E+00  0.13690450978E+04  0.13690450978E+04  0.50400001928E-02 0. -1.
       -1   -1    0    0    0  501  0.00000000000E+00  0.00000000000E+00 -0.11449805858E+04  0.11449805858E+04  0.50400001928E-02 0.  1.
    10030    2    1    2    0    0  0.00000000000E+00  0.00000000000E+00  0.22406451204E+03  0.25140256836E+04  0.25040208131E+04 0.  0.
        3    1    3    3  502    0 -0.50858589199E+03 -0.76461081131E+02 -0.10340294643E+04  0.11548691916E+04  0.10100000352E+00 0.  1.
       -3    1    3    3    0  502  0.50858589199E+03  0.76461081131E+02  0.12580939763E+04  0.13591564920E+04  0.10100000352E+00 0. -1.
</event>
<event>
 5   0  0.8354653E-06  0.2499043E+04  0.7818609E-02  0.8403327E-01
       -2   -1    0    0    0  501  0.00000000000E+00  0.00000000000E+00  0.14816632057E+04  0.14816632057E+04  0.25500000920E-02 0. -1.
        2   -1    0    0  501    0  0.00000000000E+00  0.00000000000E+00 -0.10537510356E+04  0.10537510356E+04  0.25500000920E-02 0.  1.
    10030    2    1    2    0    0  0.00000000000E+00  0.00000000000E+00  0.42791217010E+03  0.25354142413E+04  0.24990431268E+04 0.  0.
        3    1    3    3  502    0  0.21737344341E+03 -0.92262407800E+03 -0.61202904894E+03  0.11283022512E+04  0.10100000352E+00 0.  1.
       -3    1    3    3    0  502 -0.21737344341E+03  0.92262407800E+03  0.10399412190E+04  0.14071119900E+04  0.10100000352E+00 0. -1.
</event>
<event>
 5   0  0.3481387E-06  0.2499767E+04  0.7818609E-02  0.8403068E-01
        1   -1    0    0  501    0  0.00000000000E+00  0.00000000000E+00  0.15193055408E+04  0.15193055408E+04  0.50400001928E-02 0. -1.
       -1   -1    0    0    0  501  0.00000000000E+00  0.00000000000E+00 -0.10282389056E+04  0.10282389056E+04  0.50400001928E-02 0.  1.
    10030    2    1    2    0    0  0.00000000000E+00  0.00000000000E+00  0.49106663522E+03  0.25475444464E+04  0.24997672424E+04 0.  0.
        4    1    3    3  502    0 -0.70276065693E+03 -0.75291887753E+03  0.96719755163E+03  0.14128807784E+04  0.12699999809E+01 0. -1.
       -4    1    3    3    0  502  0.70276065693E+03  0.75291887753E+03 -0.47613091641E+03  0.11346636680E+04  0.12699999809E+01 0.  1.
</event>
<event>
 5   0  0.3424193E-06  0.2506086E+04  0.7818609E-02  0.8400821E-01
        1   -1    0    0  501    0  0.00000000000E+00  0.00000000000E+00  0.13875267240E+04  0.13875267240E+04  0.50400001928E-02 0. -1.
       -1   -1    0    0    0  501  0.00000000000E+00  0.00000000000E+00 -0.11315935401E+04  0.11315935401E+04  0.50400001928E-02 0.  1.
    10030    2    1    2    0    0  0.00000000000E+00  0.00000000000E+00  0.25593318389E+03  0.25191202641E+04  0.25060856152E+04 0.  0.
        1    1    3    3  502    0  0.20234178765E+03  0.99181302563E+03  0.87037488082E+03  0.13349860336E+04  0.50400001928E-02 0. -1.
       -1    1    3    3    0  502 -0.20234178765E+03 -0.99181302563E+03 -0.61444169693E+03  0.11841342305E+04  0.50400001928E-02 0.  1.
</event>
<event>
 5   0  0.8056723E-06  0.2498494E+04  0.7818609E-02  0.8403522E-01
       -2   -1    0    0    0  501  0.00000000000E+00  0.00000000000E+00  0.71374789183E+03  0.71374789183E+03  0.25500000920E-02 0. -1.
        2   -1    0    0  501    0  0.00000000000E+00  0.00000000000E+00 -0.21865113041E+04  0.21865113041E+04  0.25500000920E-02 0.  1.
    10030    2    1    2    0    0  0.00000000000E+00  0.00000000000E+00 -0.14727634123E+04  0.29002591959E+04  0.24984938133E+04 0.  0.
        2    1    3    3  502    0  0.39562408302E+03 -0.10585372162E+04 -0.13545552398E+04  0.17640406319E+04  0.25500000920E-02 0.  1.
       -2    1    3    3    0  502 -0.39562408302E+03  0.10585372162E+04 -0.11820817241E+03  0.11362185640E+04  0.25500000920E-02 0. -1.
</event>
<event>
 5   0  0.3484857E-06  0.2501181E+04  0.7818609E-02  0.8402565E-01
        1   -1    0    0  501    0  0.00000000000E+00  0.00000000000E+00  0.15443101352E+04  0.15443101352E+04  0.50400001928E-02 0.  1.
       -1   -1    0    0    0  501  0.00000000000E+00  0.00000000000E+00 -0.10127345385E+04  0.10127345385E+04  0.50400001928E-02 0. -1.
    10030    2    1    2    0    0  0.00000000000E+00  0.00000000000E+00  0.53157559671E+03  0.25570446737E+04  0.25011806909E+04 0.  0.
        3    1    3    3  502    0  0.71176481831E+03 -0.98415076671E+03  0.57046133258E+03  0.13418599146E+04  0.10100000352E+00 0.  1.
       -3    1    3    3    0  502 -0.71176481831E+03  0.98415076671E+03 -0.38885735875E+02  0.12151847591E+04  0.10100000352E+00 0. -1.
</event>
<event>
 5   0  0.8948286E-06  0.2507438E+04  0.7818609E-02  0.8400341E-01
       -2   -1    0    0    0  501  0.00000000000E+00  0.00000000000E+00  0.94657688704E+03  0.94657688704E+03  0.25500000920E-02 0.  1.
        2   -1    0    0  501    0  0.00000000000E+00  0.00000000000E+00 -0.16605210851E+04  0.16605210851E+04  0.25500000920E-02 0. -1.
    10030    2    1    2    0    0  0.00000000000E+00  0.00000000000E+00 -0.71394419808E+03  0.26070979722E+04  0.25074376400E+04 0.  0.
        4    1    3    3  502    0 -0.24101562991E+03 -0.84445842540E+03 -0.12873039850E+04  0.15583169539E+04  0.12699999809E+01 0. -1.
       -4    1    3    3    0  502  0.24101562991E+03  0.84445842540E+03  0.57335978693E+03  0.10487810183E+04  0.12699999809E+01 0.  1.
</event>
<event>
 5   0  0.8354653E-06  0.2501631E+04  0.7818609E-02  0.8402405E-01
       -2   -1    0    0    0  501  0.00000000000E+00  0.00000000000E+00  0.13786100263E+04  0.13786100263E+04  0.25500000920E-02 0.  1.
        2   -1    0    0  501    0  0.00000000000E+00  0.00000000000E+00 -0.11348672425E+04  0.11348672425E+04  0.25500000920E-02 0. -1.
    10030    2    1    2    0    0  0.00000000000E+00  0.00000000000E+00  0.24374278383E+03  0.25134772688E+04  0.25016309552E+04 0.  0.
        3    1    3    3  502    0 -0.52790587958E+03 -0.11023588347E+04  0.38894914174E+03  0.12826383213E+04  0.10100000352E+00 0.  1.
       -3    1    3    3    0  502  0.52790587958E+03  0.11023588347E+04 -0.14520635791E+03  0.12308389475E+04  0.10100000352E+00 0. -1.
</event>
<event>
 5   0  0.8407986E-06  0.2464211E+04  0.7818609E-02  0.8415848E-01
       -2   -1    0    0    0  501  0.00000000000E+00  0.00000000000E+00  0.70640150787E+03  0.70640150788E+03  0.25500000920E-02 0. -1.
        2   -1    0    0  501    0  0.00000000000E+00  0.00000000000E+00 -0.21490388625E+04  0.21490388625E+04  0.25500000920E-02 0.  1.
    10030    2    1    2    0    0  0.00000000000E+00  0.00000000000E+00 -0.14426373546E+04  0.28554403704E+04  0.24642112677E+04 0.  0.
        5    1    3    3  502    0  0.90344865660E+03  0.29305014668E+03 -0.16307563513E+04  0.18871900357E+04  0.46999998093E+01 0.  1.
       -5    1    3    3    0  502 -0.90344865660E+03 -0.29305014668E+03  0.18811899671E+03  0.96825033463E+03  0.46999998093E+01 0. -1.
</event>
<event>
 5   0  0.3481387E-06  0.2493993E+04  0.7818609E-02  0.8405129E-01
       -1   -1    0    0    0  501  0.00000000000E+00  0.00000000000E+00  0.13505931619E+04  0.13505931620E+04  0.50400001928E-02 0. -1.
        1   -1    0    0  501    0  0.00000000000E+00  0.00000000000E+00 -0.11513460799E+04  0.11513460799E+04  0.50400001928E-02 0.  1.
    10030    2    1    2    0    0  0.00000000000E+00  0.00000000000E+00  0.19924708203E+03  0.25019392419E+04  0.24939928970E+04 0.  0.
        4    1    3    3  502    0 -0.57374518478E+03  0.76034354618E+03 -0.70773425366E+03  0.11866740209E+04  0.12699999809E+01 0.  1.
       -4    1    3    3    0  502  0.57374518478E+03 -0.76034354618E+03  0.90698133569E+03  0.13152652210E+04  0.12699999809E+01 0. -1.
</event>
<event>
 5   0  0.3484857E-06  0.2473106E+04  0.7818609E-02  0.8412630E-01
       -1   -1    0    0    0  501  0.00000000000E+00  0.00000000000E+00  0.87428653927E+03  0.87428653929E+03  0.50400001928E-02 0.  1.
        1   -1    0    0  501    0  0.00000000000E+00  0.00000000000E+00 -0.17489276216E+04  0.17489276216E+04  0.50400001928E-02 0. -1.
    10030    2    1    2    0    0  0.00000000000E+00  0.00000000000E+00 -0.87464108234E+03  0.26232141609E+04  0.24731064496E+04 0.  0.
        3    1    3    3  502    0  0.11013729993E+04  0.25047592358E+03 -0.97116073863E+03  0.14896019141E+04  0.10100000352E+00 0. -1.
       -3    1    3    3    0  502 -0.11013729993E+04 -0.25047592358E+03  0.96519656296E+02  0.11336122468E+04  0.10100000352E+00 0.  1.
</event>
<event>
 5   0  0.3642184E-06  0.2496807E+04  0.7818609E-02  0.8404124E-01
        1   -1    0    0  501    0  0.00000000000E+00  0.00000000000E+00  0.12304203005E+04  0.12304203005E+04  0.50400001928E-02 0. -1.
       -1   -1    0    0    0  501  0.00000000000E+00  0.00000000000E+00 -0.12666492731E+04  0.12666492731E+04  0.50400001928E-02 0.  1.
    10030    2    1    2    0    0  0.00000000000E+00  0.00000000000E+00 -0.36228972597E+02  0.24970695736E+04  0.24968067440E+04 0.  0.
        5    1    3    3  502    0  0.86813068525E+03  0.32792105400E+03  0.81702178892E+03  0.12364181323E+04  0.46999998093E+01 0. -1.
       -5    1    3    3    0  502 -0.86813068525E+03 -0.32792105400E+03 -0.85325076152E+03  0.12606514413E+04  0.46999998093E+01 0.  1.
</event>
<event>
 5   0  0.8056723E-06  0.2495934E+04  0.7818609E-02  0.8404436E-01
       -2   -1    0    0    0  501  0.00000000000E+00  0.00000000000E+00  0.92067082765E+03  0.92067082765E+03  0.25500000920E-02 0.  1.
        2   -1    0    0  501    0  0.00000000000E+00  0.00000000000E+00 -0.16916160117E+04  0.16916160118E+04  0.25500000920E-02 0. -1.
    10030    2    1    2    0    0  0.00000000000E+00  0.00000000000E+00 -0.77094518410E+03  0.26122868394E+04  0.24959339043E+04 0.  0.
        2    1    3    3  502    0  0.30579449421E+03 -0.44442925628E+03  0.79232912483E+03  0.95854737942E+03  0.25500000920E-02 0.  1.
       -2    1    3    3    0  502 -0.30579449421E+03  0.44442925628E+03 -0.15632743089E+04  0.16537394600E+04  0.25500000920E-02 0. -1.
</event>
<event>
 5   0  0.8579923E-06  0.2506968E+04  0.7818609E-02  0.8400507E-01
       -2   -1    0    0    0  501  0.00000000000E+00  0.00000000000E+00  0.97127568629E+03  0.97127568630E+03  0.25500000920E-02 0. -1.
        2   -1    0    0  501    0  0.00000000000E+00  0.00000000000E+00 -0.16176892887E+04  0.16176892887E+04  0.25500000920E-02 0.  1.
    10030    2    1    2    0    0  0.00000000000E+00  0.00000000000E+00 -0.64641360236E+03  0.25889649750E+04  0.25069681083E+04 0.  0.
        1    1    3    3  502    0  0.12311178116E+04 -0.11568366044E+03 -0.11109032622E+03  0.12415211782E+04  0.50400001928E-02 0. -1.
       -1    1    3    3    0  502 -0.12311178116E+04  0.11568366044E+03 -0.53532327614E+03  0.13474437967E+04  0.50400001928E-02 0.  1.
</event>
<event>
 5   0  0.8407986E-06  0.2484074E+04  0.7818609E-02  0.8408681E-01
        2   -1    0    0  501    0  0.00000000000E+00  0.00000000000E+00  0.15534394566E+04  0.15534394566E+04  0.25500000920E-02 0. -1.
       -2   -1    0    0    0  501  0.00000000000E+00  0.00000000000E+00 -0.99305820883E+03  0.99305820883E+03  0.25500000920E-02 0.  1.
    10030    2    1    2    0    0  0.00000000000E+00  0.00000000000E+00  0.56038124779E+03  0.25464976654E+04  0.24840739154E+04 0.  0.
        5    1    3    3  502    0  0.12086333496E+04  0.98644446487E+02  0.55546877246E+03  0.13338264309E+04  0.46999998093E+01 0.  1.
       -5    1    3    3    0  502 -0.12086333496E+04 -0.98644446487E+02  0.49124753274E+01  0.12126712345E+04  0.46999998093E+01 0. -1.
</event>
<event>
 5   0  0.8948286E-06  0.2497436E+04  0.7818609E-02  0.8403900E-01
       -2   -1    0    0    0  501  0.00000000000E+00  0.00000000000E+00  0.63569198953E+03  0.63569198954E+03  0.25500000920E-02 0.  1.
        2   -1    0    0  501    0  0.00000000000E+00  0.00000000000E+00 -0.24529119444E+04  0.24529119444E+04  0.25500000920E-02 0. -1.
    10030    2    1    2    0    0  0.00000000000E+00  0.00000000000E+00 -0.18172199549E+04  0.30886039339E+04  0.24974358643E+04 0.  0.
        4    1    3    3  502    0 -0.46394412873E+03  0.45155385238E+03  0.41192174545E+03  0.76735009836E+03  0.12699999809E+01 0.  1.
       -4    1    3    3    0  502  0.46394412873E+03 -0.45155385238E+03 -0.22291417003E+04  0.23212538356E+04  0.12699999809E+01 0. -1.
</event>
<event>
 5   0  0.8056723E-06  0.2492792E+04  0.7818609E-02  0.8405558E-01
        2   -1    0    0  501    0  0.00000000000E+00  0.00000000000E+00  0.18423228099E+04  0.18423228099E+04  0.25500000920E-02 0.  1.
       -2   -1    0    0    0  501  0.00000000000E+00  0.00000000000E+00 -0.84323053672E+03  0.84323053673E+03  0.25500000920E-02 0. -1.
    10030    2    1    2    0    0  0.00000000000E+00  0.00000000000E+00  0.99909227318E+03  0.26855533466E+04  0.24927918901E+04 0.  0.
        2    1    3    3  502    0 -0.68992033207E+03 -0.10854546722E+03 -0.61262467374E+03  0.92902162188E+03  0.25500000920E-02 0. -1.
       -2    1    3    3    0  502  0.68992033207E+03  0.10854546722E+03  0.16117169469E+04  0.17565317247E+04  0.25500000920E-02 0.  1.
</event>
<event>
 5   0  0.8407986E-06  0.2489974E+04  0.7818609E-02  0.8406566E-01
        2   -1    0    0  501    0  0.00000000000E+00  0.00000000000E+00  0.12260491061E+04  0.12260491061E+04  0.25500000920E-02 0. -1.
       -2   -1    0    0    0  501  0.00000000000E+00  0.00000000000E+00 -0.12642177758E+04  0.12642177758E+04  0.25500000920E-02 0.  1.
    10030    2    1    2    0    0  0.00000000000E+00  0.00000000000E+00 -0.38168669649E+02  0.24902668819E+04  0.24899743564E+04 0.  0.
        5    1    3    3  502    0 -0.34039980288E+03 -0.91835629531E+03 -0.78775817881E+03  0.12569150127E+04  0.46999998093E+01 0.  1.
       -5    1    3    3    0  502  0.34039980288E+03  0.91835629531E+03  0.74958950916E+03  0.12333518692E+04  0.46999998093E+01 0. -1.
</event>
<event>
 5   0  0.8407986E-06  0.2499703E+04  0.7818609E-02  0.8403091E-01
       -2   -1    0    0    0  501  0.00000000000E+00  0.00000000000E+00  0.13396765060E+04  0.13396765060E+04  0.25500000920E-02 0.  1.
        2   -1    0    0  501    0  0.00000000000E+00  0.00000000000E+00 -0.11660489819E+04  0.11660489819E+04  0.25500000920E-02 0. -1.
    10030    2    1    2    0    0  0.00000000000E+00  0.00000000000E+00  0.17362752414E+03  0.25057254879E+04  0.24997027231E+04 0.  0.
        5    1    3    3  502    0 -0.65509138423E+03  0.94725404907E+03 -0.39981586974E+03  0.12191430494E+04  0.46999998093E+01 0.  1.
       -5    1    3    3    0  502  0.65509138423E+03 -0.94725404907E+03  0.57344339388E+03  0.12865824385E+04  0.46999998093E+01 0. -1.
</event>
<event>
 5   0  0.3522870E-06  0.2540028E+04  0.7818609E-02  0.8388863E-01
        1   -1    0    0  501    0  0.00000000000E+00  0.00000000000E+00  0.12477457269E+04  0.12477457269E+04  0.50400001928E-02 0.  1.
       -1   -1    0    0    0  501  0.00000000000E+00  0.00000000000E+00 -0.12926792157E+04  0.12926792157E+04  0.50400001928E-02 0. -1.
    10030    2    1    2    0    0  0.00000000000E+00  0.00000000000E+00 -0.44933488826E+02  0.25404249426E+04  0.25400275334E+04 0.  0.
        2    1    3    3  502    0 -0.74562001074E+03 -0.10270145676E+02 -0.10506744244E+04  0.12883987824E+04  0.25500000920E-02 0. -1.
       -2    1    3    3    0  502  0.74562001074E+03  0.10270145676E+02  0.10057409356E+04  0.12520261602E+04  0.25500000920E-02 0.  1.
</event>
<event>
 5   0  0.3522870E-06  0.2481602E+04  0.7818609E-02  0.8409569E-01
        1   -1    0    0  501    0  0.00000000000E+00  0.00000000000E+00  0.17843032090E+04  0.17843032090E+04  0.50400001928E-02 0.  1.
       -1   -1    0    0    0  501  0.00000000000E+00  0.00000000000E+00 -0.86285039837E+03  0.86285039839E+03  0.50400001928E-02 0. -1.
    10030    2    1    2    0    0  0.00000000000E+00  0.00000000000E+00  0.92145281067E+03  0.26471536074E+04  0.24816016882E+04 0.  0.
        2    1    3    3  502    0  0.13438418246E+03 -0.10872695910E+04  0.10821466062E+04  0.15398881614E+04  0.25500000920E-02 0.  1.
       -2    1    3    3    0  502 -0.13438418246E+03  0.10872695910E+04 -0.16069379557E+03  0.11072654461E+04  0.25500000920E-02 0. -1.
</event>
<event>
 5   0  0.2901250E-06  0.2493715E+04  0.7818609E-02  0.8405228E-01
       -4   -1    0    0    0  501  0.00000000000E+00  0.00000000000E+00  0.97333063199E+03  0.97333146054E+03  0.12699999809E+01 0. -1.
        4   -1    0    0  501    0  0.00000000000E+00  0.00000000000E+00 -0.15972491837E+04  0.15972496886E+04  0.12699999809E+01 0.  1.
    10030    2    1    2    0    0  0.00000000000E+00  0.00000000000E+00 -0.62391855174E+03  0.25705811492E+04  0.24937147161E+04 0.  0.
        5    1    3    3  502    0  0.88369314083E+03 -0.25204782296E+03  0.55674443467E+03  0.10744431710E+04  0.46999998093E+01 0. -1.
       -5    1    3    3    0  502 -0.88369314083E+03  0.25204782296E+03 -0.11806629864E+04  0.14961379782E+04  0.46999998093E+01 0.  1.
</event>
<event>
 5   0  0.3642184E-06  0.2558608E+04  0.7818609E-02  0.8382399E-01
        1   -1    0    0  501    0  0.00000000000E+00  0.00000000000E+00  0.20337858362E+04  0.20337858362E+04  0.50400001928E-02 0.  1.
       -1   -1    0    0    0  501  0.00000000000E+00  0.00000000000E+00 -0.80471530451E+03  0.80471530453E+03  0.50400001928E-02 0. -1.
    10030    2    1    2    0    0  0.00000000000E+00  0.00000000000E+00  0.12290705317E+04  0.28385011408E+04  0.25586078938E+04 0.  0.
        5    1    3    3  502    0 -0.11981395143E+04 -0.38470947354E+03  0.35899698903E+03  0.13086025381E+04  0.46999998093E+01 0. -1.
       -5    1    3    3    0  502  0.11981395143E+04  0.38470947354E+03  0.87007354270E+03  0.15298986026E+04  0.46999998093E+01 0.  1.
</event>
<event>
 5   0  0.8354653E-06  0.2506142E+04  0.7818609E-02  0.8400801E-01
        2   -1    0    0  501    0  0.00000000000E+00  0.00000000000E+00  0.13428324102E+04  0.13428324102E+04  0.25500000920E-02 0.  1.
       -2   -1    0    0    0  501  0.00000000000E+00  0.00000000000E+00 -0.11693099643E+04  0.11693099643E+04  0.25500000920E-02 0. -1.
    10030    2    1    2    0    0  0.00000000000E+00  0.00000000000E+00  0.17352244591E+03  0.25121423746E+04  0.25061423086E+04 0.  0.
        3    1    3    3  502    0 -0.64959448406E+03 -0.64177465309E+03  0.94691797346E+03  0.13154852176E+04  0.10100000352E+00 0.  1.
       -3    1    3    3    0  502  0.64959448406E+03  0.64177465309E+03 -0.77339552755E+03  0.11966571570E+04  0.10100000352E+00 0. -1.
</event>
<event>
 5   0  0.3424193E-06  0.2500177E+04  0.7818609E-02  0.8402923E-01
        1   -1    0    0  501    0  0.00000000000E+00  0.00000000000E+00  0.21307830713E+04  0.21307830713E+04  0.50400001928E-02 0. -1.
       -1   -1    0    0    0  501  0.00000000000E+00  0.00000000000E+00 -0.73340209625E+03  0.73340209627E+03  0.50400001928E-02 0.  1.
    10030    2    1    2    0    0  0.00000000000E+00  0.00000000000E+00  0.13973809751E+04  0.28641851676E+04  0.25001766107E+04 0.  0.
        1    1    3    3  502    0 -0.81270548562E+03  0.94379629278E+03  0.82143010052E+03  0.14919748854E+04  0.50400001928E-02 0.  1.
       -1    1    3    3    0  502  0.81270548562E+03 -0.94379629278E+03  0.57595087453E+03  0.13722102822E+04  0.50400001928E-02 0. -1.
</event>
<event>
 5   0  0.3522870E-06  0.2504564E+04  0.7818609E-02  0.8401362E-01
        1   -1    0    0  501    0  0.00000000000E+00  0.00000000000E+00  0.17300933380E+04  0.17300933381E+04  0.50400001928E-02 0.  1.
       -1   -1    0    0    0  501  0.00000000000E+00  0.00000000000E+00 -0.90643071574E+03  0.90643071575E+03  0.50400001928E-02 0. -1.
    10030    2    1    2    0    0  0.00000000000E+00  0.00000000000E+00  0.82366262231E+03  0.26365240538E+04  0.25045636288E+04 0.  0.
        2    1    3    3  502    0  0.51157643782E+03  0.10616541397E+04  0.85769131488E+03  0.14575508073E+04  0.25500000920E-02 0.  1.
       -2    1    3    3    0  502 -0.51157643782E+03 -0.10616541397E+04 -0.34028692573E+02  0.11789732465E+04  0.25500000920E-02 0. -1.
</event>
<event>
 5   0  0.3642184E-06  0.2442793E+04  0.7818609E-02  0.8423654E-01
        1   -1    0    0  501    0  0.00000000000E+00  0.00000000000E+00  0.11428184367E+04  0.11428184367E+04  0.50400001928E-02 0. -1.
       -1   -1    0    0    0  501  0.00000000000E+00  0.00000000000E+00 -0.13053779617E+04  0.13053779617E+04  0.50400001928E-02 0.  1.
    10030    2    1    2    0    0  0.00000000000E+00  0.00000000000E+00 -0.16255952504E+03  0.24481963984E+04  0.24427934841E+04 0.  0.
        5    1    3    3  502    0  0.12259682117E+03  0.16168468495E+02  0.11365195216E+04  0.11432366828E+04  0.46999998093E+01 0. -1.
       -5    1    3    3    0  502 -0.12259682117E+03 -0.16168468495E+02 -0.12990790466E+04  0.13049597156E+04  0.46999998093E+01 0.  1.
</event>
<event>
 5   0  0.8056723E-06  0.2467205E+04  0.7818609E-02  0.8414763E-01
        2   -1    0    0  501    0  0.00000000000E+00  0.00000000000E+00  0.14960208837E+04  0.14960208837E+04  0.25500000920E-02 0.  1.
       -2   -1    0    0    0  501  0.00000000000E+00  0.00000000000E+00 -0.10172154267E+04  0.10172154267E+04  0.25500000920E-02 0. -1.
    10030    2    1    2    0    0  0.00000000000E+00  0.00000000000E+00  0.47880545704E+03  0.25132363104E+04  0.24672053191E+04 0.  0.
        2    1    3    3  502    0  0.22642863561E+03  0.22531519056E+03 -0.97435563963E+03  0.10253807949E+04  0.25500000920E-02 0. -1.
       -2    1    3    3    0  502 -0.22642863561E+03 -0.22531519056E+03  0.14531610967E+04  0.14878555155E+04  0.25500000920E-02 0.  1.
</event>
<event>
 5   0  0.8948286E-06  0.2481759E+04  0.7818609E-02  0.8409513E-01
        2   -1    0    0  501    0  0.00000000000E+00  0.00000000000E+00  0.15450669767E+04  0.15450669767E+04  0.25500000920E-02 0. -1.
       -2   -1    0    0    0  501  0.00000000000E+00  0.00000000000E+00 -0.99657903861E+03  0.99657903862E+03  0.25500000920E-02 0.  1.
    10030    2    1    2    0    0  0.00000000000E+00  0.00000000000E+00  0.54848793808E+03  0.25416460153E+04  0.24817585396E+04 0.  0.
        4    1    3    3  502    0 -0.13435299462E+03 -0.10275295486E+04 -0.42480485673E+03  0.11199680708E+04  0.12699999809E+01 0.  1.
       -4    1    3    3    0  502  0.13435299462E+03  0.10275295486E+04  0.97329279481E+03  0.14216779445E+04  0.12699999809E+01 0. -1.
</event>
<event>
 5   0  0.3484857E-06  0.2498886E+04  0.7818609E-02  0.8403382E-01
        1   -1    0    0  501    0  0.00000000000E+00  0.00000000000E+00  0.12921843447E+04  0.12921843447E+04  0.50400001928E-02 0.  1.
       -1   -1    0    0    0  501  0.00000000000E+00  0.00000000000E+00 -0.12081157797E+04  0.12081157797E+04  0.50400001928E-02 0. -1.
    10030    2    1    2    0    0  0.00000000000E+00  0.00000000000E+00  0.84068564956E+02  0.25003001244E+04  0.24988863897E+04 0.  0.
        3    1    3    3  502    0 -0.26373105862E+02 -0.11761435225E+04 -0.37903531225E+03  0.12359922752E+04  0.10100000352E+00 0. -1.
       -3    1    3    3    0  502  0.26373105862E+02  0.11761435225E+04  0.46310387721E+03  0.12643078492E+04  0.10100000352E+00 0.  1.
</event>
<event>
 5   0  0.8056723E-06  0.2497206E+04  0.7818609E-02  0.8403981E-01
       -2   -1    0    0    0  501  0.00000000000E+00  0.00000000000E+00  0.62007925684E+03  0.62007925685E+03  0.25500000920E-02 0. -1.
        2   -1    0    0  501    0  0.00000000000E+00  0.00000000000E+00 -0.25142106783E+04  0.25142106783E+04  0.25500000920E-02 0.  1.
    10030    2    1    2    0    0  0.00000000000E+00  0.00000000000E+00 -0.18941314215E+04  0.31342899352E+04  0.24972063503E+04 0.  0.
        2    1    3    3  502    0  0.11583840532E+04  0.37475626046E+03 -0.12946995997E+04  0.17772290013E+04  0.25500000920E-02 0.  1.
       -2    1    3    3    0  502 -0.11583840532E+04 -0.37475626046E+03 -0.59943182174E+03  0.13570609339E+04  0.25500000920E-02 0. -1.
</event>
<event>
 5   0  0.3642184E-06  0.2515299E+04  0.7818609E-02  0.8397555E-01
        1   -1    0    0  501    0  0.00000000000E+00  0.00000000000E+00  0.11288976464E+04  0.11288976465E+04  0.50400001928E-02 0. -1.
       -1   -1    0    0    0  501  0.00000000000E+00  0.00000000000E+00 -0.14010853747E+04  0.14010853748E+04  0.50400001928E-02 0.  1.
    10030    2    1    2    0    0  0.00000000000E+00  0.00000000000E+00 -0.27218772831E+03  0.25299830212E+04  0.25152987751E+04 0.  0.
        5    1    3    3  502    0  0.64348250870E+03 -0.60338088083E+03 -0.10377206864E+04  0.13619928559E+04  0.46999998093E+01 0.  1.
       -5    1    3    3    0  502 -0.64348250870E+03  0.60338088083E+03  0.76553295814E+03  0.11679901653E+04  0.46999998093E+01 0. -1.
</event>
<event>
 5   0  0.3481387E-06  0.2510401E+04  0.7818609E-02  0.8399289E-01
        1   -1    0    0  501    0  0.00000000000E+00  0.00000000000E+00  0.11008274509E+04  0.11008274509E+04  0.50400001928E-02 0.  1.
       -1   -1    0    0    0  501  0.00000000000E+00  0.00000000000E+00 -0.14312218030E+04  0.14312218030E+04  0.50400001928E-02 0. -1.
    10030    2    1    2    0    0  0.00000000000E+00  0.00000000000E+00 -0.33039435218E+03  0.25320492539E+04  0.25104009633E+04 0.  0.
        4    1    3    3  502    0  0.46089459795E+03  0.38187172342E+03  0.94761976268E+03  0.11208187503E+04  0.12699999809E+01 0.  1.
       -4    1    3    3    0  502 -0.46089459795E+03 -0.38187172342E+03 -0.12780141149E+04  0.14112305036E+04  0.12699999809E+01 0. -1.
</event>
<event>
 5   0  0.3522870E-06  0.2495991E+04  0.7818609E-02  0.8404415E-01
       -1   -1    0    0    0  501  0.00000000000E+00  0.00000000000E+00  0.12260211487E+04  0.12260211487E+04  0.50400001928E-02 0. -1.
        1   -1    0    0  501    0  0.00000000000E+00  0.00000000000E+00 -0.12703635422E+04  0.12703635422E+04  0.50400001928E-02 0.  1.
    10030    2    1    2    0    0  0.00000000000E+00  0.00000000000E+00 -0.44342393465E+02  0.24963846909E+04  0.24959908407E+04 0.  0.
        2    1    3    3  502    0 -0.78733274183E+03 -0.11957798365E+03  0.93886586433E+03  0.12311217859E+04  0.25500000920E-02 0. -1.
       -2    1    3    3    0  502  0.78733274183E+03  0.11957798365E+03 -0.98320825779E+03  0.12652629050E+04  0.25500000920E-02 0.  1.
</event>
<event>
 5   0  0.3642184E-06  0.2495216E+04  0.7818609E-02  0.8404692E-01
       -1   -1    0    0    0  501  0.00000000000E+00  0.00000000000E+00  0.67739545253E+03  0.67739545255E+03  0.50400001928E-02 0. -1.
        1   -1    0    0  501    0  0.00000000000E+00  0.00000000000E+00 -0.22978089119E+04  0.22978089119E+04  0.50400001928E-02 0.  1.
    10030    2    1    2    0    0  0.00000000000E+00  0.00000000000E+00 -0.16204134594E+04  0.29752043645E+04  0.24952156682E+04 0.  0.
        5    1    3    3  502    0  0.10865755696E+04 -0.32372745899E+03 -0.18942453360E+03  0.11494997521E+04  0.46999998093E+01 0. -1.
       -5    1    3    3    0  502 -0.10865755696E+04  0.32372745899E+03 -0.14309889258E+04  0.18257046124E+04  0.46999998093E+01 0.  1.
</event>
<event>
 5   0  0.3424193E-06  0.2500793E+04  0.7818609E-02  0.8402703E-01
       -1   -1    0    0    0  501  0.00000000000E+00  0.00000000000E+00  0.20274914873E+04  0.20274914873E+04  0.50400001928E-02 0.  1.
        1   -1    0    0  501    0  0.00000000000E+00  0.00000000000E+00 -0.77114601952E+03  0.77114601954E+03  0.50400001928E-02 0. -1.
    10030    2    1    2    0    0  0.00000000000E+00  0.00000000000E+00  0.12563454678E+04  0.27986375068E+04  0.25007934661E+04 0.  0.
        1    1    3    3  502    0  0.77083848146E+03 -0.47508386822E+03  0.15931946022E+04  0.18325298597E+04  0.50400001928E-02 0.  1.
       -1    1    3    3    0  502 -0.77083848146E+03  0.47508386822E+03 -0.33684913444E+03  0.96610764708E+03  0.50400001928E-02 0. -1.
</event>
<event>
 5   0  0.8354653E-06  0.2493683E+04  0.7818609E-02  0.8405239E-01
       -2   -1    0    0    0  501  0.00000000000E+00  0.00000000000E+00  0.10908688852E+04  0.10908688852E+04  0.25500000920E-02 0.  1.
        2   -1    0    0  501    0  0.00000000000E+00  0.00000000000E+00 -0.14251152584E+04  0.14251152584E+04  0.25500000920E-02 0. -1.
    10030    2    1    2    0    0  0.00000000000E+00  0.00000000000E+00 -0.33424637316E+03  0.25159841437E+04  0.24936831341E+04 0.  0.
        3    1    3    3  502    0  0.66823501277E+03  0.45454863824E+03  0.79082097776E+03  0.11307299969E+04  0.10100000352E+00 0. -1.
       -3    1    3    3    0  502 -0.66823501277E+03 -0.45454863824E+03 -0.11250673509E+04  0.13852541468E+04  0.10100000352E+00 0.  1.
</event>
<event>
 5   0  0.8354653E-06  0.2509665E+04  0.7818609E-02  0.8399550E-01
        2   -1    0    0  501    0  0.00000000000E+00  0.00000000000E+00  0.14241510140E+04  0.14241510140E+04  0.25500000920E-02 0. -1.
       -2   -1    0    0    0  501  0.00000000000E+00  0.00000000000E+00 -0.11056444827E+04  0.11056444827E+04  0.25500000920E-02 0.  1.
    10030    2    1    2    0    0  0.00000000000E+00  0.00000000000E+00  0.31850653132E+03  0.25297954967E+04  0.25096650861E+04 0.  0.
        3    1    3    3  502    0 -0.83091441723E+03 -0.21072426072E+03 -0.76449306204E+03  0.11485961583E+04  0.10100000352E+00 0.  1.
       -3    1    3    3    0  502  0.83091441723E+03  0.21072426072E+03  0.10829995934E+04  0.13811993383E+04  0.10100000352E+00 0. -1.
</event>
<event>
 5   0  0.3642184E-06  0.2471466E+04  0.7818609E-02  0.8413222E-01
        1   -1    0    0  501    0  0.00000000000E+00  0.00000000000E+00  0.13469447370E+04  0.13469447370E+04  0.50400001928E-02 0. -1.
       -1   -1    0    0    0  501  0.00000000000E+00  0.00000000000E+00 -0.11337034375E+04  0.11337034375E+04  0.50400001928E-02 0.  1.
    10030    2    1    2    0    0  0.00000000000E+00  0.00000000000E+00  0.21324129949E+03  0.24806481745E+04  0.24714658634E+04 0.  0.
        5    1    3    3  502    0  0.85089471780E+03 -0.51164677548E+03  0.84502335799E+03  0.13037986076E+04  0.46999998093E+01 0. -1.
       -5    1    3    3    0  502 -0.85089471780E+03  0.51164677548E+03 -0.63178205850E+03  0.11768495669E+04  0.46999998093E+01 0.  1.
</event>
<event>
 5   0  0.3484857E-06  0.2498254E+04  0.7818609E-02  0.8403608E-01
        1   -1    0    0  501    0  0.00000000000E+00  0.00000000000E+00  0.20113779479E+04  0.20113779479E+04  0.50400001928E-02 0. -1.
       -1   -1    0    0    0  501  0.00000000000E+00  0.00000000000E+00 -0.77574570322E+03  0.77574570324E+03  0.50400001928E-02 0.  1.
    10030    2    1    2    0    0  0.00000000000E+00  0.00000000000E+00  0.12356322447E+04  0.27871236511E+04  0.24982536306E+04 0.  0.
        3    1    3    3  502    0  0.31035184780E+02 -0.29223761792E+03  0.19722610396E+04  0.19940360143E+04  0.10100000352E+00 0. -1.
       -3    1    3    3    0  502 -0.31035184780E+02  0.29223761792E+03 -0.73662879489E+03  0.79308763683E+03  0.10100000352E+00 0.  1.
</event>
<event>
 5   0  0.3484857E-06  0.2551207E+04  0.7818609E-02  0.8384967E-01
       -1   -1    0    0    0  501  0.00000000000E+00  0.00000000000E+00  0.98462887840E+03  0.98462887841E+03  0.50400001928E-02 0.  1.
        1   -1    0    0  501    0  0.00000000000E+00  0.00000000000E+00 -0.16525658102E+04  0.16525658102E+04  0.50400001928E-02 0. -1.
    10030    2    1    2    0    0  0.00000000000E+00  0.00000000000E+00 -0.66793693180E+03  0.26371946886E+04  0.25512067891E+04 0.  0.
        3    1    3    3  502    0  0.11223287381E+04  0.23820899944E+03  0.24231494442E+03  0.11726388473E+04  0.10100000352E+00 0.  1.
       -3    1    3    3    0  502 -0.11223287381E+04 -0.23820899944E+03 -0.91025187622E+03  0.14645558413E+04  0.10100000352E+00 0. -1.
</event>
<event>
 5   0  0.8056723E-06  0.2514050E+04  0.7818609E-02  0.8397997E-01
       -2   -1    0    0    0  501  0.00000000000E+00  0.00000000000E+00  0.71400639048E+03  0.71400639049E+03  0.25500000920E-02 0. -1.
        2   -1    0    0  501    0  0.00000000000E+00  0.00000000000E+00 -0.22130219907E+04  0.22130219907E+04  0.25500000920E-02 0.  1.
    10030    2    1    2    0    0  0.00000000000E+00  0.00000000000E+00 -0.14990156003E+04  0.29270283812E+04  0.25140499945E+04 0.  0.
        2    1    3    3  502    0  0.31993287555E+03 -0.36149331823E+03 -0.21008000794E+04  0.21555499153E+04  0.25500000920E-02 0.  1.
       -2    1    3    3    0  502 -0.31993287555E+03  0.36149331823E+03  0.60178447913E+03  0.77147846588E+03  0.25500000920E-02 0. -1.
</event>
<event>
 5   0  0.8056723E-06  0.2517007E+04  0.7818609E-02  0.8396952E-01
       -2   -1    0    0    0  501  0.00000000000E+00  0.00000000000E+00  0.12817695193E+04  0.12817695193E+04  0.25500000920E-02 0.  1.
        2   -1    0    0  501    0  0.00000000000E+00  0.00000000000E+00 -0.12356596663E+04  0.12356596663E+04  0.25500000920E-02 0. -1.
    10030    2    1    2    0    0  0.00000000000E+00  0.00000000000E+00  0.46109852966E+02  0.25174291856E+04  0.25170068704E+04 0.  0.
        2    1    3    3  502    0 -0.11070879990E+03  0.15455881116E+03 -0.12212141085E+04  0.12359242547E+04  0.25500000920E-02 0. -1.
       -2    1    3    3    0  502  0.11070879990E+03 -0.15455881116E+03  0.12673239615E+04  0.12815049309E+04  0.25500000920E-02 0.  1.
</event>
<event>
 5   0  0.3481387E-06  0.2484523E+04  0.7818609E-02  0.8408520E-01
       -1   -1    0    0    0  501  0.00000000000E+00  0.00000000000E+00  0.10670540248E+04  0.10670540248E+04  0.50400001928E-02 0.  1.
        1   -1    0    0  501    0  0.00000000000E+00  0.00000000000E+00 -0.14462370367E+04  0.14462370367E+04  0.50400001928E-02 0. -1.
    10030    2    1    2    0    0  0.00000000000E+00  0.00000000000E+00 -0.37918301191E+03  0.25132910615E+04  0.24845225303E+04 0.  0.
        4    1    3    3  502    0 -0.43256831016E+03 -0.67291747540E+03  0.77182285199E+03  0.11115958795E+04  0.12699999809E+01 0.  1.
       -4    1    3    3    0  502  0.43256831016E+03  0.67291747540E+03 -0.11510058639E+04  0.14016951820E+04  0.12699999809E+01 0. -1.
</event>
<event>
 5   0  0.8579923E-06  0.2515181E+04  0.7818609E-02  0.8397597E-01
        2   -1    0    0  501    0  0.00000000000E+00  0.00000000000E+00  0.13873758681E+04  0.13873758681E+04  0.25500000920E-02 0. -1.
       -2   -1    0    0    0  501  0.00000000000E+00  0.00000000000E+00 -0.11399457965E+04  0.11399457965E+04  0.25500000920E-02 0.  1.
    10030    2    1    2    0    0  0.00000000000E+00  0.00000000000E+00  0.24743007165E+03  0.25273216646E+04  0.25151805415E+04 0.  0.
        1    1    3    3  502    0 -0.59202446605E+03 -0.10597292134E+04 -0.20652674198E+03  0.12313294723E+04  0.50400001928E-02 0.  1.
       -1    1    3    3    0  502  0.59202446605E+03  0.10597292134E+04  0.45395681363E+03  0.12959921924E+04  0.50400001928E-02 0. -1.
</event>
<event>
 5   0  0.8407986E-06  0.2473125E+04  0.7818609E-02  0.8412623E-01
       -2   -1    0    0    0  501  0.00000000000E+00  0.00000000000E+00  0.12199553895E+04  0.12199553895E+04  0.25500000920E-02 0. -1.
        2   -1    0    0  501    0  0.00000000000E+00  0.00000000000E+00 -0.12533960000E+04  0.12533960000E+04  0.25500000920E-02 0.  1.
    10030    2    1    2    0    0  0.00000000000E+00  0.00000000000E+00 -0.33440610503E+02  0.24733513895E+04  0.24731253145E+04 0.  0.
        5    1    3    3  502    0  0.51343867773E+03  0.15530444857E+03 -0.11309704226E+04  0.12517407616E+04  0.46999998093E+01 0.  1.
       -5    1    3    3    0  502 -0.51343867773E+03 -0.15530444857E+03  0.10975298121E+04  0.12216106278E+04  0.46999998093E+01 0. -1.
</event>
<event>
 5   0  0.8407986E-06  0.2497678E+04  0.7818609E-02  0.8403813E-01
        2   -1    0    0  501    0  0.00000000000E+00  0.00000000000E+00  0.16404205190E+04  0.16404205190E+04  0.25500000920E-02 0.  1.
       -2   -1    0    0    0  501  0.00000000000E+00  0.00000000000E+00 -0.95073109021E+03  0.95073109021E+03  0.25500000920E-02 0. -1.
    10030    2    1    2    0    0  0.00000000000E+00  0.00000000000E+00  0.68968942876E+03  0.25911516092E+04  0.24976779524E+04 0.  0.
        5    1    3    3  502    0  0.17005641999E+03  0.10111131957E+04  0.10844835282E+04  0.14924462112E+04  0.46999998093E+01 0.  1.
       -5    1    3    3    0  502 -0.17005641999E+03 -0.10111131957E+04 -0.39479409944E+03  0.10987053979E+04  0.46999998093E+01 0. -1.
</event>
<event>
 5   0  0.8056723E-06  0.2511376E+04  0.7818609E-02  0.8398944E-01
        2   -1    0    0  501    0  0.00000000000E+00  0.00000000000E+00  0.29175552807E+04  0.29175552807E+04  0.25500000920E-02 0.  1.
       -2   -1    0    0    0  501  0.00000000000E+00  0.00000000000E+00 -0.54043634963E+03  0.54043634964E+03  0.25500000920E-02 0. -1.
    10030    2    1    2    0    0  0.00000000000E+00  0.00000000000E+00  0.23771189310E+04  0.34579916303E+04  0.25113764558E+04 0.  0.
        2    1    3    3  502    0  0.10324169222E+04  0.26756170407E+03  0.27595556601E+03  0.11016466952E+04  0.25500000920E-02 0. -1.
       -2    1    3    3    0  502 -0.10324169222E+04 -0.26756170407E+03  0.21011633650E+04  0.23563449351E+04  0.25500000920E-02 0.  1.
</event>
<event>
 5   0  0.3642184E-06  0.2493215E+04  0.7818609E-02  0.8405407E-01
       -1   -1    0    0    0  501  0.00000000000E+00  0.00000000000E+00  0.73792355049E+03  0.73792355051E+03  0.50400001928E-02 0. -1.
        1   -1    0    0  501    0  0.00000000000E+00  0.00000000000E+00 -0.21059502130E+04  0.21059502130E+04  0.50400001928E-02 0.  1.
    10030    2    1    2    0    0  0.00000000000E+00  0.00000000000E+00 -0.13680266625E+04  0.28438737635E+04  0.24932149995E+04 0.  0.
        5    1    3    3  502    0  0.49087916183E+03  0.63738399314E+03 -0.17701971707E+04  0.19444384329E+04  0.46999998093E+01 0.  1.
       -5    1    3    3    0  502 -0.49087916183E+03 -0.63738399314E+03  0.40217050821E+03  0.89943533059E+03  0.46999998093E+01 0. -1.
</event>
<event>
 5   0  0.8354653E-06  0.2492627E+04  0.7818609E-02  0.8405617E-01
        2   -1    0    0  501    0  0.00000000000E+00  0.00000000000E+00  0.15736233198E+04  0.15736233198E+04  0.25500000920E-02 0. -1.
       -2   -1    0    0    0  501  0.00000000000E+00  0.00000000000E+00 -0.98708301109E+03  0.98708301109E+03  0.25500000920E-02 0.  1.
    10030    2    1    2    0    0  0.00000000000E+00  0.00000000000E+00  0.58654030876E+03  0.25607063309E+04  0.24926266025E+04 0.  0.
        3    1    3    3  502    0  0.22466316006E+02 -0.18398501170E+03  0.15593849673E+04  0.15703619667E+04  0.10100000352E+00 0. -1.
       -3    1    3    3    0  502 -0.22466316006E+02  0.18398501170E+03 -0.97284465858E+03  0.99034436425E+03  0.10100000352E+00 0.  1.
</event>
<event>
 5   0  0.3484857E-06  0.2495104E+04  0.7818609E-02  0.8404732E-01
       -1   -1    0    0    0  501  0.00000000000E+00  0.00000000000E+00  0.11274943155E+04  0.11274943155E+04  0.50400001928E-02 0. -1.
        1   -1    0    0  501    0  0.00000000000E+00  0.00000000000E+00 -0.13803937191E+04  0.13803937191E+04  0.50400001928E-02 0.  1.
    10030    2    1    2    0    0  0.00000000000E+00  0.00000000000E+00 -0.25289940361E+03  0.25078880347E+04  0.24951040632E+04 0.  0.
        3    1    3    3  502    0 -0.46822094431E+03  0.33158044320E+03 -0.12399205601E+04  0.13662281832E+04  0.10100000352E+00 0.  1.
       -3    1    3    3    0  502  0.46822094431E+03 -0.33158044320E+03  0.98702115647E+03  0.11416598515E+04  0.10100000352E+00 0. -1.
</event>
<event>
 5   0  0.8948286E-06  0.2499870E+04  0.7818609E-02  0.8403032E-01
        2   -1    0    0  501    0  0.00000000000E+00  0.00000000000E+00  0.12746614087E+04  0.12746614087E+04  0.25500000920E-02 0.  1.
       -2   -1    0    0    0  501  0.00000000000E+00  0.00000000000E+00 -0.12256883386E+04  0.12256883386E+04  0.25500000920E-02 0. -1.
    10030    2    1    2    0    0  0.00000000000E+00  0.00000000000E+00  0.48973070048E+02  0.25003497473E+04  0.24998700961E+04 0.  0.
        4    1    3    3  502    0 -0.14457462339E+03  0.10495197376E+04 -0.63892235115E+03  0.12371810235E+04  0.12699999809E+01 0. -1.
       -4    1    3    3    0  502  0.14457462339E+03 -0.10495197376E+04  0.68789542120E+03  0.12631687238E+04  0.12699999809E+01 0.  1.
</event>
<event>
 5   0  0.3522870E-06  0.2499818E+04  0.7818609E-02  0.8403050E-01
       -1   -1    0    0    0  501  0.00000000000E+00  0.00000000000E+00  0.15154598685E+04  0.15154598685E+04  0.50400001928E-02 0. -1.
        1   -1    0    0  501    0  0.00000000000E+00  0.00000000000E+00 -0.10308903638E+04  0.10308903639E+04  0.50400001928E-02 0.  1.
    10030    2    1    2    0    0  0.00000000000E+00  0.00000000000E+00  0.48456950464E+03  0.25463502324E+04  0.24998183736E+04 0.  0.
        2    1    3    3  502    0  0.93402848044E+03 -0.45725064176E+03 -0.46400908719E+03  0.11387676605E+04  0.25500000920E-02 0. -1.
       -2    1    3    3    0  502 -0.93402848044E+03  0.45725064176E+03  0.94857859183E+03  0.14075825718E+04  0.25500000920E-02 0.  1.
</event>
<event>
 5   0  0.3424193E-06  0.2496569E+04  0.7818609E-02  0.8404209E-01
        1   -1    0    0  501    0  0.00000000000E+00  0.00000000000E+00  0.17167162412E+04  0.17167162412E+04  0.50400001928E-02 0. -1.
       -1   -1    0    0    0  501  0.00000000000E+00  0.00000000000E+00 -0.90767105669E+03  0.90767105670E+03  0.50400001928E-02 0.  1.
    10030    2    1    2    0    0  0.00000000000E+00  0.00000000000E+00  0.80904518455E+03  0.26243872980E+04  0.24965685608E+04 0.  0.
        1    1    3    3  502    0  0.37736104667E+03 -0.34492313308E+03 -0.79256983047E+03  0.94315442186E+03  0.50400001928E-02 0.  1.
       -1    1    3    3    0  502 -0.37736104667E+03  0.34492313308E+03  0.16016150150E+04  0.16812328761E+04  0.50400001928E-02 0. -1.
</event>
<event>
 5   0  0.8407986E-06  0.2503065E+04  0.7818609E-02  0.8401894E-01
        2   -1    0    0  501    0  0.00000000000E+00  0.00000000000E+00  0.14964187047E+04  0.14964187047E+04  0.25500000920E-02 0.  1.
       -2   -1    0    0    0  501  0.00000000000E+00  0.00000000000E+00 -0.10467215794E+04  0.10467215794E+04  0.25500000920E-02 0. -1.
    10030    2    1    2    0    0  0.00000000000E+00  0.00000000000E+00  0.44969712525E+03  0.25431402842E+04  0.25030651211E+04 0.  0.
        5    1    3    3  502    0 -0.10652443155E+04  0.40581608513E+03  0.74972344139E+03  0.13643824519E+04  0.46999998093E+01 0.  1.
       -5    1    3    3    0  502  0.10652443155E+04 -0.40581608513E+03 -0.30002631614E+03  0.11787578322E+04  0.46999998093E+01 0. -1.
</event>
<event>
 5   0  0.3642184E-06  0.2506962E+04  0.7818609E-02  0.8400510E-01
        1   -1    0    0  501    0  0.00000000000E+00  0.00000000000E+00  0.65722292473E+03  0.65722292475E+03  0.50400001928E-02 0.  1.
       -1   -1    0    0    0  501  0.00000000000E+00  0.00000000000E+00 -0.23906870060E+04  0.23906870060E+04  0.50400001928E-02 0. -1.
    10030    2    1    2    0    0  0.00000000000E+00  0.00000000000E+00 -0.17334640813E+04  0.30479099308E+04  0.25069617518E+04 0.  0.
        5    1    3    3  502    0  0.30097806616E+03  0.71491529875E+03  0.33036249268E+03  0.84312107510E+03  0.46999998093E+01 0.  1.
       -5    1    3    3    0  502 -0.30097806616E+03 -0.71491529875E+03 -0.20638265740E+04  0.22047888557E+04  0.46999998093E+01 0. -1.
</event>
<event>
 5   0  0.8354653E-06  0.2497867E+04  0.7818609E-02  0.8403746E-01
       -2   -1    0    0    0  501  0.00000000000E+00  0.00000000000E+00  0.83851529856E+03  0.83851529856E+03  0.25500000920E-02 0.  1.
        2   -1    0    0  501    0  0.00000000000E+00  0.00000000000E+00 -0.18602337185E+04  0.18602337185E+04  0.25500000920E-02 0. -1.
    10030    2    1    2    0    0  0.00000000000E+00  0.00000000000E+00 -0.10217184200E+04  0.26987490171E+04  0.24978666353E+04 0.  0.
        3    1    3    3  502    0  0.46505571602E+03  0.61495780167E+03 -0.15724164387E+04  0.17512690781E+04  0.10100000352E+00 0. -1.
       -3    1    3    3    0  502 -0.46505571602E+03 -0.61495780167E+03  0.55069801873E+03  0.94747993904E+03  0.10100000352E+00 0.  1.
</event>
<event>
 5   0  0.8579923E-06  0.2499376E+04  0.7818609E-02  0.8403208E-01
       -2   -1    0    0    0  501  0.00000000000E+00  0.00000000000E+00  0.54594077052E+03  0.54594077053E+03  0.25500000920E-02 0.  1.
        2   -1    0    0  501    0  0.00000000000E+00  0.00000000000E+00 -0.28606033015E+04  0.28606033015E+04  0.25500000920E-02 0. -1.
    10030    2    1    2    0    0  0.00000000000E+00  0.00000000000E+00 -0.23146625310E+04  0.34065440720E+04  0.24993758986E+04 0.  0.
        1    1    3    3  502    0  0.61189665875E+03 -0.20237173752E+03  0.30195568107E+03  0.71172261064E+03  0.50400001928E-02 0.  1.
       -1    1    3    3    0  502 -0.61189665875E+03  0.20237173752E+03 -0.26166182120E+04  0.26948214614E+04  0.50400001928E-02 0. -1.
</event>
<event>
 5   0  0.3522870E-06  0.2523021E+04  0.7818609E-02  0.8394830E-01
       -1   -1    0    0    0  501  0.00000000000E+00  0.00000000000E+00  0.51852676272E+03  0.51852676275E+03  0.50400001928E-02 0. -1.
        1   -1    0    0  501    0  0.00000000000E+00  0.00000000000E+00 -0.30690954608E+04  0.30690954608E+04  0.50400001928E-02 0.  1.
    10030    2    1    2    0    0  0.00000000000E+00  0.00000000000E+00 -0.25505686981E+04  0.35876222235E+04  0.25230205182E+04 0.  0.
        2    1    3    3  502    0  0.41423963214E+03 -0.97216005590E+03 -0.29555978843E+03  0.10972899506E+04  0.25500000920E-02 0. -1.
       -2    1    3    3    0  502 -0.41423963214E+03  0.97216005590E+03 -0.22550089096E+04  0.24903322729E+04  0.25500000920E-02 0.  1.
</event>
<event>
 5   0  0.3522870E-06  0.2405757E+04  0.7818609E-02  0.8437351E-01
       -1   -1    0    0    0  501  0.00000000000E+00  0.00000000000E+00  0.10406426254E+04  0.10406426254E+04  0.50400001928E-02 0.  1.
        1   -1    0    0  501    0  0.00000000000E+00  0.00000000000E+00 -0.13904068633E+04  0.13904068633E+04  0.50400001928E-02 0. -1.
    10030    2    1    2    0    0  0.00000000000E+00  0.00000000000E+00 -0.34976423786E+03  0.24310494887E+04  0.24057569691E+04 0.  0.
        2    1    3    3  502    0  0.37165707439E+03  0.46168079368E+03  0.88284999949E+03  0.10633448443E+04  0.25500000920E-02 0.  1.
       -2    1    3    3    0  502 -0.37165707439E+03 -0.46168079368E+03 -0.12326142374E+04  0.13677046444E+04  0.25500000920E-02 0. -1.
</event>
<event>
 5   0  0.8354653E-06  0.2496562E+04  0.7818609E-02  0.8404211E-01
       -2   -1    0    0    0  501  0.00000000000E+00  0.00000000000E+00  0.74107527661E+03  0.74107527661E+03  0.25500000920E-02 0.  1.
        2   -1    0    0  501    0  0.00000000000E+00  0.00000000000E+00 -0.21026275541E+04  0.21026275541E+04  0.25500000920E-02 0. -1.
    10030    2    1    2    0    0  0.00000000000E+00  0.00000000000E+00 -0.13615522775E+04  0.28437028307E+04  0.24965618729E+04 0.  0.
        3    1    3    3  502    0 -0.97701533640E+03 -0.64670758437E+03 -0.11712490586E+04  0.16566876696E+04  0.10100000352E+00 0.  1.
       -3    1    3    3    0  502  0.97701533640E+03  0.64670758437E+03 -0.19030321886E+03  0.11870151610E+04  0.10100000352E+00 0. -1.
</event>
<event>
 5   0  0.8354653E-06  0.2496314E+04  0.7818609E-02  0.8404300E-01
        2   -1    0    0  501    0  0.00000000000E+00  0.00000000000E+00  0.13679220893E+04  0.13679220893E+04  0.25500000920E-02 0.  1.
       -2   -1    0    0    0  501  0.00000000000E+00  0.00000000000E+00 -0.11388775434E+04  0.11388775434E+04  0.25500000920E-02 0. -1.
    10030    2    1    2    0    0  0.00000000000E+00  0.00000000000E+00  0.22904454589E+03  0.25067996327E+04  0.24963138814E+04 0.  0.
        3    1    3    3  502    0 -0.73753428508E+03 -0.38970101757E+03 -0.81785613779E+03  0.11682090468E+04  0.10100000352E+00 0. -1.
       -3    1    3    3    0  502  0.73753428508E+03  0.38970101757E+03  0.10469006837E+04  0.13385905858E+04  0.10100000352E+00 0.  1.
</event>
<event>
 5   0  0.3481387E-06  0.2499154E+04  0.7818609E-02  0.8403287E-01
       -1   -1    0    0    0  501  0.00000000000E+00  0.00000000000E+00  0.15462507752E+04  0.15462507752E+04  0.50400001928E-02 0.  1.
        1   -1    0    0  501    0  0.00000000000E+00  0.00000000000E+00 -0.10098251844E+04  0.10098251844E+04  0.50400001928E-02 0. -1.
    10030    2    1    2    0    0  0.00000000000E+00  0.00000000000E+00  0.53642559083E+03  0.25560759596E+04  0.24991542363E+04 0.  0.
        4    1    3    3  502    0 -0.80993817910E+03  0.94364865664E+03  0.39334613375E+03  0.13042988289E+04  0.12699999809E+01 0.  1.
       -4    1    3    3    0  502  0.80993817910E+03 -0.94364865664E+03  0.14307945708E+03  0.12517771308E+04  0.12699999809E+01 0. -1.
</event>
<event>
 5   0  0.3481387E-06  0.2467611E+04  0.7818609E-02  0.8414616E-01
       -1   -1    0    0    0  501  0.00000000000E+00  0.00000000000E+00  0.74534060774E+03  0.74534060775E+03  0.50400001928E-02 0. -1.
        1   -1    0    0  501    0  0.00000000000E+00  0.00000000000E+00 -0.20423892904E+04  0.20423892904E+04  0.50400001928E-02 0.  1.
    10030    2    1    2    0    0  0.00000000000E+00  0.00000000000E+00 -0.12970486826E+04  0.27877298981E+04  0.24676107270E+04 0.  0.
        4    1    3    3  502    0  0.11793644664E+04  0.12120671665E+03 -0.26262253454E+03  0.12143161949E+04  0.12699999809E+01 0. -1.
       -4    1    3    3    0  502 -0.11793644664E+04 -0.12120671665E+03 -0.10344261481E+04  0.15734137032E+04  0.12699999809E+01 0.  1.
</event>
<event>
 5   0  0.3424193E-06  0.2506897E+04  0.7818609E-02  0.8400533E-01
       -1   -1    0    0    0  501  0.00000000000E+00  0.00000000000E+00  0.17169763711E+04  0.17169763711E+04  0.50400001928E-02 0.  1.
        1   -1    0    0  501    0  0.00000000000E+00  0.00000000000E+00 -0.91505776383E+03  0.91505776385E+03  0.50400001928E-02 0. -1.
    10030    2    1    2    0    0  0.00000000000E+00  0.00000000000E+00  0.80191860723E+03  0.26320341349E+04  0.25068965345E+04 0.  0.
        1    1    3    3  502    0  0.15807149434E+03 -0.21714932184E+03  0.16864081067E+04  0.17076629432E+04  0.50400001928E-02 0.  1.
       -1    1    3    3    0  502 -0.15807149434E+03  0.21714932184E+03 -0.88448949948E+03  0.92437119168E+03  0.50400001928E-02 0. -1.
</event>
<event>
 5   0  0.3424193E-06  0.2499892E+04  0.7818609E-02  0.8403024E-01
        1   -1    0    0  501    0  0.00000000000E+00  0.00000000000E+00  0.14706297044E+04  0.14706297044E+04  0.50400001928E-02 0.  1.
       -1   -1    0    0    0  501  0.00000000000E+00  0.00000000000E+00 -0.10623780226E+04  0.10623780226E+04  0.50400001928E-02 0. -1.
    10030    2    1    2    0    0  0.00000000000E+00  0.00000000000E+00  0.40825168175E+03  0.25330077270E+04  0.24998917396E+04 0.  0.
        1    1    3    3  502    0 -0.48736842059E+03  0.25688787579E+03 -0.93271979204E+03  0.10832753891E+04  0.50400001928E-02 0. -1.
       -1    1    3    3    0  502  0.48736842059E+03 -0.25688787579E+03  0.13409714738E+04  0.14497323379E+04  0.50400001928E-02 0.  1.
</event>
<event>
 5   0  0.3522870E-06  0.2494218E+04  0.7818609E-02  0.8405048E-01
        1   -1    0    0  501    0  0.00000000000E+00  0.00000000000E+00  0.18797057716E+04  0.18797057716E+04  0.50400001928E-02 0.  1.
       -1   -1    0    0    0  501  0.00000000000E+00  0.00000000000E+00 -0.82740633819E+03  0.82740633821E+03  0.50400001928E-02 0. -1.
    10030    2    1    2    0    0  0.00000000000E+00  0.00000000000E+00  0.10522994334E+04  0.27071121099E+04  0.24942176885E+04 0.  0.
        2    1    3    3  502    0 -0.58961799379E+03 -0.10129552217E+04  0.98860886397E+03  0.15333216054E+04  0.25500000920E-02 0.  1.
       -2    1    3    3    0  502  0.58961799379E+03  0.10129552217E+04  0.63690569474E+02  0.11737905044E+04  0.25500000920E-02 0. -1.
</event>
<event>
 5   0  0.3642184E-06  0.2501241E+04  0.7818609E-02  0.8402544E-01
       -1   -1    0    0    0  501  0.00000000000E+00  0.00000000000E+00  0.91687464462E+03  0.91687464464E+03  0.50400001928E-02 0. -1.
        1   -1    0    0  501    0  0.00000000000E+00  0.00000000000E+00 -0.17058512784E+04  0.17058512784E+04  0.50400001928E-02 0.  1.
    10030    2    1    2    0    0  0.00000000000E+00  0.00000000000E+00 -0.78897663378E+03  0.26227259230E+04  0.25012411197E+04 0.  0.
        5    1    3    3  502    0  0.65427033269E+03 -0.77112573629E+02  0.72016342530E+03  0.97604993028E+03  0.46999998093E+01 0. -1.
       -5    1    3    3    0  502 -0.65427033269E+03  0.77112573629E+02 -0.15091400591E+04  0.16466759928E+04  0.46999998093E+01 0.  1.
</event>
<event>
 5   0  0.3522870E-06  0.2494789E+04  0.7818609E-02  0.8404844E-01
        1   -1    0    0  501    0  0.00000000000E+00  0.00000000000E+00  0.21857596224E+04  0.21857596224E+04  0.50400001928E-02 0. -1.
       -1   -1    0    0    0  501  0.00000000000E+00  0.00000000000E+00 -0.71187750548E+03  0.71187750550E+03  0.50400001928E-02 0.  1.
    10030    2    1    2    0    0  0.00000000000E+00  0.00000000000E+00  0.14738821169E+04  0.28976371279E+04  0.24947890553E+04 0.  0.
        2    1    3    3  502    0  0.14496527073E+03 -0.12380805778E+04  0.68327810032E+03  0.14215229190E+04  0.25500000920E-02 0.  1.
       -2    1    3    3    0  502 -0.14496527073E+03  0.12380805778E+04  0.79060401655E+03  0.14761142089E+04  0.25500000920E-02 0. -1.
</event>
<event>
 5   0  0.8579923E-06  0.2503202E+04  0.7818609E-02  0.8401846E-01
       -2   -1    0    0    0  501  0.00000000000E+00  0.00000000000E+00  0.18050155236E+04  0.18050155236E+04  0.25500000920E-02 0.  1.
        2   -1    0    0  501    0  0.00000000000E+00  0.00000000000E+00 -0.86786249540E+03  0.86786249541E+03  0.25500000920E-02 0. -1.
    10030    2    1    2    0    0  0.00000000000E+00  0.00000000000E+00  0.93715302820E+03  0.26728780190E+04  0.25032021705E+04 0.  0.
        1    1    3    3  502    0 -0.10766927014E+04  0.28188987569E+03 -0.14274815523E+03  0.11220989757E+04  0.50400001928E-02 0. -1.
       -1    1    3    3    0  502  0.10766927014E+04 -0.28188987569E+03  0.10799011834E+04  0.15507790434E+04  0.50400001928E-02 0.  1.
</event>
<event>
 5   0  0.8579923E-06  0.2511803E+04  0.7818609E-02  0.8398793E-01
        2   -1    0    0  501    0  0.00000000000E+00  0.00000000000E+00  0.12837600581E+04  0.12837600581E+04  0.25500000920E-02 0.  1.
       -2   -1    0    0    0  501  0.00000000000E+00  0.00000000000E+00 -0.12286471736E+04  0.12286471736E+04  0.25500000920E-02 0. -1.
    10030    2    1    2    0    0  0.00000000000E+00  0.00000000000E+00  0.55112884586E+02  0.25124072317E+04  0.25118026730E+04 0.  0.
        1    1    3    3  502    0  0.88909052931E+03 -0.23961836144E+03  0.88180487809E+03  0.12749426542E+04  0.50400001928E-02 0.  1.
       -1    1    3    3    0  502 -0.88909052931E+03  0.23961836144E+03 -0.82669199350E+03  0.12374645775E+04  0.50400001928E-02 0. -1.
</event>
<event>
 5   0  0.8056723E-06  0.2510532E+04  0.7818609E-02  0.8399243E-01
        2   -1    0    0  501    0  0.00000000000E+00  0.00000000000E+00  0.99897556113E+03  0.99897556113E+03  0.25500000920E-02 0. -1.
       -2   -1    0    0    0  501  0.00000000000E+00  0.00000000000E+00 -0.15773081602E+04  0.15773081602E+04  0.25500000920E-02 0.  1.
    10030    2    1    2    0    0  0.00000000000E+00  0.00000000000E+00 -0.57833259906E+03  0.25762837213E+04  0.25105316603E+04 0.  0.
        2    1    3    3  502    0  0.53906890308E+03  0.95452472792E+03 -0.91672148619E+03  0.14290175022E+04  0.25500000920E-02 0.  1.
       -2    1    3    3    0  502 -0.53906890308E+03 -0.95452472792E+03  0.33838888713E+03  0.11472662191E+04  0.25500000920E-02 0. -1.
</event>
<event>
 5   0  0.3481387E-06  0.2499252E+04  0.7818609E-02  0.8403252E-01
        1   -1    0    0  501    0  0.00000000000E+00  0.00000000000E+00  0.17995988768E+04  0.17995988768E+04  0.50400001928E-02 0. -1.
       -1   -1    0    0    0  501  0.00000000000E+00  0.00000000000E+00 -0.86772932252E+03  0.86772932253E+03  0.50400001928E-02 0.  1.
    10030    2    1    2    0    0  0.00000000000E+00  0.00000000000E+00  0.93186955428E+03  0.26673281993E+04  0.24992516594E+04 0.  0.
        4    1    3    3  502    0  0.51576384241E+03  0.96217991500E+03 -0.18303842931E+03  0.11069359555E+04  0.12699999809E+01 0.  1.
       -4    1    3    3    0  502 -0.51576384241E+03 -0.96217991500E+03  0.11149079836E+04  0.15603922439E+04  0.12699999809E+01 0. -1.
</event>
<event>
 5   0  0.3481387E-06  0.2508471E+04  0.7818609E-02  0.8399974E-01
       -1   -1    0    0    0  501  0.00000000000E+00  0.00000000000E+00  0.10225158609E+04  0.10225158609E+04  0.50400001928E-02 0. -1.
        1   -1    0    0  501    0  0.00000000000E+00  0.00000000000E+00 -0.15384670627E+04  0.15384670627E+04  0.50400001928E-02 0.  1.
    10030    2    1    2    0    0  0.00000000000E+00  0.00000000000E+00 -0.51595120178E+03  0.25609829236E+04  0.25084712262E+04 0.  0.
        4    1    3    3  502    0  0.30044401938E+03 -0.69204389066E+03  0.76495416292E+03  0.10744058077E+04  0.12699999809E+01 0. -1.
       -4    1    3    3    0  502 -0.30044401938E+03  0.69204389066E+03 -0.12809053647E+04  0.14865771159E+04  0.12699999809E+01 0.  1.
</event>
<event>
 5   0  0.3424193E-06  0.2505261E+04  0.7818609E-02  0.8401114E-01
       -1   -1    0    0    0  501  0.00000000000E+00  0.00000000000E+00  0.10554357757E+04  0.10554357757E+04  0.50400001928E-02 0.  1.
        1   -1    0    0  501    0  0.00000000000E+00  0.00000000000E+00 -0.14866683536E+04  0.14866683536E+04  0.50400001928E-02 0. -1.
    10030    2    1    2    0    0  0.00000000000E+00  0.00000000000E+00 -0.43123257792E+03  0.25421041293E+04  0.25052608383E+04 0.  0.
        1    1    3    3  502    0  0.77765111768E+03  0.73100813592E+03 -0.88097962136E+03  0.13839216918E+04  0.50400001928E-02 0. -1.
       -1    1    3    3    0  502 -0.77765111768E+03 -0.73100813592E+03  0.44974704345E+03  0.11581824376E+04  0.50400001928E-02 0.  1.
</event>
<event>
 5   0  0.3522870E-06  0.2502504E+04  0.7818609E-02  0.8402094E-01
        1   -1    0    0  501    0  0.00000000000E+00  0.00000000000E+00  0.15145136789E+04  0.15145136789E+04  0.50400001928E-02 0. -1.
       -1   -1    0    0    0  501  0.00000000000E+00  0.00000000000E+00 -0.10337518044E+04  0.10337518044E+04  0.50400001928E-02 0.  1.
    10030    2    1    2    0    0  0.00000000000E+00  0.00000000000E+00  0.48076187448E+03  0.25482654833E+04  0.25025037449E+04 0.  0.
        2    1    3    3  502    0 -0.56822191315E+03 -0.10220182927E+03  0.13707750915E+04  0.14873956124E+04  0.25500000920E-02 0. -1.
       -2    1    3    3    0  502  0.56822191315E+03  0.10220182927E+03 -0.89001321699E+03  0.10608698709E+04  0.25500000920E-02 0.  1.
</event>
<event>
 5   0  0.3522870E-06  0.2507396E+04  0.7818609E-02  0.8400355E-01
       -1   -1    0    0    0  501  0.00000000000E+00  0.00000000000E+00  0.70052550394E+03  0.70052550395E+03  0.50400001928E-02 0.  1.
        1   -1    0    0  501    0  0.00000000000E+00  0.00000000000E+00 -0.22436859216E+04  0.22436859216E+04  0.50400001928E-02 0. -1.
    10030    2    1    2    0    0  0.00000000000E+00  0.00000000000E+00 -0.15431604176E+04  0.29442114255E+04  0.25073964273E+04 0.  0.
        2    1    3    3  502    0 -0.45980352580E+03 -0.64323321227E+03  0.37084339628E+03  0.87332300570E+03  0.25500000920E-02 0.  1.
       -2    1    3    3    0  502  0.45980352580E+03  0.64323321227E+03 -0.19140038139E+04  0.20708884198E+04  0.25500000920E-02 0. -1.
</event>
<event>
 5   0  0.8354653E-06  0.2491743E+04  0.7818609E-02  0.8405933E-01
       -2   -1    0    0    0  501  0.00000000000E+00  0.00000000000E+00  0.10599708387E+04  0.10599708387E+04  0.25500000920E-02 0.  1.
        2   -1    0    0  501    0  0.00000000000E+00  0.00000000000E+00 -0.14643757365E+04  0.14643757365E+04  0.25500000920E-02 0. -1.
    10030    2    1    2    0    0  0.00000000000E+00  0.00000000000E+00 -0.40440489775E+03  0.25243465752E+04  0.24917428259E+04 0.  0.
        3    1    3    3  502    0 -0.99534911815E+03 -0.73250320276E+03 -0.42293008621E+02  0.12365555054E+04  0.10100000352E+00 0.  1.
       -3    1    3    3    0  502  0.99534911815E+03  0.73250320276E+03 -0.36211188913E+03  0.12877910698E+04  0.10100000352E+00 0. -1.
</event>
<event>
 5   0  0.8579923E-06  0.2517503E+04  0.7818609E-02  0.8396776E-01
       -2   -1    0    0    0  501  0.00000000000E+00  0.00000000000E+00  0.10156632019E+04  0.10156632019E+04  0.25500000920E-02 0. -1.
        2   -1    0    0  501    0  0.00000000000E+00  0.00000000000E+00 -0.15600208675E+04  0.15600208675E+04  0.25500000920E-02 0.  1.
    10030    2    1    2    0    0  0.00000000000E+00  0.00000000000E+00 -0.54435766563E+03  0.25756840694E+04  0.25175033579E+04 0.  0.
        1    1    3    3  502    0 -0.10475561015E+01  0.12527000839E+04 -0.14605295406E+03  0.12611859748E+04  0.50400001928E-02 0.  1.
       -1    1    3    3    0  502  0.10475561015E+01 -0.12527000839E+04 -0.39830471157E+03  0.13144980946E+04  0.50400001928E-02 0. -1.
</event>
<event>
 5   0  0.8354653E-06  0.2504268E+04  0.7818609E-02  0.8401467E-01
       -2   -1    0    0    0  501  0.00000000000E+00  0.00000000000E+00  0.10139156430E+04  0.10139156430E+04  0.25500000920E-02 0. -1.
        2   -1    0    0  501    0  0.00000000000E+00  0.00000000000E+00 -0.15463210126E+04  0.15463210126E+04  0.25500000920E-02 0.  1.
    10030    2    1    2    0    0  0.00000000000E+00  0.00000000000E+00 -0.53240536956E+03  0.25602366557E+04  0.25042676086E+04 0.  0.
        3    1    3    3  502    0 -0.73036909483E+03 -0.11596891627E+03 -0.12992063858E+04  0.14949331247E+04  0.10100000352E+00 0.  1.
       -3    1    3    3    0  502  0.73036909483E+03  0.11596891627E+03  0.76680101628E+03  0.10653035309E+04  0.10100000352E+00 0. -1.
</event>
<event>
 5   0  0.3424193E-06  0.2507028E+04  0.7818609E-02  0.8400486E-01
       -1   -1    0    0    0  501  0.00000000000E+00  0.00000000000E+00  0.76386227232E+03  0.76386227233E+03  0.50400001928E-02 0.  1.
        1   -1    0    0  501    0  0.00000000000E+00  0.00000000000E+00 -0.20570428217E+04  0.20570428218E+04  0.50400001928E-02 0. -1.
    10030    2    1    2    0    0  0.00000000000E+00  0.00000000000E+00 -0.12931805494E+04  0.28209050941E+04  0.25070280446E+04 0.  0.
        1    1    3    3  502    0  0.56346991971E+03 -0.65626477528E+03  0.37425447341E+03  0.94246921254E+03  0.50400001928E-02 0.  1.
       -1    1    3    3    0  502 -0.56346991971E+03  0.65626477528E+03 -0.16674350228E+04  0.18784358816E+04  0.50400001928E-02 0. -1.
</event>
<event>
 5   0  0.8056723E-06  0.2505374E+04  0.7818609E-02  0.8401074E-01
       -2   -1    0    0    0  501  0.00000000000E+00  0.00000000000E+00  0.10306739859E+04  0.10306739859E+04  0.25500000920E-02 0.  1.
        2   -1    0    0  501    0  0.00000000000E+00  0.00000000000E+00 -0.15225227355E+04  0.15225227355E+04  0.25500000920E-02 0. -1.
    10030    2    1    2    0    0  0.00000000000E+00  0.00000000000E+00 -0.49184874957E+03  0.25531967214E+04  0.25053738854E+04 0.  0.
        2    1    3    3  502    0 -0.11414508408E+04 -0.45883609923E+03 -0.48661906713E+03  0.13229658742E+04  0.25500000920E-02 0. -1.
       -2    1    3    3    0  502  0.11414508408E+04  0.45883609923E+03 -0.52296824342E+01  0.12302308472E+04  0.25500000920E-02 0.  1.
</event>
<event>
 5   0  0.8056723E-06  0.2497550E+04  0.7818609E-02  0.8403859E-01
        2   -1    0    0  501    0  0.00000000000E+00  0.00000000000E+00  0.16559848221E+04  0.16559848221E+04  0.25500000920E-02 0. -1.
       -2   -1    0    0    0  501  0.00000000000E+00  0.00000000000E+00 -0.94169872607E+03  0.94169872607E+03  0.25500000920E-02 0.  1.
    10030    2    1    2    0    0  0.00000000000E+00  0.00000000000E+00  0.71428609605E+03  0.25976835482E+04  0.24975498373E+04 0.  0.
        2    1    3    3  502    0  0.93944550831E+03  0.82073536918E+03  0.41665951687E+03  0.13152070416E+04  0.25500000920E-02 0.  1.
       -2    1    3    3    0  502 -0.93944550831E+03 -0.82073536918E+03  0.29762657918E+03  0.12824765066E+04  0.25500000920E-02 0. -1.
</event>
<event>
 5   0  0.3424193E-06  0.2501694E+04  0.7818609E-02  0.8402382E-01
       -1   -1    0    0    0  501  0.00000000000E+00  0.00000000000E+00  0.13023821828E+04  0.13023821828E+04  0.50400001928E-02 0.  1.
        1   -1    0    0  501    0  0.00000000000E+00  0.00000000000E+00 -0.12013508763E+04  0.12013508763E+04  0.50400001928E-02 0. -1.
    10030    2    1    2    0    0  0.00000000000E+00  0.00000000000E+00  0.10103130649E+03  0.25037330591E+04  0.25016938075E+04 0.  0.
        1    1    3    3  502    0  0.12256770613E+04  0.91687513450E+02  0.28292707937E+03  0.12612448576E+04  0.50400001928E-02 0.  1.
       -1    1    3    3    0  502 -0.12256770613E+04 -0.91687513450E+02 -0.18189577288E+03  0.12424882015E+04  0.50400001928E-02 0. -1.
</event>
<event>
 5   0  0.3481387E-06  0.2475513E+04  0.7818609E-02  0.8411761E-01
        1   -1    0    0  501    0  0.00000000000E+00  0.00000000000E+00  0.24859598732E+04  0.24859598732E+04  0.50400001928E-02 0.  1.
       -1   -1    0    0    0  501  0.00000000000E+00  0.00000000000E+00 -0.61627763773E+03  0.61627763775E+03  0.50400001928E-02 0. -1.
    10030    2    1    2    0    0  0.00000000000E+00  0.00000000000E+00  0.18696822355E+04  0.31022375110E+04  0.24755132625E+04 0.  0.
        4    1    3    3  502    0  0.41543218226E+02  0.26327578473E+03  0.24495699032E+04  0.24640280642E+04  0.12699999809E+01 0.  1.
       -4    1    3    3    0  502 -0.41543218226E+02 -0.26327578473E+03 -0.57988766773E+03  0.63820944673E+03  0.12699999809E+01 0. -1.
</event>
<event>
 5   0  0.3642184E-06  0.2497264E+04  0.7818609E-02  0.8403961E-01
       -1   -1    0    0    0  501  0.00000000000E+00  0.00000000000E+00  0.88936786151E+03  0.88936786152E+03  0.50400001928E-02 0. -1.
        1   -1    0    0  501    0  0.00000000000E+00  0.00000000000E+00 -0.17530224942E+04  0.17530224942E+04  0.50400001928E-02 0.  1.
    10030    2    1    2    0    0  0.00000000000E+00  0.00000000000E+00 -0.86365463265E+03  0.26423903557E+04  0.24972639963E+04 0.  0.
        5    1    3    3  502    0 -0.25729371208E+03  0.92618939983E+03  0.41137276334E+03  0.10455986319E+04  0.46999998093E+01 0. -1.
       -5    1    3    3    0  502  0.25729371208E+03 -0.92618939983E+03 -0.12750273960E+04  0.15967917238E+04  0.46999998093E+01 0.  1.
</event>
<event>
 5   0  0.8948286E-06  0.2440343E+04  0.7818609E-02  0.8424552E-01
       -2   -1    0    0    0  501  0.00000000000E+00  0.00000000000E+00  0.65118899653E+03  0.65118899653E+03  0.25500000920E-02 0. -1.
        2   -1    0    0  501    0  0.00000000000E+00  0.00000000000E+00 -0.22863084218E+04  0.22863084218E+04  0.25500000920E-02 0.  1.
    10030    2    1    2    0    0  0.00000000000E+00  0.00000000000E+00 -0.16351194253E+04  0.29374974184E+04  0.24403433258E+04 0.  0.
        4    1    3    3  502    0 -0.64918639024E+03 -0.25695770440E+03  0.38697375976E+03  0.79826094404E+03  0.12699999809E+01 0. -1.
       -4    1    3    3    0  502  0.64918639024E+03  0.25695770440E+03 -0.20220931851E+04  0.21392364743E+04  0.12699999809E+01 0.  1.
</event>
<event>
 5   0  0.3642184E-06  0.2504597E+04  0.7818609E-02  0.8401350E-01
        1   -1    0    0  501    0  0.00000000000E+00  0.00000000000E+00  0.56523831547E+03  0.56523831549E+03  0.50400001928E-02 0. -1.
       -1   -1    0    0    0  501  0.00000000000E+00  0.00000000000E+00 -0.27744967515E+04  0.27744967515E+04  0.50400001928E-02 0.  1.
    10030    2    1    2    0    0  0.00000000000E+00  0.00000000000E+00 -0.22092584360E+04  0.33397350670E+04  0.25045972691E+04 0.  0.
        5    1    3    3  502    0 -0.10902802608E+04  0.61079826718E+03 -0.99758605129E+03  0.15990577194E+04  0.46999998093E+01 0. -1.
       -5    1    3    3    0  502  0.10902802608E+04 -0.61079826718E+03 -0.12116723847E+04  0.17406773475E+04  0.46999998093E+01 0.  1.
</event>
<event>
 5   0  0.8579923E-06  0.2475764E+04  0.7818609E-02  0.8411671E-01
        2   -1    0    0  501    0  0.00000000000E+00  0.00000000000E+00  0.11221973569E+04  0.11221973569E+04  0.25500000920E-02 0. -1.
       -2   -1    0    0    0  501  0.00000000000E+00  0.00000000000E+00 -0.13654922644E+04  0.13654922644E+04  0.25500000920E-02 0.  1.
    10030    2    1    2    0    0  0.00000000000E+00  0.00000000000E+00 -0.24329490744E+03  0.24876896213E+04  0.24757639709E+04 0.  0.
        1    1    3    3  502    0 -0.11013488540E+04  0.26369634039E+03 -0.62390192258E+03  0.12929650680E+04  0.50400001928E-02 0. -1.
       -1    1    3    3    0  502  0.11013488540E+04 -0.26369634039E+03  0.38060701514E+03  0.11947245532E+04  0.50400001928E-02 0.  1.
</event>
<event>
 5   0  0.3642184E-06  0.2502686E+04  0.7818609E-02  0.8402029E-01
       -1   -1    0    0    0  501  0.00000000000E+00  0.00000000000E+00  0.18949941254E+04  0.18949941254E+04  0.50400001928E-02 0. -1.
        1   -1    0    0  501    0  0.00000000000E+00  0.00000000000E+00 -0.82631334285E+03  0.82631334287E+03  0.50400001928E-02 0.  1.
    10030    2    1    2    0    0  0.00000000000E+00  0.00000000000E+00  0.10686807825E+04  0.27213074683E+04  0.25026857018E+04 0.  0.
        5    1    3    3  502    0 -0.88300261974E+03 -0.40365342445E+03 -0.32405525592E+03  0.10235544013E+04  0.46999998093E+01 0.  1.
       -5    1    3    3    0  502  0.88300261974E+03  0.40365342445E+03  0.13927360384E+04  0.16977530669E+04  0.46999998093E+01 0. -1.
</event>
<event>
 5   0  0.3484857E-06  0.2497704E+04  0.7818609E-02  0.8403804E-01
       -1   -1    0    0    0  501  0.00000000000E+00  0.00000000000E+00  0.12932102461E+04  0.12932102461E+04  0.50400001928E-02 0. -1.
        1   -1    0    0  501    0  0.00000000000E+00  0.00000000000E+00 -0.12060155833E+04  0.12060155833E+04  0.50400001928E-02 0.  1.
    10030    2    1    2    0    0  0.00000000000E+00  0.00000000000E+00  0.87194662806E+02  0.24992258295E+04  0.24977043135E+04 0.  0.
        3    1    3    3  502    0  0.78728809807E+03  0.93692660857E+03 -0.20550749062E+03  0.12409219791E+04  0.10100000352E+00 0.  1.
       -3    1    3    3    0  502 -0.78728809807E+03 -0.93692660857E+03  0.29270215343E+03  0.12583038504E+04  0.10100000352E+00 0. -1.
</event>
<event>
 5   0  0.3484857E-06  0.2513579E+04  0.7818609E-02  0.8398164E-01
       -1   -1    0    0    0  501  0.00000000000E+00  0.00000000000E+00  0.81986311179E+03  0.81986311180E+03  0.50400001928E-02 0.  1.
        1   -1    0    0  501    0  0.00000000000E+00  0.00000000000E+00 -0.19265658493E+04  0.19265658493E+04  0.50400001928E-02 0. -1.
    10030    2    1    2    0    0  0.00000000000E+00  0.00000000000E+00 -0.11067027375E+04  0.27464289611E+04  0.25135793382E+04 0.  0.
        3    1    3    3  502    0 -0.11059289992E+03  0.10107239994E+03  0.81007088043E+03  0.82380899550E+03  0.10100000352E+00 0.  1.
       -3    1    3    3    0  502  0.11059289992E+03 -0.10107239994E+03 -0.19167736179E+04  0.19226199656E+04  0.10100000352E+00 0. -1.
</event>
<event>
 5   0  0.3642184E-06  0.2470955E+04  0.7818609E-02  0.8413407E-01
       -1   -1    0    0    0  501  0.00000000000E+00  0.00000000000E+00  0.92948847529E+03  0.92948847530E+03  0.50400001928E-02 0.  1.
        1   -1    0    0  501    0  0.00000000000E+00  0.00000000000E+00 -0.16421984338E+04  0.16421984338E+04  0.50400001928E-02 0. -1.
    10030    2    1    2    0    0  0.00000000000E+00  0.00000000000E+00 -0.71270995855E+03  0.25716869091E+04  0.24709548911E+04 0.  0.
        5    1    3    3  502    0  0.92956014280E+03 -0.78569325806E+03 -0.13560826276E+03  0.12246663406E+04  0.46999998093E+01 0.  1.
       -5    1    3    3    0  502 -0.92956014280E+03  0.78569325806E+03 -0.57710169579E+03  0.13470205686E+04  0.46999998093E+01 0. -1.
</event>
<event>
 5   0  0.8948286E-06  0.2497432E+04  0.7818609E-02  0.8403901E-01
        2   -1    0    0  501    0  0.00000000000E+00  0.00000000000E+00  0.18403101632E+04  0.18403101632E+04  0.25500000920E-02 0. -1.
       -2   -1    0    0    0  501  0.00000000000E+00  0.00000000000E+00 -0.84729859223E+03  0.84729859224E+03  0.25500000920E-02 0.  1.
    10030    2    1    2    0    0  0.00000000000E+00  0.00000000000E+00  0.99301157097E+03  0.26876087554E+04  0.24974324500E+04 0.  0.
        4    1    3    3  502    0 -0.53725489706E+02 -0.12036903909E+04  0.14361167173E+03  0.12134178631E+04  0.12699999809E+01 0.  1.
       -4    1    3    3    0  502  0.53725489706E+02  0.12036903909E+04  0.84939989924E+03  0.14741908923E+04  0.12699999809E+01 0. -1.
</event>
<event>
 5   0  0.8354653E-06  0.2488785E+04  0.7818609E-02  0.8406992E-01
        2   -1    0    0  501    0  0.00000000000E+00  0.00000000000E+00  0.14429003217E+04  0.14429003217E+04  0.25500000920E-02 0.  1.
       -2   -1    0    0    0  501  0.00000000000E+00  0.00000000000E+00 -0.10731948695E+04  0.10731948695E+04  0.25500000920E-02 0. -1.
    10030    2    1    2    0    0  0.00000000000E+00  0.00000000000E+00  0.36970545215E+03  0.25160951912E+04  0.24887854247E+04 0.  0.
        3    1    3    3  502    0 -0.74269633485E+03  0.23242649536E+03 -0.79682940471E+03  0.11138029592E+04  0.10100000352E+00 0. -1.
       -3    1    3    3    0  502  0.74269633485E+03 -0.23242649536E+03  0.11665348569E+04  0.14022922320E+04  0.10100000352E+00 0.  1.
</event>
<event>
 5   0  0.8056723E-06  0.2507230E+04  0.7818609E-02  0.8400414E-01
       -2   -1    0    0    0  501  0.00000000000E+00  0.00000000000E+00  0.10306206648E+04  0.10306206648E+04  0.25500000920E-02 0.  1.
        2   -1    0    0  501    0  0.00000000000E+00  0.00000000000E+00 -0.15248585528E+04  0.15248585528E+04  0.25500000920E-02 0. -1.
    10030    2    1    2    0    0  0.00000000000E+00  0.00000000000E+00 -0.49423788805E+03  0.25554792176E+04  0.25072301334E+04 0.  0.
        2    1    3    3  502    0 -0.36625066600E+03  0.77318686681E+03 -0.11810452855E+04  0.14583639627E+04  0.25500000920E-02 0. -1.
       -2    1    3    3    0  502  0.36625066600E+03 -0.77318686681E+03  0.68680739746E+03  0.10971152549E+04  0.25500000920E-02 0.  1.
</event>
<event>
 5   0  0.8579923E-06  0.2560051E+04  0.7818609E-02  0.8381899E-01
       -2   -1    0    0    0  501  0.00000000000E+00  0.00000000000E+00  0.81525356544E+03  0.81525356544E+03  0.25500000920E-02 0. -1.
        2   -1    0    0  501    0  0.00000000000E+00  0.00000000000E+00 -0.20097609544E+04  0.20097609544E+04  0.25500000920E-02 0.  1.
    10030    2    1    2    0    0  0.00000000000E+00  0.00000000000E+00 -0.11945073890E+04  0.28250145198E+04  0.25600506118E+04 0.  0.
        1    1    3    3  502    0  0.79397983104E+03  0.99333374663E+03 -0.75848882566E+03  0.14806826814E+04  0.50400001928E-02 0. -1.
       -1    1    3    3    0  502 -0.79397983104E+03 -0.99333374663E+03 -0.43601856330E+03  0.13443318384E+04  0.50400001928E-02 0.  1.
</event>
<event>
 5   0  0.8407986E-06  0.2507836E+04  0.7818609E-02  0.8400199E-01
        2   -1    0    0  501    0  0.00000000000E+00  0.00000000000E+00  0.11886350756E+04  0.11886350756E+04  0.25500000920E-02 0.  1.
       -2   -1    0    0    0  501  0.00000000000E+00  0.00000000000E+00 -0.13227861454E+04  0.13227861454E+04  0.25500000920E-02 0. -1.
    10030    2    1    2    0    0  0.00000000000E+00  0.00000000000E+00 -0.13415106976E+03  0.25114212210E+04  0.25078357282E+04 0.  0.
        5    1    3    3  502    0 -0.92920029684E+01  0.10922745838E+04 -0.68369754713E+03  0.12886483359E+04  0.46999998093E+01 0. -1.
       -5    1    3    3    0  502  0.92920029684E+01 -0.10922745838E+04  0.54954647737E+03  0.12227728851E+04  0.46999998093E+01 0.  1.
</event>
<event>
 5   0  0.8354653E-06  0.2497978E+04  0.7818609E-02  0.8403706E-01
       -2   -1    0    0    0  501  0.00000000000E+00  0.00000000000E+00  0.10310716190E+04  0.10310716190E+04  0.25500000920E-02 0. -1.
        2   -1    0    0  501    0  0.00000000000E+00  0.00000000000E+00 -0.15129630759E+04  0.15129630759E+04  0.25500000920E-02 0.  1.
    10030    2    1    2    0    0  0.00000000000E+00  0.00000000000E+00 -0.48189145686E+03  0.25440346949E+04  0.24979778127E+04 0.  0.
        3    1    3    3  502    0 -0.22900208059E+03 -0.75630872276E+02 -0.14890249028E+04  0.15084287033E+04  0.10100000352E+00 0.  1.
       -3    1    3    3    0  502  0.22900208059E+03  0.75630872276E+02  0.10071334459E+04  0.10356059916E+04  0.10100000352E+00 0. -1.
</event>
<event>
 5   0  0.3424193E-06  0.2519201E+04  0.7818609E-02  0.8396177E-01
        1   -1    0    0  501    0  0.00000000000E+00  0.00000000000E+00  0.16315589642E+04  0.16315589642E+04  0.50400001928E-02 0.  1.
       -1   -1    0    0    0  501  0.00000000000E+00  0.00000000000E+00 -0.97244038398E+03  0.97244038400E+03  0.50400001928E-02 0. -1.
    10030    2    1    2    0    0  0.00000000000E+00  0.00000000000E+00  0.65911858018E+03  0.26039993482E+04  0.25192013223E+04 0.  0.
        1    1    3    3  502    0 -0.90374621102E+03 -0.71504195337E+03  0.85515477326E+03  0.14350372453E+04  0.50400001928E-02 0.  1.
       -1    1    3    3    0  502  0.90374621102E+03  0.71504195337E+03 -0.19603619309E+03  0.11689621029E+04  0.50400001928E-02 0. -1.
</event>
<event>
 5   0  0.3484857E-06  0.2500835E+04  0.7818609E-02  0.8402688E-01
       -1   -1    0    0    0  501  0.00000000000E+00  0.00000000000E+00  0.88600954193E+03  0.88600954194E+03  0.50400001928E-02 0.  1.
        1   -1    0    0  501    0  0.00000000000E+00  0.00000000000E+00 -0.17647033007E+04  0.17647033007E+04  0.50400001928E-02 0. -1.
    10030    2    1    2    0    0  0.00000000000E+00  0.00000000000E+00 -0.87869375873E+03  0.26507128426E+04  0.25008350310E+04 0.  0.
        3    1    3    3  502    0 -0.90147835919E+03  0.73240553689E+03 -0.93020239439E+03  0.14880717749E+04  0.10100000352E+00 0.  1.
       -3    1    3    3    0  502  0.90147835919E+03 -0.73240553689E+03  0.51508635663E+02  0.11626410677E+04  0.10100000352E+00 0. -1.
</event>
<event>
 5   0  0.3642184E-06  0.2498560E+04  0.7818609E-02  0.8403499E-01
        1   -1    0    0  501    0  0.00000000000E+00  0.00000000000E+00  0.92999420310E+03  0.92999420311E+03  0.50400001928E-02 0. -1.
       -1   -1    0    0    0  501  0.00000000000E+00  0.00000000000E+00 -0.16781826549E+04  0.16781826550E+04  0.50400001928E-02 0.  1.
    10030    2    1    2    0    0  0.00000000000E+00  0.00000000000E+00 -0.74818845185E+03  0.26081768581E+04  0.24985596978E+04 0.  0.
        5    1    3    3  502    0  0.79009663455E+03 -0.29826115605E+03  0.58687251429E+03  0.10284229904E+04  0.46999998093E+01 0. -1.
       -5    1    3    3    0  502 -0.79009663455E+03  0.29826115605E+03 -0.13350609661E+04  0.15797538677E+04  0.46999998093E+01 0.  1.
</event>
<event>
 5   0  0.3484857E-06  0.2467718E+04  0.7818609E-02  0.8414577E-01
       -1   -1    0    0    0  501  0.00000000000E+00  0.00000000000E+00  0.14562856903E+04  0.14562856903E+04  0.50400001928E-02 0. -1.
        1   -1    0    0  501    0  0.00000000000E+00  0.00000000000E+00 -0.10454049320E+04  0.10454049321E+04  0.50400001928E-02 0.  1.
    10030    2    1    2    0    0  0.00000000000E+00  0.00000000000E+00  0.41088075824E+03  0.25016906224E+04  0.24677181712E+04 0.  0.
        3    1    3    3  502    0  0.15144879599E+03  0.75005245702E+03  0.11866978896E+04  0.14120082569E+04  0.10100000352E+00 0. -1.
       -3    1    3    3    0  502 -0.15144879599E+03 -0.75005245702E+03 -0.77581713137E+03  0.10896823655E+04  0.10100000352E+00 0.  1.
</event>
<event>
 5   0  0.8056723E-06  0.2487396E+04  0.7818609E-02  0.8407489E-01
        2   -1    0    0  501    0  0.00000000000E+00  0.00000000000E+00  0.10218694141E+04  0.10218694141E+04  0.25500000920E-02 0. -1.
       -2   -1    0    0    0  501  0.00000000000E+00  0.00000000000E+00 -0.15136818436E+04  0.15136818436E+04  0.25500000920E-02 0.  1.
    10030    2    1    2    0    0  0.00000000000E+00  0.00000000000E+00 -0.49181242955E+03  0.25355512577E+04  0.24873963727E+04 0.  0.
        2    1    3    3  502    0 -0.79848102806E+03 -0.68553932175E+03  0.42968317548E+03  0.11367338058E+04  0.25500000920E-02 0. -1.
       -2    1    3    3    0  502  0.79848102806E+03  0.68553932175E+03 -0.92149560503E+03  0.13988174520E+04  0.25500000920E-02 0.  1.
</event>
<event>
 5   0  0.8354653E-06  0.2496971E+04  0.7818609E-02  0.8404065E-01
        2   -1    0    0  501    0  0.00000000000E+00  0.00000000000E+00  0.10841334847E+04  0.10841334847E+04  0.25500000920E-02 0. -1.
       -2   -1    0    0    0  501  0.00000000000E+00  0.00000000000E+00 -0.14377528675E+04  0.14377528675E+04  0.25500000920E-02 0.  1.
    10030    2    1    2    0    0  0.00000000000E+00  0.00000000000E+00 -0.35361938280E+03  0.25218863521E+04  0.24969709860E+04 0.  0.
        3    1    3    3  502    0  0.67997445416E+03  0.12544574900E+03 -0.12267082385E+04  0.14081601495E+04  0.10100000352E+00 0.  1.
       -3    1    3    3    0  502 -0.67997445416E+03 -0.12544574900E+03  0.87308885565E+03  0.11137262026E+04  0.10100000352E+00 0. -1.
</event>
<event>
 5   0  0.3484857E-06  0.2500883E+04  0.7818609E-02  0.8402671E-01
        1   -1    0    0  501    0  0.00000000000E+00  0.00000000000E+00  0.19275384257E+04  0.19275384257E+04  0.50400001928E-02 0.  1.
       -1   -1    0    0    0  501  0.00000000000E+00  0.00000000000E+00 -0.81119225218E+03  0.81119225220E+03  0.50400001928E-02 0. -1.
    10030    2    1    2    0    0  0.00000000000E+00  0.00000000000E+00  0.11163461735E+04  0.27387306779E+04  0.25008832334E+04 0.  0.
        3    1    3    3  502    0  0.10121085590E+04  0.73391270564E+03  0.58527847924E+03  0.13804138883E+04  0.10100000352E+00 0.  1.
       -3    1    3    3    0  502 -0.10121085590E+04 -0.73391270564E+03  0.53106769425E+03  0.13583167895E+04  0.10100000352E+00 0. -1.
</event>
<event>
 5   0  0.3522870E-06  0.2489554E+04  0.7818609E-02  0.8406716E-01
       -1   -1    0    0    0  501  0.00000000000E+00  0.00000000000E+00  0.73639646160E+03  0.73639646162E+03  0.50400001928E-02 0.  1.
        1   -1    0    0  501    0  0.00000000000E+00  0.00000000000E+00 -0.21041242482E+04  0.21041242482E+04  0.50400001928E-02 0. -1.
    10030    2    1    2    0    0  0.00000000000E+00  0.00000000000E+00 -0.13677277866E+04  0.28405207098E+04  0.24895538967E+04 0.  0.
        2    1    3    3  502    0  0.11835102378E+04  0.36719089308E+03 -0.81859577211E+03  0.14851345640E+04  0.25500000920E-02 0.  1.
       -2    1    3    3    0  502 -0.11835102378E+04 -0.36719089308E+03 -0.54913201449E+03  0.13553861458E+04  0.25500000920E-02 0. -1.
</event>
<event>
 5   0  0.8056723E-06  0.2500124E+04  0.7818609E-02  0.8402941E-01
       -2   -1    0    0    0  501  0.00000000000E+00  0.00000000000E+00  0.10253268468E+04  0.10253268468E+04  0.25500000920E-02 0. -1.
        2   -1    0    0  501    0  0.00000000000E+00  0.00000000000E+00 -0.15240557407E+04  0.15240557407E+04  0.25500000920E-02 0.  1.
    10030    2    1    2    0    0  0.00000000000E+00  0.00000000000E+00 -0.49872889397E+03  0.25493825875E+04  0.25001242105E+04 0.  0.
        2    1    3    3  502    0  0.69736428300E+03 -0.24523561065E+03  0.77856322797E+03  0.10736005532E+04  0.25500000920E-02 0. -1.
       -2    1    3    3    0  502 -0.69736428300E+03  0.24523561065E+03 -0.12772921219E+04  0.14757820343E+04  0.25500000920E-02 0.  1.
</event>
<event>
 5   0  0.3481387E-06  0.2501606E+04  0.7818609E-02  0.8402414E-01
        1   -1    0    0  501    0  0.00000000000E+00  0.00000000000E+00  0.12848641250E+04  0.12848641250E+04  0.50400001928E-02 0. -1.
       -1   -1    0    0    0  501  0.00000000000E+00  0.00000000000E+00 -0.12176448865E+04  0.12176448865E+04  0.50400001928E-02 0.  1.
    10030    2    1    2    0    0  0.00000000000E+00  0.00000000000E+00  0.67219238542E+02  0.25025090115E+04  0.25016060695E+04 0.  0.
        4    1    3    3  502    0  0.40199275636E+03 -0.55085759213E+03  0.10825415481E+04  0.12794295913E+04  0.12699999809E+01 0. -1.
       -4    1    3    3    0  502 -0.40199275636E+03  0.55085759213E+03 -0.10153223095E+04  0.12230794202E+04  0.12699999809E+01 0.  1.
</event>
<event>
 5   0  0.8579923E-06  0.2506494E+04  0.7818609E-02  0.8400676E-01
        2   -1    0    0  501    0  0.00000000000E+00  0.00000000000E+00  0.16119960146E+04  0.16119960146E+04  0.25500000920E-02 0.  1.
       -2   -1    0    0    0  501  0.00000000000E+00  0.00000000000E+00 -0.97433712452E+03  0.97433712452E+03  0.25500000920E-02 0. -1.
    10030    2    1    2    0    0  0.00000000000E+00  0.00000000000E+00  0.63765889007E+03  0.25863331391E+04  0.25064936159E+04 0.  0.
        1    1    3    3  502    0  0.92514727358E+03 -0.67833091390E+03  0.83947806336E+03  0.14215321753E+04  0.50400001928E-02 0.  1.
       -1    1    3    3    0  502 -0.92514727358E+03  0.67833091390E+03 -0.20181917329E+03  0.11648009638E+04  0.50400001928E-02 0. -1.
</event>
<event>
 5   0  0.3481387E-06  0.2504264E+04  0.7818609E-02  0.8401468E-01
       -1   -1    0    0    0  501  0.00000000000E+00  0.00000000000E+00  0.82509417975E+03  0.82509417977E+03  0.50400001928E-02 0.  1.
        1   -1    0    0  501    0  0.00000000000E+00  0.00000000000E+00 -0.19001890846E+04  0.19001890846E+04  0.50400001928E-02 0. -1.
    10030    2    1    2    0    0  0.00000000000E+00  0.00000000000E+00 -0.10750949048E+04  0.27252832644E+04  0.25042643264E+04 0.  0.
        4    1    3    3  502    0 -0.48438408473E+03 -0.76426051460E+03 -0.14794471261E+04  0.17342109121E+04  0.12699999809E+01 0. -1.
       -4    1    3    3    0  502  0.48438408473E+03  0.76426051460E+03  0.40435222127E+03  0.99107235229E+03  0.12699999809E+01 0.  1.
</event>
<event>
 5   0  0.3484857E-06  0.2511601E+04  0.7818609E-02  0.8398864E-01
        1   -1    0    0  501    0  0.00000000000E+00  0.00000000000E+00  0.74552508922E+03  0.74552508924E+03  0.50400001928E-02 0.  1.
       -1   -1    0    0    0  501  0.00000000000E+00  0.00000000000E+00 -0.21153337536E+04  0.21153337536E+04  0.50400001928E-02 0. -1.
    10030    2    1    2    0    0  0.00000000000E+00  0.00000000000E+00 -0.13698086644E+04  0.28608588429E+04  0.25116005936E+04 0.  0.
        3    1    3    3  502    0  0.26699397332E+03 -0.11261485465E+04 -0.12975165136E+03  0.11646166030E+04  0.10100000352E+00 0. -1.
       -3    1    3    3    0  502 -0.26699397332E+03  0.11261485465E+04 -0.12400570130E+04  0.16962422399E+04  0.10100000352E+00 0.  1.
</event>
<event>
 5   0  0.3522870E-06  0.2512327E+04  0.7818609E-02  0.8398607E-01
       -1   -1    0    0    0  501  0.00000000000E+00  0.00000000000E+00  0.95381061360E+03  0.95381061362E+03  0.50400001928E-02 0. -1.
        1   -1    0    0  501    0  0.00000000000E+00  0.00000000000E+00 -0.16543605358E+04  0.16543605358E+04  0.50400001928E-02 0.  1.
    10030    2    1    2    0    0  0.00000000000E+00  0.00000000000E+00 -0.70054992224E+03  0.26081711495E+04  0.25123269197E+04 0.  0.
        2    1    3    3  502    0 -0.76251996393E+03  0.53842635860E+02  0.68455289583E+03  0.10261327361E+04  0.25500000920E-02 0. -1.
       -2    1    3    3    0  502  0.76251996393E+03 -0.53842635860E+02 -0.13851028181E+04  0.15820384134E+04  0.25500000920E-02 0.  1.
</event>
<event>
 5   0  0.8579923E-06  0.2489038E+04  0.7818609E-02  0.8406901E-01
       -2   -1    0    0    0  501  0.00000000000E+00  0.00000000000E+00  0.12123725570E+04  0.12123725570E+04  0.25500000920E-02 0. -1.
        2   -1    0    0  501    0  0.00000000000E+00  0.00000000000E+00 -0.12775174058E+04  0.12775174058E+04  0.25500000920E-02 0.  1.
    10030    2    1    2    0    0  0.00000000000E+00  0.00000000000E+00 -0.65144848829E+02  0.24898899628E+04  0.24890376003E+04 0.  0.
        1    1    3    3  502    0 -0.12368967155E+04  0.12626386200E+03 -0.87097934465E+02  0.12463715730E+04  0.50400001928E-02 0.  1.
       -1    1    3    3    0  502  0.12368967155E+04 -0.12626386200E+03  0.21953085635E+02  0.12435183898E+04  0.50400001928E-02 0. -1.
</event>
<event>
 5   0  0.8407986E-06  0.2488920E+04  0.7818609E-02  0.8406943E-01
       -2   -1    0    0    0  501  0.00000000000E+00  0.00000000000E+00  0.73078116132E+03  0.73078116132E+03  0.25500000920E-02 0. -1.
        2   -1    0    0  501    0  0.00000000000E+00  0.00000000000E+00 -0.21192126546E+04  0.21192126546E+04  0.25500000920E-02 0.  1.
    10030    2    1    2    0    0  0.00000000000E+00  0.00000000000E+00 -0.13884314933E+04  0.28499938159E+04  0.24889199945E+04 0.  0.
        5    1    3    3  502    0 -0.69701886081E+03  0.10095521385E+04 -0.93339006730E+03  0.15415154622E+04  0.46999998093E+01 0.  1.
       -5    1    3    3    0  502  0.69701886081E+03 -0.10095521385E+04 -0.45504142596E+03  0.13084783536E+04  0.46999998093E+01 0. -1.
</event>
<event>
 5   0  0.3642184E-06  0.2480091E+04  0.7818609E-02  0.8410113E-01
       -1   -1    0    0    0  501  0.00000000000E+00  0.00000000000E+00  0.11772658946E+04  0.11772658946E+04  0.50400001928E-02 0. -1.
        1   -1    0    0  501    0  0.00000000000E+00  0.00000000000E+00 -0.13061726845E+04  0.13061726845E+04  0.50400001928E-02 0.  1.
    10030    2    1    2    0    0  0.00000000000E+00  0.00000000000E+00 -0.12890678991E+03  0.24834385791E+04  0.24800907676E+04 0.  0.
        5    1    3    3  502    0  0.45586789677E+03 -0.27918377610E+03  0.10559543547E+04  0.11835627611E+04  0.46999998093E+01 0. -1.
       -5    1    3    3    0  502 -0.45586789677E+03  0.27918377610E+03 -0.11848611446E+04  0.12998758180E+04  0.46999998093E+01 0.  1.
</event>
<event>
 5   0  0.8948286E-06  0.2490053E+04  0.7818609E-02  0.8406538E-01
       -2   -1    0    0    0  501  0.00000000000E+00  0.00000000000E+00  0.82663379458E+03  0.82663379459E+03  0.25500000920E-02 0. -1.
        2   -1    0    0  501    0  0.00000000000E+00  0.00000000000E+00 -0.18751848866E+04  0.18751848866E+04  0.25500000920E-02 0.  1.
    10030    2    1    2    0    0  0.00000000000E+00  0.00000000000E+00 -0.10485510921E+04  0.27018186812E+04  0.24900531708E+04 0.  0.
        4    1    3    3  502    0 -0.29802394837E+03  0.12064703161E+04 -0.44235153339E+03  0.13191153814E+04  0.12699999809E+01 0.  1.
       -4    1    3    3    0  502  0.29802394837E+03 -0.12064703161E+04 -0.60619955867E+03  0.13827032998E+04  0.12699999809E+01 0. -1.
</event>
<event>
 5   0  0.3424193E-06  0.2493605E+04  0.7818609E-02  0.8405267E-01
        1   -1    0    0  501    0  0.00000000000E+00  0.00000000000E+00  0.16521908674E+04  0.16521908674E+04  0.50400001928E-02 0.  1.
       -1   -1    0    0    0  501  0.00000000000E+00  0.00000000000E+00 -0.94088218485E+03  0.94088218486E+03  0.50400001928E-02 0. -1.
    10030    2    1    2    0    0  0.00000000000E+00  0.00000000000E+00  0.71130868259E+03  0.25930730523E+04  0.24936053843E+04 0.  0.
        1    1    3    3  502    0 -0.12198554885E+04 -0.19728794263E+03  0.52824776447E+03  0.13438808153E+04  0.50400001928E-02 0.  1.
       -1    1    3    3    0  502  0.12198554885E+04  0.19728794263E+03  0.18306091812E+03  0.12491922370E+04  0.50400001928E-02 0. -1.
</event>
<event>
 5   0  0.3642184E-06  0.2496549E+04  0.7818609E-02  0.8404216E-01
       -1   -1    0    0    0  501  0.00000000000E+00  0.00000000000E+00  0.16302864327E+04  0.16302864328E+04  0.50400001928E-02 0. -1.
        1   -1    0    0  501    0  0.00000000000E+00  0.00000000000E+00 -0.95577624505E+03  0.95577624506E+03  0.50400001928E-02 0.  1.
    10030    2    1    2    0    0  0.00000000000E+00  0.00000000000E+00  0.67451018769E+03  0.25860626778E+04  0.24965488540E+04 0.  0.
        5    1    3    3  502    0 -0.45677981978E+03 -0.76036331731E+03  0.12470205496E+04  0.15303210510E+04  0.46999998093E+01 0. -1.
       -5    1    3    3    0  502  0.45677981978E+03  0.76036331731E+03 -0.57251036191E+03  0.10557416268E+04  0.46999998093E+01 0.  1.
</event>
<event>
 5   0  0.3522870E-06  0.2500733E+04  0.7818609E-02  0.8402724E-01
        1   -1    0    0  501    0  0.00000000000E+00  0.00000000000E+00  0.16137067343E+04  0.16137067343E+04  0.50400001928E-02 0. -1.
       -1   -1    0    0    0  501  0.00000000000E+00  0.00000000000E+00 -0.96883567341E+03  0.96883567342E+03  0.50400001928E-02 0.  1.
    10030    2    1    2    0    0  0.00000000000E+00  0.00000000000E+00  0.64487106088E+03  0.25825424077E+04  0.25007332130E+04 0.  0.
        2    1    3    3  502    0 -0.10028737219E+04 -0.40561449616E+03  0.96995453161E+03  0.14529592613E+04  0.25500000920E-02 0. -1.
       -2    1    3    3    0  502  0.10028737219E+04  0.40561449616E+03 -0.32508347072E+03  0.11295831464E+04  0.25500000920E-02 0.  1.
</event>
<event>
 5   0  0.3522870E-06  0.2494242E+04  0.7818609E-02  0.8405040E-01
       -1   -1    0    0    0  501  0.00000000000E+00  0.00000000000E+00  0.13896232037E+04  0.13896232037E+04  0.50400001928E-02 0.  1.
        1   -1    0    0  501    0  0.00000000000E+00  0.00000000000E+00 -0.11192317038E+04  0.11192317038E+04  0.50400001928E-02 0. -1.
    10030    2    1    2    0    0  0.00000000000E+00  0.00000000000E+00  0.27039149995E+03  0.25088549075E+04  0.24942416450E+04 0.  0.
        2    1    3    3  502    0  0.26504928877E+03  0.10062753412E+04 -0.55619529736E+03  0.11799128767E+04  0.25500000920E-02 0. -1.
       -2    1    3    3    0  502 -0.26504928877E+03 -0.10062753412E+04  0.82658679731E+03  0.13289420308E+04  0.25500000920E-02 0.  1.
</event>
<event>
 5   0  0.3642184E-06  0.2522298E+04  0.7818609E-02  0.8395085E-01
        1   -1    0    0  501    0  0.00000000000E+00  0.00000000000E+00  0.66922672459E+03  0.66922672461E+03  0.50400001928E-02 0. -1.
       -1   -1    0    0    0  501  0.00000000000E+00  0.00000000000E+00 -0.23766186378E+04  0.23766186378E+04  0.50400001928E-02 0.  1.
    10030    2    1    2    0    0  0.00000000000E+00  0.00000000000E+00 -0.17073919132E+04  0.30458453624E+04  0.25222979258E+04 0.  0.
        5    1    3    3  502    0 -0.26768642269E+03 -0.11307511924E+03 -0.23356292531E+04  0.23536414556E+04  0.46999998093E+01 0.  1.
       -5    1    3    3    0  502  0.26768642269E+03  0.11307511924E+03  0.62823733986E+03  0.69220390686E+03  0.46999998093E+01 0. -1.
</event>
<event>
 5   0  0.3642184E-06  0.2474387E+04  0.7818609E-02  0.8412167E-01
        1   -1    0    0  501    0  0.00000000000E+00  0.00000000000E+00  0.98101499199E+03  0.98101499200E+03  0.50400001928E-02 0.  1.
       -1   -1    0    0    0  501  0.00000000000E+00  0.00000000000E+00 -0.15602697817E+04  0.15602697817E+04  0.50400001928E-02 0. -1.
    10030    2    1    2    0    0  0.00000000000E+00  0.00000000000E+00 -0.57925478967E+03  0.25412847737E+04  0.24743872352E+04 0.  0.
        5    1    3    3  502    0 -0.57823738418E+02 -0.45008315905E+03  0.89244933796E+03  0.10012024499E+04  0.46999998093E+01 0.  1.
       -5    1    3    3    0  502  0.57823738418E+02  0.45008315905E+03 -0.14717041276E+04  0.15400823238E+04  0.46999998093E+01 0. -1.
</event>
<event>
 5   0  0.3522870E-06  0.2507115E+04  0.7818609E-02  0.8400455E-01
        1   -1    0    0  501    0  0.00000000000E+00  0.00000000000E+00  0.13169004720E+04  0.13169004720E+04  0.50400001928E-02 0.  1.
       -1   -1    0    0    0  501  0.00000000000E+00  0.00000000000E+00 -0.11932610989E+04  0.11932610989E+04  0.50400001928E-02 0. -1.
    10030    2    1    2    0    0  0.00000000000E+00  0.00000000000E+00  0.12363937308E+03  0.25101615709E+04  0.25071147596E+04 0.  0.
        2    1    3    3  502    0  0.79629151179E+03 -0.96424187431E+03  0.14889399426E+03  0.12593696778E+04  0.25500000920E-02 0.  1.
       -2    1    3    3    0  502 -0.79629151179E+03  0.96424187431E+03 -0.25254621182E+02  0.12507918931E+04  0.25500000920E-02 0. -1.
</event>
<event>
 5   0  0.3522870E-06  0.2480426E+04  0.7818609E-02  0.8409992E-01
        1   -1    0    0  501    0  0.00000000000E+00  0.00000000000E+00  0.14075115520E+04  0.14075115520E+04  0.50400001928E-02 0.  1.
       -1   -1    0    0    0  501  0.00000000000E+00  0.00000000000E+00 -0.10927993526E+04  0.10927993526E+04  0.50400001928E-02 0. -1.
    10030    2    1    2    0    0  0.00000000000E+00  0.00000000000E+00  0.31471219938E+03  0.25003109046E+04  0.24804255383E+04 0.  0.
        2    1    3    3  502    0 -0.31421603931E+03 -0.10722148528E+04 -0.38524481235E+03  0.11818586952E+04  0.25500000920E-02 0. -1.
       -2    1    3    3    0  502  0.31421603931E+03  0.10722148528E+04  0.69995701172E+03  0.13184522093E+04  0.25500000920E-02 0.  1.
</event>
<event>
 5   0  0.2901250E-06  0.2510043E+04  0.7818609E-02  0.8399416E-01
        4   -1    0    0  501    0  0.00000000000E+00  0.00000000000E+00  0.14137652464E+04  0.14137658168E+04  0.12699999809E+01 0. -1.
       -4   -1    0    0    0  501  0.00000000000E+00  0.00000000000E+00 -0.11141014495E+04  0.11141021734E+04  0.12699999809E+01 0.  1.
    10030    2    1    2    0    0  0.00000000000E+00  0.00000000000E+00  0.29966379683E+03  0.25278679902E+04  0.25100434627E+04 0.  0.
        3    1    3    3  502    0  0.76788532489E+03 -0.93986968702E+03 -0.17193126415E+03  0.12257908755E+04  0.10100000352E+00 0.  1.
       -3    1    3    3    0  502 -0.76788532489E+03  0.93986968702E+03  0.47159506098E+03  0.13020771147E+04  0.10100000352E+00 0. -1.
</event>
<event>
 5   0  0.8579923E-06  0.2502860E+04  0.7818609E-02  0.8401967E-01
        2   -1    0    0  501    0  0.00000000000E+00  0.00000000000E+00  0.24021357397E+04  0.24021357397E+04  0.25500000920E-02 0.  1.
       -2   -1    0    0    0  501  0.00000000000E+00  0.00000000000E+00 -0.65195211441E+03  0.65195211442E+03  0.25500000920E-02 0. -1.
    10030    2    1    2    0    0  0.00000000000E+00  0.00000000000E+00  0.17501836253E+04  0.30540878542E+04  0.25028603434E+04 0.  0.
        1    1    3    3  502    0 -0.11424534749E+04 -0.50275129270E+03  0.76514380842E+03  0.14640368343E+04  0.50400001928E-02 0. -1.
       -1    1    3    3    0  502  0.11424534749E+04  0.50275129270E+03  0.98503981691E+03  0.15900510198E+04  0.50400001928E-02 0.  1.
</event>
<event>
 5   0  0.3642184E-06  0.2475522E+04  0.7818609E-02  0.8411758E-01
        1   -1    0    0  501    0  0.00000000000E+00  0.00000000000E+00  0.17913886164E+04  0.17913886164E+04  0.50400001928E-02 0. -1.
       -1   -1    0    0    0  501  0.00000000000E+00  0.00000000000E+00 -0.85523152952E+03  0.85523152954E+03  0.50400001928E-02 0.  1.
    10030    2    1    2    0    0  0.00000000000E+00  0.00000000000E+00  0.93615708687E+03  0.26466201459E+04  0.24755217845E+04 0.  0.
        5    1    3    3  502    0  0.61531158274E+03 -0.33145683347E+03 -0.62407361678E+03  0.93699623556E+03  0.46999998093E+01 0.  1.
       -5    1    3    3    0  502 -0.61531158274E+03  0.33145683347E+03  0.15602307036E+04  0.17096239104E+04  0.46999998093E+01 0. -1.
</event>
<event>
 5   0  0.3522870E-06  0.2509300E+04  0.7818609E-02  0.8399680E-01
       -1   -1    0    0    0  501  0.00000000000E+00  0.00000000000E+00  0.78304154729E+03  0.78304154730E+03  0.50400001928E-02 0.  1.
        1   -1    0    0  501    0  0.00000000000E+00  0.00000000000E+00 -0.20102970160E+04  0.20102970160E+04  0.50400001928E-02 0. -1.
    10030    2    1    2    0    0  0.00000000000E+00  0.00000000000E+00 -0.12272554687E+04  0.27933385633E+04  0.25092995724E+04 0.  0.
        2    1    3    3  502    0  0.60701118076E+03 -0.47761789384E+03 -0.17142639806E+04  0.18802346718E+04  0.25500000920E-02 0. -1.
       -2    1    3    3    0  502 -0.60701118076E+03  0.47761789384E+03  0.48700851182E+03  0.91310389151E+03  0.25500000920E-02 0.  1.
</event>
<event>
 5   0  0.3424193E-06  0.2495946E+04  0.7818609E-02  0.8404431E-01
        1   -1    0    0  501    0  0.00000000000E+00  0.00000000000E+00  0.17600598373E+04  0.17600598374E+04  0.50400001928E-02 0. -1.
       -1   -1    0    0    0  501  0.00000000000E+00  0.00000000000E+00 -0.88487683058E+03  0.88487683059E+03  0.50400001928E-02 0.  1.
    10030    2    1    2    0    0  0.00000000000E+00  0.00000000000E+00  0.87518300677E+03  0.26449366679E+04  0.24959456489E+04 0.  0.
        1    1    3    3  502    0  0.35833669637E+02  0.34644687666E+03  0.17075119881E+04  0.17426722813E+04  0.50400001928E-02 0. -1.
       -1    1    3    3    0  502 -0.35833669637E+02 -0.34644687666E+03 -0.83232898137E+03  0.90226438668E+03  0.50400001928E-02 0.  1.
</event>
<event>
 5   0  0.8407986E-06  0.2498201E+04  0.7818609E-02  0.8403627E-01
       -2   -1    0    0    0  501  0.00000000000E+00  0.00000000000E+00  0.13159490836E+04  0.13159490836E+04  0.25500000920E-02 0. -1.
        2   -1    0    0  501    0  0.00000000000E+00  0.00000000000E+00 -0.11856477452E+04  0.11856477452E+04  0.25500000920E-02 0.  1.
    10030    2    1    2    0    0  0.00000000000E+00  0.00000000000E+00  0.13030133832E+03  0.25015968288E+04  0.24982010037E+04 0.  0.
        5    1    3    3  502    0  0.10248177032E+04  0.25804445653E+03 -0.60163110825E+03  0.12160675749E+04  0.46999998093E+01 0.  1.
       -5    1    3    3    0  502 -0.10248177032E+04 -0.25804445653E+03  0.73193244657E+03  0.12855292539E+04  0.46999998093E+01 0. -1.
</event>
<event>
 5   0  0.8407986E-06  0.2493625E+04  0.7818609E-02  0.8405260E-01
        2   -1    0    0  501    0  0.00000000000E+00  0.00000000000E+00  0.12083414531E+04  0.12083414531E+04  0.25500000920E-02 0.  1.
       -2   -1    0    0    0  501  0.00000000000E+00  0.00000000000E+00 -0.12865084840E+04  0.12865084840E+04  0.25500000920E-02 0. -1.
    10030    2    1    2    0    0  0.00000000000E+00  0.00000000000E+00 -0.78167030883E+02  0.24948499371E+04  0.24936250970E+04 0.  0.
        5    1    3    3  502    0  0.26901520865E+03  0.12120222310E+04 -0.15382363040E+03  0.12510199319E+04  0.46999998093E+01 0. -1.
       -5    1    3    3    0  502 -0.26901520865E+03 -0.12120222310E+04  0.75656599521E+02  0.12438300052E+04  0.46999998093E+01 0.  1.
</event>
<event>
 5   0  0.8948286E-06  0.2495606E+04  0.7818609E-02  0.8404552E-01
       -2   -1    0    0    0  501  0.00000000000E+00  0.00000000000E+00  0.22124329537E+04  0.22124329537E+04  0.25500000920E-02 0. -1.
        2   -1    0    0  501    0  0.00000000000E+00  0.00000000000E+00 -0.70375596406E+03  0.70375596407E+03  0.25500000920E-02 0.  1.
    10030    2    1    2    0    0  0.00000000000E+00  0.00000000000E+00  0.15086769896E+04  0.29161889177E+04  0.24956064483E+04 0.  0.
        4    1    3    3  502    0 -0.49078082002E+03 -0.19838539014E+03 -0.56604191069E+03  0.77500169928E+03  0.12699999809E+01 0.  1.
       -4    1    3    3    0  502  0.49078082002E+03  0.19838539014E+03  0.20747189003E+04  0.21411872185E+04  0.12699999809E+01 0. -1.
</event>
<event>
 5   0  0.3642184E-06  0.2512937E+04  0.7818609E-02  0.8398391E-01
       -1   -1    0    0    0  501  0.00000000000E+00  0.00000000000E+00  0.12211671107E+04  0.12211671107E+04  0.50400001928E-02 0.  1.
        1   -1    0    0  501    0  0.00000000000E+00  0.00000000000E+00 -0.12927900926E+04  0.12927900926E+04  0.50400001928E-02 0. -1.
    10030    2    1    2    0    0  0.00000000000E+00  0.00000000000E+00 -0.71622981834E+02  0.25139572033E+04  0.25129367220E+04 0.  0.
        5    1    3    3  502    0  0.10463345316E+04 -0.21106246942E+03 -0.69889837846E+03  0.12758700371E+04  0.46999998093E+01 0. -1.
       -5    1    3    3    0  502 -0.10463345316E+04  0.21106246942E+03  0.62727539663E+03  0.12380871663E+04  0.46999998093E+01 0.  1.
</event>
<event>
 5   0  0.8056723E-06  0.2506462E+04  0.7818609E-02  0.8400687E-01
       -2   -1    0    0    0  501  0.00000000000E+00  0.00000000000E+00  0.11304333059E+04  0.11304333060E+04  0.25500000920E-02 0.  1.
        2   -1    0    0  501    0  0.00000000000E+00  0.00000000000E+00 -0.13893678809E+04  0.13893678809E+04  0.25500000920E-02 0. -1.
    10030    2    1    2    0    0  0.00000000000E+00  0.00000000000E+00 -0.25893457496E+03  0.25198011869E+04  0.25064618304E+04 0.  0.
        2    1    3    3  502    0  0.36038407868E+03  0.43649855072E+03  0.99459781322E+03  0.11443917507E+04  0.25500000920E-02 0.  1.
       -2    1    3    3    0  502 -0.36038407868E+03 -0.43649855072E+03 -0.12535323882E+04  0.13754094362E+04  0.25500000920E-02 0. -1.
</event>
<event>
 5   0  0.3522870E-06  0.2486535E+04  0.7818609E-02  0.8407798E-01
       -1   -1    0    0    0  501  0.00000000000E+00  0.00000000000E+00  0.15055807031E+04  0.15055807031E+04  0.50400001928E-02 0. -1.
        1   -1    0    0  501    0  0.00000000000E+00  0.00000000000E+00 -0.10266560121E+04  0.10266560121E+04  0.50400001928E-02 0.  1.
    10030    2    1    2    0    0  0.00000000000E+00  0.00000000000E+00  0.47892469098E+03  0.25322367152E+04  0.24865345206E+04 0.  0.
        2    1    3    3  502    0  0.92233042221E+03  0.29424400747E+03  0.10338251106E+04  0.14163570535E+04  0.25500000920E-02 0. -1.
       -2    1    3    3    0  502 -0.92233042221E+03 -0.29424400747E+03 -0.55490041963E+03  0.11158796617E+04  0.25500000920E-02 0.  1.
</event>
<event>
 5   0  0.8056723E-06  0.2499712E+04  0.7818609E-02  0.8403088E-01
       -2   -1    0    0    0  501  0.00000000000E+00  0.00000000000E+00  0.10466972735E+04  0.10466972735E+04  0.25500000920E-02 0. -1.
        2   -1    0    0  501    0  0.00000000000E+00  0.00000000000E+00 -0.14924468114E+04  0.14924468114E+04  0.25500000920E-02 0.  1.
    10030    2    1    2    0    0  0.00000000000E+00  0.00000000000E+00 -0.44574953789E+03  0.25391440850E+04  0.24997119902E+04 0.  0.
        2    1    3    3  502    0 -0.69839497951E+03  0.72210476182E+03 -0.97821041280E+03  0.14021720458E+04  0.25500000920E-02 0.  1.
       -2    1    3    3    0  502  0.69839497951E+03 -0.72210476182E+03  0.53246087491E+03  0.11369720391E+04  0.25500000920E-02 0. -1.
</event>
<event>
 5   0  0.3642184E-06  0.2504483E+04  0.7818609E-02  0.8401390E-01
       -1   -1    0    0    0  501  0.00000000000E+00  0.00000000000E+00  0.10874552736E+04  0.10874552736E+04  0.50400001928E-02 0.  1.
        1   -1    0    0  501    0  0.00000000000E+00  0.00000000000E+00 -0.14419981277E+04  0.14419981277E+04  0.50400001928E-02 0. -1.
    10030    2    1    2    0    0  0.00000000000E+00  0.00000000000E+00 -0.35454285404E+03  0.25294534013E+04  0.25044827558E+04 0.  0.
        5    1    3    3  502    0 -0.11616091115E+04  0.67638423944E+02  0.29013397662E+03  0.11992124494E+04  0.46999998093E+01 0.  1.
       -5    1    3    3    0  502  0.11616091115E+04 -0.67638423944E+02 -0.64467683066E+03  0.13302409520E+04  0.46999998093E+01 0. -1.
</event>
<event>
 5   0  0.8948286E-06  0.2494055E+04  0.7818609E-02  0.8405106E-01
        2   -1    0    0  501    0  0.00000000000E+00  0.00000000000E+00  0.12819908365E+04  0.12819908365E+04  0.25500000920E-02 0. -1.
       -2   -1    0    0    0  501  0.00000000000E+00  0.00000000000E+00 -0.12130178892E+04  0.12130178892E+04  0.25500000920E-02 0.  1.
    10030    2    1    2    0    0  0.00000000000E+00  0.00000000000E+00  0.68972947314E+02  0.24950087256E+04  0.24940551866E+04 0.  0.
        4    1    3    3  502    0 -0.23995408402E+03 -0.38766516707E+03 -0.11266527535E+04  0.12154053990E+04  0.12699999809E+01 0.  1.
       -4    1    3    3    0  502  0.23995408402E+03  0.38766516707E+03  0.11956257008E+04  0.12796033266E+04  0.12699999809E+01 0. -1.
</event>
<event>
 5   0  0.3424193E-06  0.2500991E+04  0.7818609E-02  0.8402633E-01
        1   -1    0    0  501    0  0.00000000000E+00  0.00000000000E+00  0.14092041125E+04  0.14092041125E+04  0.50400001928E-02 0. -1.
       -1   -1    0    0    0  501  0.00000000000E+00  0.00000000000E+00 -0.11096607200E+04  0.11096607200E+04  0.50400001928E-02 0.  1.
    10030    2    1    2    0    0  0.00000000000E+00  0.00000000000E+00  0.29954339247E+03  0.25188648325E+04  0.25009905639E+04 0.  0.
        1    1    3    3  502    0  0.12020060456E+03  0.49059873593E+02 -0.11028548130E+04  0.11104700785E+04  0.50400001928E-02 0.  1.
       -1    1    3    3    0  502 -0.12020060456E+03 -0.49059873593E+02  0.14023982055E+04  0.14083947541E+04  0.50400001928E-02 0. -1.
</event>
<event>
 5   0  0.3642184E-06  0.2499081E+04  0.7818609E-02  0.8403313E-01
       -1   -1    0    0    0  501  0.00000000000E+00  0.00000000000E+00  0.86841392649E+03  0.86841392650E+03  0.50400001928E-02 0. -1.
        1   -1    0    0  501    0  0.00000000000E+00  0.00000000000E+00 -0.17979339282E+04  0.17979339282E+04  0.50400001928E-02 0.  1.
    10030    2    1    2    0    0  0.00000000000E+00  0.00000000000E+00 -0.92952000171E+03  0.26663478547E+04  0.24990805207E+04 0.  0.
        5    1    3    3  502    0  0.40200544053E+03 -0.10271284505E+04 -0.10911928894E+04  0.15515557482E+04  0.46999998093E+01 0.  1.
       -5    1    3    3    0  502 -0.40200544053E+03  0.10271284505E+04  0.16167288766E+03  0.11147921065E+04  0.46999998093E+01 0. -1.
</event>
<event>
 5   0  0.3424193E-06  0.2496597E+04  0.7818609E-02  0.8404199E-01
       -1   -1    0    0    0  501  0.00000000000E+00  0.00000000000E+00  0.11831395404E+04  0.11831395404E+04  0.50400001928E-02 0. -1.
        1   -1    0    0  501    0  0.00000000000E+00  0.00000000000E+00 -0.13170463776E+04  0.13170463776E+04  0.50400001928E-02 0.  1.
    10030    2    1    2    0    0  0.00000000000E+00  0.00000000000E+00 -0.13390683719E+03  0.25001859180E+04  0.24965974012E+04 0.  0.
        1    1    3    3  502    0  0.64451033407E+03  0.10630339099E+04  0.46412571027E+02  0.12440212181E+04  0.50400001928E-02 0.  1.
       -1    1    3    3    0  502 -0.64451033407E+03 -0.10630339099E+04 -0.18031940821E+03  0.12561646999E+04  0.50400001928E-02 0. -1.
</event>
<event>
 5   0  0.8056723E-06  0.2497054E+04  0.7818609E-02  0.8404036E-01
        2   -1    0    0  501    0  0.00000000000E+00  0.00000000000E+00  0.10936902677E+04  0.10936902677E+04  0.25500000920E-02 0.  1.
       -2   -1    0    0    0  501  0.00000000000E+00  0.00000000000E+00 -0.14252843115E+04  0.14252843115E+04  0.25500000920E-02 0. -1.
    10030    2    1    2    0    0  0.00000000000E+00  0.00000000000E+00 -0.33159404380E+03  0.25189745792E+04  0.24970539283E+04 0.  0.
        2    1    3    3  502    0 -0.61599639182E+03  0.10721532132E+04 -0.34010133368E+03  0.12824324484E+04  0.25500000920E-02 0.  1.
       -2    1    3    3    0  502  0.61599639182E+03 -0.10721532132E+04  0.85072898798E+01  0.12365421309E+04  0.25500000920E-02 0. -1.
</event>
<event>
 5   0  0.8354653E-06  0.2501774E+04  0.7818609E-02  0.8402354E-01
       -2   -1    0    0    0  501  0.00000000000E+00  0.00000000000E+00  0.12444982755E+04  0.12444982755E+04  0.25500000920E-02 0.  1.
        2   -1    0    0  501    0  0.00000000000E+00  0.00000000000E+00 -0.12573081115E+04  0.12573081115E+04  0.25500000920E-02 0. -1.
    10030    2    1    2    0    0  0.00000000000E+00  0.00000000000E+00 -0.12809836049E+02  0.25018063870E+04  0.25017735921E+04 0.  0.
        3    1    3    3  502    0 -0.57340062831E+03 -0.11105885220E+04  0.43821436386E+02  0.12506460228E+04  0.10100000352E+00 0. -1.
       -3    1    3    3    0  502  0.57340062831E+03  0.11105885220E+04 -0.56631272435E+02  0.12511603642E+04  0.10100000352E+00 0.  1.
</event>
<event>
 5   0  0.3642184E-06  0.2524737E+04  0.7818609E-02  0.8394226E-01
        1   -1    0    0  501    0  0.00000000000E+00  0.00000000000E+00  0.25253860909E+04  0.25253860909E+04  0.50400001928E-02 0. -1.
       -1   -1    0    0    0  501  0.00000000000E+00  0.00000000000E+00 -0.63102186160E+03  0.63102186162E+03  0.50400001928E-02 0.  1.
    10030    2    1    2    0    0  0.00000000000E+00  0.00000000000E+00  0.18943642293E+04  0.31564079525E+04  0.25247366852E+04 0.  0.
        5    1    3    3  502    0  0.41867574396E+03 -0.56565929998E+03 -0.36301287016E+03  0.79187136338E+03  0.46999998093E+01 0.  1.
       -5    1    3    3    0  502 -0.41867574396E+03  0.56565929998E+03  0.22573770994E+04  0.23645365891E+04  0.46999998093E+01 0. -1.
</event>
<event>
 5   0  0.8407986E-06  0.2496811E+04  0.7818609E-02  0.8404123E-01
        2   -1    0    0  501    0  0.00000000000E+00  0.00000000000E+00  0.18220580538E+04  0.18220580538E+04  0.25500000920E-02 0.  1.
       -2   -1    0    0    0  501  0.00000000000E+00  0.00000000000E+00 -0.85536013015E+03  0.85536013016E+03  0.25500000920E-02 0. -1.
    10030    2    1    2    0    0  0.00000000000E+00  0.00000000000E+00  0.96669792365E+03  0.26774181840E+04  0.24968106168E+04 0.  0.
        5    1    3    3  502    0  0.10901363404E+04  0.46136975372E+03  0.90855990876E+03  0.14922340594E+04  0.46999998093E+01 0. -1.
       -5    1    3    3    0  502 -0.10901363404E+04 -0.46136975372E+03  0.58138014893E+02  0.11851841245E+04  0.46999998093E+01 0.  1.
</event>
<event>
 5   0  0.8407986E-06  0.2503344E+04  0.7818609E-02  0.8401795E-01
        2   -1    0    0  501    0  0.00000000000E+00  0.00000000000E+00  0.90550436953E+03  0.90550436953E+03  0.25500000920E-02 0.  1.
       -2   -1    0    0    0  501  0.00000000000E+00  0.00000000000E+00 -0.17301775492E+04  0.17301775492E+04  0.25500000920E-02 0. -1.
    10030    2    1    2    0    0  0.00000000000E+00  0.00000000000E+00 -0.82467317966E+03  0.26356819187E+04  0.25033444276E+04 0.  0.
        5    1    3    3  502    0  0.28028722496E+03 -0.69760536402E+03 -0.14659623739E+04  0.16475077979E+04  0.46999998093E+01 0. -1.
       -5    1    3    3    0  502 -0.28028722496E+03  0.69760536402E+03  0.64128919426E+03  0.98817412082E+03  0.46999998093E+01 0.  1.
</event>
<event>
 5   0  0.8407986E-06  0.2498392E+04  0.7818609E-02  0.8403559E-01
        2   -1    0    0  501    0  0.00000000000E+00  0.00000000000E+00  0.20511081949E+04  0.20511081949E+04  0.25500000920E-02 0.  1.
       -2   -1    0    0    0  501  0.00000000000E+00  0.00000000000E+00 -0.76080355881E+03  0.76080355881E+03  0.25500000920E-02 0. -1.
    10030    2    1    2    0    0  0.00000000000E+00  0.00000000000E+00  0.12903046361E+04  0.28119117537E+04  0.24983918141E+04 0.  0.
        5    1    3    3  502    0 -0.98780720172E+03 -0.29508537967E+03 -0.14879989108E+03  0.10416342672E+04  0.46999998093E+01 0. -1.
       -5    1    3    3    0  502  0.98780720172E+03  0.29508537967E+03  0.14391045272E+04  0.17702774865E+04  0.46999998093E+01 0.  1.
</event>
<event>
 5   0  0.3424193E-06  0.2504205E+04  0.7818609E-02  0.8401489E-01
       -1   -1    0    0    0  501  0.00000000000E+00  0.00000000000E+00  0.74196273352E+03  0.74196273354E+03  0.50400001928E-02 0. -1.
        1   -1    0    0  501    0  0.00000000000E+00  0.00000000000E+00 -0.21129907791E+04  0.21129907791E+04  0.50400001928E-02 0.  1.
    10030    2    1    2    0    0  0.00000000000E+00  0.00000000000E+00 -0.13710280455E+04  0.28549535126E+04  0.25042047954E+04 0.  0.
        1    1    3    3  502    0  0.22143445303E+03 -0.55577071860E+03  0.56847652691E+03  0.82527563293E+03  0.50400001928E-02 0. -1.
       -1    1    3    3    0  502 -0.22143445303E+03  0.55577071860E+03 -0.19395045724E+04  0.20296778797E+04  0.50400001928E-02 0.  1.
</event>
<event>
 5   0  0.8948286E-06  0.2495286E+04  0.7818609E-02  0.8404667E-01
        2   -1    0    0  501    0  0.00000000000E+00  0.00000000000E+00  0.12270830139E+04  0.12270830139E+04  0.25500000920E-02 0. -1.
       -2   -1    0    0    0  501  0.00000000000E+00  0.00000000000E+00 -0.12685472353E+04  0.12685472353E+04  0.25500000920E-02 0.  1.
    10030    2    1    2    0    0  0.00000000000E+00  0.00000000000E+00 -0.41464221460E+02  0.24956302492E+04  0.24952857670E+04 0.  0.
        4    1    3    3  502    0  0.16312129712E+03 -0.12142083979E+04 -0.25677435494E+03  0.12517369026E+04  0.12699999809E+01 0.  1.
       -4    1    3    3    0  502 -0.16312129712E+03  0.12142083979E+04  0.21531013348E+03  0.12438933466E+04  0.12699999809E+01 0. -1.
</event>
<event>
 5   0  0.3424193E-06  0.2491137E+04  0.7818609E-02  0.8406150E-01
        1   -1    0    0  501    0  0.00000000000E+00  0.00000000000E+00  0.18085957570E+04  0.18085957570E+04  0.50400001928E-02 0. -1.
       -1   -1    0    0    0  501  0.00000000000E+00  0.00000000000E+00 -0.85781494169E+03  0.85781494171E+03  0.50400001928E-02 0.  1.
    10030    2    1    2    0    0  0.00000000000E+00  0.00000000000E+00  0.95078081535E+03  0.26664106988E+04  0.24911366594E+04 0.  0.
        1    1    3    3  502    0  0.38841771475E+03 -0.26684956130E+03  0.17094932657E+04  0.17732580847E+04  0.50400001928E-02 0. -1.
       -1    1    3    3    0  502 -0.38841771475E+03  0.26684956130E+03 -0.75871245039E+03  0.89315261400E+03  0.50400001928E-02 0.  1.
</event>
<event>
 5   0  0.3424193E-06  0.2497240E+04  0.7818609E-02  0.8403970E-01
        1   -1    0    0  501    0  0.00000000000E+00  0.00000000000E+00  0.18686615299E+04  0.18686615299E+04  0.50400001928E-02 0.  1.
       -1   -1    0    0    0  501  0.00000000000E+00  0.00000000000E+00 -0.83431446816E+03  0.83431446818E+03  0.50400001928E-02 0. -1.
    10030    2    1    2    0    0  0.00000000000E+00  0.00000000000E+00  0.10343470617E+04  0.27029759980E+04  0.24972395564E+04 0.  0.
        1    1    3    3  502    0  0.89134938739E+03 -0.87436049012E+03  0.52413398481E+03  0.13541515540E+04  0.50400001928E-02 0.  1.
       -1    1    3    3    0  502 -0.89134938739E+03  0.87436049012E+03  0.51021307689E+03  0.13488244441E+04  0.50400001928E-02 0. -1.
</event>
<event>
 5   0  0.3522870E-06  0.2494450E+04  0.7818609E-02  0.8404965E-01
       -1   -1    0    0    0  501  0.00000000000E+00  0.00000000000E+00  0.15419457319E+04  0.15419457320E+04  0.50400001928E-02 0. -1.
        1   -1    0    0  501    0  0.00000000000E+00  0.00000000000E+00 -0.10088360718E+04  0.10088360719E+04  0.50400001928E-02 0.  1.
    10030    2    1    2    0    0  0.00000000000E+00  0.00000000000E+00  0.53310966010E+03  0.25507818038E+04  0.24944502202E+04 0.  0.
        2    1    3    3  502    0  0.48181760082E+03  0.10957436009E+04  0.62485043132E+03  0.13502741577E+04  0.25500000920E-02 0. -1.
       -2    1    3    3    0  502 -0.48181760082E+03 -0.10957436009E+04 -0.91740771217E+02  0.12005076461E+04  0.25500000920E-02 0.  1.
</event>
<event>
 5   0  0.8948286E-06  0.2497888E+04  0.7818609E-02  0.8403738E-01
        2   -1    0    0  501    0  0.00000000000E+00  0.00000000000E+00  0.74019112573E+03  0.74019112574E+03  0.25500000920E-02 0.  1.
       -2   -1    0    0    0  501  0.00000000000E+00  0.00000000000E+00 -0.21073754724E+04  0.21073754724E+04  0.25500000920E-02 0. -1.
    10030    2    1    2    0    0  0.00000000000E+00  0.00000000000E+00 -0.13671843466E+04  0.28475665981E+04  0.24978876061E+04 0.  0.
        4    1    3    3  502    0 -0.18125637839E+03 -0.82398526577E+03 -0.17334067561E+04  0.19278242108E+04  0.12699999809E+01 0. -1.
       -4    1    3    3    0  502  0.18125637839E+03  0.82398526577E+03  0.36622240943E+03  0.91974238729E+03  0.12699999809E+01 0.  1.
</event>
<event>
 5   0  0.3481387E-06  0.2500586E+04  0.7818609E-02  0.8402777E-01
        1   -1    0    0  501    0  0.00000000000E+00  0.00000000000E+00  0.13082284692E+04  0.13082284692E+04  0.50400001928E-02 0.  1.
       -1   -1    0    0    0  501  0.00000000000E+00  0.00000000000E+00 -0.11949233017E+04  0.11949233017E+04  0.50400001928E-02 0. -1.
    10030    2    1    2    0    0  0.00000000000E+00  0.00000000000E+00  0.11330516747E+03  0.25031517709E+04  0.25005860767E+04 0.  0.
        4    1    3    3  502    0  0.19463460997E+03 -0.83606342196E+03  0.96662125684E+03  0.12927656184E+04  0.12699999809E+01 0.  1.
       -4    1    3    3    0  502 -0.19463460997E+03  0.83606342196E+03 -0.85331608937E+03  0.12103861525E+04  0.12699999809E+01 0. -1.
</event>
<event>
 5   0  0.3484857E-06  0.2503939E+04  0.7818609E-02  0.8401584E-01
        1   -1    0    0  501    0  0.00000000000E+00  0.00000000000E+00  0.13309224421E+04  0.13309224421E+04  0.50400001928E-02 0.  1.
       -1   -1    0    0    0  501  0.00000000000E+00  0.00000000000E+00 -0.11777003118E+04  0.11777003118E+04  0.50400001928E-02 0. -1.
    10030    2    1    2    0    0  0.00000000000E+00  0.00000000000E+00  0.15322213025E+03  0.25086227539E+04  0.25039391167E+04 0.  0.
        3    1    3    3  502    0 -0.69738847518E+03  0.10190543441E+04 -0.13018559708E+03  0.12416806117E+04  0.10100000352E+00 0.  1.
       -3    1    3    3    0  502  0.69738847518E+03 -0.10190543441E+04  0.28340772733E+03  0.12669421422E+04  0.10100000352E+00 0. -1.
</event>
<event>
 5   0  0.8579923E-06  0.2503552E+04  0.7818609E-02  0.8401721E-01
        2   -1    0    0  501    0  0.00000000000E+00  0.00000000000E+00  0.15706297201E+04  0.15706297201E+04  0.25500000920E-02 0.  1.
       -2   -1    0    0    0  501  0.00000000000E+00  0.00000000000E+00 -0.99765267807E+03  0.99765267807E+03  0.25500000920E-02 0. -1.
    10030    2    1    2    0    0  0.00000000000E+00  0.00000000000E+00  0.57297704205E+03  0.25682823982E+04  0.25035518341E+04 0.  0.
        1    1    3    3  502    0 -0.56261609540E+03 -0.14104452777E+03 -0.85147726721E+03  0.10302640274E+04  0.50400001928E-02 0. -1.
       -1    1    3    3    0  502  0.56261609540E+03  0.14104452777E+03  0.14244543093E+04  0.15380183708E+04  0.50400001928E-02 0.  1.
</event>
<event>
 5   0  0.8407986E-06  0.2499094E+04  0.7818609E-02  0.8403308E-01
        2   -1    0    0  501    0  0.00000000000E+00  0.00000000000E+00  0.13600794367E+04  0.13600794367E+04  0.25500000920E-02 0. -1.
       -2   -1    0    0    0  501  0.00000000000E+00  0.00000000000E+00 -0.11479978884E+04  0.11479978884E+04  0.25500000920E-02 0.  1.
    10030    2    1    2    0    0  0.00000000000E+00  0.00000000000E+00  0.21208154823E+03  0.25080773251E+04  0.24990944931E+04 0.  0.
        5    1    3    3  502    0 -0.90690392340E+03  0.26953335206E+03  0.92519965796E+03  0.13233062575E+04  0.46999998093E+01 0. -1.
       -5    1    3    3    0  502  0.90690392340E+03 -0.26953335206E+03 -0.71311810973E+03  0.11847710676E+04  0.46999998093E+01 0.  1.
</event>
<event>
 5   0  0.3481387E-06  0.2500390E+04  0.7818609E-02  0.8402847E-01
        1   -1    0    0  501    0  0.00000000000E+00  0.00000000000E+00  0.14826309329E+04  0.14826309329E+04  0.50400001928E-02 0.  1.
       -1   -1    0    0    0  501  0.00000000000E+00  0.00000000000E+00 -0.10541988491E+04  0.10541988491E+04  0.50400001928E-02 0. -1.
    10030    2    1    2    0    0  0.00000000000E+00  0.00000000000E+00  0.42843208385E+03  0.25368297820E+04  0.25003902280E+04 0.  0.
        4    1    3    3  502    0  0.97499608859E+03 -0.49519937692E+03 -0.40054053022E+03  0.11645918276E+04  0.12699999809E+01 0. -1.
       -4    1    3    3    0  502 -0.97499608859E+03  0.49519937692E+03  0.82897261406E+03  0.13722379544E+04  0.12699999809E+01 0.  1.
</event>
<event>
 5   0  0.8948286E-06  0.2485504E+04  0.7818609E-02  0.8408168E-01
        2   -1    0    0  501    0  0.00000000000E+00  0.00000000000E+00  0.20217306139E+04  0.20217306139E+04  0.25500000920E-02 0. -1.
       -2   -1    0    0    0  501  0.00000000000E+00  0.00000000000E+00 -0.76391588611E+03  0.76391588611E+03  0.25500000920E-02 0.  1.
    10030    2    1    2    0    0  0.00000000000E+00  0.00000000000E+00  0.12578147277E+04  0.27856465000E+04  0.24855036780E+04 0.  0.
        4    1    3    3  502    0 -0.49786084254E+03 -0.39111184089E+03  0.18274349283E+04  0.19339994625E+04  0.12699999809E+01 0. -1.
       -4    1    3    3    0  502  0.49786084254E+03  0.39111184089E+03 -0.56962020061E+03  0.85164703749E+03  0.12699999809E+01 0.  1.
</event>
<event>
 5   0  0.8056723E-06  0.2501271E+04  0.7818609E-02  0.8402533E-01
       -2   -1    0    0    0  501  0.00000000000E+00  0.00000000000E+00  0.15068071700E+04  0.15068071700E+04  0.25500000920E-02 0.  1.
        2   -1    0    0  501    0  0.00000000000E+00  0.00000000000E+00 -0.10380156078E+04  0.10380156078E+04  0.25500000920E-02 0. -1.
    10030    2    1    2    0    0  0.00000000000E+00  0.00000000000E+00  0.46879156221E+03  0.25448227779E+04  0.25012711652E+04 0.  0.
        2    1    3    3  502    0 -0.15249075857E+03 -0.37929877425E+03  0.14369095370E+04  0.14939310590E+04  0.25500000920E-02 0.  1.
       -2    1    3    3    0  502  0.15249075857E+03  0.37929877425E+03 -0.96811797479E+03  0.10508917188E+04  0.25500000920E-02 0. -1.
</event>
<event>
 5   0  0.3424193E-06  0.2616060E+04  0.7818609E-02  0.8362766E-01
       -1   -1    0    0    0  501  0.00000000000E+00  0.00000000000E+00  0.13222000758E+04  0.13222000758E+04  0.50400001928E-02 0.  1.
        1   -1    0    0  501    0  0.00000000000E+00  0.00000000000E+00 -0.12940120298E+04  0.12940120298E+04  0.50400001928E-02 0. -1.
    10030    2    1    2    0    0  0.00000000000E+00  0.00000000000E+00  0.28188046011E+02  0.26162121056E+04  0.26160602469E+04 0.  0.
        1    1    3    3  502    0  0.41482141272E+03  0.44595171932E+03  0.11717419131E+04  0.13205789834E+04  0.50400001928E-02 0.  1.
       -1    1    3    3    0  502 -0.41482141272E+03 -0.44595171932E+03 -0.11435538671E+04  0.12956331222E+04  0.50400001928E-02 0. -1.
</event>
<event>
 5   0  0.8056723E-06  0.2458732E+04  0.7818609E-02  0.8417837E-01
       -2   -1    0    0    0  501  0.00000000000E+00  0.00000000000E+00  0.87736390705E+03  0.87736390705E+03  0.25500000920E-02 0. -1.
        2   -1    0    0  501    0  0.00000000000E+00  0.00000000000E+00 -0.17225924621E+04  0.17225924621E+04  0.25500000920E-02 0.  1.
    10030    2    1    2    0    0  0.00000000000E+00  0.00000000000E+00 -0.84522855507E+03  0.25999563692E+04  0.24587317485E+04 0.  0.
        2    1    3    3  502    0 -0.26296197729E+03 -0.66676120409E+03  0.63356511797E+03  0.95662127485E+03  0.25500000920E-02 0. -1.
       -2    1    3    3    0  502  0.26296197729E+03  0.66676120409E+03 -0.14787936730E+04  0.16433350943E+04  0.25500000920E-02 0.  1.
</event>
<event>
 5   0  0.3522870E-06  0.2500769E+04  0.7818609E-02  0.8402711E-01
       -1   -1    0    0    0  501  0.00000000000E+00  0.00000000000E+00  0.13227167913E+04  0.13227167913E+04  0.50400001928E-02 0. -1.
        1   -1    0    0  501    0  0.00000000000E+00  0.00000000000E+00 -0.11820080521E+04  0.11820080521E+04  0.50400001928E-02 0.  1.
    10030    2    1    2    0    0  0.00000000000E+00  0.00000000000E+00  0.14070873921E+03  0.25047248434E+04  0.25007693999E+04 0.  0.
        2    1    3    3  502    0  0.10574886585E+03  0.72445996546E+03  0.10855832002E+04  0.13093952607E+04  0.25500000920E-02 0. -1.
       -2    1    3    3    0  502 -0.10574886585E+03 -0.72445996546E+03 -0.94487446099E+03  0.11953295827E+04  0.25500000920E-02 0.  1.
</event>
<event>
 5   0  0.3481387E-06  0.2498595E+04  0.7818609E-02  0.8403486E-01
        1   -1    0    0  501    0  0.00000000000E+00  0.00000000000E+00  0.11103763373E+04  0.11103763373E+04  0.50400001928E-02 0. -1.
       -1   -1    0    0    0  501  0.00000000000E+00  0.00000000000E+00 -0.14055997458E+04  0.14055997458E+04  0.50400001928E-02 0.  1.
    10030    2    1    2    0    0  0.00000000000E+00  0.00000000000E+00 -0.29522340844E+03  0.25159760831E+04  0.24985953634E+04 0.  0.
        4    1    3    3  502    0 -0.86048707943E+03 -0.71423100371E+03 -0.70842315848E+03  0.13237933845E+04  0.12699999809E+01 0.  1.
       -4    1    3    3    0  502  0.86048707943E+03  0.71423100371E+03  0.41319975005E+03  0.11921826986E+04  0.12699999809E+01 0. -1.
</event>
<event>
 5   0  0.8579923E-06  0.2485463E+04  0.7818609E-02  0.8408183E-01
        2   -1    0    0  501    0  0.00000000000E+00  0.00000000000E+00  0.17462060010E+04  0.17462060010E+04  0.25500000920E-02 0.  1.
       -2   -1    0    0    0  501  0.00000000000E+00  0.00000000000E+00 -0.88442138537E+03  0.88442138537E+03  0.25500000920E-02 0. -1.
    10030    2    1    2    0    0  0.00000000000E+00  0.00000000000E+00  0.86178461566E+03  0.26306273864E+04  0.24854632812E+04 0.  0.
        1    1    3    3  502    0  0.22148745523E+03 -0.88063803295E+03  0.13288553812E+04  0.16094833525E+04  0.50400001928E-02 0.  1.
       -1    1    3    3    0  502 -0.22148745523E+03  0.88063803295E+03 -0.46707076553E+03  0.10211440339E+04  0.50400001928E-02 0. -1.
</event>
<event>
 5   0  0.8056723E-06  0.2498810E+04  0.7818609E-02  0.8403410E-01
       -2   -1    0    0    0  501  0.00000000000E+00  0.00000000000E+00  0.72963114392E+03  0.72963114392E+03  0.25500000920E-02 0. -1.
        2   -1    0    0  501    0  0.00000000000E+00  0.00000000000E+00 -0.21394551663E+04  0.21394551663E+04  0.25500000920E-02 0.  1.
    10030    2    1    2    0    0  0.00000000000E+00  0.00000000000E+00 -0.14098240223E+04  0.28690863102E+04  0.24988102131E+04 0.  0.
        2    1    3    3  502    0  0.12492450901E+04 -0.17475198522E+02 -0.71607021640E+03  0.14400261222E+04  0.25500000920E-02 0.  1.
       -2    1    3    3    0  502 -0.12492450901E+04  0.17475198522E+02 -0.69375380593E+03  0.14290601880E+04  0.25500000920E-02 0. -1.
</event>
<event>
 5   0  0.3424193E-06  0.2511597E+04  0.7818609E-02  0.8398866E-01
       -1   -1    0    0    0  501  0.00000000000E+00  0.00000000000E+00  0.87625117352E+03  0.87625117354E+03  0.50400001928E-02 0.  1.
        1   -1    0    0  501    0  0.00000000000E+00  0.00000000000E+00 -0.17997457653E+04  0.17997457653E+04  0.50400001928E-02 0. -1.
    10030    2    1    2    0    0  0.00000000000E+00  0.00000000000E+00 -0.92349459173E+03  0.26759969388E+04  0.25115965750E+04 0.  0.
        1    1    3    3  502    0  0.36457566746E+03  0.31162051658E+03 -0.16983226544E+04  0.17647443447E+04  0.50400001928E-02 0. -1.
       -1    1    3    3    0  502 -0.36457566746E+03 -0.31162051658E+03  0.77482806263E+03  0.91125259414E+03  0.50400001928E-02 0.  1.
</event>
<event>
 5   0  0.3522870E-06  0.2419541E+04  0.7818609E-02  0.8432224E-01
       -1   -1    0    0    0  501  0.00000000000E+00  0.00000000000E+00  0.13517247142E+04  0.13517247142E+04  0.50400001928E-02 0. -1.
        1   -1    0    0  501    0  0.00000000000E+00  0.00000000000E+00 -0.10827240053E+04  0.10827240053E+04  0.50400001928E-02 0.  1.
    10030    2    1    2    0    0  0.00000000000E+00  0.00000000000E+00  0.26900070891E+03  0.24344487195E+04  0.24195411107E+04 0.  0.
        2    1    3    3  502    0 -0.98541642092E+03 -0.34718495565E+03 -0.47914414047E+03  0.11494181238E+04  0.25500000920E-02 0.  1.
       -2    1    3    3    0  502  0.98541642092E+03  0.34718495565E+03  0.74814484938E+03  0.12850305956E+04  0.25500000920E-02 0. -1.
</event>
<event>
 5   0  0.8579923E-06  0.2501630E+04  0.7818609E-02  0.8402405E-01
        2   -1    0    0  501    0  0.00000000000E+00  0.00000000000E+00  0.89387077824E+03  0.89387077825E+03  0.25500000920E-02 0.  1.
       -2   -1    0    0    0  501  0.00000000000E+00  0.00000000000E+00 -0.17502960257E+04  0.17502960257E+04  0.25500000920E-02 0. -1.
    10030    2    1    2    0    0  0.00000000000E+00  0.00000000000E+00 -0.85642524749E+03  0.26441668040E+04  0.25016302450E+04 0.  0.
        1    1    3    3  502    0  0.54041628140E+03  0.41404451503E+03  0.68088660838E+03  0.96285470926E+03  0.50400001928E-02 0. -1.
       -1    1    3    3    0  502 -0.54041628140E+03 -0.41404451503E+03 -0.15373118559E+04  0.16813120947E+04  0.50400001928E-02 0.  1.
</event>
<event>
 5   0  0.3522870E-06  0.2501345E+04  0.7818609E-02  0.8402506E-01
       -1   -1    0    0    0  501  0.00000000000E+00  0.00000000000E+00  0.13336304347E+04  0.13336304347E+04  0.50400001928E-02 0.  1.
        1   -1    0    0  501    0  0.00000000000E+00  0.00000000000E+00 -0.11728753259E+04  0.11728753259E+04  0.50400001928E-02 0. -1.
    10030    2    1    2    0    0  0.00000000000E+00  0.00000000000E+00  0.16075510885E+03  0.25065057606E+04  0.25013454226E+04 0.  0.
        2    1    3    3  502    0 -0.11718805370E+04  0.17307076385E+03  0.48235941576E+03  0.12790340450E+04  0.25500000920E-02 0.  1.
       -2    1    3    3    0  502  0.11718805370E+04 -0.17307076385E+03 -0.32160430692E+03  0.12274717156E+04  0.25500000920E-02 0. -1.
</event>
<event>
 5   0  0.3484857E-06  0.2505793E+04  0.7818609E-02  0.8400925E-01
       -1   -1    0    0    0  501  0.00000000000E+00  0.00000000000E+00  0.32255673647E+04  0.32255673647E+04  0.50400001928E-02 0.  1.
        1   -1    0    0  501    0  0.00000000000E+00  0.00000000000E+00 -0.48665829826E+03  0.48665829828E+03  0.50400001928E-02 0. -1.
    10030    2    1    2    0    0  0.00000000000E+00  0.00000000000E+00  0.27389090664E+04  0.37122256630E+04  0.25057925889E+04 0.  0.
        3    1    3    3  502    0  0.97289782289E+03  0.68464581902E+03  0.78718504409E+03  0.14265098580E+04  0.10100000352E+00 0. -1.
       -3    1    3    3    0  502 -0.97289782289E+03 -0.68464581902E+03  0.19517240223E+04  0.22857158049E+04  0.10100000352E+00 0.  1.
</event>
<event>
 5   0  0.8948286E-06  0.2507611E+04  0.7818609E-02  0.8400279E-01
       -2   -1    0    0    0  501  0.00000000000E+00  0.00000000000E+00  0.93432575648E+03  0.93432575648E+03  0.25500000920E-02 0. -1.
        2   -1    0    0  501    0  0.00000000000E+00  0.00000000000E+00 -0.16825266256E+04  0.16825266256E+04  0.25500000920E-02 0.  1.
    10030    2    1    2    0    0  0.00000000000E+00  0.00000000000E+00 -0.74820086912E+03  0.26168523821E+04  0.25076107850E+04 0.  0.
        4    1    3    3  502    0  0.60232036777E+03  0.48042948562E+03  0.65814424111E+03  0.10132905660E+04  0.12699999809E+01 0. -1.
       -4    1    3    3    0  502 -0.60232036777E+03 -0.48042948562E+03 -0.14063451102E+04  0.16035618161E+04  0.12699999809E+01 0.  1.
</event>
<event>
 5   0  0.8948286E-06  0.2496113E+04  0.7818609E-02  0.8404372E-01
       -2   -1    0    0    0  501  0.00000000000E+00  0.00000000000E+00  0.11845088312E+04  0.11845088312E+04  0.25500000920E-02 0. -1.
        2   -1    0    0  501    0  0.00000000000E+00  0.00000000000E+00 -0.13150131317E+04  0.13150131317E+04  0.25500000920E-02 0.  1.
    10030    2    1    2    0    0  0.00000000000E+00  0.00000000000E+00 -0.13050430057E+03  0.24995219629E+04  0.24961127119E+04 0.  0.
        4    1    3    3  502    0 -0.61388186191E+03  0.51725758822E+03  0.89168726622E+03  0.11997975440E+04  0.12699999809E+01 0. -1.
       -4    1    3    3    0  502  0.61388186191E+03 -0.51725758822E+03 -0.10221915668E+04  0.12997244189E+04  0.12699999809E+01 0.  1.
</event>
<event>
 5   0  0.8948286E-06  0.2504104E+04  0.7818609E-02  0.8401525E-01
       -2   -1    0    0    0  501  0.00000000000E+00  0.00000000000E+00  0.84901247995E+03  0.84901247995E+03  0.25500000920E-02 0.  1.
        2   -1    0    0  501    0  0.00000000000E+00  0.00000000000E+00 -0.18464213276E+04  0.18464213276E+04  0.25500000920E-02 0. -1.
    10030    2    1    2    0    0  0.00000000000E+00  0.00000000000E+00 -0.99740884761E+03  0.26954338075E+04  0.25041044310E+04 0.  0.
        4    1    3    3  502    0  0.66960222771E+03 -0.42567677754E+03  0.54383566617E+03  0.96193903497E+03  0.12699999809E+01 0.  1.
       -4    1    3    3    0  502 -0.66960222771E+03  0.42567677754E+03 -0.15412445138E+04  0.17334947726E+04  0.12699999809E+01 0. -1.
</event>
<event>
 5   0  0.8354653E-06  0.2516854E+04  0.7818609E-02  0.8397006E-01
        2   -1    0    0  501    0  0.00000000000E+00  0.00000000000E+00  0.26859586728E+04  0.26859586728E+04  0.25500000920E-02 0. -1.
       -2   -1    0    0    0  501  0.00000000000E+00  0.00000000000E+00 -0.58959898284E+03  0.58959898284E+03  0.25500000920E-02 0.  1.
    10030    2    1    2    0    0  0.00000000000E+00  0.00000000000E+00  0.20963596899E+04  0.32755576556E+04  0.25168539897E+04 0.  0.
        3    1    3    3  502    0 -0.12199524283E+04  0.49455616252E+02  0.65148602754E+03  0.13838944467E+04  0.10100000352E+00 0. -1.
       -3    1    3    3    0  502  0.12199524283E+04 -0.49455616252E+02  0.14448736624E+04  0.18916632089E+04  0.10100000352E+00 0.  1.
</event>
<event>
 5   0  0.3424193E-06  0.2497160E+04  0.7818609E-02  0.8403998E-01
        1   -1    0    0  501    0  0.00000000000E+00  0.00000000000E+00  0.97816026001E+03  0.97816026002E+03  0.50400001928E-02 0.  1.
       -1   -1    0    0    0  501  0.00000000000E+00  0.00000000000E+00 -0.15937598946E+04  0.15937598947E+04  0.50400001928E-02 0. -1.
    10030    2    1    2    0    0  0.00000000000E+00  0.00000000000E+00 -0.61559963464E+03  0.25719201547E+04  0.24971604618E+04 0.  0.
        1    1    3    3  502    0 -0.60282701581E+03  0.69525517906E+03 -0.11769675732E+04  0.14939989435E+04  0.50400001928E-02 0. -1.
       -1    1    3    3    0  502  0.60282701581E+03 -0.69525517906E+03  0.56136793851E+03  0.10779212111E+04  0.50400001928E-02 0.  1.
</event>
<event>
 5   0  0.8056723E-06  0.2466221E+04  0.7818609E-02  0.8415119E-01
       -2   -1    0    0    0  501  0.00000000000E+00  0.00000000000E+00  0.89844661044E+03  0.89844661044E+03  0.25500000920E-02 0.  1.
        2   -1    0    0  501    0  0.00000000000E+00  0.00000000000E+00 -0.16924333904E+04  0.16924333904E+04  0.25500000920E-02 0. -1.
    10030    2    1    2    0    0  0.00000000000E+00  0.00000000000E+00 -0.79398677993E+03  0.25908800008E+04  0.24662206252E+04 0.  0.
        2    1    3    3  502    0  0.12801754260E+03  0.72028718054E+03 -0.14398211930E+04  0.16150192511E+04  0.25500000920E-02 0. -1.
       -2    1    3    3    0  502 -0.12801754260E+03 -0.72028718054E+03  0.64583441308E+03  0.97586074969E+03  0.25500000920E-02 0.  1.
</event>
<event>
 5   0  0.8579923E-06  0.2498861E+04  0.7818609E-02  0.8403391E-01
       -2   -1    0    0    0  501  0.00000000000E+00  0.00000000000E+00  0.19830247447E+04  0.19830247447E+04  0.25500000920E-02 0. -1.
        2   -1    0    0  501    0  0.00000000000E+00  0.00000000000E+00 -0.78721978652E+03  0.78721978653E+03  0.25500000920E-02 0.  1.
    10030    2    1    2    0    0  0.00000000000E+00  0.00000000000E+00  0.11958049581E+04  0.27702445312E+04  0.24988607934E+04 0.  0.
        1    1    3    3  502    0  0.60026232769E+03  0.99415272511E+03  0.86955778626E+02  0.11645667909E+04  0.50400001928E-02 0.  1.
       -1    1    3    3    0  502 -0.60026232769E+03 -0.99415272511E+03  0.11088491795E+04  0.16056777403E+04  0.50400001928E-02 0. -1.
</event>
<event>
 5   0  0.3522870E-06  0.2495740E+04  0.7818609E-02  0.8404505E-01
        1   -1    0    0  501    0  0.00000000000E+00  0.00000000000E+00  0.11041008236E+04  0.11041008236E+04  0.50400001928E-02 0.  1.
       -1   -1    0    0    0  501  0.00000000000E+00  0.00000000000E+00 -0.14103601819E+04  0.14103601819E+04  0.50400001928E-02 0. -1.
    10030    2    1    2    0    0  0.00000000000E+00  0.00000000000E+00 -0.30625935829E+03  0.25144610054E+04  0.24957402416E+04 0.  0.
        2    1    3    3  502    0 -0.26529065386E+03  0.92655800315E+03  0.64546411987E+03  0.11599624107E+04  0.25500000920E-02 0.  1.
       -2    1    3    3    0  502  0.26529065386E+03 -0.92655800315E+03 -0.95172347816E+03  0.13544985947E+04  0.25500000920E-02 0. -1.
</event>
<event>
 5   0  0.3522870E-06  0.2322038E+04  0.7818609E-02  0.8469282E-01
        1   -1    0    0  501    0  0.00000000000E+00  0.00000000000E+00  0.12639576297E+04  0.12639576297E+04  0.50400001928E-02 0.  1.
       -1   -1    0    0    0  501  0.00000000000E+00  0.00000000000E+00 -0.10664639839E+04  0.10664639839E+04  0.50400001928E-02 0. -1.
    10030    2    1    2    0    0  0.00000000000E+00  0.00000000000E+00  0.19749364572E+03  0.23304216136E+04  0.23220381472E+04 0.  0.
        2    1    3    3  502    0  0.53259709379E+03  0.99351403905E+03 -0.18016926941E+03  0.11415738153E+04  0.25500000920E-02 0. -1.
       -2    1    3    3    0  502 -0.53259709379E+03 -0.99351403905E+03  0.37766291513E+03  0.11888477983E+04  0.25500000920E-02 0.  1.
</event>
<event>
 5   0  0.8579923E-06  0.2501279E+04  0.7818609E-02  0.8402530E-01
        2   -1    0    0  501    0  0.00000000000E+00  0.00000000000E+00  0.19391845888E+04  0.19391845888E+04  0.25500000920E-02 0. -1.
       -2   -1    0    0    0  501  0.00000000000E+00  0.00000000000E+00 -0.80657561529E+03  0.80657561529E+03  0.25500000920E-02 0.  1.
    10030    2    1    2    0    0  0.00000000000E+00  0.00000000000E+00  0.11326089735E+04  0.27457602040E+04  0.25012788752E+04 0.  0.
        1    1    3    3  502    0 -0.40033975779E+03  0.63066831273E+03  0.16673815938E+04  0.18270675471E+04  0.50400001928E-02 0. -1.
       -1    1    3    3    0  502  0.40033975779E+03 -0.63066831273E+03 -0.53477262036E+03  0.91869265691E+03  0.50400001928E-02 0.  1.
</event>
<event>
 5   0  0.8948286E-06  0.2506398E+04  0.7818609E-02  0.8400710E-01
       -2   -1    0    0    0  501  0.00000000000E+00  0.00000000000E+00  0.10523376858E+04  0.10523376858E+04  0.25500000920E-02 0.  1.
        2   -1    0    0  501    0  0.00000000000E+00  0.00000000000E+00 -0.14923988217E+04  0.14923988217E+04  0.25500000920E-02 0. -1.
    10030    2    1    2    0    0  0.00000000000E+00  0.00000000000E+00 -0.44006113593E+03  0.25447365075E+04  0.25063978314E+04 0.  0.
        4    1    3    3  502    0 -0.61831713527E+03 -0.91706317257E+03 -0.81826756865E+03  0.13758213434E+04  0.12699999809E+01 0. -1.
       -4    1    3    3    0  502  0.61831713527E+03  0.91706317257E+03  0.37820643272E+03  0.11689151641E+04  0.12699999809E+01 0.  1.
</event>
<event>
 5   0  0.8948286E-06  0.2505042E+04  0.7818609E-02  0.8401191E-01
        2   -1    0    0  501    0  0.00000000000E+00  0.00000000000E+00  0.15075517103E+04  0.15075517103E+04  0.25500000920E-02 0. -1.
       -2   -1    0    0    0  501  0.00000000000E+00  0.00000000000E+00 -0.10406336701E+04  0.10406336701E+04  0.25500000920E-02 0.  1.
    10030    2    1    2    0    0  0.00000000000E+00  0.00000000000E+00  0.46691804014E+03  0.25481853804E+04  0.25050421706E+04 0.  0.
        4    1    3    3  502    0 -0.11994085939E+04  0.12302849208E+03 -0.11163359278E+03  0.12108594703E+04  0.12699999809E+01 0.  1.
       -4    1    3    3    0  502  0.11994085939E+04 -0.12302849208E+03  0.57855163292E+03  0.13373259101E+04  0.12699999809E+01 0. -1.
</event>
<event>
 5   0  0.3484857E-06  0.2507640E+04  0.7818609E-02  0.8400269E-01
       -1   -1    0    0    0  501  0.00000000000E+00  0.00000000000E+00  0.66976803658E+03  0.66976803660E+03  0.50400001928E-02 0.  1.
        1   -1    0    0  501    0  0.00000000000E+00  0.00000000000E+00 -0.23471778596E+04  0.23471778596E+04  0.50400001928E-02 0. -1.
    10030    2    1    2    0    0  0.00000000000E+00  0.00000000000E+00 -0.16774098230E+04  0.30169458962E+04  0.25076400911E+04 0.  0.
        3    1    3    3  502    0  0.35701992579E+03  0.11519129356E+04 -0.12514548008E+04  0.17379602318E+04  0.10100000352E+00 0. -1.
       -3    1    3    3    0  502 -0.35701992579E+03 -0.11519129356E+04 -0.42595502229E+03  0.12789856645E+04  0.10100000352E+00 0.  1.
</event>
<event>
 5   0  0.3642184E-06  0.2475750E+04  0.7818609E-02  0.8411676E-01
       -1   -1    0    0    0  501  0.00000000000E+00  0.00000000000E+00  0.11222851057E+04  0.11222851058E+04  0.50400001928E-02 0. -1.
        1   -1    0    0  501    0  0.00000000000E+00  0.00000000000E+00 -0.13653705620E+04  0.13653705620E+04  0.50400001928E-02 0.  1.
    10030    2    1    2    0    0  0.00000000000E+00  0.00000000000E+00 -0.24308545628E+03  0.24876556678E+04  0.24757504281E+04 0.  0.
        5    1    3    3  502    0  0.32961572320E+03 -0.26841661556E+03 -0.12897248088E+04  0.13579787101E+04  0.46999998093E+01 0.  1.
       -5    1    3    3    0  502 -0.32961572320E+03  0.26841661556E+03  0.10466393525E+04  0.11296769577E+04  0.46999998093E+01 0. -1.
</event>
<event>
 5   0  0.8056723E-06  0.2496029E+04  0.7818609E-02  0.8404402E-01
       -2   -1    0    0    0  501  0.00000000000E+00  0.00000000000E+00  0.76932447467E+03  0.76932447468E+03  0.25500000920E-02 0.  1.
        2   -1    0    0  501    0  0.00000000000E+00  0.00000000000E+00 -0.20245557479E+04  0.20245557479E+04  0.25500000920E-02 0. -1.
    10030    2    1    2    0    0  0.00000000000E+00  0.00000000000E+00 -0.12552312732E+04  0.27938802225E+04  0.24960290761E+04 0.  0.
        2    1    3    3  502    0 -0.41508660912E+03 -0.67964094096E+03  0.44795017571E+03  0.91371114781E+03  0.25500000920E-02 0.  1.
       -2    1    3    3    0  502  0.41508660912E+03  0.67964094096E+03 -0.17031814489E+04  0.18801690747E+04  0.25500000920E-02 0. -1.
</event>
<event>
 5   0  0.3522870E-06  0.2502065E+04  0.7818609E-02  0.8402250E-01
       -1   -1    0    0    0  501  0.00000000000E+00  0.00000000000E+00  0.10247978351E+04  0.10247978352E+04  0.50400001928E-02 0. -1.
        1   -1    0    0  501    0  0.00000000000E+00  0.00000000000E+00 -0.15272104438E+04  0.15272104439E+04  0.50400001928E-02 0.  1.
    10030    2    1    2    0    0  0.00000000000E+00  0.00000000000E+00 -0.50241260871E+03  0.25520082790E+04  0.25020647127E+04 0.  0.
        2    1    3    3  502    0 -0.19094071236E+03 -0.11990218062E+04  0.56427018732E+02  0.12154405192E+04  0.25500000920E-02 0. -1.
       -2    1    3    3    0  502  0.19094071236E+03  0.11990218062E+04 -0.55883962744E+03  0.13365677598E+04  0.25500000920E-02 0.  1.
</event>
<event>
 5   0  0.3522870E-06  0.2531574E+04  0.7818609E-02  0.8391823E-01
       -1   -1    0    0    0  501  0.00000000000E+00  0.00000000000E+00  0.11504586292E+04  0.11504586293E+04  0.50400001928E-02 0. -1.
        1   -1    0    0  501    0  0.00000000000E+00  0.00000000000E+00 -0.13926764613E+04  0.13926764613E+04  0.50400001928E-02 0.  1.
    10030    2    1    2    0    0  0.00000000000E+00  0.00000000000E+00 -0.24221783203E+03  0.25431350905E+04  0.25315739394E+04 0.  0.
        2    1    3    3  502    0  0.84870282173E+03  0.42975627978E+03 -0.95992501563E+03  0.13514595722E+04  0.25500000920E-02 0.  1.
       -2    1    3    3    0  502 -0.84870282173E+03 -0.42975627978E+03  0.71770718360E+03  0.11916755183E+04  0.25500000920E-02 0. -1.
</event>
<event>
 5   0  0.3424193E-06  0.2501683E+04  0.7818609E-02  0.8402386E-01
        1   -1    0    0  501    0  0.00000000000E+00  0.00000000000E+00  0.11217495352E+04  0.11217495352E+04  0.50400001928E-02 0.  1.
       -1   -1    0    0    0  501  0.00000000000E+00  0.00000000000E+00 -0.13947898290E+04  0.13947898290E+04  0.50400001928E-02 0. -1.
    10030    2    1    2    0    0  0.00000000000E+00  0.00000000000E+00 -0.27304029379E+03  0.25165393641E+04  0.25016833072E+04 0.  0.
        1    1    3    3  502    0  0.52064639798E+03 -0.26391284765E+03 -0.12493818647E+04  0.13790133091E+04  0.50400001928E-02 0. -1.
       -1    1    3    3    0  502 -0.52064639798E+03  0.26391284765E+03  0.97634157087E+03  0.11375260551E+04  0.50400001928E-02 0.  1.
</event>
<event>
 5   0  0.8056723E-06  0.2509020E+04  0.7818609E-02  0.8399779E-01
        2   -1    0    0  501    0  0.00000000000E+00  0.00000000000E+00  0.13233907922E+04  0.13233907922E+04  0.25500000920E-02 0. -1.
       -2   -1    0    0    0  501  0.00000000000E+00  0.00000000000E+00 -0.11892141125E+04  0.11892141125E+04  0.25500000920E-02 0.  1.
    10030    2    1    2    0    0  0.00000000000E+00  0.00000000000E+00  0.13417667969E+03  0.25126049046E+04  0.25090197340E+04 0.  0.
        2    1    3    3  502    0 -0.43385607861E+03  0.95251690546E+03 -0.62547447946E+03  0.12193186116E+04  0.25500000920E-02 0.  1.
       -2    1    3    3    0  502  0.43385607861E+03 -0.95251690546E+03  0.75965115915E+03  0.12932862930E+04  0.25500000920E-02 0. -1.
</event>
<event>
 5   0  0.8948286E-06  0.2502771E+04  0.7818609E-02  0.8401999E-01
        2   -1    0    0  501    0  0.00000000000E+00  0.00000000000E+00  0.18219844026E+04  0.18219844026E+04  0.25500000920E-02 0.  1.
       -2   -1    0    0    0  501  0.00000000000E+00  0.00000000000E+00 -0.85948326144E+03  0.85948326144E+03  0.25500000920E-02 0. -1.
    10030    2    1    2    0    0  0.00000000000E+00  0.00000000000E+00  0.96250114112E+03  0.26814676640E+04  0.25027705421E+04 0.  0.
        4    1    3    3  502    0 -0.28291225845E+03 -0.12206754550E+03 -0.81820476697E+03  0.87429999728E+03  0.12699999809E+01 0. -1.
       -4    1    3    3    0  502  0.28291225845E+03  0.12206754550E+03  0.17807059081E+04  0.18071676667E+04  0.12699999809E+01 0.  1.
</event>
<event>
 5   0  0.3424193E-06  0.2492036E+04  0.7818609E-02  0.8405828E-01
       -1   -1    0    0    0  501  0.00000000000E+00  0.00000000000E+00  0.11472272520E+04  0.11472272520E+04  0.50400001928E-02 0. -1.
        1   -1    0    0  501    0  0.00000000000E+00  0.00000000000E+00 -0.13533159801E+04  0.13533159801E+04  0.50400001928E-02 0.  1.
    10030    2    1    2    0    0  0.00000000000E+00  0.00000000000E+00 -0.20608872805E+03  0.25005432321E+04  0.24920360936E+04 0.  0.
        1    1    3    3  502    0  0.12354266137E+04 -0.13818605361E+03 -0.17980740456E+02  0.12432608778E+04  0.50400001928E-02 0.  1.
       -1    1    3    3    0  502 -0.12354266137E+04  0.13818605361E+03 -0.18810798760E+03  0.12572823543E+04  0.50400001928E-02 0. -1.
</event>
<event>
 5   0  0.8579923E-06  0.2506815E+04  0.7818609E-02  0.8400562E-01
       -2   -1    0    0    0  501  0.00000000000E+00  0.00000000000E+00  0.16325400946E+04  0.16325400946E+04  0.25500000920E-02 0. -1.
        2   -1    0    0  501    0  0.00000000000E+00  0.00000000000E+00 -0.96232234409E+03  0.96232234409E+03  0.25500000920E-02 0.  1.
    10030    2    1    2    0    0  0.00000000000E+00  0.00000000000E+00  0.67021775051E+03  0.25948624387E+04  0.25068145609E+04 0.  0.
        1    1    3    3  502    0 -0.12858099375E+03  0.10855327225E+04  0.96993196729E+03  0.14613974082E+04  0.50400001928E-02 0. -1.
       -1    1    3    3    0  502  0.12858099375E+03 -0.10855327225E+04 -0.29971421678E+03  0.11334650305E+04  0.50400001928E-02 0.  1.
</event>
<event>
 5   0  0.3522870E-06  0.2505562E+04  0.7818609E-02  0.8401007E-01
        1   -1    0    0  501    0  0.00000000000E+00  0.00000000000E+00  0.15376734301E+04  0.15376734301E+04  0.50400001928E-02 0.  1.
       -1   -1    0    0    0  501  0.00000000000E+00  0.00000000000E+00 -0.10206719762E+04  0.10206719762E+04  0.50400001928E-02 0. -1.
    10030    2    1    2    0    0  0.00000000000E+00  0.00000000000E+00  0.51700145396E+03  0.25583454063E+04  0.25055619559E+04 0.  0.
        2    1    3    3  502    0  0.84163232301E+03  0.51030083319E+03  0.10498821268E+04  0.14390984635E+04  0.25500000920E-02 0.  1.
       -2    1    3    3    0  502 -0.84163232301E+03 -0.51030083319E+03 -0.53288067285E+03  0.11192469428E+04  0.25500000920E-02 0. -1.
</event>
<event>
 5   0  0.3424193E-06  0.2512310E+04  0.7818609E-02  0.8398613E-01
       -1   -1    0    0    0  501  0.00000000000E+00  0.00000000000E+00  0.13387736428E+04  0.13387736428E+04  0.50400001928E-02 0.  1.
        1   -1    0    0  501    0  0.00000000000E+00  0.00000000000E+00 -0.11786353161E+04  0.11786353161E+04  0.50400001928E-02 0. -1.
    10030    2    1    2    0    0  0.00000000000E+00  0.00000000000E+00  0.16013832665E+03  0.25174089589E+04  0.25123104073E+04 0.  0.
        1    1    3    3  502    0  0.99700783574E+03 -0.26669467964E+03 -0.63746732428E+03  0.12130602896E+04  0.50400001928E-02 0. -1.
       -1    1    3    3    0  502 -0.99700783574E+03  0.26669467964E+03  0.79760565093E+03  0.13043486693E+04  0.50400001928E-02 0.  1.
</event>
<event>
 5   0  0.3424193E-06  0.2503979E+04  0.7818609E-02  0.8401569E-01
       -1   -1    0    0    0  501  0.00000000000E+00  0.00000000000E+00  0.14475010656E+04  0.14475010656E+04  0.50400001928E-02 0. -1.
        1   -1    0    0  501    0  0.00000000000E+00  0.00000000000E+00 -0.10828853073E+04  0.10828853073E+04  0.50400001928E-02 0.  1.
    10030    2    1    2    0    0  0.00000000000E+00  0.00000000000E+00  0.36461575834E+03  0.25303863729E+04  0.25039789426E+04 0.  0.
        1    1    3    3  502    0 -0.31576657753E+03 -0.51447160114E+03 -0.92611346223E+03  0.11054753298E+04  0.50400001928E-02 0.  1.
       -1    1    3    3    0  502  0.31576657753E+03  0.51447160114E+03  0.12907292206E+04  0.14249110431E+04  0.50400001928E-02 0. -1.
</event>
<event>
 5   0  0.3424193E-06  0.2505923E+04  0.7818609E-02  0.8400879E-01
       -1   -1    0    0    0  501  0.00000000000E+00  0.00000000000E+00  0.13974644346E+04  0.13974644346E+04  0.50400001928E-02 0.  1.
        1   -1    0    0  501    0  0.00000000000E+00  0.00000000000E+00 -0.11234003975E+04  0.11234003975E+04  0.50400001928E-02 0. -1.
    10030    2    1    2    0    0  0.00000000000E+00  0.00000000000E+00  0.27406403706E+03  0.25208648321E+04  0.25059226655E+04 0.  0.
        1    1    3    3  502    0  0.34995334766E+03 -0.53087451095E+03 -0.94904302289E+03  0.11423562278E+04  0.50400001928E-02 0. -1.
       -1    1    3    3    0  502 -0.34995334766E+03  0.53087451095E+03  0.12231070600E+04  0.13785086043E+04  0.50400001928E-02 0.  1.
</event>
<event>
 5   0  0.3424193E-06  0.2515377E+04  0.7818609E-02  0.8397528E-01
        1   -1    0    0  501    0  0.00000000000E+00  0.00000000000E+00  0.19092196365E+04  0.19092196365E+04  0.50400001928E-02 0. -1.
       -1   -1    0    0    0  501  0.00000000000E+00  0.00000000000E+00 -0.82849600922E+03  0.82849600923E+03  0.50400001928E-02 0.  1.
    10030    2    1    2    0    0  0.00000000000E+00  0.00000000000E+00  0.10807236273E+04  0.27377156458E+04  0.25153773869E+04 0.  0.
        1    1    3    3  502    0 -0.96600881674E+03  0.80245622185E+03  0.46596941041E+03  0.13394911398E+04  0.50400001928E-02 0. -1.
       -1    1    3    3    0  502  0.96600881674E+03 -0.80245622185E+03  0.61475421691E+03  0.13982245060E+04  0.50400001928E-02 0.  1.
</event>
<event>
 5   0  0.3522870E-06  0.2509989E+04  0.7818609E-02  0.8399436E-01
        1   -1    0    0  501    0  0.00000000000E+00  0.00000000000E+00  0.12461320342E+04  0.12461320342E+04  0.50400001928E-02 0. -1.
       -1   -1    0    0    0  501  0.00000000000E+00  0.00000000000E+00 -0.12639195142E+04  0.12639195142E+04  0.50400001928E-02 0.  1.
    10030    2    1    2    0    0  0.00000000000E+00  0.00000000000E+00 -0.17787480038E+02  0.25100515484E+04  0.25099885222E+04 0.  0.
        2    1    3    3  502    0 -0.54032858503E+03  0.31521854833E+03 -0.10968975675E+04  0.12627359132E+04  0.25500000920E-02 0.  1.
       -2    1    3    3    0  502  0.54032858503E+03 -0.31521854833E+03  0.10791100874E+04  0.12473156352E+04  0.25500000920E-02 0. -1.
</event>
<event>
 5   0  0.3424193E-06  0.2496550E+04  0.7818609E-02  0.8404215E-01
        1   -1    0    0  501    0  0.00000000000E+00  0.00000000000E+00  0.14882017677E+04  0.14882017677E+04  0.50400001928E-02 0. -1.
       -1   -1    0    0    0  501  0.00000000000E+00  0.00000000000E+00 -0.10470294337E+04  0.10470294337E+04  0.50400001928E-02 0.  1.
    10030    2    1    2    0    0  0.00000000000E+00  0.00000000000E+00  0.44117233401E+03  0.25352312014E+04  0.24965504634E+04 0.  0.
        1    1    3    3  502    0  0.53328718922E+03 -0.55817855436E+03  0.12167189646E+04  0.14409592512E+04  0.50400001928E-02 0. -1.
       -1    1    3    3    0  502 -0.53328718922E+03  0.55817855436E+03 -0.77554663059E+03  0.10942719502E+04  0.50400001928E-02 0.  1.
</event>
<event>
 5   0  0.8056723E-06  0.2501818E+04  0.7818609E-02  0.8402338E-01
       -2   -1    0    0    0  501  0.00000000000E+00  0.00000000000E+00  0.55590455418E+03  0.55590455419E+03  0.25500000920E-02 0. -1.
        2   -1    0    0  501    0  0.00000000000E+00  0.00000000000E+00 -0.28148245719E+04  0.28148245719E+04  0.25500000920E-02 0.  1.
    10030    2    1    2    0    0  0.00000000000E+00  0.00000000000E+00 -0.22589200177E+04  0.33707291260E+04  0.25018183777E+04 0.  0.
        2    1    3    3  502    0  0.88620898335E+03  0.18341613581E+03 -0.22929679529E+04  0.24650983498E+04  0.25500000920E-02 0.  1.
       -2    1    3    3    0  502 -0.88620898335E+03 -0.18341613581E+03  0.34047935217E+02  0.90563077628E+03  0.25500000920E-02 0. -1.
</event>
<event>
 5   0  0.3522870E-06  0.2518649E+04  0.7818609E-02  0.8396372E-01
        1   -1    0    0  501    0  0.00000000000E+00  0.00000000000E+00  0.14465729228E+04  0.14465729228E+04  0.50400001928E-02 0. -1.
       -1   -1    0    0    0  501  0.00000000000E+00  0.00000000000E+00 -0.10963139997E+04  0.10963139997E+04  0.50400001928E-02 0.  1.
    10030    2    1    2    0    0  0.00000000000E+00  0.00000000000E+00  0.35025892314E+03  0.25428869225E+04  0.25186489607E+04 0.  0.
        2    1    3    3  502    0 -0.18709534276E+03  0.45746339677E+03 -0.99430068517E+03  0.11103653809E+04  0.25500000920E-02 0.  1.
       -2    1    3    3    0  502  0.18709534276E+03 -0.45746339677E+03  0.13445596083E+04  0.14325215415E+04  0.25500000920E-02 0. -1.
</event>
<event>
 5   0  0.3642184E-06  0.2502208E+04  0.7818609E-02  0.8402199E-01
       -1   -1    0    0    0  501  0.00000000000E+00  0.00000000000E+00  0.16475693812E+04  0.16475693812E+04  0.50400001928E-02 0. -1.
        1   -1    0    0  501    0  0.00000000000E+00  0.00000000000E+00 -0.95004275948E+03  0.95004275950E+03  0.50400001928E-02 0.  1.
    10030    2    1    2    0    0  0.00000000000E+00  0.00000000000E+00  0.69752662174E+03  0.25976121407E+04  0.25022081140E+04 0.  0.
        5    1    3    3  502    0 -0.40889874557E+03  0.35157818202E+03  0.15207145154E+04  0.16135055406E+04  0.46999998093E+01 0. -1.
       -5    1    3    3    0  502  0.40889874557E+03 -0.35157818202E+03 -0.82318789364E+03  0.98410660014E+03  0.46999998093E+01 0.  1.
</event>
<event>
 5   0  0.8579923E-06  0.2500659E+04  0.7818609E-02  0.8402751E-01
        2   -1    0    0  501    0  0.00000000000E+00  0.00000000000E+00  0.10955834342E+04  0.10955834342E+04  0.25500000920E-02 0. -1.
       -2   -1    0    0    0  501  0.00000000000E+00  0.00000000000E+00 -0.14269324806E+04  0.14269324806E+04  0.25500000920E-02 0.  1.
    10030    2    1    2    0    0  0.00000000000E+00  0.00000000000E+00 -0.33134904637E+03  0.25225159148E+04  0.25006587831E+04 0.  0.
        1    1    3    3  502    0 -0.41053761966E+03 -0.98456386384E+03 -0.82361501886E+03  0.13476827663E+04  0.50400001928E-02 0.  1.
       -1    1    3    3    0  502  0.41053761966E+03  0.98456386384E+03  0.49226597248E+03  0.11748331485E+04  0.50400001928E-02 0. -1.
</event>
<event>
 5   0  0.8579923E-06  0.2497197E+04  0.7818609E-02  0.8403985E-01
        2   -1    0    0  501    0  0.00000000000E+00  0.00000000000E+00  0.18812529758E+04  0.18812529758E+04  0.25500000920E-02 0.  1.
       -2   -1    0    0    0  501  0.00000000000E+00  0.00000000000E+00 -0.82870192656E+03  0.82870192656E+03  0.25500000920E-02 0. -1.
    10030    2    1    2    0    0  0.00000000000E+00  0.00000000000E+00  0.10525510492E+04  0.27099549023E+04  0.24971968007E+04 0.  0.
        1    1    3    3  502    0 -0.18936125526E+03  0.11293948632E+04  0.10662723564E+04  0.15647131303E+04  0.50400001928E-02 0.  1.
       -1    1    3    3    0  502  0.18936125526E+03 -0.11293948632E+04 -0.13721307209E+02  0.11452417720E+04  0.50400001928E-02 0. -1.
</event>
<event>
 5   0  0.8056723E-06  0.2500415E+04  0.7818609E-02  0.8402838E-01
       -2   -1    0    0    0  501  0.00000000000E+00  0.00000000000E+00  0.87051091748E+03  0.87051091749E+03  0.25500000920E-02 0.  1.
        2   -1    0    0  501    0  0.00000000000E+00  0.00000000000E+00 -0.17955183295E+04  0.17955183295E+04  0.25500000920E-02 0. -1.
    10030    2    1    2    0    0  0.00000000000E+00  0.00000000000E+00 -0.92500741205E+03  0.26660292470E+04  0.25004146124E+04 0.  0.
        2    1    3    3  502    0 -0.93102570723E+03  0.49468735678E+02 -0.13505962512E+04  0.16411478474E+04  0.25500000920E-02 0. -1.
       -2    1    3    3    0  502  0.93102570723E+03 -0.49468735678E+02  0.42558883911E+03  0.10248813996E+04  0.25500000920E-02 0.  1.
</event>
<event>
 5   0  0.8407986E-06  0.2581969E+04  0.7818609E-02  0.8374352E-01
        2   -1    0    0  501    0  0.00000000000E+00  0.00000000000E+00  0.18747296030E+04  0.18747296030E+04  0.25500000920E-02 0. -1.
       -2   -1    0    0    0  501  0.00000000000E+00  0.00000000000E+00 -0.88900371946E+03  0.88900371946E+03  0.25500000920E-02 0.  1.
    10030    2    1    2    0    0  0.00000000000E+00  0.00000000000E+00  0.98572588351E+03  0.27637333224E+04  0.25819694731E+04 0.  0.
        5    1    3    3  502    0 -0.12422705368E+04  0.35013015577E+03  0.52299205837E+03  0.13926126510E+04  0.46999998093E+01 0. -1.
       -5    1    3    3    0  502  0.12422705368E+04 -0.35013015577E+03  0.46273382514E+03  0.13711206714E+04  0.46999998093E+01 0.  1.
</event>
<event>
 5   0  0.3481387E-06  0.2514459E+04  0.7818609E-02  0.8397853E-01
       -1   -1    0    0    0  501  0.00000000000E+00  0.00000000000E+00  0.14534757812E+04  0.14534757812E+04  0.50400001928E-02 0.  1.
        1   -1    0    0  501    0  0.00000000000E+00  0.00000000000E+00 -0.10874799893E+04  0.10874799893E+04  0.50400001928E-02 0. -1.
    10030    2    1    2    0    0  0.00000000000E+00  0.00000000000E+00  0.36599579192E+03  0.25409557705E+04  0.25144588500E+04 0.  0.
        4    1    3    3  502    0 -0.49207066295E+02  0.31878277325E+03  0.14109491468E+04  0.14473503030E+04  0.12699999809E+01 0.  1.
       -4    1    3    3    0  502  0.49207066295E+02 -0.31878277325E+03 -0.10449533549E+04  0.10936054675E+04  0.12699999809E+01 0. -1.
</event>
<event>
 5   0  0.8579923E-06  0.2489257E+04  0.7818609E-02  0.8406823E-01
       -2   -1    0    0    0  501  0.00000000000E+00  0.00000000000E+00  0.12172463307E+04  0.12172463307E+04  0.25500000920E-02 0. -1.
        2   -1    0    0  501    0  0.00000000000E+00  0.00000000000E+00 -0.12726262018E+04  0.12726262018E+04  0.25500000920E-02 0.  1.
    10030    2    1    2    0    0  0.00000000000E+00  0.00000000000E+00 -0.55379871123E+02  0.24898725325E+04  0.24892565753E+04 0.  0.
        1    1    3    3  502    0 -0.11514888978E+04  0.21502765262E+03  0.39305176240E+03  0.12355781081E+04  0.50400001928E-02 0. -1.
       -1    1    3    3    0  502  0.11514888978E+04 -0.21502765262E+03 -0.44843163352E+03  0.12542944244E+04  0.50400001928E-02 0.  1.
</event>
<event>
 5   0  0.3424193E-06  0.2513540E+04  0.7818609E-02  0.8398178E-01
        1   -1    0    0  501    0  0.00000000000E+00  0.00000000000E+00  0.10669197302E+04  0.10669197303E+04  0.50400001928E-02 0. -1.
       -1   -1    0    0    0  501  0.00000000000E+00  0.00000000000E+00 -0.14804025205E+04  0.14804025206E+04  0.50400001928E-02 0.  1.
    10030    2    1    2    0    0  0.00000000000E+00  0.00000000000E+00 -0.41348279030E+03  0.25473222508E+04  0.25135398608E+04 0.  0.
        1    1    3    3  502    0 -0.55348535668E+03 -0.32984399287E+03  0.88680119142E+03  0.10961566735E+04  0.50400001928E-02 0. -1.
       -1    1    3    3    0  502  0.55348535668E+03  0.32984399287E+03 -0.13002839817E+04  0.14511655773E+04  0.50400001928E-02 0.  1.
</event>
<event>
 5   0  0.3522870E-06  0.2495381E+04  0.7818609E-02  0.8404633E-01
       -1   -1    0    0    0  501  0.00000000000E+00  0.00000000000E+00  0.14645387681E+04  0.14645387682E+04  0.50400001928E-02 0. -1.
        1   -1    0    0  501    0  0.00000000000E+00  0.00000000000E+00 -0.10629498741E+04  0.10629498741E+04  0.50400001928E-02 0.  1.
    10030    2    1    2    0    0  0.00000000000E+00  0.00000000000E+00  0.40158889403E+03  0.25274886423E+04  0.24953807720E+04 0.  0.
        2    1    3    3  502    0 -0.22038904685E+03  0.80452330867E+03 -0.73899226588E+03  0.11144230145E+04  0.25500000920E-02 0.  1.
       -2    1    3    3    0  502  0.22038904685E+03 -0.80452330867E+03  0.11405811599E+04  0.14130656278E+04  0.25500000920E-02 0. -1.
</event>
<event>
 5   0  0.3424193E-06  0.2497997E+04  0.7818609E-02  0.8403699E-01
        1   -1    0    0  501    0  0.00000000000E+00  0.00000000000E+00  0.13161862689E+04  0.13161862689E+04  0.50400001928E-02 0.  1.
       -1   -1    0    0    0  501  0.00000000000E+00  0.00000000000E+00 -0.11852409060E+04  0.11852409060E+04  0.50400001928E-02 0. -1.
    10030    2    1    2    0    0  0.00000000000E+00  0.00000000000E+00  0.13094536291E+03  0.25014271749E+04  0.24979974426E+04 0.  0.
        1    1    3    3  502    0  0.83588331177E+03 -0.88329256814E+03 -0.21968334939E+03  0.12357861651E+04  0.50400001928E-02 0. -1.
       -1    1    3    3    0  502 -0.83588331177E+03  0.88329256814E+03  0.35062871230E+03  0.12656410098E+04  0.50400001928E-02 0.  1.
</event>
<event>
 5   0  0.3642184E-06  0.2502305E+04  0.7818609E-02  0.8402165E-01
        1   -1    0    0  501    0  0.00000000000E+00  0.00000000000E+00  0.27599225727E+04  0.27599225727E+04  0.50400001928E-02 0. -1.
       -1   -1    0    0    0  501  0.00000000000E+00  0.00000000000E+00 -0.56718354174E+03  0.56718354176E+03  0.50400001928E-02 0.  1.
    10030    2    1    2    0    0  0.00000000000E+00  0.00000000000E+00  0.21927390310E+04  0.33271061145E+04  0.25023050651E+04 0.  0.
        5    1    3    3  502    0 -0.24254737194E+02  0.10382787216E+04  0.20240089178E+04  0.22749165227E+04  0.46999998093E+01 0. -1.
       -5    1    3    3    0  502  0.24254737194E+02 -0.10382787216E+04  0.16873011320E+03  0.10521895918E+04  0.46999998093E+01 0.  1.
</event>
<event>
 5   0  0.3522870E-06  0.2452648E+04  0.7818609E-02  0.8420052E-01
        1   -1    0    0  501    0  0.00000000000E+00  0.00000000000E+00  0.13555009730E+04  0.13555009730E+04  0.50400001928E-02 0.  1.
       -1   -1    0    0    0  501  0.00000000000E+00  0.00000000000E+00 -0.11094573468E+04  0.11094573468E+04  0.50400001928E-02 0. -1.
    10030    2    1    2    0    0  0.00000000000E+00  0.00000000000E+00  0.24604362618E+03  0.24649583198E+04  0.24526479675E+04 0.  0.
        2    1    3    3  502    0 -0.15634367449E+03 -0.16782750786E+03 -0.10877077281E+04  0.11116283186E+04  0.25500000920E-02 0. -1.
       -2    1    3    3    0  502  0.15634367449E+03  0.16782750786E+03  0.13337513543E+04  0.13533300012E+04  0.25500000920E-02 0.  1.
</event>
<event>
 5   0  0.8579923E-06  0.2495116E+04  0.7818609E-02  0.8404728E-01
        2   -1    0    0  501    0  0.00000000000E+00  0.00000000000E+00  0.91969140171E+03  0.91969140172E+03  0.25500000920E-02 0.  1.
       -2   -1    0    0    0  501  0.00000000000E+00  0.00000000000E+00 -0.16923071600E+04  0.16923071600E+04  0.25500000920E-02 0. -1.
    10030    2    1    2    0    0  0.00000000000E+00  0.00000000000E+00 -0.77261575824E+03  0.26119985617E+04  0.24951155036E+04 0.  0.
        1    1    3    3  502    0 -0.61408961584E+03  0.81981100115E+03 -0.11318526074E+04  0.15265275820E+04  0.50400001928E-02 0. -1.
       -1    1    3    3    0  502  0.61408961584E+03 -0.81981100115E+03  0.35923684911E+03  0.10854709797E+04  0.50400001928E-02 0.  1.
</event>
<event>
 5   0  0.8354653E-06  0.2423087E+04  0.7818609E-02  0.8430910E-01
       -2   -1    0    0    0  501  0.00000000000E+00  0.00000000000E+00  0.13243877920E+04  0.13243877920E+04  0.25500000920E-02 0.  1.
        2   -1    0    0  501    0  0.00000000000E+00  0.00000000000E+00 -0.11083143627E+04  0.11083143627E+04  0.25500000920E-02 0. -1.
    10030    2    1    2    0    0  0.00000000000E+00  0.00000000000E+00  0.21607342928E+03  0.24327021547E+04  0.24230872966E+04 0.  0.
        3    1    3    3  502    0  0.13093019289E+03  0.14975297399E+03  0.13078811308E+04  0.13229216648E+04  0.10100000352E+00 0.  1.
       -3    1    3    3    0  502 -0.13093019289E+03 -0.14975297399E+03 -0.10918077015E+04  0.11097804900E+04  0.10100000352E+00 0. -1.
</event>
<event>
 5   0  0.3424193E-06  0.2492894E+04  0.7818609E-02  0.8405521E-01
        1   -1    0    0  501    0  0.00000000000E+00  0.00000000000E+00  0.30252032048E+04  0.30252032048E+04  0.50400001928E-02 0.  1.
       -1   -1    0    0    0  501  0.00000000000E+00  0.00000000000E+00 -0.51356224382E+03  0.51356224385E+03  0.50400001928E-02 0. -1.
    10030    2    1    2    0    0  0.00000000000E+00  0.00000000000E+00  0.25116409610E+04  0.35387654486E+04  0.24928940177E+04 0.  0.
        1    1    3    3  502    0  0.10373729909E+04  0.13680259304E+02  0.27510325177E+03  0.10733180660E+04  0.50400001928E-02 0. -1.
       -1    1    3    3    0  502 -0.10373729909E+04 -0.13680259304E+02  0.22365377092E+04  0.24654473826E+04  0.50400001928E-02 0.  1.
</event>
<event>
 5   0  0.3522870E-06  0.2511673E+04  0.7818609E-02  0.8398839E-01
        1   -1    0    0  501    0  0.00000000000E+00  0.00000000000E+00  0.17696765584E+04  0.17696765584E+04  0.50400001928E-02 0. -1.
       -1   -1    0    0    0  501  0.00000000000E+00  0.00000000000E+00 -0.89119388430E+03  0.89119388431E+03  0.50400001928E-02 0.  1.
    10030    2    1    2    0    0  0.00000000000E+00  0.00000000000E+00  0.87848267406E+03  0.26608704427E+04  0.25116726905E+04 0.  0.
        2    1    3    3  502    0 -0.12479884534E+04  0.11594544630E+03  0.52270175481E+03  0.13579895621E+04  0.25500000920E-02 0. -1.
       -2    1    3    3    0  502  0.12479884534E+04 -0.11594544630E+03  0.35578091926E+03  0.13028808805E+04  0.25500000920E-02 0.  1.
</event>
<event>
 5   0  0.3424193E-06  0.2490325E+04  0.7818609E-02  0.8406440E-01
       -1   -1    0    0    0  501  0.00000000000E+00  0.00000000000E+00  0.10589267761E+04  0.10589267761E+04  0.50400001928E-02 0.  1.
        1   -1    0    0  501    0  0.00000000000E+00  0.00000000000E+00 -0.14641524628E+04  0.14641524628E+04  0.50400001928E-02 0. -1.
    10030    2    1    2    0    0  0.00000000000E+00  0.00000000000E+00 -0.40522568663E+03  0.25230792389E+04  0.24903254785E+04 0.  0.
        1    1    3    3  502    0  0.64642108390E+03  0.21270264662E+03  0.85385184811E+03  0.10918633670E+04  0.50400001928E-02 0.  1.
       -1    1    3    3    0  502 -0.64642108390E+03 -0.21270264662E+03 -0.12590775347E+04  0.14312158719E+04  0.50400001928E-02 0. -1.
</event>
<event>
 5   0  0.3522870E-06  0.2505043E+04  0.7818609E-02  0.8401191E-01
       -1   -1    0    0    0  501  0.00000000000E+00  0.00000000000E+00  0.22608799536E+04  0.22608799536E+04  0.50400001928E-02 0.  1.
        1   -1    0    0  501    0  0.00000000000E+00  0.00000000000E+00 -0.69389352676E+03  0.69389352678E+03  0.50400001928E-02 0. -1.
    10030    2    1    2    0    0  0.00000000000E+00  0.00000000000E+00  0.15669864269E+04  0.29547734804E+04  0.25050428856E+04 0.  0.
        2    1    3    3  502    0 -0.10391771728E+04  0.52339367536E+03  0.23659326349E+03  0.11873527311E+04  0.25500000920E-02 0. -1.
       -2    1    3    3    0  502  0.10391771728E+04 -0.52339367536E+03  0.13303931634E+04  0.17674207493E+04  0.25500000920E-02 0.  1.
</event>
<event>
 5   0  0.3484857E-06  0.2501680E+04  0.7818609E-02  0.8402387E-01
        1   -1    0    0  501    0  0.00000000000E+00  0.00000000000E+00  0.16483860504E+04  0.16483860504E+04  0.50400001928E-02 0. -1.
       -1   -1    0    0    0  501  0.00000000000E+00  0.00000000000E+00 -0.94917123585E+03  0.94917123586E+03  0.50400001928E-02 0.  1.
    10030    2    1    2    0    0  0.00000000000E+00  0.00000000000E+00  0.69921481458E+03  0.25975572863E+04  0.25016799353E+04 0.  0.
        3    1    3    3  502    0  0.10184425861E+04 -0.65983317946E+03  0.34675506873E+02  0.12140047475E+04  0.10100000352E+00 0.  1.
       -3    1    3    3    0  502 -0.10184425861E+04  0.65983317946E+03  0.66453930771E+03  0.13835525388E+04  0.10100000352E+00 0. -1.
</event>
<event>
 5   0  0.8579923E-06  0.2495009E+04  0.7818609E-02  0.8404766E-01
        2   -1    0    0  501    0  0.00000000000E+00  0.00000000000E+00  0.12904001345E+04  0.12904001345E+04  0.25500000920E-02 0. -1.
       -2   -1    0    0    0  501  0.00000000000E+00  0.00000000000E+00 -0.12060349498E+04  0.12060349498E+04  0.25500000920E-02 0.  1.
    10030    2    1    2    0    0  0.00000000000E+00  0.00000000000E+00  0.84365184739E+02  0.24964350843E+04  0.24950091474E+04 0.  0.
        1    1    3    3  502    0 -0.40220097045E+03 -0.46508002979E+03  0.11282533608E+04  0.12849205038E+04  0.50400001928E-02 0. -1.
       -1    1    3    3    0  502  0.40220097045E+03  0.46508002979E+03 -0.10438881761E+04  0.12115145806E+04  0.50400001928E-02 0.  1.
</event>
<event>
 5   0  0.3642184E-06  0.2504885E+04  0.7818609E-02  0.8401247E-01
        1   -1    0    0  501    0  0.00000000000E+00  0.00000000000E+00  0.12689086891E+04  0.12689086891E+04  0.50400001928E-02 0. -1.
       -1   -1    0    0    0  501  0.00000000000E+00  0.00000000000E+00 -0.12361903099E+04  0.12361903100E+04  0.50400001928E-02 0.  1.
    10030    2    1    2    0    0  0.00000000000E+00  0.00000000000E+00  0.32718379145E+02  0.25050989991E+04  0.25048853273E+04 0.  0.
        5    1    3    3  502    0 -0.65026147608E+03  0.72560609634E+03  0.80334838378E+03  0.12628281396E+04  0.46999998093E+01 0. -1.
       -5    1    3    3    0  502  0.65026147608E+03 -0.72560609634E+03 -0.77063000464E+03  0.12422708595E+04  0.46999998093E+01 0.  1.
</event>
<event>
 5   0  0.8056723E-06  0.2499091E+04  0.7818609E-02  0.8403310E-01
        2   -1    0    0  501    0  0.00000000000E+00  0.00000000000E+00  0.30134473502E+04  0.30134473502E+04  0.25500000920E-02 0. -1.
       -2   -1    0    0    0  501  0.00000000000E+00  0.00000000000E+00 -0.51813194982E+03  0.51813194983E+03  0.25500000920E-02 0.  1.
    10030    2    1    2    0    0  0.00000000000E+00  0.00000000000E+00  0.24953154003E+04  0.35315793000E+04  0.24990905156E+04 0.  0.
        2    1    3    3  502    0  0.38240125833E+03  0.10107286619E+04  0.21341859170E+04  0.23921857534E+04  0.25500000920E-02 0. -1.
       -2    1    3    3    0  502 -0.38240125833E+03 -0.10107286619E+04  0.36112948333E+03  0.11393935466E+04  0.25500000920E-02 0.  1.
</event>
<event>
 5   0  0.3522870E-06  0.2504475E+04  0.7818609E-02  0.8401393E-01
       -1   -1    0    0    0  501  0.00000000000E+00  0.00000000000E+00  0.10481001127E+04  0.10481001127E+04  0.50400001928E-02 0.  1.
        1   -1    0    0  501    0  0.00000000000E+00  0.00000000000E+00 -0.14961348810E+04  0.14961348810E+04  0.50400001928E-02 0. -1.
    10030    2    1    2    0    0  0.00000000000E+00  0.00000000000E+00 -0.44803476834E+03  0.25442349937E+04  0.25044753043E+04 0.  0.
        2    1    3    3  502    0  0.57465419066E+03 -0.96105751919E+03  0.34545320595E+03  0.11718348482E+04  0.25500000920E-02 0.  1.
       -2    1    3    3    0  502 -0.57465419066E+03  0.96105751919E+03 -0.79348797429E+03  0.13724001455E+04  0.25500000920E-02 0. -1.
</event>
<event>
 5   0  0.8354653E-06  0.2500249E+04  0.7818609E-02  0.8402897E-01
       -2   -1    0    0    0  501  0.00000000000E+00  0.00000000000E+00  0.12577197870E+04  0.12577197870E+04  0.25500000920E-02 0.  1.
        2   -1    0    0  501    0  0.00000000000E+00  0.00000000000E+00 -0.12425751253E+04  0.12425751253E+04  0.25500000920E-02 0. -1.
    10030    2    1    2    0    0  0.00000000000E+00  0.00000000000E+00  0.15144661707E+02  0.25002949122E+04  0.25002490451E+04 0.  0.
        3    1    3    3  502    0 -0.35460605139E+03 -0.48160787055E+03 -0.10902272571E+04  0.12434979192E+04  0.10100000352E+00 0. -1.
       -3    1    3    3    0  502  0.35460605139E+03  0.48160787055E+03  0.11053719188E+04  0.12567969931E+04  0.10100000352E+00 0.  1.
</event>
<event>
 5   0  0.3424193E-06  0.2503993E+04  0.7818609E-02  0.8401564E-01
        1   -1    0    0  501    0  0.00000000000E+00  0.00000000000E+00  0.14136797331E+04  0.14136797331E+04  0.50400001928E-02 0.  1.
       -1   -1    0    0    0  501  0.00000000000E+00  0.00000000000E+00 -0.11088053408E+04  0.11088053408E+04  0.50400001928E-02 0. -1.
    10030    2    1    2    0    0  0.00000000000E+00  0.00000000000E+00  0.30487439232E+03  0.25224850739E+04  0.25039933213E+04 0.  0.
        1    1    3    3  502    0  0.12337708523E+04 -0.20686712248E+03  0.20291829610E+03  0.12673438197E+04  0.50400001928E-02 0. -1.
       -1    1    3    3    0  502 -0.12337708523E+04  0.20686712248E+03  0.10195609622E+03  0.12551412542E+04  0.50400001928E-02 0.  1.
</event>
<event>
 5   0  0.8354653E-06  0.2497955E+04  0.7818609E-02  0.8403715E-01
        2   -1    0    0  501    0  0.00000000000E+00  0.00000000000E+00  0.15931395580E+04  0.15931395580E+04  0.25500000920E-02 0. -1.
       -2   -1    0    0    0  501  0.00000000000E+00  0.00000000000E+00 -0.97916370232E+03  0.97916370233E+03  0.25500000920E-02 0.  1.
    10030    2    1    2    0    0  0.00000000000E+00  0.00000000000E+00  0.61397585564E+03  0.25723032603E+04  0.24979547057E+04 0.  0.
        3    1    3    3  502    0 -0.11616432520E+04 -0.39828169454E+03  0.72389151563E+02  0.12301559058E+04  0.10100000352E+00 0.  1.
       -3    1    3    3    0  502  0.11616432520E+04  0.39828169454E+03  0.54158670408E+03  0.13421473545E+04  0.10100000352E+00 0. -1.
</event>
<event>
 5   0  0.3484857E-06  0.2511482E+04  0.7818609E-02  0.8398906E-01
        1   -1    0    0  501    0  0.00000000000E+00  0.00000000000E+00  0.18418669474E+04  0.18418669474E+04  0.50400001928E-02 0. -1.
       -1   -1    0    0    0  501  0.00000000000E+00  0.00000000000E+00 -0.85613429500E+03  0.85613429501E+03  0.50400001928E-02 0.  1.
    10030    2    1    2    0    0  0.00000000000E+00  0.00000000000E+00  0.98573265244E+03  0.26980012425E+04  0.25114820012E+04 0.  0.
        3    1    3    3  502    0 -0.50830141985E+03  0.10618019772E+04  0.23261055641E+02  0.11774272203E+04  0.10100000352E+00 0. -1.
       -3    1    3    3    0  502  0.50830141985E+03 -0.10618019772E+04  0.96247159680E+03  0.15205740222E+04  0.10100000352E+00 0.  1.
</event>
<event>
 5   0  0.3642184E-06  0.2500601E+04  0.7818609E-02  0.8402772E-01
       -1   -1    0    0    0  501  0.00000000000E+00  0.00000000000E+00  0.18859982986E+04  0.18859982986E+04  0.50400001928E-02 0.  1.
        1   -1    0    0  501    0  0.00000000000E+00  0.00000000000E+00 -0.82887182194E+03  0.82887182196E+03  0.50400001928E-02 0. -1.
    10030    2    1    2    0    0  0.00000000000E+00  0.00000000000E+00  0.10571264767E+04  0.27148701206E+04  0.25006006046E+04 0.  0.
        5    1    3    3  502    0  0.30389370009E+03 -0.49826365375E+02 -0.78704362751E+03  0.84515904376E+03  0.46999998093E+01 0. -1.
       -5    1    3    3    0  502 -0.30389370009E+03  0.49826365375E+02  0.18441701042E+04  0.18697110768E+04  0.46999998093E+01 0.  1.
</event>
<event>
 5   0  0.3484857E-06  0.2486062E+04  0.7818609E-02  0.8407968E-01
        1   -1    0    0  501    0  0.00000000000E+00  0.00000000000E+00  0.19745320776E+04  0.19745320776E+04  0.50400001928E-02 0. -1.
       -1   -1    0    0    0  501  0.00000000000E+00  0.00000000000E+00 -0.78252767015E+03  0.78252767016E+03  0.50400001928E-02 0.  1.
    10030    2    1    2    0    0  0.00000000000E+00  0.00000000000E+00  0.11920044074E+04  0.27570597477E+04  0.24860619351E+04 0.  0.
        3    1    3    3  502    0  0.21164551685E+03  0.11942333412E+04  0.29403676500E+03  0.12479762527E+04  0.10100000352E+00 0. -1.
       -3    1    3    3    0  502 -0.21164551685E+03 -0.11942333412E+04  0.89796764242E+03  0.15090834950E+04  0.10100000352E+00 0.  1.
</event>
<event>
 5   0  0.8407986E-06  0.2492742E+04  0.7818609E-02  0.8405576E-01
       -2   -1    0    0    0  501  0.00000000000E+00  0.00000000000E+00  0.66267288434E+03  0.66267288435E+03  0.25500000920E-02 0.  1.
        2   -1    0    0  501    0  0.00000000000E+00  0.00000000000E+00 -0.23442040538E+04  0.23442040538E+04  0.25500000920E-02 0. -1.
    10030    2    1    2    0    0  0.00000000000E+00  0.00000000000E+00 -0.16815311695E+04  0.30068769382E+04  0.24927418333E+04 0.  0.
        5    1    3    3  502    0 -0.39398892546E+03 -0.42280602959E+03 -0.21728020248E+04  0.22483511605E+04  0.46999998093E+01 0. -1.
       -5    1    3    3    0  502  0.39398892546E+03  0.42280602959E+03  0.49127085533E+03  0.75852577764E+03  0.46999998093E+01 0.  1.
</event>
<event>
 5   0  0.8579923E-06  0.2497607E+04  0.7818609E-02  0.8403838E-01
       -2   -1    0    0    0  501  0.00000000000E+00  0.00000000000E+00  0.11774593250E+04  0.11774593250E+04  0.25500000920E-02 0. -1.
        2   -1    0    0  501    0  0.00000000000E+00  0.00000000000E+00 -0.13244710368E+04  0.13244710368E+04  0.25500000920E-02 0.  1.
    10030    2    1    2    0    0  0.00000000000E+00  0.00000000000E+00 -0.14701171179E+03  0.25019303618E+04  0.24976074735E+04 0.  0.
        1    1    3    3  502    0 -0.98891618035E+03 -0.60367925395E+03 -0.54028115688E+03  0.12783925774E+04  0.50400001928E-02 0.  1.
       -1    1    3    3    0  502  0.98891618035E+03  0.60367925395E+03  0.39326944509E+03  0.12235377844E+04  0.50400001928E-02 0. -1.
</event>
<event>
 5   0  0.8579923E-06  0.2496800E+04  0.7818609E-02  0.8404126E-01
       -2   -1    0    0    0  501  0.00000000000E+00  0.00000000000E+00  0.98745094059E+03  0.98745094059E+03  0.25500000920E-02 0. -1.
        2   -1    0    0  501    0  0.00000000000E+00  0.00000000000E+00 -0.15783086428E+04  0.15783086428E+04  0.25500000920E-02 0.  1.
    10030    2    1    2    0    0  0.00000000000E+00  0.00000000000E+00 -0.59085770217E+03  0.25657595834E+04  0.24967998349E+04 0.  0.
        1    1    3    3  502    0  0.32189646539E+03 -0.11919893959E+04 -0.48504144979E+03  0.13265448588E+04  0.50400001928E-02 0.  1.
       -1    1    3    3    0  502 -0.32189646539E+03  0.11919893959E+04 -0.10581625237E+03  0.12392147246E+04  0.50400001928E-02 0. -1.
</event>
<event>
 5   0  0.3522870E-06  0.2495753E+04  0.7818609E-02  0.8404500E-01
        1   -1    0    0  501    0  0.00000000000E+00  0.00000000000E+00  0.13652832341E+04  0.13652832342E+04  0.50400001928E-02 0.  1.
       -1   -1    0    0    0  501  0.00000000000E+00  0.00000000000E+00 -0.11405659157E+04  0.11405659157E+04  0.50400001928E-02 0. -1.
    10030    2    1    2    0    0  0.00000000000E+00  0.00000000000E+00  0.22471731848E+03  0.25058491498E+04  0.24957528100E+04 0.  0.
        2    1    3    3  502    0 -0.77506154962E+03  0.89150801780E+03  0.51609051254E+03  0.12891300821E+04  0.25500000920E-02 0.  1.
       -2    1    3    3    0  502  0.77506154962E+03 -0.89150801780E+03 -0.29137319406E+03  0.12167190677E+04  0.25500000920E-02 0. -1.
</event>
<event>
 5   0  0.2901250E-06  0.2499243E+04  0.7818609E-02  0.8403255E-01
        4   -1    0    0  501    0  0.00000000000E+00  0.00000000000E+00  0.10503628391E+04  0.10503636069E+04  0.12699999809E+01 0.  1.
       -4   -1    0    0    0  501  0.00000000000E+00  0.00000000000E+00 -0.14866783990E+04  0.14866789415E+04  0.12699999809E+01 0. -1.
    10030    2    1    2    0    0  0.00000000000E+00  0.00000000000E+00 -0.43631555990E+03  0.25370425484E+04  0.24992426102E+04 0.  0.
        4    1    3    3  502    0 -0.60404992663E+03 -0.10185154363E+04 -0.62332066575E+03  0.13382003860E+04  0.12699999809E+01 0. -1.
       -4    1    3    3    0  502  0.60404992663E+03  0.10185154363E+04  0.18700510585E+03  0.11988421624E+04  0.12699999809E+01 0.  1.
</event>
<event>
 5   0  0.8056723E-06  0.2497060E+04  0.7818609E-02  0.8404033E-01
       -2   -1    0    0    0  501  0.00000000000E+00  0.00000000000E+00  0.11986517382E+04  0.11986517382E+04  0.25500000920E-02 0.  1.
        2   -1    0    0  501    0  0.00000000000E+00  0.00000000000E+00 -0.13004842820E+04  0.13004842820E+04  0.25500000920E-02 0. -1.
    10030    2    1    2    0    0  0.00000000000E+00  0.00000000000E+00 -0.10183254377E+03  0.24991360202E+04  0.24970604679E+04 0.  0.
        2    1    3    3  502    0  0.24833284746E+02  0.75120155850E+03 -0.10486939155E+04  0.12902245549E+04  0.25500000920E-02 0. -1.
       -2    1    3    3    0  502 -0.24833284746E+02 -0.75120155850E+03  0.94686137177E+03  0.12089114653E+04  0.25500000920E-02 0.  1.
</event>
<event>
 5   0  0.3642184E-06  0.2505377E+04  0.7818609E-02  0.8401072E-01
       -1   -1    0    0    0  501  0.00000000000E+00  0.00000000000E+00  0.17075137647E+04  0.17075137647E+04  0.50400001928E-02 0. -1.
        1   -1    0    0  501    0  0.00000000000E+00  0.00000000000E+00 -0.91901366219E+03  0.91901366220E+03  0.50400001928E-02 0.  1.
    10030    2    1    2    0    0  0.00000000000E+00  0.00000000000E+00  0.78850010254E+03  0.26265274269E+04  0.25053770001E+04 0.  0.
        5    1    3    3  502    0  0.37434093584E+03  0.27195468808E+03 -0.82613554850E+03  0.94689625784E+03  0.46999998093E+01 0.  1.
       -5    1    3    3    0  502 -0.37434093584E+03 -0.27195468808E+03  0.16146356510E+04  0.16796311691E+04  0.46999998093E+01 0. -1.
</event>
<event>
 5   0  0.3481387E-06  0.2496686E+04  0.7818609E-02  0.8404167E-01
        1   -1    0    0  501    0  0.00000000000E+00  0.00000000000E+00  0.13076992431E+04  0.13076992431E+04  0.50400001928E-02 0.  1.
       -1   -1    0    0    0  501  0.00000000000E+00  0.00000000000E+00 -0.11916813132E+04  0.11916813132E+04  0.50400001928E-02 0. -1.
    10030    2    1    2    0    0  0.00000000000E+00  0.00000000000E+00  0.11601792988E+03  0.24993805564E+04  0.24966864051E+04 0.  0.
        4    1    3    3  502    0  0.81753352180E+03 -0.65655157881E+03  0.73618970022E+03  0.12811705283E+04  0.12699999809E+01 0. -1.
       -4    1    3    3    0  502 -0.81753352180E+03  0.65655157881E+03 -0.62017177034E+03  0.12182100281E+04  0.12699999809E+01 0.  1.
</event>
<event>
 5   0  0.3484857E-06  0.2493824E+04  0.7818609E-02  0.8405189E-01
        1   -1    0    0  501    0  0.00000000000E+00  0.00000000000E+00  0.78379478898E+03  0.78379478899E+03  0.50400001928E-02 0. -1.
       -1   -1    0    0    0  501  0.00000000000E+00  0.00000000000E+00 -0.19836687801E+04  0.19836687801E+04  0.50400001928E-02 0.  1.
    10030    2    1    2    0    0  0.00000000000E+00  0.00000000000E+00 -0.11998739911E+04  0.27674635691E+04  0.24938237732E+04 0.  0.
        3    1    3    3  502    0  0.56328752048E+03 -0.74518090934E+03  0.31664767604E+03  0.98633319893E+03  0.10100000352E+00 0. -1.
       -3    1    3    3    0  502 -0.56328752048E+03  0.74518090934E+03 -0.15165216671E+04  0.17811303702E+04  0.10100000352E+00 0.  1.
</event>
<event>
 5   0  0.3642184E-06  0.2500199E+04  0.7818609E-02  0.8402915E-01
        1   -1    0    0  501    0  0.00000000000E+00  0.00000000000E+00  0.11948768496E+04  0.11948768496E+04  0.50400001928E-02 0.  1.
       -1   -1    0    0    0  501  0.00000000000E+00  0.00000000000E+00 -0.13078746576E+04  0.13078746576E+04  0.50400001928E-02 0. -1.
    10030    2    1    2    0    0  0.00000000000E+00  0.00000000000E+00 -0.11299780801E+03  0.25027515072E+04  0.25001993124E+04 0.  0.
        5    1    3    3  502    0  0.18675180965E+03 -0.83801486691E+03 -0.96604179328E+03  0.12924410981E+04  0.46999998093E+01 0. -1.
       -5    1    3    3    0  502 -0.18675180965E+03  0.83801486691E+03  0.85304398527E+03  0.12103104091E+04  0.46999998093E+01 0.  1.
</event>
<event>
 5   0  0.8056723E-06  0.2501653E+04  0.7818609E-02  0.8402397E-01
        2   -1    0    0  501    0  0.00000000000E+00  0.00000000000E+00  0.10571258577E+04  0.10571258578E+04  0.25500000920E-02 0.  1.
       -2   -1    0    0    0  501  0.00000000000E+00  0.00000000000E+00 -0.14800198073E+04  0.14800198073E+04  0.25500000920E-02 0. -1.
    10030    2    1    2    0    0  0.00000000000E+00  0.00000000000E+00 -0.42289394954E+03  0.25371456650E+04  0.25016532200E+04 0.  0.
        2    1    3    3  502    0 -0.11913782048E+04 -0.12186119613E+03  0.15469445499E+03  0.12075440168E+04  0.25500000920E-02 0. -1.
       -2    1    3    3    0  502  0.11913782048E+04  0.12186119613E+03 -0.57758840453E+03  0.13296016483E+04  0.25500000920E-02 0.  1.
</event>
<event>
 5   0  0.8056723E-06  0.2503171E+04  0.7818609E-02  0.8401857E-01
       -2   -1    0    0    0  501  0.00000000000E+00  0.00000000000E+00  0.85062076773E+03  0.85062076774E+03  0.25500000920E-02 0.  1.
        2   -1    0    0  501    0  0.00000000000E+00  0.00000000000E+00 -0.18415572788E+04  0.18415572788E+04  0.25500000920E-02 0. -1.
    10030    2    1    2    0    0  0.00000000000E+00  0.00000000000E+00 -0.99093651104E+03  0.26921780465E+04  0.25031714814E+04 0.  0.
        2    1    3    3  502    0  0.85243395377E+02  0.12334510264E+04 -0.28636860631E+03  0.12691236542E+04  0.25500000920E-02 0.  1.
       -2    1    3    3    0  502 -0.85243395377E+02 -0.12334510264E+04 -0.70456790474E+03  0.14230543923E+04  0.25500000920E-02 0. -1.
</event>
<event>
 5   0  0.3481387E-06  0.2500919E+04  0.7818609E-02  0.8402658E-01
       -1   -1    0    0    0  501  0.00000000000E+00  0.00000000000E+00  0.10453505167E+04  0.10453505167E+04  0.50400001928E-02 0.  1.
        1   -1    0    0  501    0  0.00000000000E+00  0.00000000000E+00 -0.14958124683E+04  0.14958124683E+04  0.50400001928E-02 0. -1.
    10030    2    1    2    0    0  0.00000000000E+00  0.00000000000E+00 -0.45046195162E+03  0.25411629851E+04  0.25009185006E+04 0.  0.
        4    1    3    3  502    0 -0.85552527762E+03  0.68784237370E+03 -0.83369619403E+03  0.13784417248E+04  0.12699999809E+01 0. -1.
       -4    1    3    3    0  502  0.85552527762E+03 -0.68784237370E+03  0.38323424241E+03  0.11627212603E+04  0.12699999809E+01 0.  1.
</event>
<event>
 5   0  0.3424193E-06  0.2481092E+04  0.7818609E-02  0.8409753E-01
        1   -1    0    0  501    0  0.00000000000E+00  0.00000000000E+00  0.14125381258E+04  0.14125381258E+04  0.50400001928E-02 0. -1.
       -1   -1    0    0    0  501  0.00000000000E+00  0.00000000000E+00 -0.10894962441E+04  0.10894962441E+04  0.50400001928E-02 0.  1.
    10030    2    1    2    0    0  0.00000000000E+00  0.00000000000E+00  0.32304188173E+03  0.25020343699E+04  0.24810924873E+04 0.  0.
        1    1    3    3  502    0  0.29553837132E+03  0.73588044607E+03  0.11235605902E+04  0.13752277483E+04  0.50400001928E-02 0. -1.
       -1    1    3    3    0  502 -0.29553837132E+03 -0.73588044607E+03 -0.80051870847E+03  0.11268066216E+04  0.50400001928E-02 0.  1.
</event>
<event>
 5   0  0.3424193E-06  0.2524011E+04  0.7818609E-02  0.8394481E-01
       -1   -1    0    0    0  501  0.00000000000E+00  0.00000000000E+00  0.15112789442E+04  0.15112789442E+04  0.50400001928E-02 0.  1.
        1   -1    0    0  501    0  0.00000000000E+00  0.00000000000E+00 -0.10538478680E+04  0.10538478680E+04  0.50400001928E-02 0. -1.
    10030    2    1    2    0    0  0.00000000000E+00  0.00000000000E+00  0.45743107617E+03  0.25651268123E+04  0.25240111675E+04 0.  0.
        1    1    3    3  502    0 -0.35324661262E+03  0.91467086438E+03  0.10361717829E+04  0.14265545637E+04  0.50400001928E-02 0.  1.
       -1    1    3    3    0  502  0.35324661262E+03 -0.91467086438E+03 -0.57874070676E+03  0.11385722485E+04  0.50400001928E-02 0. -1.
</event>
<event>
 5   0  0.3642184E-06  0.2506046E+04  0.7818609E-02  0.8400835E-01
        1   -1    0    0  501    0  0.00000000000E+00  0.00000000000E+00  0.17696367115E+04  0.17696367115E+04  0.50400001928E-02 0.  1.
       -1   -1    0    0    0  501  0.00000000000E+00  0.00000000000E+00 -0.88722565498E+03  0.88722565499E+03  0.50400001928E-02 0. -1.
    10030    2    1    2    0    0  0.00000000000E+00  0.00000000000E+00  0.88241105656E+03  0.26568623665E+04  0.25060463607E+04 0.  0.
        5    1    3    3  502    0 -0.86433430481E+03  0.13099135019E+03 -0.51048763583E+03  0.10123498608E+04  0.46999998093E+01 0. -1.
       -5    1    3    3    0  502  0.86433430481E+03 -0.13099135019E+03  0.13928986924E+04  0.16445125058E+04  0.46999998093E+01 0.  1.
</event>
<event>
 5   0  0.8948286E-06  0.2509701E+04  0.7818609E-02  0.8399537E-01
        2   -1    0    0  501    0  0.00000000000E+00  0.00000000000E+00  0.15368165962E+04  0.15368165962E+04  0.25500000920E-02 0.  1.
       -2   -1    0    0    0  501  0.00000000000E+00  0.00000000000E+00 -0.10246182624E+04  0.10246182624E+04  0.25500000920E-02 0. -1.
    10030    2    1    2    0    0  0.00000000000E+00  0.00000000000E+00  0.51219833372E+03  0.25614348586E+04  0.25097014567E+04 0.  0.
        4    1    3    3  502    0 -0.11464566775E+04  0.50923630957E+03  0.22440743243E+03  0.12743801791E+04  0.12699999809E+01 0. -1.
       -4    1    3    3    0  502  0.11464566775E+04 -0.50923630957E+03  0.28779090129E+03  0.12870546795E+04  0.12699999809E+01 0.  1.
</event>
<event>
 5   0  0.8354653E-06  0.2488609E+04  0.7818609E-02  0.8407055E-01
       -2   -1    0    0    0  501  0.00000000000E+00  0.00000000000E+00  0.73732697735E+03  0.73732697736E+03  0.25500000920E-02 0.  1.
        2   -1    0    0  501    0  0.00000000000E+00  0.00000000000E+00 -0.20998741698E+04  0.20998741698E+04  0.25500000920E-02 0. -1.
    10030    2    1    2    0    0  0.00000000000E+00  0.00000000000E+00 -0.13625471925E+04  0.28372011472E+04  0.24886091493E+04 0.  0.
        3    1    3    3  502    0 -0.51309555168E+03 -0.73617369606E+03  0.30149165009E+03  0.94663402706E+03  0.10100000352E+00 0.  1.
       -3    1    3    3    0  502  0.51309555168E+03  0.73617369606E+03 -0.16640388426E+04  0.18905671201E+04  0.10100000352E+00 0. -1.
</event>
<event>
 5   0  0.8579923E-06  0.2501951E+04  0.7818609E-02  0.8402291E-01
        2   -1    0    0  501    0  0.00000000000E+00  0.00000000000E+00  0.16368626059E+04  0.16368626059E+04  0.25500000920E-02 0. -1.
       -2   -1    0    0    0  501  0.00000000000E+00  0.00000000000E+00 -0.95606081499E+03  0.95606081500E+03  0.25500000920E-02 0.  1.
    10030    2    1    2    0    0  0.00000000000E+00  0.00000000000E+00  0.68080179087E+03  0.25929234209E+04  0.25019513960E+04 0.  0.
        1    1    3    3  502    0 -0.11569165469E+04 -0.27324759695E+03 -0.63407541587E+02  0.11904371727E+04  0.50400001928E-02 0.  1.
       -1    1    3    3    0  502  0.11569165469E+04  0.27324759695E+03  0.74420933246E+03  0.14024862482E+04  0.50400001928E-02 0. -1.
</event>
<event>
 5   0  0.8354653E-06  0.2492864E+04  0.7818609E-02  0.8405532E-01
       -2   -1    0    0    0  501  0.00000000000E+00  0.00000000000E+00  0.10271832677E+04  0.10271832677E+04  0.25500000920E-02 0. -1.
        2   -1    0    0  501    0  0.00000000000E+00  0.00000000000E+00 -0.15124792203E+04  0.15124792203E+04  0.25500000920E-02 0.  1.
    10030    2    1    2    0    0  0.00000000000E+00  0.00000000000E+00 -0.48529595264E+03  0.25396624880E+04  0.24928644952E+04 0.  0.
        3    1    3    3  502    0  0.62131555826E+03 -0.10445416749E+04 -0.52441371923E+03  0.13236729554E+04  0.10100000352E+00 0.  1.
       -3    1    3    3    0  502 -0.62131555826E+03  0.10445416749E+04  0.39117766584E+02  0.12159895326E+04  0.10100000352E+00 0. -1.
</event>
<event>
 5   0  0.8407986E-06  0.2490085E+04  0.7818609E-02  0.8406526E-01
        2   -1    0    0  501    0  0.00000000000E+00  0.00000000000E+00  0.13269679036E+04  0.13269679036E+04  0.25500000920E-02 0.  1.
       -2   -1    0    0    0  501  0.00000000000E+00  0.00000000000E+00 -0.11681753014E+04  0.11681753014E+04  0.25500000920E-02 0. -1.
    10030    2    1    2    0    0  0.00000000000E+00  0.00000000000E+00  0.15879260220E+03  0.24951432050E+04  0.24900852441E+04 0.  0.
        5    1    3    3  502    0  0.10104442857E+02  0.78667193612E+03 -0.88752708946E+03  0.11860359435E+04  0.46999998093E+01 0. -1.
       -5    1    3    3    0  502 -0.10104442857E+02 -0.78667193612E+03  0.10463196917E+04  0.13091072615E+04  0.46999998093E+01 0.  1.
</event>
<event>
 5   0  0.2901250E-06  0.2516984E+04  0.7818609E-02  0.8396960E-01
        4   -1    0    0  501    0  0.00000000000E+00  0.00000000000E+00  0.65219749084E+03  0.65219872735E+03  0.12699999809E+01 0. -1.
       -4   -1    0    0    0  501  0.00000000000E+00  0.00000000000E+00 -0.24284057571E+04  0.24284060892E+04  0.12699999809E+01 0.  1.
    10030    2    1    2    0    0  0.00000000000E+00  0.00000000000E+00 -0.17762082663E+04  0.30806048165E+04  0.25169843525E+04 0.  0.
        2    1    3    3  502    0 -0.11198194711E+04  0.52355951012E+03 -0.11769414110E+04  0.17068395629E+04  0.25500000920E-02 0. -1.
       -2    1    3    3    0  502  0.11198194711E+04 -0.52355951012E+03 -0.59926685521E+03  0.13737652537E+04  0.25500000920E-02 0.  1.
</event>
<event>
 5   0  0.3424193E-06  0.2488193E+04  0.7818609E-02  0.8407204E-01
       -1   -1    0    0    0  501  0.00000000000E+00  0.00000000000E+00  0.88997082474E+03  0.88997082476E+03  0.50400001928E-02 0.  1.
        1   -1    0    0  501    0  0.00000000000E+00  0.00000000000E+00 -0.17391312593E+04  0.17391312593E+04  0.50400001928E-02 0. -1.
    10030    2    1    2    0    0  0.00000000000E+00  0.00000000000E+00 -0.84916043455E+03  0.26291020841E+04  0.24881929838E+04 0.  0.
        1    1    3    3  502    0  0.73306228935E+03  0.21507569352E+03 -0.14620919941E+04  0.16496517430E+04  0.50400001928E-02 0. -1.
       -1    1    3    3    0  502 -0.73306228935E+03 -0.21507569352E+03  0.61293155950E+03  0.97945034109E+03  0.50400001928E-02 0.  1.
</event>
<event>
 5   0  0.8579923E-06  0.2511068E+04  0.7818609E-02  0.8399053E-01
       -2   -1    0    0    0  501  0.00000000000E+00  0.00000000000E+00  0.90752943297E+03  0.90752943297E+03  0.25500000920E-02 0. -1.
        2   -1    0    0  501    0  0.00000000000E+00  0.00000000000E+00 -0.17369852670E+04  0.17369852670E+04  0.25500000920E-02 0.  1.
    10030    2    1    2    0    0  0.00000000000E+00  0.00000000000E+00 -0.82945583407E+03  0.26445147000E+04  0.25110677048E+04 0.  0.
        1    1    3    3  502    0 -0.52795231579E+03  0.72276269007E+03 -0.13420001308E+04  0.16130976117E+04  0.50400001928E-02 0.  1.
       -1    1    3    3    0  502  0.52795231579E+03 -0.72276269007E+03  0.51254429670E+03  0.10314170883E+04  0.50400001928E-02 0. -1.
</event>
<event>
 5   0  0.3484857E-06  0.2576632E+04  0.7818609E-02  0.8376182E-01
       -1   -1    0    0    0  501  0.00000000000E+00  0.00000000000E+00  0.10807598491E+04  0.10807598492E+04  0.50400001928E-02 0.  1.
        1   -1    0    0  501    0  0.00000000000E+00  0.00000000000E+00 -0.15357325610E+04  0.15357325610E+04  0.50400001928E-02 0. -1.
    10030    2    1    2    0    0  0.00000000000E+00  0.00000000000E+00 -0.45497271182E+03  0.26164924101E+04  0.25766319807E+04 0.  0.
        3    1    3    3  502    0 -0.12444975041E+04  0.49064092706E+02 -0.56209374010E+03  0.13664299125E+04  0.10100000352E+00 0. -1.
       -3    1    3    3    0  502  0.12444975041E+04 -0.49064092706E+02  0.10712102827E+03  0.12500624976E+04  0.10100000352E+00 0.  1.
</event>
<event>
 5   0  0.3522870E-06  0.2492444E+04  0.7818609E-02  0.8405682E-01
        1   -1    0    0  501    0  0.00000000000E+00  0.00000000000E+00  0.13091793566E+04  0.13091793566E+04  0.50400001928E-02 0.  1.
       -1   -1    0    0    0  501  0.00000000000E+00  0.00000000000E+00 -0.11862925876E+04  0.11862925876E+04  0.50400001928E-02 0. -1.
    10030    2    1    2    0    0  0.00000000000E+00  0.00000000000E+00  0.12288676902E+03  0.24954719442E+04  0.24924443959E+04 0.  0.
        2    1    3    3  502    0 -0.17113437828E+03 -0.11158155236E+04  0.59004160787E+03  0.12737662098E+04  0.25500000920E-02 0.  1.
       -2    1    3    3    0  502  0.17113437828E+03  0.11158155236E+04 -0.46715483884E+03  0.12217057345E+04  0.25500000920E-02 0. -1.
</event>
<event>
 5   0  0.3481387E-06  0.2497614E+04  0.7818609E-02  0.8403836E-01
       -1   -1    0    0    0  501  0.00000000000E+00  0.00000000000E+00  0.16497644533E+04  0.16497644533E+04  0.50400001928E-02 0.  1.
        1   -1    0    0  501    0  0.00000000000E+00  0.00000000000E+00 -0.94529821028E+03  0.94529821029E+03  0.50400001928E-02 0. -1.
    10030    2    1    2    0    0  0.00000000000E+00  0.00000000000E+00  0.70446624301E+03  0.25950626636E+04  0.24976143698E+04 0.  0.
        4    1    3    3  502    0 -0.81777450360E+03 -0.92273177255E+03  0.14618089469E+03  0.12415955580E+04  0.12699999809E+01 0. -1.
       -4    1    3    3    0  502  0.81777450360E+03  0.92273177255E+03  0.55828534831E+03  0.13534671056E+04  0.12699999809E+01 0.  1.
</event>
<event>
 5   0  0.8948286E-06  0.2501914E+04  0.7818609E-02  0.8402304E-01
       -2   -1    0    0    0  501  0.00000000000E+00  0.00000000000E+00  0.92386889067E+03  0.92386889068E+03  0.25500000920E-02 0.  1.
        2   -1    0    0  501    0  0.00000000000E+00  0.00000000000E+00 -0.16938473695E+04  0.16938473695E+04  0.25500000920E-02 0. -1.
    10030    2    1    2    0    0  0.00000000000E+00  0.00000000000E+00 -0.76997847886E+03  0.26177162602E+04  0.25019135799E+04 0.  0.
        4    1    3    3  502    0 -0.32974159769E+03  0.52624279400E+03  0.75119713587E+03  0.97465878610E+03  0.12699999809E+01 0.  1.
       -4    1    3    3    0  502  0.32974159769E+03 -0.52624279400E+03 -0.15211756147E+04  0.16430574741E+04  0.12699999809E+01 0. -1.
</event>
<event>
 5   0  0.3642184E-06  0.2507894E+04  0.7818609E-02  0.8400179E-01
        1   -1    0    0  501    0  0.00000000000E+00  0.00000000000E+00  0.18625043588E+04  0.18625043588E+04  0.50400001928E-02 0.  1.
       -1   -1    0    0    0  501  0.00000000000E+00  0.00000000000E+00 -0.84423054484E+03  0.84423054486E+03  0.50400001928E-02 0. -1.
    10030    2    1    2    0    0  0.00000000000E+00  0.00000000000E+00  0.10182738139E+04  0.27067349036E+04  0.25078939927E+04 0.  0.
        5    1    3    3  502    0  0.75951930544E+03  0.63157911477E+03 -0.32450183766E+03  0.10397525120E+04  0.46999998093E+01 0. -1.
       -5    1    3    3    0  502 -0.75951930544E+03 -0.63157911477E+03  0.13427756516E+04  0.16669823916E+04  0.46999998093E+01 0.  1.
</event>
<event>
 5   0  0.3642184E-06  0.2479320E+04  0.7818609E-02  0.8410390E-01
        1   -1    0    0  501    0  0.00000000000E+00  0.00000000000E+00  0.92092875615E+03  0.92092875617E+03  0.50400001928E-02 0.  1.
       -1   -1    0    0    0  501  0.00000000000E+00  0.00000000000E+00 -0.16687033318E+04  0.16687033319E+04  0.50400001928E-02 0. -1.
    10030    2    1    2    0    0  0.00000000000E+00  0.00000000000E+00 -0.74777457569E+03  0.25896320880E+04  0.24793199744E+04 0.  0.
        5    1    3    3  502    0 -0.74720910471E+03  0.36227436643E+03 -0.13352581040E+04  0.15724186646E+04  0.46999998093E+01 0. -1.
       -5    1    3    3    0  502  0.74720910471E+03 -0.36227436643E+03  0.58748352827E+03  0.10172134234E+04  0.46999998093E+01 0.  1.
</event>
<event>
 5   0  0.3642184E-06  0.2548260E+04  0.7818609E-02  0.8385991E-01
       -1   -1    0    0    0  501  0.00000000000E+00  0.00000000000E+00  0.67568324344E+03  0.67568324346E+03  0.50400001928E-02 0. -1.
        1   -1    0    0  501    0  0.00000000000E+00  0.00000000000E+00 -0.24026167595E+04  0.24026167595E+04  0.50400001928E-02 0.  1.
    10030    2    1    2    0    0  0.00000000000E+00  0.00000000000E+00 -0.17269335160E+04  0.30783000029E+04  0.25482604928E+04 0.  0.
        5    1    3    3  502    0  0.10431285450E+04  0.46676099463E+03 -0.15440362914E+04  0.19209511047E+04  0.46999998093E+01 0.  1.
       -5    1    3    3    0  502 -0.10431285450E+04 -0.46676099463E+03 -0.18289722466E+03  0.11573488983E+04  0.46999998093E+01 0. -1.
</event>
<event>
 5   0  0.8407986E-06  0.2505979E+04  0.7818609E-02  0.8400859E-01
        2   -1    0    0  501    0  0.00000000000E+00  0.00000000000E+00  0.16887263042E+04  0.16887263042E+04  0.25500000920E-02 0. -1.
       -2   -1    0    0    0  501  0.00000000000E+00  0.00000000000E+00 -0.92968455513E+03  0.92968455514E+03  0.25500000920E-02 0.  1.
    10030    2    1    2    0    0  0.00000000000E+00  0.00000000000E+00  0.75904174908E+03  0.26184108593E+04  0.25059790605E+04 0.  0.
        5    1    3    3  502    0 -0.58584516488E+03 -0.83883938634E+03 -0.37618095542E+03  0.10901377319E+04  0.46999998093E+01 0.  1.
       -5    1    3    3    0  502  0.58584516488E+03  0.83883938634E+03  0.11352227045E+04  0.15282731275E+04  0.46999998093E+01 0. -1.
</event>
<event>
 5   0  0.8579923E-06  0.2497239E+04  0.7818609E-02  0.8403970E-01
       -2   -1    0    0    0  501  0.00000000000E+00  0.00000000000E+00  0.97856361186E+03  0.97856361186E+03  0.25500000920E-02 0. -1.
        2   -1    0    0  501    0  0.00000000000E+00  0.00000000000E+00 -0.15932032753E+04  0.15932032753E+04  0.25500000920E-02 0.  1.
    10030    2    1    2    0    0  0.00000000000E+00  0.00000000000E+00 -0.61463966347E+03  0.25717668872E+04  0.24972390767E+04 0.  0.
        1    1    3    3  502    0 -0.10896727218E+04  0.21966637553E+03 -0.89298410725E+03  0.14258543309E+04  0.50400001928E-02 0.  1.
       -1    1    3    3    0  502  0.10896727218E+04 -0.21966637553E+03  0.27834444378E+03  0.11459125563E+04  0.50400001928E-02 0. -1.
</event>
<event>
 5   0  0.3522870E-06  0.2506796E+04  0.7818609E-02  0.8400568E-01
       -1   -1    0    0    0  501  0.00000000000E+00  0.00000000000E+00  0.97978133867E+03  0.97978133868E+03  0.50400001928E-02 0.  1.
        1   -1    0    0  501    0  0.00000000000E+00  0.00000000000E+00 -0.16034255526E+04  0.16034255526E+04  0.50400001928E-02 0. -1.
    10030    2    1    2    0    0  0.00000000000E+00  0.00000000000E+00 -0.62364421389E+03  0.25832068913E+04  0.25067959106E+04 0.  0.
        2    1    3    3  502    0 -0.29335863002E+03  0.89770689093E+03 -0.11609973440E+04  0.14966134373E+04  0.25500000920E-02 0. -1.
       -2    1    3    3    0  502  0.29335863002E+03 -0.89770689093E+03  0.53735313010E+03  0.10865934540E+04  0.25500000920E-02 0.  1.
</event>
<event>
 5   0  0.8407986E-06  0.2488104E+04  0.7818609E-02  0.8407236E-01
       -2   -1    0    0    0  501  0.00000000000E+00  0.00000000000E+00  0.11958499755E+04  0.11958499755E+04  0.25500000920E-02 0.  1.
        2   -1    0    0  501    0  0.00000000000E+00  0.00000000000E+00 -0.12941971739E+04  0.12941971739E+04  0.25500000920E-02 0. -1.
    10030    2    1    2    0    0  0.00000000000E+00  0.00000000000E+00 -0.98347198356E+02  0.24900471494E+04  0.24881042251E+04 0.  0.
        5    1    3    3  502    0 -0.32244364838E+03 -0.10748902261E+04  0.48816714422E+03  0.12238007008E+04  0.46999998093E+01 0.  1.
       -5    1    3    3    0  502  0.32244364838E+03  0.10748902261E+04 -0.58651434258E+03  0.12662464486E+04  0.46999998093E+01 0. -1.
</event>
<event>
 5   0  0.8579923E-06  0.2501240E+04  0.7818609E-02  0.8402544E-01
       -2   -1    0    0    0  501  0.00000000000E+00  0.00000000000E+00  0.12573999454E+04  0.12573999454E+04  0.25500000920E-02 0.  1.
        2   -1    0    0  501    0  0.00000000000E+00  0.00000000000E+00 -0.12438770939E+04  0.12438770939E+04  0.25500000920E-02 0. -1.
    10030    2    1    2    0    0  0.00000000000E+00  0.00000000000E+00  0.13522851506E+02  0.25012770392E+04  0.25012404841E+04 0.  0.
        1    1    3    3  502    0 -0.89808372220E+03 -0.49435072867E+03  0.72309163802E+03  0.12545112722E+04  0.50400001928E-02 0.  1.
       -1    1    3    3    0  502  0.89808372220E+03  0.49435072867E+03 -0.70956878652E+03  0.12467657670E+04  0.50400001928E-02 0. -1.
</event>
<event>
 5   0  0.8579923E-06  0.2487193E+04  0.7818609E-02  0.8407562E-01
        2   -1    0    0  501    0  0.00000000000E+00  0.00000000000E+00  0.22577826853E+04  0.22577826853E+04  0.25500000920E-02 0.  1.
       -2   -1    0    0    0  501  0.00000000000E+00  0.00000000000E+00 -0.68497839076E+03  0.68497839077E+03  0.25500000920E-02 0. -1.
    10030    2    1    2    0    0  0.00000000000E+00  0.00000000000E+00  0.15728042945E+04  0.29427610760E+04  0.24871930769E+04 0.  0.
        1    1    3    3  502    0  0.11021351679E+04  0.15513528506E+03  0.14427801749E+04  0.18221919542E+04  0.50400001928E-02 0.  1.
       -1    1    3    3    0  502 -0.11021351679E+04 -0.15513528506E+03  0.13002411963E+03  0.11205691218E+04  0.50400001928E-02 0. -1.
</event>
<event>
 5   0  0.8354653E-06  0.2515544E+04  0.7818609E-02  0.8397469E-01
        2   -1    0    0  501    0  0.00000000000E+00  0.00000000000E+00  0.17649508929E+04  0.17649508929E+04  0.25500000920E-02 0. -1.
       -2   -1    0    0    0  501  0.00000000000E+00  0.00000000000E+00 -0.89633647456E+03  0.89633647457E+03  0.25500000920E-02 0.  1.
    10030    2    1    2    0    0  0.00000000000E+00  0.00000000000E+00  0.86861441829E+03  0.26612873674E+04  0.25155435684E+04 0.  0.
        3    1    3    3  502    0  0.93951865597E+03 -0.83081826631E+03  0.53487000292E+03  0.13634662544E+04  0.10100000352E+00 0. -1.
       -3    1    3    3    0  502 -0.93951865597E+03  0.83081826631E+03  0.33374441537E+03  0.12978211131E+04  0.10100000352E+00 0.  1.
</event>
<event>
 5   0  0.3481387E-06  0.2362891E+04  0.7818609E-02  0.8453529E-01
       -1   -1    0    0    0  501  0.00000000000E+00  0.00000000000E+00  0.93833232294E+03  0.93833232296E+03  0.50400001928E-02 0.  1.
        1   -1    0    0  501    0  0.00000000000E+00  0.00000000000E+00 -0.14875475859E+04  0.14875475859E+04  0.50400001928E-02 0. -1.
    10030    2    1    2    0    0  0.00000000000E+00  0.00000000000E+00 -0.54921526299E+03  0.24258799089E+04  0.23628914337E+04 0.  0.
        4    1    3    3  502    0 -0.43368815052E+03  0.84608062459E+03 -0.99464112511E+03  0.13759543655E+04  0.12699999809E+01 0. -1.
       -4    1    3    3    0  502  0.43368815052E+03 -0.84608062459E+03  0.44542586212E+03  0.10499255434E+04  0.12699999809E+01 0.  1.
</event>
<event>
 5   0  0.3481387E-06  0.2504362E+04  0.7818609E-02  0.8401433E-01
        1   -1    0    0  501    0  0.00000000000E+00  0.00000000000E+00  0.17995554479E+04  0.17995554479E+04  0.50400001928E-02 0.  1.
       -1   -1    0    0    0  501  0.00000000000E+00  0.00000000000E+00 -0.87130256090E+03  0.87130256091E+03  0.50400001928E-02 0. -1.
    10030    2    1    2    0    0  0.00000000000E+00  0.00000000000E+00  0.92825288702E+03  0.26708580088E+04  0.25043620108E+04 0.  0.
        4    1    3    3  502    0  0.21239862889E+03  0.10612951735E+03 -0.84707409391E+03  0.87972313002E+03  0.12699999809E+01 0. -1.
       -4    1    3    3    0  502 -0.21239862889E+03 -0.10612951735E+03  0.17753269809E+04  0.17911348788E+04  0.12699999809E+01 0.  1.
</event>
<event>
 5   0  0.3424193E-06  0.2487746E+04  0.7818609E-02  0.8407364E-01
       -1   -1    0    0    0  501  0.00000000000E+00  0.00000000000E+00  0.85175397244E+03  0.85175397245E+03  0.50400001928E-02 0.  1.
        1   -1    0    0  501    0  0.00000000000E+00  0.00000000000E+00 -0.18165102441E+04  0.18165102441E+04  0.50400001928E-02 0. -1.
    10030    2    1    2    0    0  0.00000000000E+00  0.00000000000E+00 -0.96475627162E+03  0.26682642165E+04  0.24877458201E+04 0.  0.
        1    1    3    3  502    0 -0.48801651397E+03 -0.70891234762E+03  0.48084258270E+03  0.98586328863E+03  0.50400001928E-02 0.  1.
       -1    1    3    3    0  502  0.48801651397E+03  0.70891234762E+03 -0.14455988543E+04  0.16824009279E+04  0.50400001928E-02 0. -1.
</event>
<event>
 5   0  0.8407986E-06  0.2520046E+04  0.7818609E-02  0.8395879E-01
        2   -1    0    0  501    0  0.00000000000E+00  0.00000000000E+00  0.10131168353E+04  0.10131168353E+04  0.25500000920E-02 0. -1.
       -2   -1    0    0    0  501  0.00000000000E+00  0.00000000000E+00 -0.15671030754E+04  0.15671030754E+04  0.25500000920E-02 0.  1.
    10030    2    1    2    0    0  0.00000000000E+00  0.00000000000E+00 -0.55398624012E+03  0.25802199107E+04  0.25200464348E+04 0.  0.
        5    1    3    3  502    0  0.11980065367E+04  0.21981778577E+03  0.53351373518E+02  0.12191833250E+04  0.46999998093E+01 0. -1.
       -5    1    3    3    0  502 -0.11980065367E+04 -0.21981778577E+03 -0.60733761364E+03  0.13610365857E+04  0.46999998093E+01 0.  1.
</event>
<event>
 5   0  0.3424193E-06  0.2477039E+04  0.7818609E-02  0.8411212E-01
        1   -1    0    0  501    0  0.00000000000E+00  0.00000000000E+00  0.11542118620E+04  0.11542118620E+04  0.50400001928E-02 0.  1.
       -1   -1    0    0    0  501  0.00000000000E+00  0.00000000000E+00 -0.13289850302E+04  0.13289850303E+04  0.50400001928E-02 0. -1.
    10030    2    1    2    0    0  0.00000000000E+00  0.00000000000E+00 -0.17477316826E+03  0.24831968922E+04  0.24770387856E+04 0.  0.
        1    1    3    3  502    0 -0.44555210135E+03  0.72191258515E+03  0.81721800739E+03  0.11779302727E+04  0.50400001928E-02 0.  1.
       -1    1    3    3    0  502  0.44555210135E+03 -0.72191258515E+03 -0.99199117565E+03  0.13052666196E+04  0.50400001928E-02 0. -1.
</event>
<event>
 5   0  0.8407986E-06  0.2496897E+04  0.7818609E-02  0.8404092E-01
       -2   -1    0    0    0  501  0.00000000000E+00  0.00000000000E+00  0.13125804615E+04  0.13125804615E+04  0.25500000920E-02 0.  1.
        2   -1    0    0  501    0  0.00000000000E+00  0.00000000000E+00 -0.11874502623E+04  0.11874502623E+04  0.25500000920E-02 0. -1.
    10030    2    1    2    0    0  0.00000000000E+00  0.00000000000E+00  0.12513019917E+03  0.25000307237E+04  0.24968972852E+04 0.  0.
        5    1    3    3  502    0 -0.23710865057E+03 -0.10936682840E+04  0.61667725177E+03  0.12777494866E+04  0.46999998093E+01 0.  1.
       -5    1    3    3    0  502  0.23710865057E+03  0.10936682840E+04 -0.49154705260E+03  0.12222812371E+04  0.46999998093E+01 0. -1.
</event>
<event>
 5   0  0.8579923E-06  0.2503862E+04  0.7818609E-02  0.8401611E-01
        2   -1    0    0  501    0  0.00000000000E+00  0.00000000000E+00  0.12198644898E+04  0.12198644898E+04  0.25500000920E-02 0.  1.
       -2   -1    0    0    0  501  0.00000000000E+00  0.00000000000E+00 -0.12848405956E+04  0.12848405956E+04  0.25500000920E-02 0. -1.
    10030    2    1    2    0    0  0.00000000000E+00  0.00000000000E+00 -0.64976105809E+02  0.25047050853E+04  0.25038621508E+04 0.  0.
        1    1    3    3  502    0  0.10604871896E+03 -0.10809598334E+04 -0.65528171906E+03  0.12685088189E+04  0.50400001928E-02 0. -1.
       -1    1    3    3    0  502 -0.10604871896E+03  0.10809598334E+04  0.59030561325E+03  0.12361962665E+04  0.50400001928E-02 0.  1.
</event>
<event>
 5   0  0.8948286E-06  0.2565542E+04  0.7818609E-02  0.8380001E-01
       -2   -1    0    0    0  501  0.00000000000E+00  0.00000000000E+00  0.16212442177E+04  0.16212442177E+04  0.25500000920E-02 0.  1.
        2   -1    0    0  501    0  0.00000000000E+00  0.00000000000E+00 -0.10149618861E+04  0.10149618861E+04  0.25500000920E-02 0. -1.
    10030    2    1    2    0    0  0.00000000000E+00  0.00000000000E+00  0.60628233154E+03  0.26362061038E+04  0.25655417277E+04 0.  0.
        4    1    3    3  502    0  0.10162353789E+04 -0.73723351491E+03  0.57354699398E+03  0.13802917692E+04  0.12699999809E+01 0.  1.
       -4    1    3    3    0  502 -0.10162353789E+04  0.73723351491E+03  0.32735337567E+02  0.12559143347E+04  0.12699999809E+01 0. -1.
</event>
<event>
 5   0  0.8407986E-06  0.2501114E+04  0.7818609E-02  0.8402589E-01
       -2   -1    0    0    0  501  0.00000000000E+00  0.00000000000E+00  0.10207359719E+04  0.10207359719E+04  0.25500000920E-02 0. -1.
        2   -1    0    0  501    0  0.00000000000E+00  0.00000000000E+00 -0.15321222518E+04  0.15321222518E+04  0.25500000920E-02 0.  1.
    10030    2    1    2    0    0  0.00000000000E+00  0.00000000000E+00 -0.51138627990E+03  0.25528582238E+04  0.25011135887E+04 0.  0.
        5    1    3    3  502    0 -0.42362453898E+03  0.15207465900E+02  0.94515959641E+03  0.10358753640E+04  0.46999998093E+01 0. -1.
       -5    1    3    3    0  502  0.42362453898E+03 -0.15207465900E+02 -0.14565458763E+04  0.15169828598E+04  0.46999998093E+01 0.  1.
</event>
<event>
 5   0  0.3481387E-06  0.2499070E+04  0.7818609E-02  0.8403317E-01
        1   -1    0    0  501    0  0.00000000000E+00  0.00000000000E+00  0.17840216019E+04  0.17840216019E+04  0.50400001928E-02 0. -1.
       -1   -1    0    0    0  501  0.00000000000E+00  0.00000000000E+00 -0.87517847313E+03  0.87517847315E+03  0.50400001928E-02 0.  1.
    10030    2    1    2    0    0  0.00000000000E+00  0.00000000000E+00  0.90884312879E+03  0.26592000751E+04  0.24990696682E+04 0.  0.
        4    1    3    3  502    0  0.17828008962E+03 -0.28857661397E+03  0.17340920575E+04  0.17669570254E+04  0.12699999809E+01 0. -1.
       -4    1    3    3    0  502 -0.17828008962E+03  0.28857661397E+03 -0.82524892876E+03  0.89224304973E+03  0.12699999809E+01 0.  1.
</event>
<event>
 5   0  0.8579923E-06  0.2497672E+04  0.7818609E-02  0.8403815E-01
        2   -1    0    0  501    0  0.00000000000E+00  0.00000000000E+00  0.15500620507E+04  0.15500620507E+04  0.25500000920E-02 0. -1.
       -2   -1    0    0    0  501  0.00000000000E+00  0.00000000000E+00 -0.10061474406E+04  0.10061474406E+04  0.25500000920E-02 0.  1.
    10030    2    1    2    0    0  0.00000000000E+00  0.00000000000E+00  0.54391461005E+03  0.25562094913E+04  0.24976716879E+04 0.  0.
        1    1    3    3  502    0  0.25773474401E+03  0.46008940776E+03  0.14305139252E+04  0.15246243969E+04  0.50400001928E-02 0. -1.
       -1    1    3    3    0  502 -0.25773474401E+03 -0.46008940776E+03 -0.88659931516E+03  0.10315850944E+04  0.50400001928E-02 0.  1.
</event>
<event>
 5   0  0.3481387E-06  0.2525187E+04  0.7818609E-02  0.8394067E-01
        1   -1    0    0  501    0  0.00000000000E+00  0.00000000000E+00  0.11272287812E+04  0.11272287812E+04  0.50400001928E-02 0. -1.
       -1   -1    0    0    0  501  0.00000000000E+00  0.00000000000E+00 -0.14142134554E+04  0.14142134554E+04  0.50400001928E-02 0.  1.
    10030    2    1    2    0    0  0.00000000000E+00  0.00000000000E+00 -0.28698467420E+03  0.25414422367E+04  0.25251868127E+04 0.  0.
        4    1    3    3  502    0 -0.11542700989E+04  0.42788222303E+02  0.36966260730E+03  0.12127746490E+04  0.12699999809E+01 0. -1.
       -4    1    3    3    0  502  0.11542700989E+04 -0.42788222303E+02 -0.65664728150E+03  0.13286675876E+04  0.12699999809E+01 0.  1.
</event>
<event>
 5   0  0.3522870E-06  0.2514549E+04  0.7818609E-02  0.8397821E-01
       -1   -1    0    0    0  501  0.00000000000E+00  0.00000000000E+00  0.63920395311E+03  0.63920395313E+03  0.50400001928E-02 0. -1.
        1   -1    0    0  501    0  0.00000000000E+00  0.00000000000E+00 -0.24729807774E+04  0.24729807774E+04  0.50400001928E-02 0.  1.
    10030    2    1    2    0    0  0.00000000000E+00  0.00000000000E+00 -0.18337768243E+04  0.31121847305E+04  0.25145489368E+04 0.  0.
        2    1    3    3  502    0 -0.78936167288E+02 -0.40312241195E+03  0.55380687072E+03  0.68952204286E+03  0.25500000920E-02 0. -1.
       -2    1    3    3    0  502  0.78936167288E+02  0.40312241195E+03 -0.23875836950E+04  0.24226626877E+04  0.25500000920E-02 0.  1.
</event>
<event>
 5   0  0.3522870E-06  0.2509698E+04  0.7818609E-02  0.8399539E-01
        1   -1    0    0  501    0  0.00000000000E+00  0.00000000000E+00  0.12827053988E+04  0.12827053989E+04  0.50400001928E-02 0.  1.
       -1   -1    0    0    0  501  0.00000000000E+00  0.00000000000E+00 -0.12275974521E+04  0.12275974521E+04  0.50400001928E-02 0. -1.
    10030    2    1    2    0    0  0.00000000000E+00  0.00000000000E+00  0.55107946747E+02  0.25103028510E+04  0.25096978937E+04 0.  0.
        2    1    3    3  502    0 -0.39430301140E+03 -0.30496066594E+03 -0.11243181657E+04  0.12298647122E+04  0.25500000920E-02 0. -1.
       -2    1    3    3    0  502  0.39430301140E+03  0.30496066594E+03  0.11794261124E+04  0.12804381388E+04  0.25500000920E-02 0.  1.
</event>
<event>
 5   0  0.3424193E-06  0.2547347E+04  0.7818609E-02  0.8386309E-01
        1   -1    0    0  501    0  0.00000000000E+00  0.00000000000E+00  0.18756134245E+04  0.18756134245E+04  0.50400001928E-02 0.  1.
       -1   -1    0    0    0  501  0.00000000000E+00  0.00000000000E+00 -0.86491413305E+03  0.86491413306E+03  0.50400001928E-02 0. -1.
    10030    2    1    2    0    0  0.00000000000E+00  0.00000000000E+00  0.10106992915E+04  0.27405275576E+04  0.25473472940E+04 0.  0.
        1    1    3    3  502    0  0.11593591998E+04 -0.30128327988E+03  0.97102528009E+03  0.15420037171E+04  0.50400001928E-02 0. -1.
       -1    1    3    3    0  502 -0.11593591998E+04  0.30128327988E+03  0.39674011400E+02  0.11985238405E+04  0.50400001928E-02 0.  1.
</event>
<event>
 5   0  0.3481387E-06  0.2474805E+04  0.7818609E-02  0.8412017E-01
        1   -1    0    0  501    0  0.00000000000E+00  0.00000000000E+00  0.14547575712E+04  0.14547575712E+04  0.50400001928E-02 0.  1.
       -1   -1    0    0    0  501  0.00000000000E+00  0.00000000000E+00 -0.10525222750E+04  0.10525222750E+04  0.50400001928E-02 0. -1.
    10030    2    1    2    0    0  0.00000000000E+00  0.00000000000E+00  0.40223529624E+03  0.25072798462E+04  0.24748048395E+04 0.  0.
        4    1    3    3  502    0  0.45702690616E+03  0.10689749896E+04  0.63044966079E+03  0.13225163549E+04  0.12699999809E+01 0.  1.
       -4    1    3    3    0  502 -0.45702690616E+03 -0.10689749896E+04 -0.22821436455E+03  0.11847634913E+04  0.12699999809E+01 0. -1.
</event>
<event>
 5   0  0.8948286E-06  0.2492732E+04  0.7818609E-02  0.8405579E-01
       -2   -1    0    0    0  501  0.00000000000E+00  0.00000000000E+00  0.10412027450E+04  0.10412027450E+04  0.25500000920E-02 0.  1.
        2   -1    0    0  501    0  0.00000000000E+00  0.00000000000E+00 -0.14919559013E+04  0.14919559013E+04  0.25500000920E-02 0. -1.
    10030    2    1    2    0    0  0.00000000000E+00  0.00000000000E+00 -0.45075315628E+03  0.25331586463E+04  0.24927323000E+04 0.  0.
        4    1    3    3  502    0 -0.39796388225E+03  0.72183895194E+02  0.97265796226E+03  0.10533996823E+04  0.12699999809E+01 0.  1.
       -4    1    3    3    0  502  0.39796388225E+03 -0.72183895194E+02 -0.14234111185E+04  0.14797589640E+04  0.12699999809E+01 0. -1.
</event>
<event>
 5   0  0.8056723E-06  0.2480470E+04  0.7818609E-02  0.8409977E-01
       -2   -1    0    0    0  501  0.00000000000E+00  0.00000000000E+00  0.86738450155E+03  0.86738450155E+03  0.25500000920E-02 0.  1.
        2   -1    0    0  501    0  0.00000000000E+00  0.00000000000E+00 -0.17733569084E+04  0.17733569084E+04  0.25500000920E-02 0. -1.
    10030    2    1    2    0    0  0.00000000000E+00  0.00000000000E+00 -0.90597240686E+03  0.26407414100E+04  0.24804695508E+04 0.  0.
        2    1    3    3  502    0 -0.60256695841E+03 -0.13909505092E+03  0.69153419364E+03  0.92771434911E+03  0.25500000920E-02 0.  1.
       -2    1    3    3    0  502  0.60256695841E+03  0.13909505092E+03 -0.15975066005E+04  0.17130270609E+04  0.25500000920E-02 0. -1.
</event>
<event>
 5   0  0.3642184E-06  0.2517987E+04  0.7818609E-02  0.8396605E-01
       -1   -1    0    0    0  501  0.00000000000E+00  0.00000000000E+00  0.95146419709E+03  0.95146419710E+03  0.50400001928E-02 0.  1.
        1   -1    0    0  501    0  0.00000000000E+00  0.00000000000E+00 -0.16659213852E+04  0.16659213852E+04  0.50400001928E-02 0. -1.
    10030    2    1    2    0    0  0.00000000000E+00  0.00000000000E+00 -0.71445718815E+03  0.26173855824E+04  0.25179869366E+04 0.  0.
        5    1    3    3  502    0 -0.58824966298E+03  0.28177311654E+03 -0.14765890676E+04  0.16142401060E+04  0.46999998093E+01 0. -1.
       -5    1    3    3    0  502  0.58824966298E+03 -0.28177311654E+03  0.76213187942E+03  0.10031454764E+04  0.46999998093E+01 0.  1.
</event>
<event>
 5   0  0.8056723E-06  0.2506839E+04  0.7818609E-02  0.8400553E-01
       -2   -1    0    0    0  501  0.00000000000E+00  0.00000000000E+00  0.11489682698E+04  0.11489682698E+04  0.25500000920E-02 0.  1.
        2   -1    0    0  501    0  0.00000000000E+00  0.00000000000E+00 -0.13673662207E+04  0.13673662207E+04  0.25500000920E-02 0. -1.
    10030    2    1    2    0    0  0.00000000000E+00  0.00000000000E+00 -0.21839795095E+03  0.25163344905E+04  0.25068389663E+04 0.  0.
        2    1    3    3  502    0  0.18306552294E+03  0.10189818572E+04  0.60003477788E+03  0.11966113595E+04  0.25500000920E-02 0. -1.
       -2    1    3    3    0  502 -0.18306552294E+03 -0.10189818572E+04 -0.81843272883E+03  0.13197231310E+04  0.25500000920E-02 0.  1.
</event>
<event>
 5   0  0.3642184E-06  0.2498997E+04  0.7818609E-02  0.8403343E-01
        1   -1    0    0  501    0  0.00000000000E+00  0.00000000000E+00  0.13317295967E+04  0.13317295967E+04  0.50400001928E-02 0. -1.
       -1   -1    0    0    0  501  0.00000000000E+00  0.00000000000E+00 -0.11723452033E+04  0.11723452033E+04  0.50400001928E-02 0.  1.
    10030    2    1    2    0    0  0.00000000000E+00  0.00000000000E+00  0.15938439345E+03  0.25040748000E+04  0.24989972428E+04 0.  0.
        5    1    3    3  502    0  0.98880762516E+03  0.21937326858E+03 -0.65347715761E+03  0.12053711611E+04  0.46999998093E+01 0.  1.
       -5    1    3    3    0  502 -0.98880762516E+03 -0.21937326858E+03  0.81286155106E+03  0.12987036389E+04  0.46999998093E+01 0. -1.
</event>
<event>
 5   0  0.8579923E-06  0.2585047E+04  0.7818609E-02  0.8373298E-01
       -2   -1    0    0    0  501  0.00000000000E+00  0.00000000000E+00  0.95784722505E+03  0.95784722506E+03  0.25500000920E-02 0.  1.
        2   -1    0    0  501    0  0.00000000000E+00  0.00000000000E+00 -0.17441378284E+04  0.17441378284E+04  0.25500000920E-02 0. -1.
    10030    2    1    2    0    0  0.00000000000E+00  0.00000000000E+00 -0.78629060334E+03  0.27019850535E+04  0.25850474495E+04 0.  0.
        1    1    3    3  502    0  0.41532655849E+03  0.92529090739E+03  0.44432186025E+03  0.11072855680E+04  0.50400001928E-02 0.  1.
       -1    1    3    3    0  502 -0.41532655849E+03 -0.92529090739E+03 -0.12306124636E+04  0.15946994855E+04  0.50400001928E-02 0. -1.
</event>
<event>
 5   0  0.8948286E-06  0.2504274E+04  0.7818609E-02  0.8401464E-01
       -2   -1    0    0    0  501  0.00000000000E+00  0.00000000000E+00  0.68153531398E+03  0.68153531399E+03  0.25500000920E-02 0.  1.
        2   -1    0    0  501    0  0.00000000000E+00  0.00000000000E+00 -0.23004641732E+04  0.23004641732E+04  0.25500000920E-02 0. -1.
    10030    2    1    2    0    0  0.00000000000E+00  0.00000000000E+00 -0.16189288592E+04  0.29819994871E+04  0.25042744039E+04 0.  0.
        4    1    3    3  502    0  0.76403644626E+03 -0.43162833283E+03  0.25411586991E+03  0.91358152190E+03  0.12699999809E+01 0.  1.
       -4    1    3    3    0  502 -0.76403644626E+03  0.43162833283E+03 -0.18730447291E+04  0.20684179652E+04  0.12699999809E+01 0. -1.
</event>
<event>
 5   0  0.3484857E-06  0.2511856E+04  0.7818609E-02  0.8398774E-01
        1   -1    0    0  501    0  0.00000000000E+00  0.00000000000E+00  0.19279458075E+04  0.19279458075E+04  0.50400001928E-02 0.  1.
       -1   -1    0    0    0  501  0.00000000000E+00  0.00000000000E+00 -0.81815305324E+03  0.81815305325E+03  0.50400001928E-02 0. -1.
    10030    2    1    2    0    0  0.00000000000E+00  0.00000000000E+00  0.11097927542E+04  0.27460988607E+04  0.25118556877E+04 0.  0.
        3    1    3    3  502    0  0.11134311166E+04 -0.32663870758E+03  0.29527282043E+02  0.11607297563E+04  0.10100000352E+00 0. -1.
       -3    1    3    3    0  502 -0.11134311166E+04  0.32663870758E+03  0.10802654722E+04  0.15853691044E+04  0.10100000352E+00 0.  1.
</event>
<event>
 5   0  0.8948286E-06  0.2491211E+04  0.7818609E-02  0.8406123E-01
       -2   -1    0    0    0  501  0.00000000000E+00  0.00000000000E+00  0.14105841382E+04  0.14105841382E+04  0.25500000920E-02 0.  1.
        2   -1    0    0  501    0  0.00000000000E+00  0.00000000000E+00 -0.10999225055E+04  0.10999225055E+04  0.25500000920E-02 0. -1.
    10030    2    1    2    0    0  0.00000000000E+00  0.00000000000E+00  0.31066163277E+03  0.25105066437E+04  0.24912111428E+04 0.  0.
        4    1    3    3  502    0 -0.11605668304E+04  0.42135016447E+03 -0.10504702685E+02  0.12347320724E+04  0.12699999809E+01 0. -1.
       -4    1    3    3    0  502  0.11605668304E+04 -0.42135016447E+03  0.32116633546E+03  0.12757745713E+04  0.12699999809E+01 0.  1.
</event>
<event>
 5   0  0.8407986E-06  0.2480269E+04  0.7818609E-02  0.8410049E-01
       -2   -1    0    0    0  501  0.00000000000E+00  0.00000000000E+00  0.12572772773E+04  0.12572772773E+04  0.25500000920E-02 0. -1.
        2   -1    0    0  501    0  0.00000000000E+00  0.00000000000E+00 -0.12232251482E+04  0.12232251482E+04  0.25500000920E-02 0.  1.
    10030    2    1    2    0    0  0.00000000000E+00  0.00000000000E+00  0.34052129045E+02  0.24805024255E+04  0.24802686821E+04 0.  0.
        5    1    3    3  502    0 -0.22289495448E+03  0.12146234123E+04  0.13069811290E+03  0.12418116931E+04  0.46999998093E+01 0. -1.
       -5    1    3    3    0  502  0.22289495448E+03 -0.12146234123E+04 -0.96645983853E+02  0.12386907324E+04  0.46999998093E+01 0.  1.
</event>
<event>
 5   0  0.8579923E-06  0.2493081E+04  0.7818609E-02  0.8405455E-01
        2   -1    0    0  501    0  0.00000000000E+00  0.00000000000E+00  0.29671957370E+04  0.29671957370E+04  0.25500000920E-02 0.  1.
       -2   -1    0    0    0  501  0.00000000000E+00  0.00000000000E+00 -0.52368082726E+03  0.52368082727E+03  0.25500000920E-02 0. -1.
    10030    2    1    2    0    0  0.00000000000E+00  0.00000000000E+00  0.24435149097E+04  0.34908765642E+04  0.24930812407E+04 0.  0.
        1    1    3    3  502    0  0.56789752183E+03 -0.99190307993E+03  0.52517616815E+03  0.12578510734E+04  0.50400001928E-02 0. -1.
       -1    1    3    3    0  502 -0.56789752183E+03  0.99190307993E+03  0.19183387416E+04  0.22330254908E+04  0.50400001928E-02 0.  1.
</event>
<event>
 5   0  0.3481387E-06  0.2508857E+04  0.7818609E-02  0.8399837E-01
        1   -1    0    0  501    0  0.00000000000E+00  0.00000000000E+00  0.17132671755E+04  0.17132671755E+04  0.50400001928E-02 0.  1.
       -1   -1    0    0    0  501  0.00000000000E+00  0.00000000000E+00 -0.91847375625E+03  0.91847375626E+03  0.50400001928E-02 0. -1.
    10030    2    1    2    0    0  0.00000000000E+00  0.00000000000E+00  0.79479341925E+03  0.26317409318E+04  0.25088570610E+04 0.  0.
        4    1    3    3  502    0  0.50103379507E+02 -0.27499048461E+02  0.17119000129E+04  0.17128542884E+04  0.12699999809E+01 0.  1.
       -4    1    3    3    0  502 -0.50103379507E+02  0.27499048461E+02 -0.91710659365E+03  0.91888664334E+03  0.12699999809E+01 0. -1.
</event>
<event>
 5   0  0.8579923E-06  0.2486775E+04  0.7818609E-02  0.8407712E-01
        2   -1    0    0  501    0  0.00000000000E+00  0.00000000000E+00  0.95818678956E+03  0.95818678956E+03  0.25500000920E-02 0.  1.
       -2   -1    0    0    0  501  0.00000000000E+00  0.00000000000E+00 -0.16134767429E+04  0.16134767429E+04  0.25500000920E-02 0. -1.
    10030    2    1    2    0    0  0.00000000000E+00  0.00000000000E+00 -0.65528995336E+03  0.25716635325E+04  0.24867746985E+04 0.  0.
        1    1    3    3  502    0  0.12186207264E+04  0.93527321670E+02 -0.56398131818E+03  0.13460530309E+04  0.50400001928E-02 0. -1.
       -1    1    3    3    0  502 -0.12186207264E+04 -0.93527321670E+02 -0.91308635173E+02  0.12256105016E+04  0.50400001928E-02 0.  1.
</event>
<event>
 5   0  0.3522870E-06  0.2496059E+04  0.7818609E-02  0.8404391E-01
        1   -1    0    0  501    0  0.00000000000E+00  0.00000000000E+00  0.24768510311E+04  0.24768510311E+04  0.50400001928E-02 0.  1.
       -1   -1    0    0    0  501  0.00000000000E+00  0.00000000000E+00 -0.62885397504E+03  0.62885397506E+03  0.50400001928E-02 0. -1.
    10030    2    1    2    0    0  0.00000000000E+00  0.00000000000E+00  0.18479970560E+04  0.31057050061E+04  0.24960589869E+04 0.  0.
        2    1    3    3  502    0 -0.48369671950E+03  0.10744410826E+04  0.41220525087E+03  0.12483185993E+04  0.25500000920E-02 0. -1.
       -2    1    3    3    0  502  0.48369671950E+03 -0.10744410826E+04  0.14357918051E+04  0.18573864068E+04  0.25500000920E-02 0.  1.
</event>
<event>
 5   0  0.8354653E-06  0.2505306E+04  0.7818609E-02  0.8401098E-01
        2   -1    0    0  501    0  0.00000000000E+00  0.00000000000E+00  0.22782292549E+04  0.22782292549E+04  0.25500000920E-02 0. -1.
       -2   -1    0    0    0  501  0.00000000000E+00  0.00000000000E+00 -0.68875428121E+03  0.68875428122E+03  0.25500000920E-02 0.  1.
    10030    2    1    2    0    0  0.00000000000E+00  0.00000000000E+00  0.15894749737E+04  0.29669835361E+04  0.25053064906E+04 0.  0.
        3    1    3    3  502    0  0.12303849924E+02 -0.10531262594E+04  0.15978798094E+04  0.19137518644E+04  0.10100000352E+00 0. -1.
       -3    1    3    3    0  502 -0.12303849924E+02  0.10531262594E+04 -0.84048356514E+01  0.10532316718E+04  0.10100000352E+00 0.  1.
</event>
<event>
 5   0  0.3481387E-06  0.2484337E+04  0.7818609E-02  0.8408587E-01
       -1   -1    0    0    0  501  0.00000000000E+00  0.00000000000E+00  0.10330775824E+04  0.10330775824E+04  0.50400001928E-02 0. -1.
        1   -1    0    0  501    0  0.00000000000E+00  0.00000000000E+00 -0.14935783952E+04  0.14935783952E+04  0.50400001928E-02 0.  1.
    10030    2    1    2    0    0  0.00000000000E+00  0.00000000000E+00 -0.46050081276E+03  0.25266559776E+04  0.24843368191E+04 0.  0.
        4    1    3    3  502    0 -0.55864340102E+03 -0.10889249562E+04 -0.44633308314E+03  0.13027105756E+04  0.12699999809E+01 0.  1.
       -4    1    3    3    0  502  0.55864340102E+03  0.10889249562E+04 -0.14167729620E+02  0.12239454020E+04  0.12699999809E+01 0. -1.
</event>
<event>
 5   0  0.3481387E-06  0.2490883E+04  0.7818609E-02  0.8406241E-01
       -1   -1    0    0    0  501  0.00000000000E+00  0.00000000000E+00  0.92041859013E+03  0.92041859014E+03  0.50400001928E-02 0.  1.
        1   -1    0    0  501    0  0.00000000000E+00  0.00000000000E+00 -0.16852375395E+04  0.16852375395E+04  0.50400001928E-02 0. -1.
    10030    2    1    2    0    0  0.00000000000E+00  0.00000000000E+00 -0.76481894939E+03  0.26056561297E+04  0.24908825425E+04 0.  0.
        4    1    3    3  502    0 -0.59493010540E+03 -0.19293150036E+03 -0.15090489800E+04  0.16335222163E+04  0.12699999809E+01 0. -1.
       -4    1    3    3    0  502  0.59493010540E+03  0.19293150036E+03  0.74423003062E+03  0.97213391337E+03  0.12699999809E+01 0.  1.
</event>
<event>
 5   0  0.8579923E-06  0.2356189E+04  0.7818609E-02  0.8456090E-01
        2   -1    0    0  501    0  0.00000000000E+00  0.00000000000E+00  0.24722266802E+04  0.24722266802E+04  0.25500000920E-02 0. -1.
       -2   -1    0    0    0  501  0.00000000000E+00  0.00000000000E+00 -0.56139947991E+03  0.56139947991E+03  0.25500000920E-02 0.  1.
    10030    2    1    2    0    0  0.00000000000E+00  0.00000000000E+00  0.19108272003E+04  0.30336261601E+04  0.23561891032E+04 0.  0.
        1    1    3    3  502    0 -0.51644033554E+03  0.78520579628E+03  0.18700451961E+04  0.20929232662E+04  0.50400001928E-02 0. -1.
       -1    1    3    3    0  502  0.51644033554E+03 -0.78520579628E+03  0.40782004160E+02  0.94070289389E+03  0.50400001928E-02 0.  1.
</event>
<event>
 5   0  0.8948286E-06  0.2359426E+04  0.7818609E-02  0.8454852E-01
        2   -1    0    0  501    0  0.00000000000E+00  0.00000000000E+00  0.15956211981E+04  0.15956211981E+04  0.25500000920E-02 0. -1.
       -2   -1    0    0    0  501  0.00000000000E+00  0.00000000000E+00 -0.87221380706E+03  0.87221380707E+03  0.25500000920E-02 0.  1.
    10030    2    1    2    0    0  0.00000000000E+00  0.00000000000E+00  0.72340739106E+03  0.24678350052E+04  0.23594260657E+04 0.  0.
        4    1    3    3  502    0  0.47066615268E+03 -0.18628925817E+03 -0.75285149460E+03  0.90720300970E+03  0.12699999809E+01 0.  1.
       -4    1    3    3    0  502 -0.47066615268E+03  0.18628925817E+03  0.14762588857E+04  0.15606319955E+04  0.12699999809E+01 0. -1.
</event>
<event>
 5   0  0.3642184E-06  0.2515358E+04  0.7818609E-02  0.8397535E-01
        1   -1    0    0  501    0  0.00000000000E+00  0.00000000000E+00  0.22391989372E+04  0.22391989372E+04  0.50400001928E-02 0. -1.
       -1   -1    0    0    0  501  0.00000000000E+00  0.00000000000E+00 -0.70639369555E+03  0.70639369557E+03  0.50400001928E-02 0.  1.
    10030    2    1    2    0    0  0.00000000000E+00  0.00000000000E+00  0.15328052416E+04  0.29455926327E+04  0.25153576385E+04 0.  0.
        5    1    3    3  502    0  0.33623716717E+03 -0.12315179374E+03 -0.64542694317E+03  0.73811911360E+03  0.46999998093E+01 0.  1.
       -5    1    3    3    0  502 -0.33623716717E+03  0.12315179374E+03  0.21782321848E+04  0.22074735191E+04  0.46999998093E+01 0. -1.
</event>
<event>
 5   0  0.8579923E-06  0.2500914E+04  0.7818609E-02  0.8402660E-01
        2   -1    0    0  501    0  0.00000000000E+00  0.00000000000E+00  0.14424713460E+04  0.14424713460E+04  0.25500000920E-02 0.  1.
       -2   -1    0    0    0  501  0.00000000000E+00  0.00000000000E+00 -0.10840026305E+04  0.10840026305E+04  0.25500000920E-02 0. -1.
    10030    2    1    2    0    0  0.00000000000E+00  0.00000000000E+00  0.35846871558E+03  0.25264739765E+04  0.25009140197E+04 0.  0.
        1    1    3    3  502    0  0.15648553682E+03 -0.93297121341E+03 -0.64687612851E+03  0.11460243165E+04  0.50400001928E-02 0. -1.
       -1    1    3    3    0  502 -0.15648553682E+03  0.93297121341E+03  0.10053448441E+04  0.13804496600E+04  0.50400001928E-02 0.  1.
</event>
<event>
 5   0  0.8354653E-06  0.2498908E+04  0.7818609E-02  0.8403375E-01
        2   -1    0    0  501    0  0.00000000000E+00  0.00000000000E+00  0.12844838840E+04  0.12844838840E+04  0.25500000920E-02 0.  1.
       -2   -1    0    0    0  501  0.00000000000E+00  0.00000000000E+00 -0.12153791611E+04  0.12153791611E+04  0.25500000920E-02 0. -1.
    10030    2    1    2    0    0  0.00000000000E+00  0.00000000000E+00  0.69104722872E+02  0.24998630451E+04  0.24989077177E+04 0.  0.
        3    1    3    3  502    0  0.72341640067E+03  0.29651136897E+03  0.10095452185E+04  0.12768836435E+04  0.10100000352E+00 0.  1.
       -3    1    3    3    0  502 -0.72341640067E+03 -0.29651136897E+03 -0.94044049562E+03  0.12229794016E+04  0.10100000352E+00 0. -1.
</event>
<event>
 5   0  0.3424193E-06  0.2496277E+04  0.7818609E-02  0.8404313E-01
        1   -1    0    0  501    0  0.00000000000E+00  0.00000000000E+00  0.18361235166E+04  0.18361235166E+04  0.50400001928E-02 0.  1.
       -1   -1    0    0    0  501  0.00000000000E+00  0.00000000000E+00 -0.84844521102E+03  0.84844521103E+03  0.50400001928E-02 0. -1.
    10030    2    1    2    0    0  0.00000000000E+00  0.00000000000E+00  0.98767830559E+03  0.26845687276E+04  0.24962773921E+04 0.  0.
        1    1    3    3  502    0  0.22769947346E+03  0.12107089174E+04  0.27825101378E+03  0.12629674420E+04  0.50400001928E-02 0. -1.
       -1    1    3    3    0  502 -0.22769947346E+03 -0.12107089174E+04  0.70942729181E+03  0.14216012856E+04  0.50400001928E-02 0.  1.
</event>
<event>
 5   0  0.3424193E-06  0.2497083E+04  0.7818609E-02  0.8404025E-01
        1   -1    0    0  501    0  0.00000000000E+00  0.00000000000E+00  0.11697106270E+04  0.11697106270E+04  0.50400001928E-02 0. -1.
       -1   -1    0    0    0  501  0.00000000000E+00  0.00000000000E+00 -0.13326851102E+04  0.13326851102E+04  0.50400001928E-02 0.  1.
    10030    2    1    2    0    0  0.00000000000E+00  0.00000000000E+00 -0.16297448322E+03  0.25023957372E+04  0.24970830469E+04 0.  0.
        1    1    3    3  502    0  0.33721877756E+03  0.11925205059E+04 -0.23358060954E+03  0.12611033115E+04  0.50400001928E-02 0. -1.
       -1    1    3    3    0  502 -0.33721877756E+03 -0.11925205059E+04  0.70606126317E+02  0.12412924257E+04  0.50400001928E-02 0.  1.
</event>
<event>
 5   0  0.3484857E-06  0.2494235E+04  0.7818609E-02  0.8405042E-01
       -1   -1    0    0    0  501  0.00000000000E+00  0.00000000000E+00  0.86839490927E+03  0.86839490929E+03  0.50400001928E-02 0. -1.
        1   -1    0    0  501    0  0.00000000000E+00  0.00000000000E+00 -0.17910074550E+04  0.17910074550E+04  0.50400001928E-02 0.  1.
    10030    2    1    2    0    0  0.00000000000E+00  0.00000000000E+00 -0.92261254568E+03  0.26594023642E+04  0.24942347575E+04 0.  0.
        3    1    3    3  502    0  0.74155030955E+02 -0.59016042186E+03  0.70741525209E+03  0.92424273935E+03  0.10100000352E+00 0. -1.
       -3    1    3    3    0  502 -0.74155030955E+02  0.59016042186E+03 -0.16300277978E+04  0.17351596249E+04  0.10100000352E+00 0.  1.
</event>
<event>
 5   0  0.3642184E-06  0.2502733E+04  0.7818609E-02  0.8402012E-01
        1   -1    0    0  501    0  0.00000000000E+00  0.00000000000E+00  0.18525559884E+04  0.18525559884E+04  0.50400001928E-02 0.  1.
       -1   -1    0    0    0  501  0.00000000000E+00  0.00000000000E+00 -0.84527454866E+03  0.84527454868E+03  0.50400001928E-02 0. -1.
    10030    2    1    2    0    0  0.00000000000E+00  0.00000000000E+00  0.10072814397E+04  0.26978305371E+04  0.25027332475E+04 0.  0.
        5    1    3    3  502    0 -0.12422044975E+04 -0.76542047351E+02  0.36323486850E+03  0.12964923286E+04  0.46999998093E+01 0.  1.
       -5    1    3    3    0  502  0.12422044975E+04  0.76542047351E+02  0.64404657123E+03  0.14013382084E+04  0.46999998093E+01 0. -1.
</event>
<event>
 5   0  0.3484857E-06  0.2468816E+04  0.7818609E-02  0.8414180E-01
       -1   -1    0    0    0  501  0.00000000000E+00  0.00000000000E+00  0.56955010063E+03  0.56955010065E+03  0.50400001928E-02 0.  1.
        1   -1    0    0  501    0  0.00000000000E+00  0.00000000000E+00 -0.26753809986E+04  0.26753809986E+04  0.50400001928E-02 0. -1.
    10030    2    1    2    0    0  0.00000000000E+00  0.00000000000E+00 -0.21058308980E+04  0.32449310993E+04  0.24688163294E+04 0.  0.
        3    1    3    3  502    0  0.88645229938E+03 -0.45590753582E+03 -0.20098922183E+04  0.22435053153E+04  0.10100000352E+00 0. -1.
       -3    1    3    3    0  502 -0.88645229938E+03  0.45590753582E+03 -0.95938679629E+02  0.10014257839E+04  0.10100000352E+00 0.  1.
</event>
<event>
 5   0  0.8948286E-06  0.2415618E+04  0.7818609E-02  0.8433679E-01
        2   -1    0    0  501    0  0.00000000000E+00  0.00000000000E+00  0.29623172975E+04  0.29623172975E+04  0.25500000920E-02 0.  1.
       -2   -1    0    0    0  501  0.00000000000E+00  0.00000000000E+00 -0.49245331043E+03  0.49245331043E+03  0.25500000920E-02 0. -1.
    10030    2    1    2    0    0  0.00000000000E+00  0.00000000000E+00  0.24698639870E+04  0.34547706079E+04  0.24156183140E+04 0.  0.
        4    1    3    3  502    0 -0.23570990285E+03 -0.30726627381E+02 -0.45866888232E+03  0.51660627217E+03  0.12699999809E+01 0. -1.
       -4    1    3    3    0  502  0.23570990285E+03  0.30726627381E+02  0.29285328693E+04  0.29381643357E+04  0.12699999809E+01 0.  1.
</event>
<event>
 5   0  0.8579923E-06  0.2498087E+04  0.7818609E-02  0.8403667E-01
       -2   -1    0    0    0  501  0.00000000000E+00  0.00000000000E+00  0.97045117669E+03  0.97045117670E+03  0.25500000920E-02 0. -1.
        2   -1    0    0  501    0  0.00000000000E+00  0.00000000000E+00 -0.16076126802E+04  0.16076126802E+04  0.25500000920E-02 0.  1.
    10030    2    1    2    0    0  0.00000000000E+00  0.00000000000E+00 -0.63716150346E+03  0.25780638569E+04  0.24980869618E+04 0.  0.
        1    1    3    3  502    0 -0.32267224799E+03 -0.79358432579E+03 -0.12566458092E+04  0.15208721681E+04  0.50400001928E-02 0.  1.
       -1    1    3    3    0  502  0.32267224799E+03  0.79358432579E+03  0.61948430574E+03  0.10571916888E+04  0.50400001928E-02 0. -1.
</event>
<event>
 5   0  0.3522870E-06  0.2501119E+04  0.7818609E-02  0.8402587E-01
       -1   -1    0    0    0  501  0.00000000000E+00  0.00000000000E+00  0.82747395614E+03  0.82747395616E+03  0.50400001928E-02 0. -1.
        1   -1    0    0  501    0  0.00000000000E+00  0.00000000000E+00 -0.18899673834E+04  0.18899673834E+04  0.50400001928E-02 0.  1.
    10030    2    1    2    0    0  0.00000000000E+00  0.00000000000E+00 -0.10624934272E+04  0.27174413395E+04  0.25011187799E+04 0.  0.
        2    1    3    3  502    0 -0.95774253764E+03  0.76087294060E+03 -0.81394386886E+03  0.14692525385E+04  0.25500000920E-02 0.  1.
       -2    1    3    3    0  502  0.95774253764E+03 -0.76087294060E+03 -0.24854955838E+03  0.12481888011E+04  0.25500000920E-02 0. -1.
</event>
<event>
 5   0  0.8407986E-06  0.2514455E+04  0.7818609E-02  0.8397854E-01
        2   -1    0    0  501    0  0.00000000000E+00  0.00000000000E+00  0.10215564741E+04  0.10215564741E+04  0.25500000920E-02 0. -1.
       -2   -1    0    0    0  501  0.00000000000E+00  0.00000000000E+00 -0.15472669198E+04  0.15472669198E+04  0.25500000920E-02 0.  1.
    10030    2    1    2    0    0  0.00000000000E+00  0.00000000000E+00 -0.52571044572E+03  0.25688233939E+04  0.25144546439E+04 0.  0.
        5    1    3    3  502    0  0.11111430044E+03 -0.11856498261E+03 -0.15364847303E+04  0.15450603416E+04  0.46999998093E+01 0.  1.
       -5    1    3    3    0  502 -0.11111430044E+03  0.11856498261E+03  0.10107742845E+04  0.10237630523E+04  0.46999998093E+01 0. -1.
</event>
<event>
 5   0  0.3522870E-06  0.2492269E+04  0.7818609E-02  0.8405745E-01
       -1   -1    0    0    0  501  0.00000000000E+00  0.00000000000E+00  0.13712687713E+04  0.13712687713E+04  0.50400001928E-02 0. -1.
        1   -1    0    0  501    0  0.00000000000E+00  0.00000000000E+00 -0.11324190537E+04  0.11324190537E+04  0.50400001928E-02 0.  1.
    10030    2    1    2    0    0  0.00000000000E+00  0.00000000000E+00  0.23884971759E+03  0.25036878250E+04  0.24922687531E+04 0.  0.
        2    1    3    3  502    0  0.10766277728E+03 -0.65919892043E+03  0.11762508280E+04  0.13526642232E+04  0.25500000920E-02 0. -1.
       -2    1    3    3    0  502 -0.10766277728E+03  0.65919892043E+03 -0.93740111039E+03  0.11510236019E+04  0.25500000920E-02 0.  1.
</event>
<event>
 5   0  0.8056723E-06  0.2496471E+04  0.7818609E-02  0.8404244E-01
        2   -1    0    0  501    0  0.00000000000E+00  0.00000000000E+00  0.10444439986E+04  0.10444439987E+04  0.25500000920E-02 0. -1.
       -2   -1    0    0    0  501  0.00000000000E+00  0.00000000000E+00 -0.14917905417E+04  0.14917905417E+04  0.25500000920E-02 0.  1.
    10030    2    1    2    0    0  0.00000000000E+00  0.00000000000E+00 -0.44734654306E+03  0.25362345404E+04  0.24964708518E+04 0.  0.
        2    1    3    3  502    0  0.30094589924E+03  0.11661278720E+04  0.10968275762E+03  0.12093192115E+04  0.25500000920E-02 0.  1.
       -2    1    3    3    0  502 -0.30094589924E+03 -0.11661278720E+04 -0.55702930068E+03  0.13269153288E+04  0.25500000920E-02 0. -1.
</event>
<event>
 5   0  0.8354653E-06  0.2490837E+04  0.7818609E-02  0.8406257E-01
       -2   -1    0    0    0  501  0.00000000000E+00  0.00000000000E+00  0.10216031599E+04  0.10216031599E+04  0.25500000920E-02 0.  1.
        2   -1    0    0  501    0  0.00000000000E+00  0.00000000000E+00 -0.15182676099E+04  0.15182676099E+04  0.25500000920E-02 0. -1.
    10030    2    1    2    0    0  0.00000000000E+00  0.00000000000E+00 -0.49666444998E+03  0.25398707698E+04  0.24908367974E+04 0.  0.
        3    1    3    3  502    0  0.78040149485E+03  0.68756195540E+03 -0.94687206570E+03  0.14065328488E+04  0.10100000352E+00 0. -1.
       -3    1    3    3    0  502 -0.78040149485E+03 -0.68756195540E+03  0.45020761572E+03  0.11333379210E+04  0.10100000352E+00 0.  1.
</event>
<event>
 5   0  0.8579923E-06  0.2491850E+04  0.7818609E-02  0.8405895E-01
       -2   -1    0    0    0  501  0.00000000000E+00  0.00000000000E+00  0.13793380073E+04  0.13793380073E+04  0.25500000920E-02 0. -1.
        2   -1    0    0  501    0  0.00000000000E+00  0.00000000000E+00 -0.11254161940E+04  0.11254161940E+04  0.25500000920E-02 0.  1.
    10030    2    1    2    0    0  0.00000000000E+00  0.00000000000E+00  0.25392181328E+03  0.25047542014E+04  0.24918501805E+04 0.  0.
        1    1    3    3  502    0 -0.10655967623E+04 -0.62148886411E+03 -0.48828869372E+02  0.12345562468E+04  0.50400001928E-02 0.  1.
       -1    1    3    3    0  502  0.10655967623E+04  0.62148886411E+03  0.30275068265E+03  0.12701979546E+04  0.50400001928E-02 0. -1.
</event>
<event>
 5   0  0.8948286E-06  0.2473069E+04  0.7818609E-02  0.8412643E-01
        2   -1    0    0  501    0  0.00000000000E+00  0.00000000000E+00  0.17476391072E+04  0.17476391072E+04  0.25500000920E-02 0. -1.
       -2   -1    0    0    0  501  0.00000000000E+00  0.00000000000E+00 -0.87490498730E+03  0.87490498730E+03  0.25500000920E-02 0.  1.
    10030    2    1    2    0    0  0.00000000000E+00  0.00000000000E+00  0.87273411989E+03  0.26225440945E+04  0.24730694862E+04 0.  0.
        4    1    3    3  502    0  0.48493533697E+03 -0.44663948507E+03  0.15457157200E+04  0.16804427424E+04  0.12699999809E+01 0. -1.
       -4    1    3    3    0  502 -0.48493533697E+03  0.44663948507E+03 -0.67298160007E+03  0.94210135208E+03  0.12699999809E+01 0.  1.
</event>
<event>
 5   0  0.3642184E-06  0.2487586E+04  0.7818609E-02  0.8407421E-01
        1   -1    0    0  501    0  0.00000000000E+00  0.00000000000E+00  0.35889888755E+04  0.35889888755E+04  0.50400001928E-02 0. -1.
       -1   -1    0    0    0  501  0.00000000000E+00  0.00000000000E+00 -0.43104648784E+03  0.43104648787E+03  0.50400001928E-02 0.  1.
    10030    2    1    2    0    0  0.00000000000E+00  0.00000000000E+00  0.31579423877E+04  0.40200353634E+04  0.24875860184E+04 0.  0.
        5    1    3    3  502    0 -0.26311210646E+03 -0.10422919587E+04  0.56794753609E+03  0.12158071400E+04  0.46999998093E+01 0.  1.
       -5    1    3    3    0  502  0.26311210646E+03  0.10422919587E+04  0.25899948516E+04  0.28042282234E+04  0.46999998093E+01 0. -1.
</event>
<event>
 5   0  0.3481387E-06  0.2487988E+04  0.7818609E-02  0.8407277E-01
       -1   -1    0    0    0  501  0.00000000000E+00  0.00000000000E+00  0.96085037037E+03  0.96085037039E+03  0.50400001928E-02 0.  1.
        1   -1    0    0  501    0  0.00000000000E+00  0.00000000000E+00 -0.16105750895E+04  0.16105750895E+04  0.50400001928E-02 0. -1.
    10030    2    1    2    0    0  0.00000000000E+00  0.00000000000E+00 -0.64972471913E+03  0.25714254599E+04  0.24879884817E+04 0.  0.
        4    1    3    3  502    0 -0.68807268851E+03 -0.19755312097E+03 -0.13763543935E+04  0.15513943050E+04  0.12699999809E+01 0. -1.
       -4    1    3    3    0  502  0.68807268851E+03  0.19755312097E+03  0.72662967438E+03  0.10200311549E+04  0.12699999809E+01 0.  1.
</event>
<event>
 5   0  0.3642184E-06  0.2518014E+04  0.7818609E-02  0.8396596E-01
        1   -1    0    0  501    0  0.00000000000E+00  0.00000000000E+00  0.26716713488E+04  0.26716713488E+04  0.50400001928E-02 0.  1.
       -1   -1    0    0    0  501  0.00000000000E+00  0.00000000000E+00 -0.59329838929E+03  0.59329838931E+03  0.50400001928E-02 0. -1.
    10030    2    1    2    0    0  0.00000000000E+00  0.00000000000E+00  0.20783729595E+04  0.32649697381E+04  0.25180137474E+04 0.  0.
        5    1    3    3  502    0  0.11638242515E+04  0.27419111441E+03  0.15503484495E+04  0.19578738623E+04  0.46999998093E+01 0.  1.
       -5    1    3    3    0  502 -0.11638242515E+04 -0.27419111441E+03  0.52802450998E+03  0.13070958759E+04  0.46999998093E+01 0. -1.
</event>
<event>
 5   0  0.8354653E-06  0.2456000E+04  0.7818609E-02  0.8418831E-01
       -2   -1    0    0    0  501  0.00000000000E+00  0.00000000000E+00  0.63099755924E+03  0.63099755924E+03  0.25500000920E-02 0. -1.
        2   -1    0    0  501    0  0.00000000000E+00  0.00000000000E+00 -0.23898412683E+04  0.23898412683E+04  0.25500000920E-02 0.  1.
    10030    2    1    2    0    0  0.00000000000E+00  0.00000000000E+00 -0.17588437090E+04  0.30208388275E+04  0.24560000059E+04 0.  0.
        3    1    3    3  502    0 -0.74778013156E+02 -0.17712914793E+03  0.61236959125E+03  0.64184344881E+03  0.10100000352E+00 0. -1.
       -3    1    3    3    0  502  0.74778013156E+02  0.17712914793E+03 -0.23712133003E+04  0.23789953787E+04  0.10100000352E+00 0.  1.
</event>
<event>
 5   0  0.8056723E-06  0.2346906E+04  0.7818609E-02  0.8459653E-01
       -2   -1    0    0    0  501  0.00000000000E+00  0.00000000000E+00  0.88669946085E+03  0.88669946086E+03  0.25500000920E-02 0.  1.
        2   -1    0    0  501    0  0.00000000000E+00  0.00000000000E+00 -0.15529412289E+04  0.15529412289E+04  0.25500000920E-02 0. -1.
    10030    2    1    2    0    0  0.00000000000E+00  0.00000000000E+00 -0.66624176805E+03  0.24396406898E+04  0.23469061766E+04 0.  0.
        2    1    3    3  502    0 -0.10984023851E+04  0.59053989976E+02 -0.75794625933E+03  0.13358359575E+04  0.25500000920E-02 0.  1.
       -2    1    3    3    0  502  0.10984023851E+04 -0.59053989976E+02  0.91704491280E+02  0.11038047323E+04  0.25500000920E-02 0. -1.
</event>
<event>
 5   0  0.8407986E-06  0.2496694E+04  0.7818609E-02  0.8404164E-01
       -2   -1    0    0    0  501  0.00000000000E+00  0.00000000000E+00  0.57027714729E+03  0.57027714730E+03  0.25500000920E-02 0. -1.
        2   -1    0    0  501    0  0.00000000000E+00  0.00000000000E+00 -0.27326541270E+04  0.27326541270E+04  0.25500000920E-02 0.  1.
    10030    2    1    2    0    0  0.00000000000E+00  0.00000000000E+00 -0.21623769797E+04  0.33029312743E+04  0.24966939741E+04 0.  0.
        5    1    3    3  502    0 -0.65876394062E+03 -0.24482826850E+03 -0.24460678501E+04  0.25450306143E+04  0.46999998093E+01 0.  1.
       -5    1    3    3    0  502  0.65876394062E+03  0.24482826850E+03  0.28369087036E+03  0.75790066001E+03  0.46999998093E+01 0. -1.
</event>
<event>
 5   0  0.3481387E-06  0.2504658E+04  0.7818609E-02  0.8401328E-01
        1   -1    0    0  501    0  0.00000000000E+00  0.00000000000E+00  0.13292555155E+04  0.13292555155E+04  0.50400001928E-02 0.  1.
       -1   -1    0    0    0  501  0.00000000000E+00  0.00000000000E+00 -0.11798546933E+04  0.11798546934E+04  0.50400001928E-02 0. -1.
    10030    2    1    2    0    0  0.00000000000E+00  0.00000000000E+00  0.14940082218E+03  0.25091102089E+04  0.25046583469E+04 0.  0.
        4    1    3    3  502    0  0.10551082158E+04  0.57406564065E+03 -0.28022021311E+03  0.12334219422E+04  0.12699999809E+01 0.  1.
       -4    1    3    3    0  502 -0.10551082158E+04 -0.57406564065E+03  0.42962103528E+03  0.12756882667E+04  0.12699999809E+01 0. -1.
</event>
<event>
 5   0  0.3424193E-06  0.2494778E+04  0.7818609E-02  0.8404848E-01
       -1   -1    0    0    0  501  0.00000000000E+00  0.00000000000E+00  0.11173553011E+04  0.11173553011E+04  0.50400001928E-02 0.  1.
        1   -1    0    0  501    0  0.00000000000E+00  0.00000000000E+00 -0.13925553474E+04  0.13925553474E+04  0.50400001928E-02 0. -1.
    10030    2    1    2    0    0  0.00000000000E+00  0.00000000000E+00 -0.27520004629E+03  0.25099106485E+04  0.24947778254E+04 0.  0.
        1    1    3    3  502    0  0.71897425965E+03  0.38004307556E+02  0.88721061431E+03  0.11425895972E+04  0.50400001928E-02 0.  1.
       -1    1    3    3    0  502 -0.71897425965E+03 -0.38004307556E+02 -0.11624106606E+04  0.13673210513E+04  0.50400001928E-02 0. -1.
</event>
<event>
 5   0  0.8056723E-06  0.2510293E+04  0.7818609E-02  0.8399328E-01
        2   -1    0    0  501    0  0.00000000000E+00  0.00000000000E+00  0.29312433218E+04  0.29312433218E+04  0.25500000920E-02 0. -1.
       -2   -1    0    0    0  501  0.00000000000E+00  0.00000000000E+00 -0.53744876720E+03  0.53744876721E+03  0.25500000920E-02 0.  1.
    10030    2    1    2    0    0  0.00000000000E+00  0.00000000000E+00  0.23937945546E+04  0.34686920890E+04  0.25102932974E+04 0.  0.
        2    1    3    3  502    0  0.20625500736E+03 -0.37142886133E+03 -0.43507082428E+03  0.60810126561E+03  0.25500000920E-02 0.  1.
       -2    1    3    3    0  502 -0.20625500736E+03  0.37142886133E+03  0.28288653789E+04  0.28605908234E+04  0.25500000920E-02 0. -1.
</event>
<event>
 5   0  0.2901250E-06  0.2500998E+04  0.7818609E-02  0.8402630E-01
        3   -1    0    0  501    0  0.00000000000E+00  0.00000000000E+00  0.13071781089E+04  0.13071781128E+04  0.10100000352E+00 0.  1.
       -3   -1    0    0    0  501  0.00000000000E+00  0.00000000000E+00 -0.11962779254E+04  0.11962779297E+04  0.10100000352E+00 0. -1.
    10030    2    1    2    0    0  0.00000000000E+00  0.00000000000E+00  0.11090018348E+03  0.25034560425E+04  0.25009984619E+04 0.  0.
        5    1    3    3  502    0 -0.55963851471E+03 -0.10125105357E+04 -0.41973038391E+03  0.12306780803E+04  0.46999998093E+01 0. -1.
       -5    1    3    3    0  502  0.55963851471E+03  0.10125105357E+04  0.53063056739E+03  0.12727779622E+04  0.46999998093E+01 0.  1.
</event>
<event>
 5   0  0.3481387E-06  0.2482346E+04  0.7818609E-02  0.8409302E-01
        1   -1    0    0  501    0  0.00000000000E+00  0.00000000000E+00  0.31417125925E+04  0.31417125925E+04  0.50400001928E-02 0. -1.
       -1   -1    0    0    0  501  0.00000000000E+00  0.00000000000E+00 -0.49034095554E+03  0.49034095557E+03  0.50400001928E-02 0.  1.
    10030    2    1    2    0    0  0.00000000000E+00  0.00000000000E+00  0.26513716370E+04  0.36320535481E+04  0.24823459507E+04 0.  0.
        4    1    3    3  502    0 -0.19371937890E+03 -0.47749147089E+03  0.29778081749E+04  0.30220636066E+04  0.12699999809E+01 0. -1.
       -4    1    3    3    0  502  0.19371937890E+03  0.47749147089E+03 -0.32643653796E+03  0.60998994152E+03  0.12699999809E+01 0.  1.
</event>
<event>
 5   0  0.8948286E-06  0.2501528E+04  0.7818609E-02  0.8402441E-01
        2   -1    0    0  501    0  0.00000000000E+00  0.00000000000E+00  0.21157579647E+04  0.21157579647E+04  0.25500000920E-02 0.  1.
       -2   -1    0    0    0  501  0.00000000000E+00  0.00000000000E+00 -0.73940888151E+03  0.73940888151E+03  0.25500000920E-02 0. -1.
    10030    2    1    2    0    0  0.00000000000E+00  0.00000000000E+00  0.13763490832E+04  0.28551668462E+04  0.25015277174E+04 0.  0.
        4    1    3    3  502    0 -0.39696436124E+03 -0.93217772159E+03  0.15252524622E+04  0.18311014978E+04  0.12699999809E+01 0.  1.
       -4    1    3    3    0  502  0.39696436124E+03  0.93217772159E+03 -0.14890337902E+03  0.10240653485E+04  0.12699999809E+01 0. -1.
</event>
<event>
 5   0  0.3642184E-06  0.2507075E+04  0.7818609E-02  0.8400469E-01
        1   -1    0    0  501    0  0.00000000000E+00  0.00000000000E+00  0.14528575164E+04  0.14528575164E+04  0.50400001928E-02 0.  1.
       -1   -1    0    0    0  501  0.00000000000E+00  0.00000000000E+00 -0.10815622730E+04  0.10815622730E+04  0.50400001928E-02 0. -1.
    10030    2    1    2    0    0  0.00000000000E+00  0.00000000000E+00  0.37129524338E+03  0.25344197894E+04  0.25070746920E+04 0.  0.
        5    1    3    3  502    0  0.98888242188E+03 -0.15469754985E+03  0.94854036666E+03  0.13789745079E+04  0.46999998093E+01 0.  1.
       -5    1    3    3    0  502 -0.98888242188E+03  0.15469754985E+03 -0.57724512328E+03  0.11554452815E+04  0.46999998093E+01 0. -1.
</event>
<event>
 5   0  0.8354653E-06  0.2424395E+04  0.7818609E-02  0.8430427E-01
       -2   -1    0    0    0  501  0.00000000000E+00  0.00000000000E+00  0.83875270174E+03  0.83875270175E+03  0.25500000920E-02 0.  1.
        2   -1    0    0  501    0  0.00000000000E+00  0.00000000000E+00 -0.17519142573E+04  0.17519142573E+04  0.25500000920E-02 0. -1.
    10030    2    1    2    0    0  0.00000000000E+00  0.00000000000E+00 -0.91316155557E+03  0.25906669591E+04  0.24243950310E+04 0.  0.
        3    1    3    3  502    0 -0.10017507581E+04 -0.32297919615E+03 -0.10991560540E+04  0.15218292229E+04  0.10100000352E+00 0. -1.
       -3    1    3    3    0  502  0.10017507581E+04  0.32297919615E+03  0.18599449847E+03  0.10688377361E+04  0.10100000352E+00 0.  1.
</event>
<event>
 5   0  0.8579923E-06  0.2502856E+04  0.7818609E-02  0.8401969E-01
       -2   -1    0    0    0  501  0.00000000000E+00  0.00000000000E+00  0.10585578789E+04  0.10585578789E+04  0.25500000920E-02 0.  1.
        2   -1    0    0  501    0  0.00000000000E+00  0.00000000000E+00 -0.14794395818E+04  0.14794395818E+04  0.25500000920E-02 0. -1.
    10030    2    1    2    0    0  0.00000000000E+00  0.00000000000E+00 -0.42088170283E+03  0.25379974607E+04  0.25028563088E+04 0.  0.
        1    1    3    3  502    0 -0.79746404279E+02 -0.10110133561E+04  0.53304161398E+03  0.11457053974E+04  0.50400001928E-02 0.  1.
       -1    1    3    3    0  502  0.79746404279E+02  0.10110133561E+04 -0.95392331681E+03  0.13922920633E+04  0.50400001928E-02 0. -1.
</event>
<event>
 5   0  0.3484857E-06  0.2492718E+04  0.7818609E-02  0.8405584E-01
       -1   -1    0    0    0  501  0.00000000000E+00  0.00000000000E+00  0.14522999961E+04  0.14522999961E+04  0.50400001928E-02 0. -1.
        1   -1    0    0  501    0  0.00000000000E+00  0.00000000000E+00 -0.10696209201E+04  0.10696209201E+04  0.50400001928E-02 0.  1.
    10030    2    1    2    0    0  0.00000000000E+00  0.00000000000E+00  0.38267907595E+03  0.25219209162E+04  0.24927177603E+04 0.  0.
        3    1    3    3  502    0 -0.80708424805E+02 -0.83607773424E+03  0.11229259578E+04  0.14023204143E+04  0.10100000352E+00 0. -1.
       -3    1    3    3    0  502  0.80708424805E+02  0.83607773424E+03 -0.74024688183E+03  0.11196005019E+04  0.10100000352E+00 0.  1.
</event>
<event>
 5   0  0.3481387E-06  0.2487313E+04  0.7818609E-02  0.8407519E-01
        1   -1    0    0  501    0  0.00000000000E+00  0.00000000000E+00  0.18945684350E+04  0.18945684350E+04  0.50400001928E-02 0. -1.
       -1   -1    0    0    0  501  0.00000000000E+00  0.00000000000E+00 -0.81637678414E+03  0.81637678415E+03  0.50400001928E-02 0.  1.
    10030    2    1    2    0    0  0.00000000000E+00  0.00000000000E+00  0.10781916508E+04  0.27109452191E+04  0.24873131579E+04 0.  0.
        4    1    3    3  502    0 -0.86377739801E+03 -0.20727678553E+03 -0.40956658968E+03  0.97817251209E+03  0.12699999809E+01 0.  1.
       -4    1    3    3    0  502  0.86377739801E+03  0.20727678553E+03  0.14877582405E+04  0.17327727070E+04  0.12699999809E+01 0. -1.
</event>
<event>
 5   0  0.3481387E-06  0.2495873E+04  0.7818609E-02  0.8404457E-01
       -1   -1    0    0    0  501  0.00000000000E+00  0.00000000000E+00  0.61765636778E+03  0.61765636780E+03  0.50400001928E-02 0. -1.
        1   -1    0    0  501    0  0.00000000000E+00  0.00000000000E+00 -0.25213789089E+04  0.25213789089E+04  0.50400001928E-02 0.  1.
    10030    2    1    2    0    0  0.00000000000E+00  0.00000000000E+00 -0.19037225411E+04  0.31390352767E+04  0.24958731848E+04 0.  0.
        4    1    3    3  502    0 -0.66181289393E+03  0.45377116699E+03  0.25016396787E+03  0.84052852556E+03  0.12699999809E+01 0. -1.
       -4    1    3    3    0  502  0.66181289393E+03 -0.45377116699E+03 -0.21538865090E+04  0.22985067511E+04  0.12699999809E+01 0.  1.
</event>
<event>
 5   0  0.3481387E-06  0.2499973E+04  0.7818609E-02  0.8402995E-01
       -1   -1    0    0    0  501  0.00000000000E+00  0.00000000000E+00  0.99752374123E+03  0.99752374124E+03  0.50400001928E-02 0. -1.
        1   -1    0    0  501    0  0.00000000000E+00  0.00000000000E+00 -0.15663447832E+04  0.15663447832E+04  0.50400001928E-02 0.  1.
    10030    2    1    2    0    0  0.00000000000E+00  0.00000000000E+00 -0.56882104200E+03  0.25638685245E+04  0.24999728865E+04 0.  0.
        4    1    3    3  502    0 -0.46310921123E+03  0.44635013258E+03  0.81478822027E+03  0.10380655274E+04  0.12699999809E+01 0. -1.
       -4    1    3    3    0  502  0.46310921123E+03 -0.44635013258E+03 -0.13836092623E+04  0.15258029971E+04  0.12699999809E+01 0.  1.
</event>
<event>
 5   0  0.3424193E-06  0.2490907E+04  0.7818609E-02  0.8406232E-01
        1   -1    0    0  501    0  0.00000000000E+00  0.00000000000E+00  0.15171393495E+04  0.15171393495E+04  0.50400001928E-02 0.  1.
       -1   -1    0    0    0  501  0.00000000000E+00  0.00000000000E+00 -0.10224208156E+04  0.10224208156E+04  0.50400001928E-02 0. -1.
    10030    2    1    2    0    0  0.00000000000E+00  0.00000000000E+00  0.49471853396E+03  0.25395601651E+04  0.24909073456E+04 0.  0.
        1    1    3    3  502    0  0.82635032817E+03  0.32151652483E+03 -0.64432470355E+03  0.10960757566E+04  0.50400001928E-02 0. -1.
       -1    1    3    3    0  502 -0.82635032817E+03 -0.32151652483E+03  0.11390432375E+04  0.14434844085E+04  0.50400001928E-02 0.  1.
</event>
<event>
 5   0  0.8407986E-06  0.2505014E+04  0.7818609E-02  0.8401201E-01
       -2   -1    0    0    0  501  0.00000000000E+00  0.00000000000E+00  0.95649582328E+03  0.95649582328E+03  0.25500000920E-02 0.  1.
        2   -1    0    0  501    0  0.00000000000E+00  0.00000000000E+00 -0.16401265145E+04  0.16401265145E+04  0.25500000920E-02 0. -1.
    10030    2    1    2    0    0  0.00000000000E+00  0.00000000000E+00 -0.68363069127E+03  0.25966223378E+04  0.25050143000E+04 0.  0.
        5    1    3    3  502    0 -0.26874877235E+03 -0.12155484640E+04 -0.19905404617E+03  0.12607254159E+04  0.46999998093E+01 0.  1.
       -5    1    3    3    0  502  0.26874877235E+03  0.12155484640E+04 -0.48457664509E+03  0.13358969219E+04  0.46999998093E+01 0. -1.
</event>
<event>
 5   0  0.8056723E-06  0.2491552E+04  0.7818609E-02  0.8406001E-01
       -2   -1    0    0    0  501  0.00000000000E+00  0.00000000000E+00  0.14931487115E+04  0.14931487115E+04  0.25500000920E-02 0. -1.
        2   -1    0    0  501    0  0.00000000000E+00  0.00000000000E+00 -0.10393860461E+04  0.10393860461E+04  0.25500000920E-02 0.  1.
    10030    2    1    2    0    0  0.00000000000E+00  0.00000000000E+00  0.45376266544E+03  0.25325347576E+04  0.24915520748E+04 0.  0.
        2    1    3    3  502    0  0.61859898312E+03  0.36355943598E+03 -0.80825960331E+03  0.10807977386E+04  0.25500000920E-02 0.  1.
       -2    1    3    3    0  502 -0.61859898312E+03 -0.36355943598E+03  0.12620222687E+04  0.14517370190E+04  0.25500000920E-02 0. -1.
</event>
<event>
 5   0  0.3522870E-06  0.2465634E+04  0.7818609E-02  0.8415332E-01
       -1   -1    0    0    0  501  0.00000000000E+00  0.00000000000E+00  0.93538362051E+03  0.93538362052E+03  0.50400001928E-02 0.  1.
        1   -1    0    0  501    0  0.00000000000E+00  0.00000000000E+00 -0.16248276487E+04  0.16248276488E+04  0.50400001928E-02 0. -1.
    10030    2    1    2    0    0  0.00000000000E+00  0.00000000000E+00 -0.68944402824E+03  0.25602112693E+04  0.24656335241E+04 0.  0.
        2    1    3    3  502    0  0.56669473922E+03 -0.10018860834E+04  0.11370882787E+03  0.11566539453E+04  0.25500000920E-02 0. -1.
       -2    1    3    3    0  502 -0.56669473922E+03  0.10018860834E+04 -0.80315285611E+03  0.14035573240E+04  0.25500000920E-02 0.  1.
</event>
<event>
 5   0  0.3424193E-06  0.2497739E+04  0.7818609E-02  0.8403791E-01
       -1   -1    0    0    0  501  0.00000000000E+00  0.00000000000E+00  0.88826874228E+03  0.88826874230E+03  0.50400001928E-02 0. -1.
        1   -1    0    0  501    0  0.00000000000E+00  0.00000000000E+00 -0.17558597170E+04  0.17558597170E+04  0.50400001928E-02 0.  1.
    10030    2    1    2    0    0  0.00000000000E+00  0.00000000000E+00 -0.86759097467E+03  0.26441284593E+04  0.24977392197E+04 0.  0.
        1    1    3    3  502    0  0.12913142426E+03  0.21725917266E+03 -0.17285041443E+04  0.17468838112E+04  0.50400001928E-02 0.  1.
       -1    1    3    3    0  502 -0.12913142426E+03 -0.21725917266E+03  0.86091316964E+03  0.89724464808E+03  0.50400001928E-02 0. -1.
</event>
<event>
 5   0  0.3484857E-06  0.2497429E+04  0.7818609E-02  0.8403902E-01
       -1   -1    0    0    0  501  0.00000000000E+00  0.00000000000E+00  0.85880641313E+03  0.85880641314E+03  0.50400001928E-02 0. -1.
        1   -1    0    0  501    0  0.00000000000E+00  0.00000000000E+00 -0.18156453246E+04  0.18156453246E+04  0.50400001928E-02 0.  1.
    10030    2    1    2    0    0  0.00000000000E+00  0.00000000000E+00 -0.95683891150E+03  0.26744517378E+04  0.24974289570E+04 0.  0.
        3    1    3    3  502    0 -0.94956489289E+03  0.13124869083E+03 -0.13353848018E+04  0.16438224611E+04  0.10100000352E+00 0.  1.
       -3    1    3    3    0  502  0.94956489289E+03 -0.13124869083E+03  0.37854589028E+03  0.10306292767E+04  0.10100000352E+00 0. -1.
</event>
<event>
 5   0  0.3424193E-06  0.2496575E+04  0.7818609E-02  0.8404207E-01
       -1   -1    0    0    0  501  0.00000000000E+00  0.00000000000E+00  0.91193172405E+03  0.91193172406E+03  0.50400001928E-02 0.  1.
        1   -1    0    0  501    0  0.00000000000E+00  0.00000000000E+00 -0.17087044334E+04  0.17087044334E+04  0.50400001928E-02 0. -1.
    10030    2    1    2    0    0  0.00000000000E+00  0.00000000000E+00 -0.79677270934E+03  0.26206361575E+04  0.24965750779E+04 0.  0.
        1    1    3    3  502    0 -0.14994470585E+03 -0.53035212621E+03 -0.15740724182E+04  0.16677711985E+04  0.50400001928E-02 0. -1.
       -1    1    3    3    0  502  0.14994470585E+03  0.53035212621E+03  0.77729970889E+03  0.95286495898E+03  0.50400001928E-02 0.  1.
</event>
<event>
 5   0  0.3481387E-06  0.2497299E+04  0.7818609E-02  0.8403948E-01
       -1   -1    0    0    0  501  0.00000000000E+00  0.00000000000E+00  0.86994200376E+03  0.86994200377E+03  0.50400001928E-02 0. -1.
        1   -1    0    0  501    0  0.00000000000E+00  0.00000000000E+00 -0.17922184249E+04  0.17922184249E+04  0.50400001928E-02 0.  1.
    10030    2    1    2    0    0  0.00000000000E+00  0.00000000000E+00 -0.92227642114E+03  0.26621604287E+04  0.24972994116E+04 0.  0.
        4    1    3    3  502    0  0.61199591078E+03 -0.65415415517E+03 -0.13884296306E+04  0.16523302048E+04  0.12699999809E+01 0.  1.
       -4    1    3    3    0  502 -0.61199591078E+03  0.65415415517E+03  0.46615320946E+03  0.10098302239E+04  0.12699999809E+01 0. -1.
</event>
<event>
 5   0  0.3481387E-06  0.2486034E+04  0.7818609E-02  0.8407978E-01
       -1   -1    0    0    0  501  0.00000000000E+00  0.00000000000E+00  0.13291190992E+04  0.13291190992E+04  0.50400001928E-02 0. -1.
        1   -1    0    0  501    0  0.00000000000E+00  0.00000000000E+00 -0.11624922942E+04  0.11624922942E+04  0.50400001928E-02 0.  1.
    10030    2    1    2    0    0  0.00000000000E+00  0.00000000000E+00  0.16662680497E+03  0.24916113934E+04  0.24860335564E+04 0.  0.
        4    1    3    3  502    0 -0.10621076631E+04  0.60548827381E+03  0.30831735204E+03  0.12608528623E+04  0.12699999809E+01 0.  1.
       -4    1    3    3    0  502  0.10621076631E+04 -0.60548827381E+03 -0.14169054707E+03  0.12307585311E+04  0.12699999809E+01 0. -1.
</event>
<event>
 5   0  0.3484857E-06  0.2499754E+04  0.7818609E-02  0.8403073E-01
       -1   -1    0    0    0  501  0.00000000000E+00  0.00000000000E+00  0.85465494614E+03  0.85465494615E+03  0.50400001928E-02 0.  1.
        1   -1    0    0  501    0  0.00000000000E+00  0.00000000000E+00 -0.18278631075E+04  0.18278631075E+04  0.50400001928E-02 0. -1.
    10030    2    1    2    0    0  0.00000000000E+00  0.00000000000E+00 -0.97320816137E+03  0.26825180537E+04  0.24997537844E+04 0.  0.
        3    1    3    3  502    0 -0.75760433919E+03  0.60296898984E+02 -0.15514177338E+04  0.17275696935E+04  0.10100000352E+00 0. -1.
       -3    1    3    3    0  502  0.75760433919E+03 -0.60296898984E+02  0.57820957244E+03  0.95494836020E+03  0.10100000352E+00 0.  1.
</event>
<event>
 5   0  0.8056723E-06  0.2500269E+04  0.7818609E-02  0.8402890E-01
        2   -1    0    0  501    0  0.00000000000E+00  0.00000000000E+00  0.22024435841E+04  0.22024435841E+04  0.25500000920E-02 0. -1.
       -2   -1    0    0    0  501  0.00000000000E+00  0.00000000000E+00 -0.70959183065E+03  0.70959183066E+03  0.25500000920E-02 0.  1.
    10030    2    1    2    0    0  0.00000000000E+00  0.00000000000E+00  0.14928517534E+04  0.29120354147E+04  0.25002687653E+04 0.  0.
        2    1    3    3  502    0  0.10996307088E+04 -0.56909272729E+03  0.94742077802E+03  0.15590575225E+04  0.25500000920E-02 0.  1.
       -2    1    3    3    0  502 -0.10996307088E+04  0.56909272729E+03  0.54543097540E+03  0.13529778922E+04  0.25500000920E-02 0. -1.
</event>
<event>
 5   0  0.3642184E-06  0.2498076E+04  0.7818609E-02  0.8403671E-01
       -1   -1    0    0    0  501  0.00000000000E+00  0.00000000000E+00  0.80317339404E+03  0.80317339405E+03  0.50400001928E-02 0.  1.
        1   -1    0    0  501    0  0.00000000000E+00  0.00000000000E+00 -0.19424153321E+04  0.19424153321E+04  0.50400001928E-02 0. -1.
    10030    2    1    2    0    0  0.00000000000E+00  0.00000000000E+00 -0.11392419380E+04  0.27455887261E+04  0.24980763118E+04 0.  0.
        5    1    3    3  502    0 -0.36875387808E+03  0.41216852642E+03 -0.18004996272E+04  0.18835294833E+04  0.46999998093E+01 0. -1.
       -5    1    3    3    0  502  0.36875387808E+03 -0.41216852642E+03  0.66125768915E+03  0.86205924288E+03  0.46999998093E+01 0.  1.
</event>
<event>
 5   0  0.8579923E-06  0.2504320E+04  0.7818609E-02  0.8401448E-01
        2   -1    0    0  501    0  0.00000000000E+00  0.00000000000E+00  0.14091678414E+04  0.14091678414E+04  0.25500000920E-02 0. -1.
       -2   -1    0    0    0  501  0.00000000000E+00  0.00000000000E+00 -0.11126459086E+04  0.11126459086E+04  0.25500000920E-02 0.  1.
    10030    2    1    2    0    0  0.00000000000E+00  0.00000000000E+00  0.29652193280E+03  0.25218137499E+04  0.25043201338E+04 0.  0.
        1    1    3    3  502    0  0.79620749272E+03  0.74194395285E+03 -0.47532047565E+03  0.11875844203E+04  0.50400001928E-02 0.  1.
       -1    1    3    3    0  502 -0.79620749272E+03 -0.74194395285E+03  0.77184240845E+03  0.13342293297E+04  0.50400001928E-02 0. -1.
</event>
<event>
 5   0  0.3484857E-06  0.2503568E+04  0.7818609E-02  0.8401716E-01
       -1   -1    0    0    0  501  0.00000000000E+00  0.00000000000E+00  0.10294394472E+04  0.10294394472E+04  0.50400001928E-02 0.  1.
        1   -1    0    0  501    0  0.00000000000E+00  0.00000000000E+00 -0.15221516142E+04  0.15221516142E+04  0.50400001928E-02 0. -1.
    10030    2    1    2    0    0  0.00000000000E+00  0.00000000000E+00 -0.49271216699E+03  0.25515910615E+04  0.25035677873E+04 0.  0.
        3    1    3    3  502    0  0.73626037489E+03 -0.52467419938E+03 -0.11287584531E+04  0.14461874051E+04  0.10100000352E+00 0. -1.
       -3    1    3    3    0  502 -0.73626037489E+03  0.52467419938E+03  0.63604628612E+03  0.11054036563E+04  0.10100000352E+00 0.  1.
</event>
<event>
 5   0  0.8579923E-06  0.2484385E+04  0.7818609E-02  0.8408570E-01
        2   -1    0    0  501    0  0.00000000000E+00  0.00000000000E+00  0.16692480775E+04  0.16692480775E+04  0.25500000920E-02 0. -1.
       -2   -1    0    0    0  501  0.00000000000E+00  0.00000000000E+00 -0.92439328857E+03  0.92439328858E+03  0.25500000920E-02 0.  1.
    10030    2    1    2    0    0  0.00000000000E+00  0.00000000000E+00  0.74485478892E+03  0.25936413661E+04  0.24843846077E+04 0.  0.
        1    1    3    3  502    0  0.33326639133E+03  0.65642001219E+03  0.14169725567E+04  0.15967983424E+04  0.50400001928E-02 0. -1.
       -1    1    3    3    0  502 -0.33326639133E+03 -0.65642001219E+03 -0.67211776777E+03  0.99684302363E+03  0.50400001928E-02 0.  1.
</event>
<event>
 5   0  0.3424193E-06  0.2495333E+04  0.7818609E-02  0.8404650E-01
        1   -1    0    0  501    0  0.00000000000E+00  0.00000000000E+00  0.98094683034E+03  0.98094683035E+03  0.50400001928E-02 0.  1.
       -1   -1    0    0    0  501  0.00000000000E+00  0.00000000000E+00 -0.15869068211E+04  0.15869068211E+04  0.50400001928E-02 0. -1.
    10030    2    1    2    0    0  0.00000000000E+00  0.00000000000E+00 -0.60595999072E+03  0.25678536514E+04  0.24953326161E+04 0.  0.
        1    1    3    3  502    0 -0.16995671709E+02  0.11385918567E+04 -0.82769192510E+03  0.14077479149E+04  0.50400001928E-02 0.  1.
       -1    1    3    3    0  502  0.16995671709E+02 -0.11385918567E+04  0.22173193438E+03  0.11601057365E+04  0.50400001928E-02 0. -1.
</event>
<event>
 5   0  0.8407986E-06  0.2496127E+04  0.7818609E-02  0.8404367E-01
        2   -1    0    0  501    0  0.00000000000E+00  0.00000000000E+00  0.18706573277E+04  0.18706573277E+04  0.25500000920E-02 0.  1.
       -2   -1    0    0    0  501  0.00000000000E+00  0.00000000000E+00 -0.83268200797E+03  0.83268200798E+03  0.25500000920E-02 0. -1.
    10030    2    1    2    0    0  0.00000000000E+00  0.00000000000E+00  0.10379753197E+04  0.27033393356E+04  0.24961271601E+04 0.  0.
        5    1    3    3  502    0 -0.20512530988E+03  0.10347965950E+04 -0.20327776944E+03  0.10743483268E+04  0.46999998093E+01 0. -1.
       -5    1    3    3    0  502  0.20512530988E+03 -0.10347965950E+04  0.12412530891E+04  0.16289910089E+04  0.46999998093E+01 0.  1.
</event>
<event>
 5   0  0.3522870E-06  0.2502294E+04  0.7818609E-02  0.8402169E-01
        1   -1    0    0  501    0  0.00000000000E+00  0.00000000000E+00  0.22365080026E+04  0.22365080026E+04  0.50400001928E-02 0.  1.
       -1   -1    0    0    0  501  0.00000000000E+00  0.00000000000E+00 -0.69991645016E+03  0.69991645017E+03  0.50400001928E-02 0. -1.
    10030    2    1    2    0    0  0.00000000000E+00  0.00000000000E+00  0.15365915525E+04  0.29364244528E+04  0.25022939411E+04 0.  0.
        2    1    3    3  502    0 -0.50440290983E+03 -0.74341522213E+03  0.17901651450E+04  0.20029427686E+04  0.25500000920E-02 0.  1.
       -2    1    3    3    0  502  0.50440290983E+03  0.74341522213E+03 -0.25357359251E+03  0.93348168422E+03  0.25500000920E-02 0. -1.
</event>
<event>
 5   0  0.8354653E-06  0.2498155E+04  0.7818609E-02  0.8403643E-01
        2   -1    0    0  501    0  0.00000000000E+00  0.00000000000E+00  0.17547215749E+04  0.17547215749E+04  0.25500000920E-02 0.  1.
       -2   -1    0    0    0  501  0.00000000000E+00  0.00000000000E+00 -0.88914093592E+03  0.88914093593E+03  0.25500000920E-02 0. -1.
    10030    2    1    2    0    0  0.00000000000E+00  0.00000000000E+00  0.86558063897E+03  0.26438625108E+04  0.24981551460E+04 0.  0.
        3    1    3    3  502    0  0.25621776713E+02 -0.15728531193E+03 -0.87833831714E+03  0.89267763181E+03  0.10100000352E+00 0. -1.
       -3    1    3    3    0  502 -0.25621776713E+02  0.15728531193E+03  0.17439189561E+04  0.17511848790E+04  0.10100000352E+00 0.  1.
</event>
<event>
 5   0  0.8056723E-06  0.2489184E+04  0.7818609E-02  0.8406849E-01
        2   -1    0    0  501    0  0.00000000000E+00  0.00000000000E+00  0.22207550618E+04  0.22207550618E+04  0.25500000920E-02 0.  1.
       -2   -1    0    0    0  501  0.00000000000E+00  0.00000000000E+00 -0.69751466584E+03  0.69751466584E+03  0.25500000920E-02 0. -1.
    10030    2    1    2    0    0  0.00000000000E+00  0.00000000000E+00  0.15232403960E+04  0.29182697276E+04  0.24891839826E+04 0.  0.
        2    1    3    3  502    0 -0.19964936484E+03  0.85536603611E+03  0.17953764674E+04  0.19987214875E+04  0.25500000920E-02 0.  1.
       -2    1    3    3    0  502  0.19964936484E+03 -0.85536603611E+03 -0.27213607148E+03  0.91954824018E+03  0.25500000920E-02 0. -1.
</event>
<event>
 5   0  0.3522870E-06  0.2504865E+04  0.7818609E-02  0.8401254E-01
        1   -1    0    0  501    0  0.00000000000E+00  0.00000000000E+00  0.21758740623E+04  0.21758740623E+04  0.50400001928E-02 0.  1.
       -1   -1    0    0    0  501  0.00000000000E+00  0.00000000000E+00 -0.72089984672E+03  0.72089984674E+03  0.50400001928E-02 0. -1.
    10030    2    1    2    0    0  0.00000000000E+00  0.00000000000E+00  0.14549742156E+04  0.28967739091E+04  0.25048650886E+04 0.  0.
        2    1    3    3  502    0  0.35386817277E+03 -0.11419344445E+04  0.29578492574E+03  0.12315541732E+04  0.25500000920E-02 0. -1.
       -2    1    3    3    0  502 -0.35386817277E+03  0.11419344445E+04  0.11591892899E+04  0.16652197359E+04  0.25500000920E-02 0.  1.
</event>
<event>
 5   0  0.8407986E-06  0.2500098E+04  0.7818609E-02  0.8402951E-01
       -2   -1    0    0    0  501  0.00000000000E+00  0.00000000000E+00  0.96257561290E+03  0.96257561290E+03  0.25500000920E-02 0. -1.
        2   -1    0    0  501    0  0.00000000000E+00  0.00000000000E+00 -0.16233762265E+04  0.16233762265E+04  0.25500000920E-02 0.  1.
    10030    2    1    2    0    0  0.00000000000E+00  0.00000000000E+00 -0.66080061358E+03  0.25859518394E+04  0.25000978910E+04 0.  0.
        5    1    3    3  502    0  0.10875924601E+04  0.33498946482E+03 -0.86539020915E+03  0.14296844424E+04  0.46999998093E+01 0.  1.
       -5    1    3    3    0  502 -0.10875924601E+04 -0.33498946482E+03  0.20458959557E+03  0.11562673970E+04  0.46999998093E+01 0. -1.
</event>
<event>
 5   0  0.8407986E-06  0.2503677E+04  0.7818609E-02  0.8401677E-01
       -2   -1    0    0    0  501  0.00000000000E+00  0.00000000000E+00  0.10879348465E+04  0.10879348465E+04  0.25500000920E-02 0. -1.
        2   -1    0    0  501    0  0.00000000000E+00  0.00000000000E+00 -0.14404350666E+04  0.14404350666E+04  0.25500000920E-02 0.  1.
    10030    2    1    2    0    0  0.00000000000E+00  0.00000000000E+00 -0.35250022002E+03  0.25283699131E+04  0.25036768986E+04 0.  0.
        5    1    3    3  502    0  0.55697609577E+03 -0.99026765785E+03 -0.70700478563E+03  0.13381817000E+04  0.46999998093E+01 0.  1.
       -5    1    3    3    0  502 -0.55697609577E+03  0.99026765785E+03  0.35450456561E+03  0.11901882130E+04  0.46999998093E+01 0. -1.
</event>
<event>
 5   0  0.8354653E-06  0.2497374E+04  0.7818609E-02  0.8403922E-01
       -2   -1    0    0    0  501  0.00000000000E+00  0.00000000000E+00  0.94410405967E+03  0.94410405967E+03  0.25500000920E-02 0. -1.
        2   -1    0    0  501    0  0.00000000000E+00  0.00000000000E+00 -0.16515327579E+04  0.16515327579E+04  0.25500000920E-02 0.  1.
    10030    2    1    2    0    0  0.00000000000E+00  0.00000000000E+00 -0.70742869824E+03  0.25956368176E+04  0.24973736456E+04 0.  0.
        3    1    3    3  502    0  0.64856264388E+03 -0.72851717567E+03 -0.11640368433E+04  0.15186680220E+04  0.10100000352E+00 0.  1.
       -3    1    3    3    0  502 -0.64856264388E+03  0.72851717567E+03  0.45660814507E+03  0.10769687956E+04  0.10100000352E+00 0. -1.
</event>
<event>
 5   0  0.8579923E-06  0.2494319E+04  0.7818609E-02  0.8405012E-01
       -2   -1    0    0    0  501  0.00000000000E+00  0.00000000000E+00  0.89570529620E+03  0.89570529620E+03  0.25500000920E-02 0. -1.
        2   -1    0    0  501    0  0.00000000000E+00  0.00000000000E+00 -0.17365168731E+04  0.17365168731E+04  0.25500000920E-02 0.  1.
    10030    2    1    2    0    0  0.00000000000E+00  0.00000000000E+00 -0.84081157686E+03  0.26322221693E+04  0.24943194343E+04 0.  0.
        1    1    3    3  502    0 -0.92385750264E+03 -0.65154115368E+03 -0.97620116907E+03  0.14936489824E+04  0.50400001928E-02 0.  1.
       -1    1    3    3    0  502  0.92385750264E+03  0.65154115368E+03  0.13538959222E+03  0.11385731869E+04  0.50400001928E-02 0. -1.
</event>
<event>
 5   0  0.3642184E-06  0.2497211E+04  0.7818609E-02  0.8403980E-01
        1   -1    0    0  501    0  0.00000000000E+00  0.00000000000E+00  0.14935788535E+04  0.14935788535E+04  0.50400001928E-02 0.  1.
       -1   -1    0    0    0  501  0.00000000000E+00  0.00000000000E+00 -0.10438118463E+04  0.10438118463E+04  0.50400001928E-02 0. -1.
    10030    2    1    2    0    0  0.00000000000E+00  0.00000000000E+00  0.44976700725E+03  0.25373906998E+04  0.24972106845E+04 0.  0.
        5    1    3    3  502    0  0.10456182981E+04 -0.60053723013E+03 -0.10441527890E+03  0.12103252582E+04  0.46999998093E+01 0. -1.
       -5    1    3    3    0  502 -0.10456182981E+04  0.60053723013E+03  0.55418228615E+03  0.13270654416E+04  0.46999998093E+01 0.  1.
</event>
<event>
 5   0  0.3424193E-06  0.2480066E+04  0.7818609E-02  0.8410122E-01
        1   -1    0    0  501    0  0.00000000000E+00  0.00000000000E+00  0.15425549808E+04  0.15425549808E+04  0.50400001928E-02 0. -1.
       -1   -1    0    0    0  501  0.00000000000E+00  0.00000000000E+00 -0.99684055905E+03  0.99684055906E+03  0.50400001928E-02 0.  1.
    10030    2    1    2    0    0  0.00000000000E+00  0.00000000000E+00  0.54571442176E+03  0.25393955399E+04  0.24800656197E+04 0.  0.
        1    1    3    3  502    0 -0.11009129792E+04 -0.51766510497E+03  0.51880085008E+03  0.13225508953E+04  0.50400001928E-02 0. -1.
       -1    1    3    3    0  502  0.11009129792E+04  0.51766510497E+03  0.26913571684E+02  0.12168446446E+04  0.50400001928E-02 0.  1.
</event>
<event>
 5   0  0.8056723E-06  0.2503755E+04  0.7818609E-02  0.8401649E-01
       -2   -1    0    0    0  501  0.00000000000E+00  0.00000000000E+00  0.11111657753E+04  0.11111657753E+04  0.25500000920E-02 0. -1.
        2   -1    0    0  501    0  0.00000000000E+00  0.00000000000E+00 -0.14104084157E+04  0.14104084157E+04  0.25500000920E-02 0.  1.
    10030    2    1    2    0    0  0.00000000000E+00  0.00000000000E+00 -0.29924264042E+03  0.25215741911E+04  0.25037552283E+04 0.  0.
        2    1    3    3  502    0  0.91545324974E+03 -0.87901158760E+02  0.70578578894E+03  0.11592734130E+04  0.25500000920E-02 0. -1.
       -2    1    3    3    0  502 -0.91545324974E+03  0.87901158760E+02 -0.10050284294E+04  0.13623007781E+04  0.25500000920E-02 0.  1.
</event>
<event>
 5   0  0.3522870E-06  0.2501597E+04  0.7818609E-02  0.8402417E-01
        1   -1    0    0  501    0  0.00000000000E+00  0.00000000000E+00  0.17416073015E+04  0.17416073015E+04  0.50400001928E-02 0.  1.
       -1   -1    0    0    0  501  0.00000000000E+00  0.00000000000E+00 -0.89830653612E+03  0.89830653614E+03  0.50400001928E-02 0. -1.
    10030    2    1    2    0    0  0.00000000000E+00  0.00000000000E+00  0.84330076540E+03  0.26399138377E+04  0.25015972676E+04 0.  0.
        2    1    3    3  502    0 -0.34386695721E+03 -0.82377922940E+03 -0.50294411342E+03  0.10246021102E+04  0.25500000920E-02 0. -1.
       -2    1    3    3    0  502  0.34386695721E+03  0.82377922940E+03  0.13462448788E+04  0.16153117274E+04  0.25500000920E-02 0.  1.
</event>
<event>
 5   0  0.8579923E-06  0.2495699E+04  0.7818609E-02  0.8404519E-01
       -2   -1    0    0    0  501  0.00000000000E+00  0.00000000000E+00  0.12951307930E+04  0.12951307930E+04  0.25500000920E-02 0. -1.
        2   -1    0    0  501    0  0.00000000000E+00  0.00000000000E+00 -0.12022947258E+04  0.12022947258E+04  0.25500000920E-02 0.  1.
    10030    2    1    2    0    0  0.00000000000E+00  0.00000000000E+00  0.92836067179E+02  0.24974255188E+04  0.24956994384E+04 0.  0.
        1    1    3    3  502    0 -0.41305411429E+03 -0.65476930363E+02 -0.11300770201E+04  0.12049792534E+04  0.50400001928E-02 0.  1.
       -1    1    3    3    0  502  0.41305411429E+03  0.65476930363E+02  0.12229130873E+04  0.12924462654E+04  0.50400001928E-02 0. -1.
</event>
<event>
 5   0  0.8407986E-06  0.2529103E+04  0.7818609E-02  0.8392690E-01
        2   -1    0    0  501    0  0.00000000000E+00  0.00000000000E+00  0.14007743740E+04  0.14007743740E+04  0.25500000920E-02 0.  1.
       -2   -1    0    0    0  501  0.00000000000E+00  0.00000000000E+00 -0.11415756924E+04  0.11415756924E+04  0.25500000920E-02 0. -1.
    10030    2    1    2    0    0  0.00000000000E+00  0.00000000000E+00  0.25919868158E+03  0.25423500663E+04  0.25291025885E+04 0.  0.
        5    1    3    3  502    0  0.23179481870E+03  0.58441798428E+03 -0.97332345131E+03  0.11587294115E+04  0.46999998093E+01 0. -1.
       -5    1    3    3    0  502 -0.23179481870E+03 -0.58441798428E+03  0.12325221329E+04  0.13836206548E+04  0.46999998093E+01 0.  1.
</event>
<event>
 5   0  0.3484857E-06  0.2488411E+04  0.7818609E-02  0.8407126E-01
       -1   -1    0    0    0  501  0.00000000000E+00  0.00000000000E+00  0.10305569328E+04  0.10305569328E+04  0.50400001928E-02 0. -1.
        1   -1    0    0  501    0  0.00000000000E+00  0.00000000000E+00 -0.15021465054E+04  0.15021465054E+04  0.50400001928E-02 0.  1.
    10030    2    1    2    0    0  0.00000000000E+00  0.00000000000E+00 -0.47158957263E+03  0.25327034382E+04  0.24884111358E+04 0.  0.
        3    1    3    3  502    0 -0.14588152368E+03 -0.26715455609E+03 -0.14636652987E+04  0.14949813018E+04  0.10100000352E+00 0.  1.
       -3    1    3    3    0  502  0.14588152368E+03  0.26715455609E+03  0.99207572610E+03  0.10377221364E+04  0.10100000352E+00 0. -1.
</event>
<event>
 5   0  0.3642184E-06  0.2522745E+04  0.7818609E-02  0.8394927E-01
        1   -1    0    0  501    0  0.00000000000E+00  0.00000000000E+00  0.17234159851E+04  0.17234159851E+04  0.50400001928E-02 0. -1.
       -1   -1    0    0    0  501  0.00000000000E+00  0.00000000000E+00 -0.92320197248E+03  0.92320197250E+03  0.50400001928E-02 0.  1.
    10030    2    1    2    0    0  0.00000000000E+00  0.00000000000E+00  0.80021401266E+03  0.26466179576E+04  0.25227453593E+04 0.  0.
        5    1    3    3  502    0 -0.40142262003E+01 -0.95976066049E+03 -0.45854480972E+03  0.10636926586E+04  0.46999998093E+01 0.  1.
       -5    1    3    3    0  502  0.40142262003E+01  0.95976066049E+03  0.12587588224E+04  0.15829252990E+04  0.46999998093E+01 0. -1.
</event>
<event>
 5   0  0.8579923E-06  0.2499429E+04  0.7818609E-02  0.8403189E-01
       -2   -1    0    0    0  501  0.00000000000E+00  0.00000000000E+00  0.86400314975E+03  0.86400314975E+03  0.25500000920E-02 0.  1.
        2   -1    0    0  501    0  0.00000000000E+00  0.00000000000E+00 -0.18076162824E+04  0.18076162824E+04  0.25500000920E-02 0. -1.
    10030    2    1    2    0    0  0.00000000000E+00  0.00000000000E+00 -0.94361313269E+03  0.26716194322E+04  0.24994288640E+04 0.  0.
        1    1    3    3  502    0  0.55680512044E+02  0.50986557846E+03 -0.16899321588E+04  0.17660503756E+04  0.50400001928E-02 0. -1.
       -1    1    3    3    0  502 -0.55680512044E+02 -0.50986557846E+03  0.74631902615E+03  0.90556905663E+03  0.50400001928E-02 0.  1.
</event>
<event>
 5   0  0.8948286E-06  0.2498043E+04  0.7818609E-02  0.8403683E-01
       -2   -1    0    0    0  501  0.00000000000E+00  0.00000000000E+00  0.15246122319E+04  0.15246122319E+04  0.25500000920E-02 0.  1.
        2   -1    0    0  501    0  0.00000000000E+00  0.00000000000E+00 -0.10232471388E+04  0.10232471388E+04  0.25500000920E-02 0. -1.
    10030    2    1    2    0    0  0.00000000000E+00  0.00000000000E+00  0.50136509311E+03  0.25478593707E+04  0.24980433175E+04 0.  0.
        4    1    3    3  502    0 -0.14550726290E+03 -0.65795356698E+03  0.13233096777E+04  0.14850001265E+04  0.12699999809E+01 0.  1.
       -4    1    3    3    0  502  0.14550726290E+03  0.65795356698E+03 -0.82194458457E+03  0.10628592441E+04  0.12699999809E+01 0. -1.
</event>
<event>
 5   0  0.2901250E-06  0.2495553E+04  0.7818609E-02  0.8404572E-01
       -4   -1    0    0    0  501  0.00000000000E+00  0.00000000000E+00  0.14220765263E+04  0.14220770934E+04  0.12699999809E+01 0.  1.
        4   -1    0    0  501    0  0.00000000000E+00  0.00000000000E+00 -0.10948385557E+04  0.10948392922E+04  0.12699999809E+01 0. -1.
    10030    2    1    2    0    0  0.00000000000E+00  0.00000000000E+00  0.32723797063E+03  0.25169163856E+04  0.24955527249E+04 0.  0.
        5    1    3    3  502    0  0.32719303143E+03 -0.11067192844E+04 -0.31482684314E+03  0.11962528518E+04  0.46999998093E+01 0. -1.
       -5    1    3    3    0  502 -0.32719303143E+03  0.11067192844E+04  0.64206481377E+03  0.13206635338E+04  0.46999998093E+01 0.  1.
</event>
<event>
 5   0  0.3481387E-06  0.2476996E+04  0.7818609E-02  0.8411227E-01
       -1   -1    0    0    0  501  0.00000000000E+00  0.00000000000E+00  0.80345503882E+03  0.80345503884E+03  0.50400001928E-02 0.  1.
        1   -1    0    0  501    0  0.00000000000E+00  0.00000000000E+00 -0.19091018461E+04  0.19091018461E+04  0.50400001928E-02 0. -1.
    10030    2    1    2    0    0  0.00000000000E+00  0.00000000000E+00 -0.11056468072E+04  0.27125568849E+04  0.24769961630E+04 0.  0.
        4    1    3    3  502    0  0.11374343285E+04 -0.48729486195E+03 -0.60933255488E+03  0.13793117521E+04  0.12699999809E+01 0. -1.
       -4    1    3    3    0  502 -0.11374343285E+04  0.48729486195E+03 -0.49631425235E+03  0.13332451328E+04  0.12699999809E+01 0.  1.
</event>
<event>
 5   0  0.8354653E-06  0.2517868E+04  0.7818609E-02  0.8396648E-01
        2   -1    0    0  501    0  0.00000000000E+00  0.00000000000E+00  0.11776529108E+04  0.11776529108E+04  0.25500000920E-02 0.  1.
       -2   -1    0    0    0  501  0.00000000000E+00  0.00000000000E+00 -0.13458249754E+04  0.13458249754E+04  0.25500000920E-02 0. -1.
    10030    2    1    2    0    0  0.00000000000E+00  0.00000000000E+00 -0.16817206457E+03  0.25234778862E+04  0.25178679073E+04 0.  0.
        3    1    3    3  502    0  0.53374602234E+03 -0.11264533253E+04  0.92751931639E+02  0.12499539357E+04  0.10100000352E+00 0. -1.
       -3    1    3    3    0  502 -0.53374602234E+03  0.11264533253E+04 -0.26092399621E+03  0.12735239505E+04  0.10100000352E+00 0.  1.
</event>
<event>
 5   0  0.3424193E-06  0.2518261E+04  0.7818609E-02  0.8396509E-01
        1   -1    0    0  501    0  0.00000000000E+00  0.00000000000E+00  0.13894069419E+04  0.13894069419E+04  0.50400001928E-02 0. -1.
       -1   -1    0    0    0  501  0.00000000000E+00  0.00000000000E+00 -0.11410692973E+04  0.11410692973E+04  0.50400001928E-02 0.  1.
    10030    2    1    2    0    0  0.00000000000E+00  0.00000000000E+00  0.24833764461E+03  0.25304762391E+04  0.25182609895E+04 0.  0.
        1    1    3    3  502    0 -0.12549469937E+04 -0.34476972616E+02  0.22122399841E+03  0.12747629882E+04  0.50400001928E-02 0. -1.
       -1    1    3    3    0  502  0.12549469937E+04  0.34476972616E+02  0.27113646201E+02  0.12557132509E+04  0.50400001928E-02 0.  1.
</event>
<event>
 5   0  0.8407986E-06  0.2503381E+04  0.7818609E-02  0.8401782E-01
       -2   -1    0    0    0  501  0.00000000000E+00  0.00000000000E+00  0.70127284609E+03  0.70127284609E+03  0.25500000920E-02 0.  1.
        2   -1    0    0  501    0  0.00000000000E+00  0.00000000000E+00 -0.22341215203E+04  0.22341215203E+04  0.25500000920E-02 0. -1.
    10030    2    1    2    0    0  0.00000000000E+00  0.00000000000E+00 -0.15328486742E+04  0.29353943664E+04  0.25033807198E+04 0.  0.
        5    1    3    3  502    0 -0.50280834154E+03 -0.40429733031E+03  0.49125645367E+03  0.81094238568E+03  0.46999998093E+01 0.  1.
       -5    1    3    3    0  502  0.50280834154E+03  0.40429733031E+03 -0.20241051279E+04  0.21244519807E+04  0.46999998093E+01 0. -1.
</event>
<event>
 5   0  0.3522870E-06  0.2511982E+04  0.7818609E-02  0.8398729E-01
        1   -1    0    0  501    0  0.00000000000E+00  0.00000000000E+00  0.14351671499E+04  0.14351671499E+04  0.50400001928E-02 0.  1.
       -1   -1    0    0    0  501  0.00000000000E+00  0.00000000000E+00 -0.10991847435E+04  0.10991847435E+04  0.50400001928E-02 0. -1.
    10030    2    1    2    0    0  0.00000000000E+00  0.00000000000E+00  0.33598240646E+03  0.25343518934E+04  0.25119823531E+04 0.  0.
        2    1    3    3  502    0 -0.77698524840E+03  0.86147833195E+03 -0.31760862333E+03  0.12027993308E+04  0.25500000920E-02 0. -1.
       -2    1    3    3    0  502  0.77698524840E+03 -0.86147833195E+03  0.65359102979E+03  0.13315525626E+04  0.25500000920E-02 0.  1.
</event>
<event>
 5   0  0.8579923E-06  0.2483648E+04  0.7818609E-02  0.8408834E-01
       -2   -1    0    0    0  501  0.00000000000E+00  0.00000000000E+00  0.85759296538E+03  0.85759296539E+03  0.25500000920E-02 0. -1.
        2   -1    0    0  501    0  0.00000000000E+00  0.00000000000E+00 -0.17982030307E+04  0.17982030307E+04  0.25500000920E-02 0.  1.
    10030    2    1    2    0    0  0.00000000000E+00  0.00000000000E+00 -0.94061006531E+03  0.26557959961E+04  0.24836475349E+04 0.  0.
        1    1    3    3  502    0  0.82000884727E+03  0.14700055353E+03 -0.14550617344E+04  0.16766717996E+04  0.50400001928E-02 0.  1.
       -1    1    3    3    0  502 -0.82000884727E+03 -0.14700055353E+03  0.51445166914E+03  0.97912419653E+03  0.50400001928E-02 0. -1.
</event>
<event>
 5   0  0.8056723E-06  0.2503847E+04  0.7818609E-02  0.8401616E-01
       -2   -1    0    0    0  501  0.00000000000E+00  0.00000000000E+00  0.82779882853E+03  0.82779882853E+03  0.25500000920E-02 0. -1.
        2   -1    0    0  501    0  0.00000000000E+00  0.00000000000E+00 -0.18933487859E+04  0.18933487859E+04  0.25500000920E-02 0.  1.
    10030    2    1    2    0    0  0.00000000000E+00  0.00000000000E+00 -0.10655499574E+04  0.27211476144E+04  0.25038465664E+04 0.  0.
        2    1    3    3  502    0 -0.28486632769E+03  0.16106569817E+03  0.78049396161E+03  0.84632252002E+03  0.25500000920E-02 0. -1.
       -2    1    3    3    0  502  0.28486632769E+03 -0.16106569817E+03 -0.18460439190E+04  0.18748250944E+04  0.25500000920E-02 0.  1.
</event>
<event>
 5   0  0.2901250E-06  0.2501360E+04  0.7818609E-02  0.8402501E-01
        3   -1    0    0  501    0  0.00000000000E+00  0.00000000000E+00  0.74162075510E+03  0.74162076198E+03  0.10100000352E+00 0.  1.
       -3   -1    0    0    0  501  0.00000000000E+00  0.00000000000E+00 -0.21091646131E+04  0.21091646155E+04  0.10100000352E+00 0. -1.
    10030    2    1    2    0    0  0.00000000000E+00  0.00000000000E+00 -0.13675438580E+04  0.28507853775E+04  0.25013598432E+04 0.  0.
        1    1    3    3  502    0  0.90351375842E+03 -0.16781205479E+03 -0.16506345819E+04  0.18892042029E+04  0.50400001928E-02 0. -1.
       -1    1    3    3    0  502 -0.90351375842E+03  0.16781205479E+03  0.28309072386E+03  0.96158117460E+03  0.50400001928E-02 0.  1.
</event>
<event>
 5   0  0.3481387E-06  0.2495359E+04  0.7818609E-02  0.8404641E-01
        1   -1    0    0  501    0  0.00000000000E+00  0.00000000000E+00  0.16885382025E+04  0.16885382025E+04  0.50400001928E-02 0. -1.
       -1   -1    0    0    0  501  0.00000000000E+00  0.00000000000E+00 -0.92192447547E+03  0.92192447549E+03  0.50400001928E-02 0.  1.
    10030    2    1    2    0    0  0.00000000000E+00  0.00000000000E+00  0.76661372707E+03  0.26104626780E+04  0.24953594504E+04 0.  0.
        4    1    3    3  502    0  0.17619676692E+03 -0.11934331575E+04  0.50225768653E+02  0.12074155220E+04  0.12699999809E+01 0.  1.
       -4    1    3    3    0  502 -0.17619676692E+03  0.11934331575E+04  0.71638795841E+03  0.14030471560E+04  0.12699999809E+01 0. -1.
</event>
<event>
 5   0  0.8948286E-06  0.2494109E+04  0.7818609E-02  0.8405087E-01
       -2   -1    0    0    0  501  0.00000000000E+00  0.00000000000E+00  0.11193530238E+04  0.11193530238E+04  0.25500000920E-02 0. -1.
        2   -1    0    0  501    0  0.00000000000E+00  0.00000000000E+00 -0.13893246265E+04  0.13893246265E+04  0.25500000920E-02 0.  1.
    10030    2    1    2    0    0  0.00000000000E+00  0.00000000000E+00 -0.26997160269E+03  0.25086776503E+04  0.24941088362E+04 0.  0.
        4    1    3    3  502    0 -0.10477260043E+04  0.59613976233E+03  0.18630250524E+03  0.12197633511E+04  0.12699999809E+01 0. -1.
       -4    1    3    3    0  502  0.10477260043E+04 -0.59613976233E+03 -0.45627410793E+03  0.12889142992E+04  0.12699999809E+01 0.  1.
</event>
<event>
 5   0  0.8407986E-06  0.2504372E+04  0.7818609E-02  0.8401429E-01
        2   -1    0    0  501    0  0.00000000000E+00  0.00000000000E+00  0.14404505104E+04  0.14404505104E+04  0.25500000920E-02 0. -1.
       -2   -1    0    0    0  501  0.00000000000E+00  0.00000000000E+00 -0.10885277363E+04  0.10885277363E+04  0.25500000920E-02 0.  1.
    10030    2    1    2    0    0  0.00000000000E+00  0.00000000000E+00  0.35192277409E+03  0.25289782467E+04  0.25043724430E+04 0.  0.
        5    1    3    3  502    0 -0.12504792072E+04  0.28227973699E+02  0.23530248891E+03  0.12727468002E+04  0.46999998093E+01 0.  1.
       -5    1    3    3    0  502  0.12504792072E+04 -0.28227973699E+02  0.11662028518E+03  0.12562314465E+04  0.46999998093E+01 0. -1.
</event>
<event>
 5   0  0.3424193E-06  0.2512503E+04  0.7818609E-02  0.8398545E-01
        1   -1    0    0  501    0  0.00000000000E+00  0.00000000000E+00  0.22411511897E+04  0.22411511898E+04  0.50400001928E-02 0.  1.
       -1   -1    0    0    0  501  0.00000000000E+00  0.00000000000E+00 -0.70417752876E+03  0.70417752878E+03  0.50400001928E-02 0. -1.
    10030    2    1    2    0    0  0.00000000000E+00  0.00000000000E+00  0.15369736610E+04  0.29453287185E+04  0.25125033782E+04 0.  0.
        1    1    3    3  502    0  0.41053520732E+03  0.32160048751E+03 -0.57128960750E+03  0.77352300915E+03  0.50400001928E-02 0. -1.
       -1    1    3    3    0  502 -0.41053520732E+03 -0.32160048751E+03  0.21082632685E+04  0.21718057094E+04  0.50400001928E-02 0.  1.
</event>
<event>
 5   0  0.8948286E-06  0.2495063E+04  0.7818609E-02  0.8404747E-01
        2   -1    0    0  501    0  0.00000000000E+00  0.00000000000E+00  0.16301685042E+04  0.16301685043E+04  0.25500000920E-02 0. -1.
       -2   -1    0    0    0  501  0.00000000000E+00  0.00000000000E+00 -0.95470777159E+03  0.95470777159E+03  0.25500000920E-02 0.  1.
    10030    2    1    2    0    0  0.00000000000E+00  0.00000000000E+00  0.67546073266E+03  0.25848762758E+04  0.24950627567E+04 0.  0.
        4    1    3    3  502    0 -0.40219809414E+02 -0.39294096200E+03 -0.88821410631E+03  0.97208340395E+03  0.12699999809E+01 0.  1.
       -4    1    3    3    0  502  0.40219809414E+02  0.39294096200E+03  0.15636748390E+04  0.16127928719E+04  0.12699999809E+01 0. -1.
</event>
<event>
 5   0  0.3484857E-06  0.2494395E+04  0.7818609E-02  0.8404985E-01
        1   -1    0    0  501    0  0.00000000000E+00  0.00000000000E+00  0.20618592725E+04  0.20618592725E+04  0.50400001928E-02 0.  1.
       -1   -1    0    0    0  501  0.00000000000E+00  0.00000000000E+00 -0.75441677342E+03  0.75441677344E+03  0.50400001928E-02 0. -1.
    10030    2    1    2    0    0  0.00000000000E+00  0.00000000000E+00  0.13074424991E+04  0.28162760460E+04  0.24943946918E+04 0.  0.
        3    1    3    3  502    0 -0.47077819732E+03 -0.31047295546E+03  0.19096886794E+04  0.19912148125E+04  0.10100000352E+00 0.  1.
       -3    1    3    3    0  502  0.47077819732E+03  0.31047295546E+03 -0.60224618027E+03  0.82506123348E+03  0.10100000352E+00 0. -1.
</event>
<event>
 5   0  0.3522870E-06  0.2502217E+04  0.7818609E-02  0.8402196E-01
        1   -1    0    0  501    0  0.00000000000E+00  0.00000000000E+00  0.17189999509E+04  0.17189999509E+04  0.50400001928E-02 0. -1.
       -1   -1    0    0    0  501  0.00000000000E+00  0.00000000000E+00 -0.91057180350E+03  0.91057180351E+03  0.50400001928E-02 0.  1.
    10030    2    1    2    0    0  0.00000000000E+00  0.00000000000E+00  0.80842814741E+03  0.26295717544E+04  0.25022173251E+04 0.  0.
        2    1    3    3  502    0  0.32965075425E+03  0.10700363101E+04  0.99086064394E+03  0.14951428495E+04  0.25500000920E-02 0. -1.
       -2    1    3    3    0  502 -0.32965075425E+03 -0.10700363101E+04 -0.18243249653E+03  0.11344289050E+04  0.25500000920E-02 0.  1.
</event>
<event>
 5   0  0.3522870E-06  0.2504041E+04  0.7818609E-02  0.8401547E-01
       -1   -1    0    0    0  501  0.00000000000E+00  0.00000000000E+00  0.17141267572E+04  0.17141267572E+04  0.50400001928E-02 0. -1.
        1   -1    0    0  501    0  0.00000000000E+00  0.00000000000E+00 -0.91449203756E+03  0.91449203757E+03  0.50400001928E-02 0.  1.
    10030    2    1    2    0    0  0.00000000000E+00  0.00000000000E+00  0.79963471965E+03  0.26286187948E+04  0.25040409508E+04 0.  0.
        2    1    3    3  502    0 -0.80884604967E+03  0.93891623313E+03  0.21273880432E+03  0.12573994687E+04  0.25500000920E-02 0. -1.
       -2    1    3    3    0  502  0.80884604967E+03 -0.93891623313E+03  0.58689591533E+03  0.13712193261E+04  0.25500000920E-02 0.  1.
</event>
<event>
 5   0  0.3424193E-06  0.2506788E+04  0.7818609E-02  0.8400571E-01
        1   -1    0    0  501    0  0.00000000000E+00  0.00000000000E+00  0.20973569801E+04  0.20973569801E+04  0.50400001928E-02 0.  1.
       -1   -1    0    0    0  501  0.00000000000E+00  0.00000000000E+00 -0.74903642649E+03  0.74903642651E+03  0.50400001928E-02 0. -1.
    10030    2    1    2    0    0  0.00000000000E+00  0.00000000000E+00  0.13483205536E+04  0.28463934066E+04  0.25067882060E+04 0.  0.
        1    1    3    3  502    0 -0.11043577166E+04 -0.55336614042E+03  0.91550324974E+03  0.15375195127E+04  0.50400001928E-02 0.  1.
       -1    1    3    3    0  502  0.11043577166E+04  0.55336614042E+03  0.43281730385E+03  0.13088738939E+04  0.50400001928E-02 0. -1.
</event>
<event>
 5   0  0.3642184E-06  0.2496497E+04  0.7818609E-02  0.8404235E-01
        1   -1    0    0  501    0  0.00000000000E+00  0.00000000000E+00  0.14206889779E+04  0.14206889779E+04  0.50400001928E-02 0.  1.
       -1   -1    0    0    0  501  0.00000000000E+00  0.00000000000E+00 -0.10967383495E+04  0.10967383495E+04  0.50400001928E-02 0. -1.
    10030    2    1    2    0    0  0.00000000000E+00  0.00000000000E+00  0.32395062835E+03  0.25174273274E+04  0.24964968134E+04 0.  0.
        5    1    3    3  502    0 -0.19175188538E+03 -0.47038083993E+03  0.13117431154E+04  0.14066694746E+04  0.46999998093E+01 0.  1.
       -5    1    3    3    0  502  0.19175188538E+03  0.47038083993E+03 -0.98779248701E+03  0.11107578528E+04  0.46999998093E+01 0. -1.
</event>
<event>
 5   0  0.3522870E-06  0.2492930E+04  0.7818609E-02  0.8405509E-01
       -1   -1    0    0    0  501  0.00000000000E+00  0.00000000000E+00  0.19045240250E+04  0.19045240250E+04  0.50400001928E-02 0.  1.
        1   -1    0    0  501    0  0.00000000000E+00  0.00000000000E+00 -0.81578106701E+03  0.81578106703E+03  0.50400001928E-02 0. -1.
    10030    2    1    2    0    0  0.00000000000E+00  0.00000000000E+00  0.10887429580E+04  0.27203050921E+04  0.24929297153E+04 0.  0.
        2    1    3    3  502    0 -0.36324880112E+03 -0.54471945558E+03  0.17017753611E+04  0.18233782812E+04  0.25500000920E-02 0.  1.
       -2    1    3    3    0  502  0.36324880112E+03  0.54471945558E+03 -0.61303240307E+03  0.89692681085E+03  0.25500000920E-02 0. -1.
</event>
<event>
 5   0  0.8948286E-06  0.2502713E+04  0.7818609E-02  0.8402020E-01
       -2   -1    0    0    0  501  0.00000000000E+00  0.00000000000E+00  0.78283144327E+03  0.78283144328E+03  0.25500000920E-02 0. -1.
        2   -1    0    0  501    0  0.00000000000E+00  0.00000000000E+00 -0.20002932698E+04  0.20002932698E+04  0.25500000920E-02 0.  1.
    10030    2    1    2    0    0  0.00000000000E+00  0.00000000000E+00 -0.12174618265E+04  0.27831247130E+04  0.25027125023E+04 0.  0.
        4    1    3    3  502    0  0.58869110838E+03 -0.93402989987E+02  0.61482479089E+03  0.85632498272E+03  0.12699999809E+01 0. -1.
       -4    1    3    3    0  502 -0.58869110838E+03  0.93402989987E+02 -0.18322866174E+04  0.19267997303E+04  0.12699999809E+01 0.  1.
</event>
<event>
 5   0  0.8948286E-06  0.2435495E+04  0.7818609E-02  0.8426333E-01
       -2   -1    0    0    0  501  0.00000000000E+00  0.00000000000E+00  0.95577417767E+03  0.95577417767E+03  0.25500000920E-02 0.  1.
        2   -1    0    0  501    0  0.00000000000E+00  0.00000000000E+00 -0.15515266045E+04  0.15515266045E+04  0.25500000920E-02 0. -1.
    10030    2    1    2    0    0  0.00000000000E+00  0.00000000000E+00 -0.59575242688E+03  0.25073007822E+04  0.24354950746E+04 0.  0.
        4    1    3    3  502    0  0.10331783709E+04  0.63917952284E+03 -0.38338804322E+03  0.12739686076E+04  0.12699999809E+01 0.  1.
       -4    1    3    3    0  502 -0.10331783709E+04 -0.63917952284E+03 -0.21236438366E+03  0.12333321746E+04  0.12699999809E+01 0. -1.
</event>
<event>
 5   0  0.8579923E-06  0.2509455E+04  0.7818609E-02  0.8399625E-01
        2   -1    0    0  501    0  0.00000000000E+00  0.00000000000E+00  0.17829851218E+04  0.17829851218E+04  0.25500000920E-02 0.  1.
       -2   -1    0    0    0  501  0.00000000000E+00  0.00000000000E+00 -0.88298055567E+03  0.88298055568E+03  0.25500000920E-02 0. -1.
    10030    2    1    2    0    0  0.00000000000E+00  0.00000000000E+00  0.90000456617E+03  0.26659656775E+04  0.25094550752E+04 0.  0.
        1    1    3    3  502    0  0.56096475010E+02 -0.67538632982E+03  0.15718188484E+04  0.17116974035E+04  0.50400001928E-02 0.  1.
       -1    1    3    3    0  502 -0.56096475010E+02  0.67538632982E+03 -0.67181428220E+03  0.95426827402E+03  0.50400001928E-02 0. -1.
</event>
<event>
 5   0  0.3481387E-06  0.2549513E+04  0.7818609E-02  0.8385556E-01
        1   -1    0    0  501    0  0.00000000000E+00  0.00000000000E+00  0.20213340754E+04  0.20213340754E+04  0.50400001928E-02 0.  1.
       -1   -1    0    0    0  501  0.00000000000E+00  0.00000000000E+00 -0.80392638419E+03  0.80392638420E+03  0.50400001928E-02 0. -1.
    10030    2    1    2    0    0  0.00000000000E+00  0.00000000000E+00  0.12174076912E+04  0.28252604596E+04  0.25495127334E+04 0.  0.
        4    1    3    3  502    0  0.11716340511E+04 -0.19680157443E+03  0.11207934758E+04  0.16332901878E+04  0.12699999809E+01 0.  1.
       -4    1    3    3    0  502 -0.11716340511E+04  0.19680157443E+03  0.96614215394E+02  0.11919702718E+04  0.12699999809E+01 0. -1.
</event>
<event>
 5   0  0.3481387E-06  0.2501545E+04  0.7818609E-02  0.8402435E-01
        1   -1    0    0  501    0  0.00000000000E+00  0.00000000000E+00  0.19885805576E+04  0.19885805576E+04  0.50400001928E-02 0. -1.
       -1   -1    0    0    0  501  0.00000000000E+00  0.00000000000E+00 -0.78670782064E+03  0.78670782066E+03  0.50400001928E-02 0.  1.
    10030    2    1    2    0    0  0.00000000000E+00  0.00000000000E+00  0.12018727369E+04  0.27752883783E+04  0.25015450239E+04 0.  0.
        4    1    3    3  502    0 -0.13012143646E+03 -0.47138826385E+03 -0.67625373688E+03  0.83454131897E+03  0.12699999809E+01 0.  1.
       -4    1    3    3    0  502  0.13012143646E+03  0.47138826385E+03  0.18781264738E+04  0.19407470593E+04  0.12699999809E+01 0. -1.
</event>
<event>
 5   0  0.8407986E-06  0.2511214E+04  0.7818609E-02  0.8399001E-01
        2   -1    0    0  501    0  0.00000000000E+00  0.00000000000E+00  0.15283302061E+04  0.15283302061E+04  0.25500000920E-02 0. -1.
       -2   -1    0    0    0  501  0.00000000000E+00  0.00000000000E+00 -0.10315502659E+04  0.10315502659E+04  0.25500000920E-02 0.  1.
    10030    2    1    2    0    0  0.00000000000E+00  0.00000000000E+00  0.49677994019E+03  0.25598804721E+04  0.25112143920E+04 0.  0.
        5    1    3    3  502    0  0.10968045665E+04 -0.34364818159E+03  0.76360842233E+03  0.13799254481E+04  0.46999998093E+01 0. -1.
       -5    1    3    3    0  502 -0.10968045665E+04  0.34364818159E+03 -0.26682848213E+03  0.11799550240E+04  0.46999998093E+01 0.  1.
</event>
<event>
 5   0  0.3642184E-06  0.2495999E+04  0.7818609E-02  0.8404412E-01
       -1   -1    0    0    0  501  0.00000000000E+00  0.00000000000E+00  0.10117622911E+04  0.10117622911E+04  0.50400001928E-02 0.  1.
        1   -1    0    0  501    0  0.00000000000E+00  0.00000000000E+00 -0.15393956807E+04  0.15393956807E+04  0.50400001928E-02 0. -1.
    10030    2    1    2    0    0  0.00000000000E+00  0.00000000000E+00 -0.52763338965E+03  0.25511579718E+04  0.24959987987E+04 0.  0.
        5    1    3    3  502    0  0.31302142185E+03 -0.11536124693E+04 -0.63045869462E+03  0.13514083008E+04  0.46999998093E+01 0.  1.
       -5    1    3    3    0  502 -0.31302142185E+03  0.11536124693E+04  0.10282530497E+03  0.11997496710E+04  0.46999998093E+01 0. -1.
</event>
<event>
 5   0  0.3642184E-06  0.2503658E+04  0.7818609E-02  0.8401683E-01
       -1   -1    0    0    0  501  0.00000000000E+00  0.00000000000E+00  0.15654535886E+04  0.15654535886E+04  0.50400001928E-02 0.  1.
        1   -1    0    0  501    0  0.00000000000E+00  0.00000000000E+00 -0.10010364917E+04  0.10010364917E+04  0.50400001928E-02 0. -1.
    10030    2    1    2    0    0  0.00000000000E+00  0.00000000000E+00  0.56441709684E+03  0.25664900803E+04  0.25036582580E+04 0.  0.
        5    1    3    3  502    0 -0.10216842512E+04 -0.46339083799E+03  0.85156084207E+03  0.14084557983E+04  0.46999998093E+01 0.  1.
       -5    1    3    3    0  502  0.10216842512E+04  0.46339083799E+03 -0.28714374523E+03  0.11580342820E+04  0.46999998093E+01 0. -1.
</event>
<event>
 5   0  0.8056723E-06  0.2472246E+04  0.7818609E-02  0.8412940E-01
       -2   -1    0    0    0  501  0.00000000000E+00  0.00000000000E+00  0.10068887474E+04  0.10068887474E+04  0.25500000920E-02 0. -1.
        2   -1    0    0  501    0  0.00000000000E+00  0.00000000000E+00 -0.15175465830E+04  0.15175465830E+04  0.25500000920E-02 0.  1.
    10030    2    1    2    0    0  0.00000000000E+00  0.00000000000E+00 -0.51065783559E+03  0.25244353304E+04  0.24722464101E+04 0.  0.
        2    1    3    3  502    0  0.98401964792E+03 -0.24003712130E+03 -0.97886876689E+03  0.14085796214E+04  0.25500000920E-02 0.  1.
       -2    1    3    3    0  502 -0.98401964792E+03  0.24003712130E+03  0.46821093129E+03  0.11158557090E+04  0.25500000920E-02 0. -1.
</event>
<event>
 5   0  0.3484857E-06  0.2500708E+04  0.7818609E-02  0.8402733E-01
        1   -1    0    0  501    0  0.00000000000E+00  0.00000000000E+00  0.17768324095E+04  0.17768324095E+04  0.50400001928E-02 0. -1.
       -1   -1    0    0    0  501  0.00000000000E+00  0.00000000000E+00 -0.87987200232E+03  0.87987200234E+03  0.50400001928E-02 0.  1.
    10030    2    1    2    0    0  0.00000000000E+00  0.00000000000E+00  0.89696040713E+03  0.26567044118E+04  0.25007079717E+04 0.  0.
        3    1    3    3  502    0  0.32587743653E+03  0.10864996520E+04 -0.11036394735E+03  0.11396744309E+04  0.10100000352E+00 0. -1.
       -3    1    3    3    0  502 -0.32587743653E+03 -0.10864996520E+04  0.10073243545E+04  0.15170299809E+04  0.10100000352E+00 0.  1.
</event>
<event>
 5   0  0.8354653E-06  0.2502841E+04  0.7818609E-02  0.8401974E-01
       -2   -1    0    0    0  501  0.00000000000E+00  0.00000000000E+00  0.11967515723E+04  0.11967515723E+04  0.25500000920E-02 0. -1.
        2   -1    0    0  501    0  0.00000000000E+00  0.00000000000E+00 -0.13085866323E+04  0.13085866323E+04  0.25500000920E-02 0.  1.
    10030    2    1    2    0    0  0.00000000000E+00  0.00000000000E+00 -0.11183506004E+03  0.25053382047E+04  0.25028408737E+04 0.  0.
        3    1    3    3  502    0  0.27420369422E+02  0.67673964739E+03  0.99742740346E+03  0.12056491456E+04  0.10100000352E+00 0. -1.
       -3    1    3    3    0  502 -0.27420369422E+02 -0.67673964739E+03 -0.11092624635E+04  0.12996890590E+04  0.10100000352E+00 0.  1.
</event>
<event>
 5   0  0.8948286E-06  0.2490689E+04  0.7818609E-02  0.8406310E-01
        2   -1    0    0  501    0  0.00000000000E+00  0.00000000000E+00  0.16017020506E+04  0.16017020506E+04  0.25500000920E-02 0.  1.
       -2   -1    0    0    0  501  0.00000000000E+00  0.00000000000E+00 -0.96827195094E+03  0.96827195095E+03  0.25500000920E-02 0. -1.
    10030    2    1    2    0    0  0.00000000000E+00  0.00000000000E+00  0.63343009963E+03  0.25699740015E+04  0.24906891973E+04 0.  0.
        4    1    3    3  502    0  0.36293960416E+03 -0.11004510118E+03  0.15406643101E+04  0.15866578743E+04  0.12699999809E+01 0.  1.
       -4    1    3    3    0  502 -0.36293960416E+03  0.11004510118E+03 -0.90723421049E+03  0.98331612727E+03  0.12699999809E+01 0. -1.
</event>
<event>
 5   0  0.8948286E-06  0.2498098E+04  0.7818609E-02  0.8403663E-01
       -2   -1    0    0    0  501  0.00000000000E+00  0.00000000000E+00  0.76493940749E+03  0.76493940749E+03  0.25500000920E-02 0. -1.
        2   -1    0    0  501    0  0.00000000000E+00  0.00000000000E+00 -0.20395393024E+04  0.20395393024E+04  0.25500000920E-02 0.  1.
    10030    2    1    2    0    0  0.00000000000E+00  0.00000000000E+00 -0.12745998949E+04  0.28044787099E+04  0.24980984652E+04 0.  0.
        4    1    3    3  502    0 -0.11305410411E+04 -0.18930522976E+03 -0.80301664146E+02  0.11490907213E+04  0.12699999809E+01 0. -1.
       -4    1    3    3    0  502  0.11305410411E+04  0.18930522976E+03 -0.11942982307E+04  0.16553879885E+04  0.12699999809E+01 0.  1.
</event>
<event>
 5   0  0.3522870E-06  0.2343365E+04  0.7818609E-02  0.8461016E-01
       -1   -1    0    0    0  501  0.00000000000E+00  0.00000000000E+00  0.17933930611E+04  0.17933930611E+04  0.50400001928E-02 0.  1.
        1   -1    0    0  501    0  0.00000000000E+00  0.00000000000E+00 -0.76549892027E+03  0.76549892028E+03  0.50400001928E-02 0. -1.
    10030    2    1    2    0    0  0.00000000000E+00  0.00000000000E+00  0.10278941408E+04  0.25588919814E+04  0.23433654874E+04 0.  0.
        2    1    3    3  502    0  0.10928540815E+03  0.73180496647E+03 -0.47810227656E+03  0.88094471804E+03  0.25500000920E-02 0. -1.
       -2    1    3    3    0  502 -0.10928540815E+03 -0.73180496647E+03  0.15059964174E+04  0.16779472634E+04  0.25500000920E-02 0.  1.
</event>
<event>
 5   0  0.8579923E-06  0.2492867E+04  0.7818609E-02  0.8405531E-01
        2   -1    0    0  501    0  0.00000000000E+00  0.00000000000E+00  0.84173989445E+03  0.84173989446E+03  0.25500000920E-02 0.  1.
       -2   -1    0    0    0  501  0.00000000000E+00  0.00000000000E+00 -0.18456961052E+04  0.18456961052E+04  0.25500000920E-02 0. -1.
    10030    2    1    2    0    0  0.00000000000E+00  0.00000000000E+00 -0.10039562107E+04  0.26874359996E+04  0.24928666589E+04 0.  0.
        1    1    3    3  502    0  0.49694171498E+03  0.11208509356E+04 -0.74385129754E+03  0.14340755352E+04  0.50400001928E-02 0.  1.
       -1    1    3    3    0  502 -0.49694171498E+03 -0.11208509356E+04 -0.26010491318E+03  0.12533604644E+04  0.50400001928E-02 0. -1.
</event>
<event>
 5   0  0.3424193E-06  0.2509977E+04  0.7818609E-02  0.8399440E-01
        1   -1    0    0  501    0  0.00000000000E+00  0.00000000000E+00  0.13670822487E+04  0.13670822487E+04  0.50400001928E-02 0. -1.
       -1   -1    0    0    0  501  0.00000000000E+00  0.00000000000E+00 -0.11520860942E+04  0.11520860942E+04  0.50400001928E-02 0.  1.
    10030    2    1    2    0    0  0.00000000000E+00  0.00000000000E+00  0.21499615455E+03  0.25191683429E+04  0.25099772496E+04 0.  0.
        1    1    3    3  502    0  0.59398309223E+03  0.70041723696E+03  0.96596414588E+03  0.13328491853E+04  0.50400001928E-02 0. -1.
       -1    1    3    3    0  502 -0.59398309223E+03 -0.70041723696E+03 -0.75096799134E+03  0.11863191576E+04  0.50400001928E-02 0.  1.
</event>
<event>
 5   0  0.3642184E-06  0.2486639E+04  0.7818609E-02  0.8407761E-01
        1   -1    0    0  501    0  0.00000000000E+00  0.00000000000E+00  0.20578859155E+04  0.20578859155E+04  0.50400001928E-02 0. -1.
       -1   -1    0    0    0  501  0.00000000000E+00  0.00000000000E+00 -0.75118002098E+03  0.75118002100E+03  0.50400001928E-02 0.  1.
    10030    2    1    2    0    0  0.00000000000E+00  0.00000000000E+00  0.13067058945E+04  0.28090659365E+04  0.24866385224E+04 0.  0.
        5    1    3    3  502    0 -0.17794906822E+03 -0.12155800042E+04  0.43747159874E+03  0.13041104659E+04  0.46999998093E+01 0. -1.
       -5    1    3    3    0  502  0.17794906822E+03  0.12155800042E+04  0.86923429578E+03  0.15049554706E+04  0.46999998093E+01 0.  1.
</event>
<event>
 5   0  0.8579923E-06  0.2488615E+04  0.7818609E-02  0.8407053E-01
        2   -1    0    0  501    0  0.00000000000E+00  0.00000000000E+00  0.16449022357E+04  0.16449022357E+04  0.25500000920E-02 0. -1.
       -2   -1    0    0    0  501  0.00000000000E+00  0.00000000000E+00 -0.94127211629E+03  0.94127211629E+03  0.25500000920E-02 0.  1.
    10030    2    1    2    0    0  0.00000000000E+00  0.00000000000E+00  0.70363011944E+03  0.25861743520E+04  0.24886145612E+04 0.  0.
        1    1    3    3  502    0  0.83337099144E+03 -0.92166968854E+03  0.28352447846E+03  0.12745071024E+04  0.50400001928E-02 0.  1.
       -1    1    3    3    0  502 -0.83337099144E+03  0.92166968854E+03  0.42010564098E+03  0.13116672496E+04  0.50400001928E-02 0. -1.
</event>
<event>
 5   0  0.3642184E-06  0.2523812E+04  0.7818609E-02  0.8394551E-01
       -1   -1    0    0    0  501  0.00000000000E+00  0.00000000000E+00  0.12374244595E+04  0.12374244595E+04  0.50400001928E-02 0.  1.
        1   -1    0    0  501    0  0.00000000000E+00  0.00000000000E+00 -0.12868722544E+04  0.12868722545E+04  0.50400001928E-02 0. -1.
    10030    2    1    2    0    0  0.00000000000E+00  0.00000000000E+00 -0.49447794978E+02  0.25242967139E+04  0.25238123574E+04 0.  0.
        5    1    3    3  502    0  0.88015396710E+02 -0.52327960130E+03 -0.11698527290E+04  0.12845799893E+04  0.46999998093E+01 0. -1.
       -5    1    3    3    0  502 -0.88015396710E+02  0.52327960130E+03  0.11204049340E+04  0.12397167247E+04  0.46999998093E+01 0.  1.
</event>
<event>
 5   0  0.3484857E-06  0.2503769E+04  0.7818609E-02  0.8401644E-01
       -1   -1    0    0    0  501  0.00000000000E+00  0.00000000000E+00  0.11479447263E+04  0.11479447264E+04  0.50400001928E-02 0.  1.
        1   -1    0    0  501    0  0.00000000000E+00  0.00000000000E+00 -0.13652359206E+04  0.13652359206E+04  0.50400001928E-02 0. -1.
    10030    2    1    2    0    0  0.00000000000E+00  0.00000000000E+00 -0.21729119429E+03  0.25131806470E+04  0.25037694585E+04 0.  0.
        3    1    3    3  502    0  0.86173625855E+03  0.31833661417E+03  0.74501440819E+03  0.11827823375E+04  0.10100000352E+00 0.  1.
       -3    1    3    3    0  502 -0.86173625855E+03 -0.31833661417E+03 -0.96230560249E+03  0.13303983095E+04  0.10100000352E+00 0. -1.
</event>
<event>
 5   0  0.3481387E-06  0.2502470E+04  0.7818609E-02  0.8402106E-01
       -1   -1    0    0    0  501  0.00000000000E+00  0.00000000000E+00  0.86016358752E+03  0.86016358754E+03  0.50400001928E-02 0. -1.
        1   -1    0    0  501    0  0.00000000000E+00  0.00000000000E+00 -0.18201055950E+04  0.18201055950E+04  0.50400001928E-02 0.  1.
    10030    2    1    2    0    0  0.00000000000E+00  0.00000000000E+00 -0.95994200750E+03  0.26802691826E+04  0.25024696268E+04 0.  0.
        4    1    3    3  502    0  0.85402380465E+03 -0.53570524960E+03 -0.12737410361E+04  0.16244243945E+04  0.12699999809E+01 0.  1.
       -4    1    3    3    0  502 -0.85402380465E+03  0.53570524960E+03  0.31379902860E+03  0.10558447881E+04  0.12699999809E+01 0. -1.
</event>
<event>
 5   0  0.8407986E-06  0.2493538E+04  0.7818609E-02  0.8405291E-01
       -2   -1    0    0    0  501  0.00000000000E+00  0.00000000000E+00  0.13044176414E+04  0.13044176414E+04  0.25500000920E-02 0.  1.
        2   -1    0    0  501    0  0.00000000000E+00  0.00000000000E+00 -0.11916677648E+04  0.11916677649E+04  0.25500000920E-02 0. -1.
    10030    2    1    2    0    0  0.00000000000E+00  0.00000000000E+00  0.11274987660E+03  0.24960854063E+04  0.24935376117E+04 0.  0.
        5    1    3    3  502    0 -0.10088117960E+04 -0.68746239845E+03  0.30982245137E+03  0.12594910998E+04  0.46999998093E+01 0. -1.
       -5    1    3    3    0  502  0.10088117960E+04  0.68746239845E+03 -0.19707257477E+03  0.12365943065E+04  0.46999998093E+01 0.  1.
</event>
<event>
 5   0  0.8579923E-06  0.2501543E+04  0.7818609E-02  0.8402436E-01
        2   -1    0    0  501    0  0.00000000000E+00  0.00000000000E+00  0.18205168317E+04  0.18205168317E+04  0.25500000920E-02 0. -1.
       -2   -1    0    0    0  501  0.00000000000E+00  0.00000000000E+00 -0.85933230932E+03  0.85933230932E+03  0.25500000920E-02 0.  1.
    10030    2    1    2    0    0  0.00000000000E+00  0.00000000000E+00  0.96118452242E+03  0.26798491411E+04  0.25015426706E+04 0.  0.
        1    1    3    3  502    0 -0.80035706277E+03  0.84947836420E+03 -0.11783118116E+01  0.11671273742E+04  0.50400001928E-02 0.  1.
       -1    1    3    3    0  502  0.80035706277E+03 -0.84947836420E+03  0.96236283423E+03  0.15127217669E+04  0.50400001928E-02 0. -1.
</event>
<event>
 5   0  0.3522870E-06  0.2484569E+04  0.7818609E-02  0.8408504E-01
        1   -1    0    0  501    0  0.00000000000E+00  0.00000000000E+00  0.13937796424E+04  0.13937796424E+04  0.50400001928E-02 0.  1.
       -1   -1    0    0    0  501  0.00000000000E+00  0.00000000000E+00 -0.11072557758E+04  0.11072557758E+04  0.50400001928E-02 0. -1.
    10030    2    1    2    0    0  0.00000000000E+00  0.00000000000E+00  0.28652386662E+03  0.25010354182E+04  0.24845688232E+04 0.  0.
        2    1    3    3  502    0 -0.80815816336E+03  0.27918771817E+03 -0.76393522860E+03  0.11465872982E+04  0.25500000920E-02 0. -1.
       -2    1    3    3    0  502  0.80815816336E+03 -0.27918771817E+03  0.10504590952E+04  0.13544481200E+04  0.25500000920E-02 0.  1.
</event>
<event>
 5   0  0.3642184E-06  0.2499426E+04  0.7818609E-02  0.8403190E-01
       -1   -1    0    0    0  501  0.00000000000E+00  0.00000000000E+00  0.93813992653E+03  0.93813992654E+03  0.50400001928E-02 0.  1.
        1   -1    0    0  501    0  0.00000000000E+00  0.00000000000E+00 -0.16647656681E+04  0.16647656681E+04  0.50400001928E-02 0. -1.
    10030    2    1    2    0    0  0.00000000000E+00  0.00000000000E+00 -0.72662574156E+03  0.26029055946E+04  0.24994264475E+04 0.  0.
        5    1    3    3  502    0  0.70494241106E+03  0.51534039464E+03  0.56770298245E+03  0.10415509068E+04  0.46999998093E+01 0.  1.
       -5    1    3    3    0  502 -0.70494241106E+03 -0.51534039464E+03 -0.12943287240E+04  0.15613546878E+04  0.46999998093E+01 0. -1.
</event>
<event>
 5   0  0.8354653E-06  0.2498529E+04  0.7818609E-02  0.8403510E-01
        2   -1    0    0  501    0  0.00000000000E+00  0.00000000000E+00  0.76866702132E+03  0.76866702132E+03  0.25500000920E-02 0.  1.
       -2   -1    0    0    0  501  0.00000000000E+00  0.00000000000E+00 -0.20303489613E+04  0.20303489613E+04  0.25500000920E-02 0. -1.
    10030    2    1    2    0    0  0.00000000000E+00  0.00000000000E+00 -0.12616819400E+04  0.27990159826E+04  0.24985293981E+04 0.  0.
        3    1    3    3  502    0 -0.60417829521E+02  0.39773500584E+03  0.69411561931E+03  0.80227174459E+03  0.10100000352E+00 0.  1.
       -3    1    3    3    0  502  0.60417829521E+02 -0.39773500584E+03 -0.19557975593E+04  0.19967442380E+04  0.10100000352E+00 0. -1.
</event>
<event>
 5   0  0.8579923E-06  0.2489073E+04  0.7818609E-02  0.8406889E-01
        2   -1    0    0  501    0  0.00000000000E+00  0.00000000000E+00  0.11389894533E+04  0.11389894533E+04  0.25500000920E-02 0.  1.
       -2   -1    0    0    0  501  0.00000000000E+00  0.00000000000E+00 -0.13598646508E+04  0.13598646508E+04  0.25500000920E-02 0. -1.
    10030    2    1    2    0    0  0.00000000000E+00  0.00000000000E+00 -0.22087519749E+03  0.24988541042E+04  0.24890733177E+04 0.  0.
        1    1    3    3  502    0  0.75968852585E+03  0.18270764625E+03  0.86206012181E+03  0.11634674013E+04  0.50400001928E-02 0.  1.
       -1    1    3    3    0  502 -0.75968852585E+03 -0.18270764625E+03 -0.10829353193E+04  0.13353867028E+04  0.50400001928E-02 0. -1.
</event>
<event>
 5   0  0.2901250E-06  0.2492872E+04  0.7818609E-02  0.8405529E-01
       -3   -1    0    0    0  501  0.00000000000E+00  0.00000000000E+00  0.14629965811E+04  0.14629965846E+04  0.10100000352E+00 0.  1.
        3   -1    0    0  501    0  0.00000000000E+00  0.00000000000E+00 -0.10619317749E+04  0.10619317797E+04  0.10100000352E+00 0. -1.
    10030    2    1    2    0    0  0.00000000000E+00  0.00000000000E+00  0.40106480627E+03  0.25249283643E+04  0.24928718912E+04 0.  0.
        2    1    3    3  502    0  0.10858966817E+04 -0.28930209532E+03 -0.34560001119E+03  0.11757153880E+04  0.25500000920E-02 0. -1.
       -2    1    3    3    0  502 -0.10858966817E+04  0.28930209532E+03  0.74666481746E+03  0.13492129763E+04  0.25500000920E-02 0.  1.
</event>
<event>
 5   0  0.3522870E-06  0.2499562E+04  0.7818609E-02  0.8403141E-01
        1   -1    0    0  501    0  0.00000000000E+00  0.00000000000E+00  0.11597077670E+04  0.11597077670E+04  0.50400001928E-02 0. -1.
       -1   -1    0    0    0  501  0.00000000000E+00  0.00000000000E+00 -0.13468504529E+04  0.13468504529E+04  0.50400001928E-02 0.  1.
    10030    2    1    2    0    0  0.00000000000E+00  0.00000000000E+00 -0.18714268587E+03  0.25065582199E+04  0.24995623067E+04 0.  0.
        2    1    3    3  502    0  0.21841927646E+03 -0.10507443706E+04  0.54867589379E+03  0.12053281500E+04  0.25500000920E-02 0. -1.
       -2    1    3    3    0  502 -0.21841927646E+03  0.10507443706E+04 -0.73581857966E+03  0.13012300699E+04  0.25500000920E-02 0.  1.
</event>
<event>
 5   0  0.3642184E-06  0.2496033E+04  0.7818609E-02  0.8404400E-01
        1   -1    0    0  501    0  0.00000000000E+00  0.00000000000E+00  0.19799020051E+04  0.19799020051E+04  0.50400001928E-02 0.  1.
       -1   -1    0    0    0  501  0.00000000000E+00  0.00000000000E+00 -0.78667792856E+03  0.78667792858E+03  0.50400001928E-02 0. -1.
    10030    2    1    2    0    0  0.00000000000E+00  0.00000000000E+00  0.11932240766E+04  0.27665799337E+04  0.24960330192E+04 0.  0.
        5    1    3    3  502    0  0.41092865461E+03  0.11593035421E+04  0.83088939293E+03  0.14843336334E+04  0.46999998093E+01 0.  1.
       -5    1    3    3    0  502 -0.41092865461E+03 -0.11593035421E+04  0.36233468363E+03  0.12822463004E+04  0.46999998093E+01 0. -1.
</event>
<event>
 5   0  0.3522870E-06  0.2496025E+04  0.7818609E-02  0.8404403E-01
       -1   -1    0    0    0  501  0.00000000000E+00  0.00000000000E+00  0.14921090773E+04  0.14921090773E+04  0.50400001928E-02 0.  1.
        1   -1    0    0  501    0  0.00000000000E+00  0.00000000000E+00 -0.10438480751E+04  0.10438480751E+04  0.50400001928E-02 0. -1.
    10030    2    1    2    0    0  0.00000000000E+00  0.00000000000E+00  0.44826100215E+03  0.25359571524E+04  0.24960249904E+04 0.  0.
        2    1    3    3  502    0 -0.14599113531E+03  0.10425940381E+04  0.90509152853E+03  0.13883466480E+04  0.25500000920E-02 0.  1.
       -2    1    3    3    0  502  0.14599113531E+03 -0.10425940381E+04 -0.45683052637E+03  0.11476105044E+04  0.25500000920E-02 0. -1.
</event>
<event>
 5   0  0.3642184E-06  0.2482851E+04  0.7818609E-02  0.8409120E-01
       -1   -1    0    0    0  501  0.00000000000E+00  0.00000000000E+00  0.12817374844E+04  0.12817374844E+04  0.50400001928E-02 0.  1.
        1   -1    0    0  501    0  0.00000000000E+00  0.00000000000E+00 -0.12023816556E+04  0.12023816556E+04  0.50400001928E-02 0. -1.
    10030    2    1    2    0    0  0.00000000000E+00  0.00000000000E+00  0.79355828840E+02  0.24841191400E+04  0.24828512952E+04 0.  0.
        5    1    3    3  502    0  0.44392242394E+03 -0.11531339265E+04  0.15944943386E+03  0.12458857022E+04  0.46999998093E+01 0.  1.
       -5    1    3    3    0  502 -0.44392242394E+03  0.11531339265E+04 -0.80093605017E+02  0.12382334378E+04  0.46999998093E+01 0. -1.
</event>
<event>
 5   0  0.3522870E-06  0.2499811E+04  0.7818609E-02  0.8403053E-01
        1   -1    0    0  501    0  0.00000000000E+00  0.00000000000E+00  0.18743087427E+04  0.18743087427E+04  0.50400001928E-02 0. -1.
       -1   -1    0    0    0  501  0.00000000000E+00  0.00000000000E+00 -0.83351432005E+03  0.83351432007E+03  0.50400001928E-02 0.  1.
    10030    2    1    2    0    0  0.00000000000E+00  0.00000000000E+00  0.10407944226E+04  0.27078230627E+04  0.24998105346E+04 0.  0.
        2    1    3    3  502    0 -0.30342770177E+03  0.75900267288E+03  0.15446534177E+04  0.17476005288E+04  0.25500000920E-02 0. -1.
       -2    1    3    3    0  502  0.30342770177E+03 -0.75900267288E+03 -0.50385899509E+03  0.96022253389E+03  0.25500000920E-02 0.  1.
</event>
<event>
 5   0  0.8354653E-06  0.2505780E+04  0.7818609E-02  0.8400929E-01
        2   -1    0    0  501    0  0.00000000000E+00  0.00000000000E+00  0.14480735622E+04  0.14480735622E+04  0.25500000920E-02 0.  1.
       -2   -1    0    0    0  501  0.00000000000E+00  0.00000000000E+00 -0.10840150804E+04  0.10840150804E+04  0.25500000920E-02 0. -1.
    10030    2    1    2    0    0  0.00000000000E+00  0.00000000000E+00  0.36405848182E+03  0.25320886427E+04  0.25057801811E+04 0.  0.
        3    1    3    3  502    0  0.58983086832E+03 -0.10770067540E+04  0.43341730817E+03  0.13021883791E+04  0.10100000352E+00 0.  1.
       -3    1    3    3    0  502 -0.58983086832E+03  0.10770067540E+04 -0.69358826344E+02  0.12299002636E+04  0.10100000352E+00 0. -1.
</event>
<event>
 5   0  0.8056723E-06  0.2521112E+04  0.7818609E-02  0.8395503E-01
        2   -1    0    0  501    0  0.00000000000E+00  0.00000000000E+00  0.13401084359E+04  0.13401084359E+04  0.25500000920E-02 0. -1.
       -2   -1    0    0    0  501  0.00000000000E+00  0.00000000000E+00 -0.11857262556E+04  0.11857262556E+04  0.25500000920E-02 0.  1.
    10030    2    1    2    0    0  0.00000000000E+00  0.00000000000E+00  0.15438218037E+03  0.25258346915E+04  0.25211122607E+04 0.  0.
        2    1    3    3  502    0 -0.32026467081E+03 -0.29193178243E+03 -0.11087525871E+04  0.11904309826E+04  0.25500000920E-02 0.  1.
       -2    1    3    3    0  502  0.32026467081E+03  0.29193178243E+03  0.12631347675E+04  0.13354037089E+04  0.25500000920E-02 0. -1.
</event>
<event>
 5   0  0.8579923E-06  0.2502999E+04  0.7818609E-02  0.8401918E-01
        2   -1    0    0  501    0  0.00000000000E+00  0.00000000000E+00  0.24781563877E+04  0.24781563877E+04  0.25500000920E-02 0. -1.
       -2   -1    0    0    0  501  0.00000000000E+00  0.00000000000E+00 -0.63202281637E+03  0.63202281638E+03  0.25500000920E-02 0.  1.
    10030    2    1    2    0    0  0.00000000000E+00  0.00000000000E+00  0.18461335713E+04  0.31101792041E+04  0.25029993045E+04 0.  0.
        1    1    3    3  502    0 -0.71643005783E+01  0.12188259650E+04  0.57015778989E+03  0.13456106293E+04  0.50400001928E-02 0. -1.
       -1    1    3    3    0  502  0.71643005783E+01 -0.12188259650E+04  0.12759757815E+04  0.17645685748E+04  0.50400001928E-02 0.  1.
</event>
<event>
 5   0  0.3522870E-06  0.2546261E+04  0.7818609E-02  0.8386688E-01
        1   -1    0    0  501    0  0.00000000000E+00  0.00000000000E+00  0.13955009828E+04  0.13955009828E+04  0.50400001928E-02 0.  1.
       -1   -1    0    0    0  501  0.00000000000E+00  0.00000000000E+00 -0.11614905591E+04  0.11614905591E+04  0.50400001928E-02 0. -1.
    10030    2    1    2    0    0  0.00000000000E+00  0.00000000000E+00  0.23401042377E+03  0.25569915419E+04  0.25462609581E+04 0.  0.
        2    1    3    3  502    0  0.10618454509E+03  0.41838142566E+03  0.13197768316E+04  0.13885708697E+04  0.25500000920E-02 0.  1.
       -2    1    3    3    0  502 -0.10618454509E+03 -0.41838142566E+03 -0.10857664078E+04  0.11684206722E+04  0.25500000920E-02 0. -1.
</event>
<event>
 5   0  0.8948286E-06  0.2500395E+04  0.7818609E-02  0.8402845E-01
       -2   -1    0    0    0  501  0.00000000000E+00  0.00000000000E+00  0.61080616786E+03  0.61080616786E+03  0.25500000920E-02 0.  1.
        2   -1    0    0  501    0  0.00000000000E+00  0.00000000000E+00 -0.25589035161E+04  0.25589035161E+04  0.25500000920E-02 0. -1.
    10030    2    1    2    0    0  0.00000000000E+00  0.00000000000E+00 -0.19480973482E+04  0.31697096840E+04  0.25003952092E+04 0.  0.
        4    1    3    3  502    0 -0.24924737940E+03 -0.72627792844E+03  0.27665361788E+03  0.81617566899E+03  0.12699999809E+01 0.  1.
       -4    1    3    3    0  502  0.24924737940E+03  0.72627792844E+03 -0.22247509661E+04  0.23535340150E+04  0.12699999809E+01 0. -1.
</event>
<event>
 5   0  0.3424193E-06  0.2500305E+04  0.7818609E-02  0.8402877E-01
       -1   -1    0    0    0  501  0.00000000000E+00  0.00000000000E+00  0.79177827665E+03  0.79177827666E+03  0.50400001928E-02 0. -1.
        1   -1    0    0  501    0  0.00000000000E+00  0.00000000000E+00 -0.19738881832E+04  0.19738881832E+04  0.50400001928E-02 0.  1.
    10030    2    1    2    0    0  0.00000000000E+00  0.00000000000E+00 -0.11821099065E+04  0.27656664598E+04  0.25003054085E+04 0.  0.
        1    1    3    3  502    0  0.28003339077E+03  0.61159087339E+03  0.57454714122E+03  0.88462789571E+03  0.50400001928E-02 0. -1.
       -1    1    3    3    0  502 -0.28003339077E+03 -0.61159087339E+03 -0.17566570477E+04  0.18810385641E+04  0.50400001928E-02 0.  1.
</event>
<event>
 5   0  0.3481387E-06  0.2505793E+04  0.7818609E-02  0.8400925E-01
        1   -1    0    0  501    0  0.00000000000E+00  0.00000000000E+00  0.17808116817E+04  0.17808116818E+04  0.50400001928E-02 0.  1.
       -1   -1    0    0    0  501  0.00000000000E+00  0.00000000000E+00 -0.88147955807E+03  0.88147955809E+03  0.50400001928E-02 0. -1.
    10030    2    1    2    0    0  0.00000000000E+00  0.00000000000E+00  0.89933212367E+03  0.26622912398E+04  0.25057925647E+04 0.  0.
        4    1    3    3  502    0 -0.12290109567E+04 -0.12612996668E+03  0.22840292318E+03  0.12564020887E+04  0.12699999809E+01 0.  1.
       -4    1    3    3    0  502  0.12290109567E+04  0.12612996668E+03  0.67092920050E+03  0.14058891511E+04  0.12699999809E+01 0. -1.
</event>
<event>
 5   0  0.8354653E-06  0.2508428E+04  0.7818609E-02  0.8399989E-01
       -2   -1    0    0    0  501  0.00000000000E+00  0.00000000000E+00  0.12541840562E+04  0.12541840562E+04  0.25500000920E-02 0.  1.
        2   -1    0    0  501    0  0.00000000000E+00  0.00000000000E+00 -0.12542437513E+04  0.12542437513E+04  0.25500000920E-02 0. -1.
    10030    2    1    2    0    0  0.00000000000E+00  0.00000000000E+00 -0.59695079930E-01  0.25084278075E+04  0.25084278068E+04 0.  0.
        3    1    3    3  502    0  0.33013400086E+02  0.11281986792E+04  0.54689826578E+03  0.12542008881E+04  0.10100000352E+00 0.  1.
       -3    1    3    3    0  502 -0.33013400086E+02 -0.11281986792E+04 -0.54695796086E+03  0.12542269194E+04  0.10100000352E+00 0. -1.
</event>
<event>
 5   0  0.3642184E-06  0.2480500E+04  0.7818609E-02  0.8409965E-01
        1   -1    0    0  501    0  0.00000000000E+00  0.00000000000E+00  0.13329698013E+04  0.13329698013E+04  0.50400001928E-02 0. -1.
       -1   -1    0    0    0  501  0.00000000000E+00  0.00000000000E+00 -0.11539799768E+04  0.11539799768E+04  0.50400001928E-02 0.  1.
    10030    2    1    2    0    0  0.00000000000E+00  0.00000000000E+00  0.17898982449E+03  0.24869497781E+04  0.24805003208E+04 0.  0.
        5    1    3    3  502    0 -0.25556496779E+03 -0.75756623240E+00  0.13062748781E+04  0.13310485242E+04  0.46999998093E+01 0. -1.
       -5    1    3    3    0  502  0.25556496779E+03  0.75756623240E+00 -0.11272850536E+04  0.11559012539E+04  0.46999998093E+01 0.  1.
</event>
<event>
 5   0  0.8354653E-06  0.2503273E+04  0.7818609E-02  0.8401821E-01
        2   -1    0    0  501    0  0.00000000000E+00  0.00000000000E+00  0.15196721882E+04  0.15196721882E+04  0.25500000920E-02 0.  1.
       -2   -1    0    0    0  501  0.00000000000E+00  0.00000000000E+00 -0.10308759827E+04  0.10308759827E+04  0.25500000920E-02 0. -1.
    10030    2    1    2    0    0  0.00000000000E+00  0.00000000000E+00  0.48879620549E+03  0.25505481709E+04  0.25032727062E+04 0.  0.
        3    1    3    3  502    0  0.66228579538E+03  0.75014926423E+03  0.10104259528E+04  0.14220784120E+04  0.10100000352E+00 0.  1.
       -3    1    3    3    0  502 -0.66228579538E+03 -0.75014926423E+03 -0.52162974736E+03  0.11284697590E+04  0.10100000352E+00 0. -1.
</event>
<event>
 5   0  0.3481387E-06  0.2491224E+04  0.7818609E-02  0.8406119E-01
       -1   -1    0    0    0  501  0.00000000000E+00  0.00000000000E+00  0.10550729794E+04  0.10550729794E+04  0.50400001928E-02 0.  1.
        1   -1    0    0  501    0  0.00000000000E+00  0.00000000000E+00 -0.14705616293E+04  0.14705616293E+04  0.50400001928E-02 0. -1.
    10030    2    1    2    0    0  0.00000000000E+00  0.00000000000E+00 -0.41548864989E+03  0.25256346087E+04  0.24912244697E+04 0.  0.
        4    1    3    3  502    0 -0.80980857419E+03  0.68390182846E+03  0.45553751401E+03  0.11537017281E+04  0.12699999809E+01 0.  1.
       -4    1    3    3    0  502  0.80980857419E+03 -0.68390182846E+03 -0.87102616389E+03  0.13719328806E+04  0.12699999809E+01 0. -1.
</event>
<event>
 5   0  0.3642184E-06  0.2488564E+04  0.7818609E-02  0.8407071E-01
       -1   -1    0    0    0  501  0.00000000000E+00  0.00000000000E+00  0.18155010131E+04  0.18155010131E+04  0.50400001928E-02 0.  1.
        1   -1    0    0  501    0  0.00000000000E+00  0.00000000000E+00 -0.85278842406E+03  0.85278842408E+03  0.50400001928E-02 0. -1.
    10030    2    1    2    0    0  0.00000000000E+00  0.00000000000E+00  0.96271258900E+03  0.26682894371E+04  0.24885644439E+04 0.  0.
        5    1    3    3  502    0  0.72132640035E+02  0.92420193523E+03 -0.40856322777E+03  0.10130638361E+04  0.46999998093E+01 0. -1.
       -5    1    3    3    0  502 -0.72132640035E+02 -0.92420193523E+03  0.13712758168E+04  0.16552256011E+04  0.46999998093E+01 0.  1.
</event>
<event>
 5   0  0.8407986E-06  0.2492811E+04  0.7818609E-02  0.8405551E-01
        2   -1    0    0  501    0  0.00000000000E+00  0.00000000000E+00  0.14167158540E+04  0.14167158540E+04  0.25500000920E-02 0.  1.
       -2   -1    0    0    0  501  0.00000000000E+00  0.00000000000E+00 -0.10965693817E+04  0.10965693817E+04  0.25500000920E-02 0. -1.
    10030    2    1    2    0    0  0.00000000000E+00  0.00000000000E+00  0.32014647227E+03  0.25132852357E+04  0.24928114474E+04 0.  0.
        5    1    3    3  502    0 -0.19789271039E+02 -0.68111158331E+03  0.12122925579E+04  0.13906760730E+04  0.46999998093E+01 0.  1.
       -5    1    3    3    0  502  0.19789271039E+02  0.68111158331E+03 -0.89214608559E+03  0.11226091627E+04  0.46999998093E+01 0. -1.
</event>
<event>
 5   0  0.3424193E-06  0.2499214E+04  0.7818609E-02  0.8403266E-01
        1   -1    0    0  501    0  0.00000000000E+00  0.00000000000E+00  0.23259003836E+04  0.23259003836E+04  0.50400001928E-02 0. -1.
       -1   -1    0    0    0  501  0.00000000000E+00  0.00000000000E+00 -0.67136063370E+03  0.67136063372E+03  0.50400001928E-02 0.  1.
    10030    2    1    2    0    0  0.00000000000E+00  0.00000000000E+00  0.16545397499E+04  0.29972610173E+04  0.24992142409E+04 0.  0.
        1    1    3    3  502    0  0.26872418717E+03  0.12196347515E+04  0.77644043857E+03  0.14705717836E+04  0.50400001928E-02 0.  1.
       -1    1    3    3    0  502 -0.26872418717E+03 -0.12196347515E+04  0.87809931131E+03  0.15266892338E+04  0.50400001928E-02 0. -1.
</event>
<event>
 5   0  0.8407986E-06  0.2477427E+04  0.7818609E-02  0.8411072E-01
       -2   -1    0    0    0  501  0.00000000000E+00  0.00000000000E+00  0.65869053731E+03  0.65869053732E+03  0.25500000920E-02 0. -1.
        2   -1    0    0  501    0  0.00000000000E+00  0.00000000000E+00 -0.23294873325E+04  0.23294873325E+04  0.25500000920E-02 0.  1.
    10030    2    1    2    0    0  0.00000000000E+00  0.00000000000E+00 -0.16707967952E+04  0.29881778698E+04  0.24774271030E+04 0.  0.
        5    1    3    3  502    0  0.96708121683E+03  0.74183241869E+03 -0.11019240042E+04  0.16431129049E+04  0.46999998093E+01 0.  1.
       -5    1    3    3    0  502 -0.96708121683E+03 -0.74183241869E+03 -0.56887279098E+03  0.13450649649E+04  0.46999998093E+01 0. -1.
</event>
<event>
 5   0  0.3522870E-06  0.2489051E+04  0.7818609E-02  0.8406896E-01
       -1   -1    0    0    0  501  0.00000000000E+00  0.00000000000E+00  0.69951966625E+03  0.69951966627E+03  0.50400001928E-02 0.  1.
        1   -1    0    0  501    0  0.00000000000E+00  0.00000000000E+00 -0.22141539714E+04  0.22141539714E+04  0.50400001928E-02 0. -1.
    10030    2    1    2    0    0  0.00000000000E+00  0.00000000000E+00 -0.15146343051E+04  0.29136736377E+04  0.24890514234E+04 0.  0.
        2    1    3    3  502    0  0.74777787159E+03  0.39747577271E+03 -0.18248631669E+04  0.20117863488E+04  0.25500000920E-02 0. -1.
       -2    1    3    3    0  502 -0.74777787159E+03 -0.39747577271E+03  0.31022886180E+03  0.90188728887E+03  0.25500000920E-02 0.  1.
</event>
<event>
 5   0  0.3484857E-06  0.2496181E+04  0.7818609E-02  0.8404347E-01
        1   -1    0    0  501    0  0.00000000000E+00  0.00000000000E+00  0.11661008490E+04  0.11661008490E+04  0.50400001928E-02 0.  1.
       -1   -1    0    0    0  501  0.00000000000E+00  0.00000000000E+00 -0.13358445227E+04  0.13358445227E+04  0.50400001928E-02 0. -1.
    10030    2    1    2    0    0  0.00000000000E+00  0.00000000000E+00 -0.16974367369E+03  0.25019453717E+04  0.24961806281E+04 0.  0.
        3    1    3    3  502    0  0.14306558623E+03  0.10544934768E+03 -0.13230960726E+04  0.13349796082E+04  0.10100000352E+00 0. -1.
       -3    1    3    3    0  502 -0.14306558623E+03 -0.10544934768E+03  0.11533523989E+04  0.11669657635E+04  0.10100000352E+00 0.  1.
</event>
<event>
 5   0  0.3642184E-06  0.2326156E+04  0.7818609E-02  0.8467679E-01
       -1   -1    0    0    0  501  0.00000000000E+00  0.00000000000E+00  0.12947374505E+04  0.12947374505E+04  0.50400001928E-02 0.  1.
        1   -1    0    0  501    0  0.00000000000E+00  0.00000000000E+00 -0.10448067770E+04  0.10448067770E+04  0.50400001928E-02 0. -1.
    10030    2    1    2    0    0  0.00000000000E+00  0.00000000000E+00  0.24993067345E+03  0.23395442275E+04  0.23261560247E+04 0.  0.
        5    1    3    3  502    0 -0.10468394718E+04 -0.13617005239E+03 -0.36601768743E+03  0.11173209926E+04  0.46999998093E+01 0. -1.
       -5    1    3    3    0  502  0.10468394718E+04  0.13617005239E+03  0.61594836087E+03  0.12222232350E+04  0.46999998093E+01 0.  1.
</event>
<event>
 5   0  0.8056723E-06  0.2493504E+04  0.7818609E-02  0.8405303E-01
        2   -1    0    0  501    0  0.00000000000E+00  0.00000000000E+00  0.15504269199E+04  0.15504269199E+04  0.25500000920E-02 0.  1.
       -2   -1    0    0    0  501  0.00000000000E+00  0.00000000000E+00 -0.10025563970E+04  0.10025563970E+04  0.25500000920E-02 0. -1.
    10030    2    1    2    0    0  0.00000000000E+00  0.00000000000E+00  0.54787052285E+03  0.25529833169E+04  0.24935039015E+04 0.  0.
        2    1    3    3  502    0  0.44921249257E+03  0.34994662823E+03 -0.86163621398E+03  0.10327978850E+04  0.25500000920E-02 0. -1.
       -2    1    3    3    0  502 -0.44921249257E+03 -0.34994662823E+03  0.14095067368E+04  0.15201854319E+04  0.25500000920E-02 0.  1.
</event>
<event>
 5   0  0.8579923E-06  0.2487384E+04  0.7818609E-02  0.8407494E-01
        2   -1    0    0  501    0  0.00000000000E+00  0.00000000000E+00  0.19206368487E+04  0.19206368487E+04  0.25500000920E-02 0.  1.
       -2   -1    0    0    0  501  0.00000000000E+00  0.00000000000E+00 -0.80534202998E+03  0.80534202998E+03  0.25500000920E-02 0. -1.
    10030    2    1    2    0    0  0.00000000000E+00  0.00000000000E+00  0.11152948188E+04  0.27259788787E+04  0.24873838293E+04 0.  0.
        1    1    3    3  502    0  0.67465859711E+03 -0.28552114059E+03 -0.54378593040E+03  0.91235392393E+03  0.50400001928E-02 0. -1.
       -1    1    3    3    0  502 -0.67465859711E+03  0.28552114059E+03  0.16590807492E+04  0.18136249548E+04  0.50400001928E-02 0.  1.
</event>
<event>
 5   0  0.3424193E-06  0.2551942E+04  0.7818609E-02  0.8384711E-01
       -1   -1    0    0    0  501  0.00000000000E+00  0.00000000000E+00  0.11329039542E+04  0.11329039542E+04  0.50400001928E-02 0.  1.
        1   -1    0    0  501    0  0.00000000000E+00  0.00000000000E+00 -0.14371052965E+04  0.14371052965E+04  0.50400001928E-02 0. -1.
    10030    2    1    2    0    0  0.00000000000E+00  0.00000000000E+00 -0.30420134234E+03  0.25700092507E+04  0.25519422195E+04 0.  0.
        1    1    3    3  502    0 -0.63178760406E+03  0.10432384004E+04  0.22552110387E+03  0.12403071011E+04  0.50400001928E-02 0.  1.
       -1    1    3    3    0  502  0.63178760406E+03 -0.10432384004E+04 -0.52972244622E+03  0.13297021496E+04  0.50400001928E-02 0. -1.
</event>
<event>
 5   0  0.3484857E-06  0.2507278E+04  0.7818609E-02  0.8400397E-01
        1   -1    0    0  501    0  0.00000000000E+00  0.00000000000E+00  0.14221935327E+04  0.14221935328E+04  0.50400001928E-02 0. -1.
       -1   -1    0    0    0  501  0.00000000000E+00  0.00000000000E+00 -0.11050610232E+04  0.11050610232E+04  0.50400001928E-02 0.  1.
    10030    2    1    2    0    0  0.00000000000E+00  0.00000000000E+00  0.31713250953E+03  0.25272545560E+04  0.25072779188E+04 0.  0.
        3    1    3    3  502    0  0.23945024177E+03  0.10676989410E+04 -0.45810324821E+03  0.11862445123E+04  0.10100000352E+00 0.  1.
       -3    1    3    3    0  502 -0.23945024177E+03 -0.10676989410E+04  0.77523575774E+03  0.13410100436E+04  0.10100000352E+00 0. -1.
</event>
<event>
 5   0  0.3484857E-06  0.2490451E+04  0.7818609E-02  0.8406395E-01
       -1   -1    0    0    0  501  0.00000000000E+00  0.00000000000E+00  0.11511906855E+04  0.11511906855E+04  0.50400001928E-02 0. -1.
        1   -1    0    0  501    0  0.00000000000E+00  0.00000000000E+00 -0.13469418422E+04  0.13469418422E+04  0.50400001928E-02 0.  1.
    10030    2    1    2    0    0  0.00000000000E+00  0.00000000000E+00 -0.19575115671E+03  0.24981325277E+04  0.24904512865E+04 0.  0.
        3    1    3    3  502    0  0.38889640847E+03  0.11714847613E+04 -0.26260733614E+03  0.12619744790E+04  0.10100000352E+00 0. -1.
       -3    1    3    3    0  502 -0.38889640847E+03 -0.11714847613E+04  0.66856179433E+02  0.12361580487E+04  0.10100000352E+00 0.  1.
</event>
<event>
 5   0  0.3522870E-06  0.2501857E+04  0.7818609E-02  0.8402324E-01
       -1   -1    0    0    0  501  0.00000000000E+00  0.00000000000E+00  0.20204250994E+04  0.20204250994E+04  0.50400001928E-02 0. -1.
        1   -1    0    0  501    0  0.00000000000E+00  0.00000000000E+00 -0.77450161997E+03  0.77450161999E+03  0.50400001928E-02 0.  1.
    10030    2    1    2    0    0  0.00000000000E+00  0.00000000000E+00  0.12459234794E+04  0.27949267194E+04  0.25018573201E+04 0.  0.
        2    1    3    3  502    0 -0.66741333668E+03  0.20628265638E+03 -0.53629957264E+03  0.88068741783E+03  0.25500000920E-02 0.  1.
       -2    1    3    3    0  502  0.66741333668E+03 -0.20628265638E+03  0.17822230520E+04  0.19142393015E+04  0.25500000920E-02 0. -1.
</event>
<event>
 5   0  0.8579923E-06  0.2502863E+04  0.7818609E-02  0.8401966E-01
        2   -1    0    0  501    0  0.00000000000E+00  0.00000000000E+00  0.92250241496E+03  0.92250241496E+03  0.25500000920E-02 0. -1.
       -2   -1    0    0    0  501  0.00000000000E+00  0.00000000000E+00 -0.16976436858E+04  0.16976436858E+04  0.25500000920E-02 0.  1.
    10030    2    1    2    0    0  0.00000000000E+00  0.00000000000E+00 -0.77514127084E+03  0.26201461008E+04  0.25028626809E+04 0.  0.
        1    1    3    3  502    0  0.66424645991E+02 -0.11358325888E+04  0.15795527856E+03  0.11486852369E+04  0.50400001928E-02 0. -1.
       -1    1    3    3    0  502 -0.66424645991E+02  0.11358325888E+04 -0.93309654941E+03  0.14714608639E+04  0.50400001928E-02 0.  1.
</event>
<event>
 5   0  0.8354653E-06  0.2504887E+04  0.7818609E-02  0.8401247E-01
        2   -1    0    0  501    0  0.00000000000E+00  0.00000000000E+00  0.81055444580E+03  0.81055444580E+03  0.25500000920E-02 0.  1.
       -2   -1    0    0    0  501  0.00000000000E+00  0.00000000000E+00 -0.19352363136E+04  0.19352363137E+04  0.25500000920E-02 0. -1.
    10030    2    1    2    0    0  0.00000000000E+00  0.00000000000E+00 -0.11246818679E+04  0.27457907595E+04  0.25048867421E+04 0.  0.
        3    1    3    3  502    0 -0.61472619650E+03  0.86116999807E+03  0.17226905927E+03  0.10719975286E+04  0.10100000352E+00 0.  1.
       -3    1    3    3    0  502  0.61472619650E+03 -0.86116999807E+03 -0.12969509271E+04  0.16737932309E+04  0.10100000352E+00 0. -1.
</event>
<event>
 5   0  0.3484857E-06  0.2499107E+04  0.7818609E-02  0.8403304E-01
        1   -1    0    0  501    0  0.00000000000E+00  0.00000000000E+00  0.71042441320E+03  0.71042441322E+03  0.50400001928E-02 0. -1.
       -1   -1    0    0    0  501  0.00000000000E+00  0.00000000000E+00 -0.21978184329E+04  0.21978184329E+04  0.50400001928E-02 0.  1.
    10030    2    1    2    0    0  0.00000000000E+00  0.00000000000E+00 -0.14873940197E+04  0.29082428461E+04  0.24991069369E+04 0.  0.
        3    1    3    3  502    0 -0.10879623131E+04  0.20149117921E+03 -0.68018463601E+02  0.11085518534E+04  0.10100000352E+00 0. -1.
       -3    1    3    3    0  502  0.10879623131E+04 -0.20149117921E+03 -0.14193755561E+04  0.17996909927E+04  0.10100000352E+00 0.  1.
</event>
<event>
 5   0  0.8948286E-06  0.2503983E+04  0.7818609E-02  0.8401568E-01
        2   -1    0    0  501    0  0.00000000000E+00  0.00000000000E+00  0.23662761037E+04  0.23662761037E+04  0.25500000920E-02 0. -1.
       -2   -1    0    0    0  501  0.00000000000E+00  0.00000000000E+00 -0.66242577164E+03  0.66242577165E+03  0.25500000920E-02 0.  1.
    10030    2    1    2    0    0  0.00000000000E+00  0.00000000000E+00  0.17038503320E+04  0.30287018753E+04  0.25039826468E+04 0.  0.
        4    1    3    3  502    0  0.38838524590E+03 -0.35157681774E+03  0.22273274180E+04  0.22881080390E+04  0.12699999809E+01 0. -1.
       -4    1    3    3    0  502 -0.38838524590E+03  0.35157681774E+03 -0.52347708599E+03  0.74059383636E+03  0.12699999809E+01 0.  1.
</event>
<event>
 5   0  0.3484857E-06  0.2503537E+04  0.7818609E-02  0.8401726E-01
        1   -1    0    0  501    0  0.00000000000E+00  0.00000000000E+00  0.23554982211E+04  0.23554982211E+04  0.50400001928E-02 0. -1.
       -1   -1    0    0    0  501  0.00000000000E+00  0.00000000000E+00 -0.66522009780E+03  0.66522009782E+03  0.50400001928E-02 0.  1.
    10030    2    1    2    0    0  0.00000000000E+00  0.00000000000E+00  0.16902781233E+04  0.30207183189E+04  0.25035373031E+04 0.  0.
        3    1    3    3  502    0 -0.71265660251E+02 -0.26138617162E+03  0.23196980550E+04  0.23354658211E+04  0.10100000352E+00 0. -1.
       -3    1    3    3    0  502  0.71265660251E+02  0.26138617162E+03 -0.62941993173E+03  0.68525249778E+03  0.10100000352E+00 0.  1.
</event>
<event>
 5   0  0.3484857E-06  0.2489029E+04  0.7818609E-02  0.8406904E-01
        1   -1    0    0  501    0  0.00000000000E+00  0.00000000000E+00  0.13661573146E+04  0.13661573146E+04  0.50400001928E-02 0.  1.
       -1   -1    0    0    0  501  0.00000000000E+00  0.00000000000E+00 -0.11337029143E+04  0.11337029143E+04  0.50400001928E-02 0. -1.
    10030    2    1    2    0    0  0.00000000000E+00  0.00000000000E+00  0.23245440037E+03  0.24998602289E+04  0.24890291513E+04 0.  0.
        3    1    3    3  502    0 -0.19079635300E+03  0.16496892261E+03 -0.11077631639E+04  0.11361149728E+04  0.10100000352E+00 0. -1.
       -3    1    3    3    0  502  0.19079635300E+03 -0.16496892261E+03  0.13402175643E+04  0.13637452561E+04  0.10100000352E+00 0.  1.
</event>
<event>
 5   0  0.8354653E-06  0.2441812E+04  0.7818609E-02  0.8424014E-01
       -2   -1    0    0    0  501  0.00000000000E+00  0.00000000000E+00  0.56727387526E+03  0.56727387526E+03  0.25500000920E-02 0.  1.
        2   -1    0    0  501    0  0.00000000000E+00  0.00000000000E+00 -0.26276748134E+04  0.26276748134E+04  0.25500000920E-02 0. -1.
    10030    2    1    2    0    0  0.00000000000E+00  0.00000000000E+00 -0.20604009382E+04  0.31949486887E+04  0.24418118472E+04 0.  0.
        3    1    3    3  502    0  0.84561773421E+02  0.73836847886E+03 -0.22976077536E+04  0.24148167847E+04  0.10100000352E+00 0. -1.
       -3    1    3    3    0  502 -0.84561773421E+02 -0.73836847886E+03  0.23720681545E+03  0.78013190397E+03  0.10100000352E+00 0.  1.
</event>
<event>
 5   0  0.3481387E-06  0.2492900E+04  0.7818609E-02  0.8405519E-01
        1   -1    0    0  501    0  0.00000000000E+00  0.00000000000E+00  0.25475713745E+04  0.25475713745E+04  0.50400001928E-02 0. -1.
       -1   -1    0    0    0  501  0.00000000000E+00  0.00000000000E+00 -0.60985036511E+03  0.60985036513E+03  0.50400001928E-02 0.  1.
    10030    2    1    2    0    0  0.00000000000E+00  0.00000000000E+00  0.19377210094E+04  0.31574217396E+04  0.24928997837E+04 0.  0.
        4    1    3    3  502    0 -0.40106970698E+03 -0.79263494647E+03 -0.13857636232E+03  0.89907290545E+03  0.12699999809E+01 0.  1.
       -4    1    3    3    0  502  0.40106970698E+03  0.79263494647E+03  0.20762973717E+04  0.22583488342E+04  0.12699999809E+01 0. -1.
</event>
<event>
 5   0  0.3484857E-06  0.2574218E+04  0.7818609E-02  0.8377012E-01
        1   -1    0    0  501    0  0.00000000000E+00  0.00000000000E+00  0.20584266756E+04  0.20584266756E+04  0.50400001928E-02 0.  1.
       -1   -1    0    0    0  501  0.00000000000E+00  0.00000000000E+00 -0.80481354844E+03  0.80481354845E+03  0.50400001928E-02 0. -1.
    10030    2    1    2    0    0  0.00000000000E+00  0.00000000000E+00  0.12536131271E+04  0.28632402240E+04  0.25742180770E+04 0.  0.
        3    1    3    3  502    0  0.30515893740E+02  0.17276538503E+03 -0.79145206886E+03  0.81066360813E+03  0.10100000352E+00 0. -1.
       -3    1    3    3    0  502 -0.30515893740E+02 -0.17276538503E+03  0.20450651960E+04  0.20525766159E+04  0.10100000352E+00 0.  1.
</event>
<event>
 5   0  0.8056723E-06  0.2499963E+04  0.7818609E-02  0.8402999E-01
       -2   -1    0    0    0  501  0.00000000000E+00  0.00000000000E+00  0.10078960338E+04  0.10078960338E+04  0.25500000920E-02 0. -1.
        2   -1    0    0  501    0  0.00000000000E+00  0.00000000000E+00 -0.15502129479E+04  0.15502129479E+04  0.25500000920E-02 0.  1.
    10030    2    1    2    0    0  0.00000000000E+00  0.00000000000E+00 -0.54231691409E+03  0.25581089818E+04  0.24999627852E+04 0.  0.
        2    1    3    3  502    0  0.59927837752E+03 -0.93199921426E+03 -0.86314386478E+03  0.14045548905E+04  0.25500000920E-02 0. -1.
       -2    1    3    3    0  502 -0.59927837752E+03  0.93199921426E+03  0.32082695069E+03  0.11535540913E+04  0.25500000920E-02 0.  1.
</event>
<event>
 5   0  0.3481387E-06  0.2501592E+04  0.7818609E-02  0.8402419E-01
        1   -1    0    0  501    0  0.00000000000E+00  0.00000000000E+00  0.10819629128E+04  0.10819629128E+04  0.50400001928E-02 0. -1.
       -1   -1    0    0    0  501  0.00000000000E+00  0.00000000000E+00 -0.14459740058E+04  0.14459740058E+04  0.50400001928E-02 0.  1.
    10030    2    1    2    0    0  0.00000000000E+00  0.00000000000E+00 -0.36401109295E+03  0.25279369186E+04  0.25015916911E+04 0.  0.
        4    1    3    3  502    0  0.21914031967E+03  0.26968234021E+03  0.10322048268E+04  0.10891278445E+04  0.12699999809E+01 0. -1.
       -4    1    3    3    0  502 -0.21914031967E+03 -0.26968234021E+03 -0.13962159197E+04  0.14388090741E+04  0.12699999809E+01 0.  1.
</event>
<event>
 5   0  0.8579923E-06  0.2497652E+04  0.7818609E-02  0.8403822E-01
       -2   -1    0    0    0  501  0.00000000000E+00  0.00000000000E+00  0.10276943498E+04  0.10276943498E+04  0.25500000920E-02 0. -1.
        2   -1    0    0  501    0  0.00000000000E+00  0.00000000000E+00 -0.15175392772E+04  0.15175392772E+04  0.25500000920E-02 0.  1.
    10030    2    1    2    0    0  0.00000000000E+00  0.00000000000E+00 -0.48984492735E+03  0.25452336270E+04  0.24976521301E+04 0.  0.
        1    1    3    3  502    0  0.31415711998E+03 -0.80972223989E+03  0.66951381528E+03  0.10966282646E+04  0.50400001928E-02 0. -1.
       -1    1    3    3    0  502 -0.31415711998E+03  0.80972223989E+03 -0.11593587426E+04  0.14486053624E+04  0.50400001928E-02 0.  1.
</event>
<event>
 5   0  0.3522870E-06  0.2491093E+04  0.7818609E-02  0.8406166E-01
        1   -1    0    0  501    0  0.00000000000E+00  0.00000000000E+00  0.32863627596E+04  0.32863627596E+04  0.50400001928E-02 0.  1.
       -1   -1    0    0    0  501  0.00000000000E+00  0.00000000000E+00 -0.47206788542E+03  0.47206788545E+03  0.50400001928E-02 0. -1.
    10030    2    1    2    0    0  0.00000000000E+00  0.00000000000E+00  0.28142948742E+04  0.37584306451E+04  0.24910931887E+04 0.  0.
        2    1    3    3  502    0  0.24204060177E+03 -0.11933348712E+04  0.10115374097E+04  0.15829844279E+04  0.25500000920E-02 0. -1.
       -2    1    3    3    0  502 -0.24204060177E+03  0.11933348712E+04  0.18027574645E+04  0.21754462172E+04  0.25500000920E-02 0.  1.
</event>
<event>
 5   0  0.3481387E-06  0.2508386E+04  0.7818609E-02  0.8400004E-01
        1   -1    0    0  501    0  0.00000000000E+00  0.00000000000E+00  0.20029774419E+04  0.20029774419E+04  0.50400001928E-02 0. -1.
       -1   -1    0    0    0  501  0.00000000000E+00  0.00000000000E+00 -0.78533083246E+03  0.78533083248E+03  0.50400001928E-02 0.  1.
    10030    2    1    2    0    0  0.00000000000E+00  0.00000000000E+00  0.12176466094E+04  0.27883082744E+04  0.25083858889E+04 0.  0.
        4    1    3    3  502    0 -0.76000456314E+03  0.10781322969E+03  0.17113591508E+04  0.18756285305E+04  0.12699999809E+01 0. -1.
       -4    1    3    3    0  502  0.76000456314E+03 -0.10781322969E+03 -0.49371254136E+03  0.91267974388E+03  0.12699999809E+01 0.  1.
</event>
<event>
 5   0  0.8354653E-06  0.2346192E+04  0.7818609E-02  0.8459928E-01
       -2   -1    0    0    0  501  0.00000000000E+00  0.00000000000E+00  0.11760038045E+04  0.11760038045E+04  0.25500000920E-02 0.  1.
        2   -1    0    0  501    0  0.00000000000E+00  0.00000000000E+00 -0.11701958341E+04  0.11701958341E+04  0.25500000920E-02 0. -1.
    10030    2    1    2    0    0  0.00000000000E+00  0.00000000000E+00  0.58079703633E+01  0.23461996386E+04  0.23461924498E+04 0.  0.
        3    1    3    3  502    0 -0.18230817685E+03 -0.10810278750E+04  0.42039443175E+03  0.11741333086E+04  0.10100000352E+00 0.  1.
       -3    1    3    3    0  502  0.18230817685E+03  0.10810278750E+04 -0.41458646138E+03  0.11720663300E+04  0.10100000352E+00 0. -1.
</event>
<event>
 5   0  0.3484857E-06  0.2508290E+04  0.7818609E-02  0.8400038E-01
        1   -1    0    0  501    0  0.00000000000E+00  0.00000000000E+00  0.99891324761E+03  0.99891324762E+03  0.50400001928E-02 0. -1.
       -1   -1    0    0    0  501  0.00000000000E+00  0.00000000000E+00 -0.15745912015E+04  0.15745912015E+04  0.50400001928E-02 0.  1.
    10030    2    1    2    0    0  0.00000000000E+00  0.00000000000E+00 -0.57567795386E+03  0.25735044491E+04  0.25082902629E+04 0.  0.
        3    1    3    3  502    0 -0.18312110740E+03 -0.72167086639E+03 -0.13233046624E+04  0.15183798665E+04  0.10100000352E+00 0.  1.
       -3    1    3    3    0  502  0.18312110740E+03  0.72167086639E+03  0.74762670849E+03  0.10551245826E+04  0.10100000352E+00 0. -1.
</event>
<event>
 5   0  0.8056723E-06  0.2509532E+04  0.7818609E-02  0.8399598E-01
       -2   -1    0    0    0  501  0.00000000000E+00  0.00000000000E+00  0.57133061274E+03  0.57133061274E+03  0.25500000920E-02 0. -1.
        2   -1    0    0  501    0  0.00000000000E+00  0.00000000000E+00 -0.27557380938E+04  0.27557380938E+04  0.25500000920E-02 0.  1.
    10030    2    1    2    0    0  0.00000000000E+00  0.00000000000E+00 -0.21844074811E+04  0.33270687066E+04  0.25095318557E+04 0.  0.
        2    1    3    3  502    0 -0.40165452422E+03  0.10011819272E+04 -0.19418843132E+04  0.22213973742E+04  0.25500000920E-02 0.  1.
       -2    1    3    3    0  502  0.40165452422E+03 -0.10011819272E+04 -0.24252316785E+03  0.11056713323E+04  0.25500000920E-02 0. -1.
</event>
<event>
 5   0  0.8354653E-06  0.2501560E+04  0.7818609E-02  0.8402430E-01
        2   -1    0    0  501    0  0.00000000000E+00  0.00000000000E+00  0.16325132889E+04  0.16325132889E+04  0.25500000920E-02 0.  1.
       -2   -1    0    0    0  501  0.00000000000E+00  0.00000000000E+00 -0.95830794568E+03  0.95830794568E+03  0.25500000920E-02 0. -1.
    10030    2    1    2    0    0  0.00000000000E+00  0.00000000000E+00  0.67420534320E+03  0.25908212346E+04  0.25015598783E+04 0.  0.
        3    1    3    3  502    0 -0.10199173005E+04  0.24656692166E+03  0.10421459210E+04  0.14788829154E+04  0.10100000352E+00 0.  1.
       -3    1    3    3    0  502  0.10199173005E+04 -0.24656692166E+03 -0.36794057779E+03  0.11119383192E+04  0.10100000352E+00 0. -1.
</event>
<event>
 5   0  0.8056723E-06  0.2501899E+04  0.7818609E-02  0.8402309E-01
       -2   -1    0    0    0  501  0.00000000000E+00  0.00000000000E+00  0.20398749775E+04  0.20398749775E+04  0.25500000920E-02 0.  1.
        2   -1    0    0  501    0  0.00000000000E+00  0.00000000000E+00 -0.76714224629E+03  0.76714224629E+03  0.25500000920E-02 0. -1.
    10030    2    1    2    0    0  0.00000000000E+00  0.00000000000E+00  0.12727327312E+04  0.28070172238E+04  0.25018986969E+04 0.  0.
        2    1    3    3  502    0  0.21642084513E+03  0.12134518000E+04  0.39685852928E+03  0.12949131034E+04  0.25500000920E-02 0. -1.
       -2    1    3    3    0  502 -0.21642084513E+03 -0.12134518000E+04  0.87587420194E+03  0.15121041204E+04  0.25500000920E-02 0.  1.
</event>
<event>
 5   0  0.8056723E-06  0.2494517E+04  0.7818609E-02  0.8404942E-01
       -2   -1    0    0    0  501  0.00000000000E+00  0.00000000000E+00  0.70606412886E+03  0.70606412887E+03  0.25500000920E-02 0. -1.
        2   -1    0    0  501    0  0.00000000000E+00  0.00000000000E+00 -0.22032750347E+04  0.22032750347E+04  0.25500000920E-02 0.  1.
    10030    2    1    2    0    0  0.00000000000E+00  0.00000000000E+00 -0.14972109059E+04  0.29093391636E+04  0.24945167613E+04 0.  0.
        2    1    3    3  502    0  0.14830752501E+03  0.22417047035E+03  0.67188374191E+03  0.72365411932E+03  0.25500000920E-02 0. -1.
       -2    1    3    3    0  502 -0.14830752501E+03 -0.22417047035E+03 -0.21690946478E+04  0.21856850443E+04  0.25500000920E-02 0.  1.
</event>
<event>
 5   0  0.3642184E-06  0.2508382E+04  0.7818609E-02  0.8400006E-01
       -1   -1    0    0    0  501  0.00000000000E+00  0.00000000000E+00  0.78725549699E+03  0.78725549700E+03  0.50400001928E-02 0.  1.
        1   -1    0    0  501    0  0.00000000000E+00  0.00000000000E+00 -0.19980741758E+04  0.19980741758E+04  0.50400001928E-02 0. -1.
    10030    2    1    2    0    0  0.00000000000E+00  0.00000000000E+00 -0.12108186788E+04  0.27853296728E+04  0.25083818516E+04 0.  0.
        5    1    3    3  502    0 -0.47913229208E+03  0.50202210591E+03 -0.17654433453E+04  0.18969465579E+04  0.46999998093E+01 0. -1.
       -5    1    3    3    0  502  0.47913229208E+03 -0.50202210591E+03  0.55462466649E+03  0.88838311489E+03  0.46999998093E+01 0.  1.
</event>
<event>
 5   0  0.3481387E-06  0.2498553E+04  0.7818609E-02  0.8403501E-01
        1   -1    0    0  501    0  0.00000000000E+00  0.00000000000E+00  0.14490310864E+04  0.14490310864E+04  0.50400001928E-02 0. -1.
       -1   -1    0    0    0  501  0.00000000000E+00  0.00000000000E+00 -0.10770591927E+04  0.10770591927E+04  0.50400001928E-02 0.  1.
    10030    2    1    2    0    0  0.00000000000E+00  0.00000000000E+00  0.37197189376E+03  0.25260902791E+04  0.24985533831E+04 0.  0.
        4    1    3    3  502    0 -0.85717860369E+03  0.71639628752E+03  0.75135547450E+03  0.13462969440E+04  0.12699999809E+01 0. -1.
       -4    1    3    3    0  502  0.85717860369E+03 -0.71639628752E+03 -0.37938358074E+03  0.11797933351E+04  0.12699999809E+01 0.  1.
</event>
<event>
 5   0  0.8056723E-06  0.2501406E+04  0.7818609E-02  0.8402485E-01
       -2   -1    0    0    0  501  0.00000000000E+00  0.00000000000E+00  0.76345282774E+03  0.76345282774E+03  0.25500000920E-02 0.  1.
        2   -1    0    0  501    0  0.00000000000E+00  0.00000000000E+00 -0.20489261470E+04  0.20489261470E+04  0.25500000920E-02 0. -1.
    10030    2    1    2    0    0  0.00000000000E+00  0.00000000000E+00 -0.12854733193E+04  0.28123789748E+04  0.25014063730E+04 0.  0.
        2    1    3    3  502    0 -0.79312232489E+03  0.95830185558E+03 -0.78878130628E+03  0.14729431142E+04  0.25500000920E-02 0. -1.
       -2    1    3    3    0  502  0.79312232489E+03 -0.95830185558E+03 -0.49669201301E+03  0.13394358605E+04  0.25500000920E-02 0.  1.
</event>
<event>
 5   0  0.8056723E-06  0.2504290E+04  0.7818609E-02  0.8401459E-01
        2   -1    0    0  501    0  0.00000000000E+00  0.00000000000E+00  0.90491939839E+03  0.90491939840E+03  0.25500000920E-02 0.  1.
       -2   -1    0    0    0  501  0.00000000000E+00  0.00000000000E+00 -0.17326043510E+04  0.17326043510E+04  0.25500000920E-02 0. -1.
    10030    2    1    2    0    0  0.00000000000E+00  0.00000000000E+00 -0.82768495264E+03  0.26375237494E+04  0.25042901485E+04 0.  0.
        2    1    3    3  502    0 -0.27951414050E+02 -0.12397591051E+04 -0.59651572557E+03  0.13760868181E+04  0.25500000920E-02 0. -1.
       -2    1    3    3    0  502  0.27951414050E+02  0.12397591051E+04 -0.23116922707E+03  0.12614369313E+04  0.25500000920E-02 0.  1.
</event>
<event>
 5   0  0.2901250E-06  0.2478159E+04  0.7818609E-02  0.8410808E-01
       -3   -1    0    0    0  501  0.00000000000E+00  0.00000000000E+00  0.13089878628E+04  0.13089878667E+04  0.10100000352E+00 0.  1.
        3   -1    0    0  501    0  0.00000000000E+00  0.00000000000E+00 -0.11729045751E+04  0.11729045794E+04  0.10100000352E+00 0. -1.
    10030    2    1    2    0    0  0.00000000000E+00  0.00000000000E+00  0.13608328773E+03  0.24818924461E+04  0.24781588837E+04 0.  0.
        5    1    3    3  502    0  0.11070742374E+04 -0.50938261883E+03 -0.15637574519E+03  0.12286413159E+04  0.46999998093E+01 0. -1.
       -5    1    3    3    0  502 -0.11070742374E+04  0.50938261883E+03  0.29245903292E+03  0.12532511302E+04  0.46999998093E+01 0.  1.
</event>
<event>
 5   0  0.8354653E-06  0.2473359E+04  0.7818609E-02  0.8412538E-01
        2   -1    0    0  501    0  0.00000000000E+00  0.00000000000E+00  0.14577024969E+04  0.14577024969E+04  0.25500000920E-02 0.  1.
       -2   -1    0    0    0  501  0.00000000000E+00  0.00000000000E+00 -0.10491689476E+04  0.10491689476E+04  0.25500000920E-02 0. -1.
    10030    2    1    2    0    0  0.00000000000E+00  0.00000000000E+00  0.40853354935E+03  0.25068714446E+04  0.24733590072E+04 0.  0.
        3    1    3    3  502    0  0.55848142703E+03 -0.16439112223E+03  0.13101277385E+04  0.14336529032E+04  0.10100000352E+00 0.  1.
       -3    1    3    3    0  502 -0.55848142703E+03  0.16439112223E+03 -0.90159418916E+03  0.10732185414E+04  0.10100000352E+00 0. -1.
</event>
<event>
 5   0  0.3522870E-06  0.2482592E+04  0.7818609E-02  0.8409214E-01
        1   -1    0    0  501    0  0.00000000000E+00  0.00000000000E+00  0.19777070838E+04  0.19777070838E+04  0.50400001928E-02 0.  1.
       -1   -1    0    0    0  501  0.00000000000E+00  0.00000000000E+00 -0.77909169663E+03  0.77909169664E+03  0.50400001928E-02 0. -1.
    10030    2    1    2    0    0  0.00000000000E+00  0.00000000000E+00  0.11986153872E+04  0.27567987805E+04  0.24825915229E+04 0.  0.
        2    1    3    3  502    0 -0.10896048794E+04  0.33324903999E+03  0.11461660834E+04  0.16161653401E+04  0.25500000920E-02 0. -1.
       -2    1    3    3    0  502  0.10896048794E+04 -0.33324903999E+03  0.52449303854E+02  0.11406334404E+04  0.25500000920E-02 0.  1.
</event>
<event>
 5   0  0.3424193E-06  0.2509115E+04  0.7818609E-02  0.8399745E-01
       -1   -1    0    0    0  501  0.00000000000E+00  0.00000000000E+00  0.12415869377E+04  0.12415869377E+04  0.50400001928E-02 0.  1.
        1   -1    0    0  501    0  0.00000000000E+00  0.00000000000E+00 -0.12676636704E+04  0.12676636704E+04  0.50400001928E-02 0. -1.
    10030    2    1    2    0    0  0.00000000000E+00  0.00000000000E+00 -0.26076732718E+02  0.25092506082E+04  0.25091151067E+04 0.  0.
        1    1    3    3  502    0 -0.11050064564E+04 -0.59368861105E+03  0.71918901757E+01  0.12544150664E+04  0.50400001928E-02 0. -1.
       -1    1    3    3    0  502  0.11050064564E+04  0.59368861105E+03 -0.33268622894E+02  0.12548355417E+04  0.50400001928E-02 0.  1.
</event>
<event>
 5   0  0.8056723E-06  0.2502345E+04  0.7818609E-02  0.8402151E-01
        2   -1    0    0  501    0  0.00000000000E+00  0.00000000000E+00  0.18053264938E+04  0.18053264938E+04  0.25500000920E-02 0. -1.
       -2   -1    0    0    0  501  0.00000000000E+00  0.00000000000E+00 -0.86711873565E+03  0.86711873565E+03  0.25500000920E-02 0.  1.
    10030    2    1    2    0    0  0.00000000000E+00  0.00000000000E+00  0.93820775817E+03  0.26724452295E+04  0.25023448417E+04 0.  0.
        2    1    3    3  502    0  0.11501495560E+04  0.43373257611E+03  0.71834421475E+03  0.14237227116E+04  0.25500000920E-02 0. -1.
       -2    1    3    3    0  502 -0.11501495560E+04 -0.43373257611E+03  0.21986354342E+03  0.12487225178E+04  0.25500000920E-02 0.  1.
</event>
<event>
 5   0  0.8407986E-06  0.2463342E+04  0.7818609E-02  0.8416163E-01
       -2   -1    0    0    0  501  0.00000000000E+00  0.00000000000E+00  0.12314758701E+04  0.12314758701E+04  0.25500000920E-02 0. -1.
        2   -1    0    0  501    0  0.00000000000E+00  0.00000000000E+00 -0.12318664222E+04  0.12318664222E+04  0.25500000920E-02 0.  1.
    10030    2    1    2    0    0  0.00000000000E+00  0.00000000000E+00 -0.39055216158E+00  0.24633422923E+04  0.24633422613E+04 0.  0.
        5    1    3    3  502    0  0.38848360925E+02  0.95834180029E+03  0.77250356422E+03  0.12315486381E+04  0.46999998093E+01 0. -1.
       -5    1    3    3    0  502 -0.38848360925E+02 -0.95834180029E+03 -0.77289411638E+03  0.12317936542E+04  0.46999998093E+01 0.  1.
</event>
<event>
 5   0  0.2901250E-06  0.2513232E+04  0.7818609E-02  0.8398287E-01
        4   -1    0    0  501    0  0.00000000000E+00  0.00000000000E+00  0.20783873777E+04  0.20783877658E+04  0.12699999809E+01 0. -1.
       -4   -1    0    0    0  501  0.00000000000E+00  0.00000000000E+00 -0.75976279196E+03  0.75976385341E+03  0.12699999809E+01 0.  1.
    10030    2    1    2    0    0  0.00000000000E+00  0.00000000000E+00  0.13186245858E+04  0.28381516192E+04  0.25132317472E+04 0.  0.
        5    1    3    3  502    0  0.77638704125E+03  0.32001909519E+03 -0.39635494403E+03  0.92860561638E+03  0.46999998093E+01 0.  1.
       -5    1    3    3    0  502 -0.77638704125E+03 -0.32001909519E+03  0.17149795298E+04  0.19095460028E+04  0.46999998093E+01 0. -1.
</event>
<event>
 5   0  0.3642184E-06  0.2498730E+04  0.7818609E-02  0.8403438E-01
       -1   -1    0    0    0  501  0.00000000000E+00  0.00000000000E+00  0.86853821394E+03  0.86853821396E+03  0.50400001928E-02 0. -1.
        1   -1    0    0  501    0  0.00000000000E+00  0.00000000000E+00 -0.17971719147E+04  0.17971719147E+04  0.50400001928E-02 0.  1.
    10030    2    1    2    0    0  0.00000000000E+00  0.00000000000E+00 -0.92863370080E+03  0.26657101287E+04  0.24987296652E+04 0.  0.
        5    1    3    3  502    0  0.31800381243E+03  0.11930950253E+04 -0.66754157654E+03  0.14036509575E+04  0.46999998093E+01 0.  1.
       -5    1    3    3    0  502 -0.31800381243E+03 -0.11930950253E+04 -0.26109212426E+03  0.12620591712E+04  0.46999998093E+01 0. -1.
</event>
<event>
 5   0  0.8948286E-06  0.2510449E+04  0.7818609E-02  0.8399272E-01
       -2   -1    0    0    0  501  0.00000000000E+00  0.00000000000E+00  0.12016888602E+04  0.12016888602E+04  0.25500000920E-02 0.  1.
        2   -1    0    0  501    0  0.00000000000E+00  0.00000000000E+00 -0.13111455166E+04  0.13111455166E+04  0.25500000920E-02 0. -1.
    10030    2    1    2    0    0  0.00000000000E+00  0.00000000000E+00 -0.10945665644E+03  0.25128343768E+04  0.25104493315E+04 0.  0.
        4    1    3    3  502    0 -0.53600016152E+02  0.20945578670E+03  0.11829101431E+04  0.12025068431E+04  0.12699999809E+01 0.  1.
       -4    1    3    3    0  502  0.53600016152E+02 -0.20945578670E+03 -0.12923667995E+04  0.13103275337E+04  0.12699999809E+01 0. -1.
</event>
<event>
 5   0  0.3484857E-06  0.2495110E+04  0.7818609E-02  0.8404730E-01
        1   -1    0    0  501    0  0.00000000000E+00  0.00000000000E+00  0.11926891756E+04  0.11926891756E+04  0.50400001928E-02 0.  1.
       -1   -1    0    0    0  501  0.00000000000E+00  0.00000000000E+00 -0.13049448777E+04  0.13049448777E+04  0.50400001928E-02 0. -1.
    10030    2    1    2    0    0  0.00000000000E+00  0.00000000000E+00 -0.11225570207E+03  0.24976340534E+04  0.24951101222E+04 0.  0.
        3    1    3    3  502    0 -0.78779073498E+03  0.90281027636E+03  0.29166133974E+03  0.12331857056E+04  0.10100000352E+00 0. -1.
       -3    1    3    3    0  502  0.78779073498E+03 -0.90281027636E+03 -0.40391704181E+03  0.12644483477E+04  0.10100000352E+00 0.  1.
</event>
<event>
 5   0  0.3522870E-06  0.2504741E+04  0.7818609E-02  0.8401298E-01
        1   -1    0    0  501    0  0.00000000000E+00  0.00000000000E+00  0.20618204393E+04  0.20618204393E+04  0.50400001928E-02 0.  1.
       -1   -1    0    0    0  501  0.00000000000E+00  0.00000000000E+00 -0.76070255421E+03  0.76070255423E+03  0.50400001928E-02 0. -1.
    10030    2    1    2    0    0  0.00000000000E+00  0.00000000000E+00  0.13011178851E+04  0.28225229935E+04  0.25047411639E+04 0.  0.
        2    1    3    3  502    0 -0.37510689713E+03 -0.16209866030E+03  0.19845827525E+04  0.20262156502E+04  0.25500000920E-02 0.  1.
       -2    1    3    3    0  502  0.37510689713E+03  0.16209866030E+03 -0.68346486740E+03  0.79630734326E+03  0.25500000920E-02 0. -1.
</event>
<event>
 5   0  0.8056723E-06  0.2482432E+04  0.7818609E-02  0.8409271E-01
        2   -1    0    0  501    0  0.00000000000E+00  0.00000000000E+00  0.12749635514E+04  0.12749635514E+04  0.25500000920E-02 0. -1.
       -2   -1    0    0    0  501  0.00000000000E+00  0.00000000000E+00 -0.12083613559E+04  0.12083613559E+04  0.25500000920E-02 0.  1.
    10030    2    1    2    0    0  0.00000000000E+00  0.00000000000E+00  0.66602195515E+02  0.24833249074E+04  0.24824316190E+04 0.  0.
        2    1    3    3  502    0 -0.29229696595E+03  0.11436736112E+04 -0.35049023925E+03  0.12313692594E+04  0.25500000920E-02 0. -1.
       -2    1    3    3    0  502  0.29229696595E+03 -0.11436736112E+04  0.41709243476E+03  0.12519556479E+04  0.25500000920E-02 0.  1.
</event>
<event>
 5   0  0.8354653E-06  0.2502029E+04  0.7818609E-02  0.8402263E-01
       -2   -1    0    0    0  501  0.00000000000E+00  0.00000000000E+00  0.24251044173E+04  0.24251044173E+04  0.25500000920E-02 0.  1.
        2   -1    0    0  501    0  0.00000000000E+00  0.00000000000E+00 -0.64534817451E+03  0.64534817451E+03  0.25500000920E-02 0. -1.
    10030    2    1    2    0    0  0.00000000000E+00  0.00000000000E+00  0.17797562428E+04  0.30704525918E+04  0.25020285439E+04 0.  0.
        3    1    3    3  502    0  0.10999495343E+04  0.13598318550E+03  0.17783957455E+03  0.11225004807E+04  0.10100000352E+00 0. -1.
       -3    1    3    3    0  502 -0.10999495343E+04 -0.13598318550E+03  0.16019166682E+04  0.19479521110E+04  0.10100000352E+00 0.  1.
</event>
<event>
 5   0  0.3481387E-06  0.2514933E+04  0.7818609E-02  0.8397685E-01
       -1   -1    0    0    0  501  0.00000000000E+00  0.00000000000E+00  0.10024965339E+04  0.10024965339E+04  0.50400001928E-02 0. -1.
        1   -1    0    0  501    0  0.00000000000E+00  0.00000000000E+00 -0.15772845932E+04  0.15772845932E+04  0.50400001928E-02 0.  1.
    10030    2    1    2    0    0  0.00000000000E+00  0.00000000000E+00 -0.57478805931E+03  0.25797811271E+04  0.25149332696E+04 0.  0.
        4    1    3    3  502    0 -0.34854606374E+02 -0.55932557877E+02  0.10007231241E+04  0.10028916584E+04  0.12699999809E+01 0. -1.
       -4    1    3    3    0  502  0.34854606374E+02  0.55932557877E+02 -0.15755111834E+04  0.15768894687E+04  0.12699999809E+01 0.  1.
</event>
<event>
 5   0  0.8354653E-06  0.2477419E+04  0.7818609E-02  0.8411075E-01
        2   -1    0    0  501    0  0.00000000000E+00  0.00000000000E+00  0.23375746758E+04  0.23375746758E+04  0.25500000920E-02 0. -1.
       -2   -1    0    0    0  501  0.00000000000E+00  0.00000000000E+00 -0.65640728961E+03  0.65640728961E+03  0.25500000920E-02 0.  1.
    10030    2    1    2    0    0  0.00000000000E+00  0.00000000000E+00  0.16811673862E+04  0.29939819654E+04  0.24774188642E+04 0.  0.
        3    1    3    3  502    0 -0.42621818944E+03  0.42758448053E+03 -0.46656827269E+03  0.76300484683E+03  0.10100000352E+00 0.  1.
       -3    1    3    3    0  502  0.42621818944E+03 -0.42758448053E+03  0.21477356589E+04  0.22309771186E+04  0.10100000352E+00 0. -1.
</event>
<event>
 5   0  0.3484857E-06  0.2495118E+04  0.7818609E-02  0.8404727E-01
       -1   -1    0    0    0  501  0.00000000000E+00  0.00000000000E+00  0.14276422411E+04  0.14276422411E+04  0.50400001928E-02 0.  1.
        1   -1    0    0  501    0  0.00000000000E+00  0.00000000000E+00 -0.10901918447E+04  0.10901918447E+04  0.50400001928E-02 0. -1.
    10030    2    1    2    0    0  0.00000000000E+00  0.00000000000E+00  0.33745039645E+03  0.25178340858E+04  0.24951183767E+04 0.  0.
        3    1    3    3  502    0 -0.23387423852E+03  0.11514789937E+04 -0.25438057736E+03  0.12022106807E+04  0.10100000352E+00 0.  1.
       -3    1    3    3    0  502  0.23387423852E+03 -0.11514789937E+04  0.59183097381E+03  0.13156234051E+04  0.10100000352E+00 0. -1.
</event>
<event>
 5   0  0.8056723E-06  0.2555408E+04  0.7818609E-02  0.8383508E-01
       -2   -1    0    0    0  501  0.00000000000E+00  0.00000000000E+00  0.11637821784E+04  0.11637821784E+04  0.25500000920E-02 0. -1.
        2   -1    0    0  501    0  0.00000000000E+00  0.00000000000E+00 -0.14027771703E+04  0.14027771703E+04  0.25500000920E-02 0.  1.
    10030    2    1    2    0    0  0.00000000000E+00  0.00000000000E+00 -0.23899499186E+03  0.25665593487E+04  0.25554076552E+04 0.  0.
        2    1    3    3  502    0  0.18887423598E+03  0.10300698214E+04  0.61568715062E+03  0.12148201436E+04  0.25500000920E-02 0. -1.
       -2    1    3    3    0  502 -0.18887423598E+03 -0.10300698214E+04 -0.85468214248E+03  0.13517392051E+04  0.25500000920E-02 0.  1.
</event>
<event>
 5   0  0.8354653E-06  0.2509897E+04  0.7818609E-02  0.8399468E-01
        2   -1    0    0  501    0  0.00000000000E+00  0.00000000000E+00  0.11670671308E+04  0.11670671308E+04  0.25500000920E-02 0. -1.
       -2   -1    0    0    0  501  0.00000000000E+00  0.00000000000E+00 -0.13494472388E+04  0.13494472389E+04  0.25500000920E-02 0.  1.
    10030    2    1    2    0    0  0.00000000000E+00  0.00000000000E+00 -0.18238010808E+03  0.25165143696E+04  0.25098968243E+04 0.  0.
        3    1    3    3  502    0  0.60175878227E+03  0.28609204781E+03 -0.11574473729E+04  0.13355323744E+04  0.10100000352E+00 0.  1.
       -3    1    3    3    0  502 -0.60175878227E+03 -0.28609204781E+03  0.97506726482E+03  0.11809819952E+04  0.10100000352E+00 0. -1.
</event>
<event>
 5   0  0.8579923E-06  0.2500814E+04  0.7818609E-02  0.8402696E-01
       -2   -1    0    0    0  501  0.00000000000E+00  0.00000000000E+00  0.12649806311E+04  0.12649806311E+04  0.25500000920E-02 0.  1.
        2   -1    0    0  501    0  0.00000000000E+00  0.00000000000E+00 -0.12360012124E+04  0.12360012124E+04  0.25500000920E-02 0. -1.
    10030    2    1    2    0    0  0.00000000000E+00  0.00000000000E+00  0.28979418646E+02  0.25009818435E+04  0.25008139425E+04 0.  0.
        1    1    3    3  502    0 -0.67661650982E+03  0.88178013977E+03 -0.55841128109E+03  0.12438525938E+04  0.50400001928E-02 0. -1.
       -1    1    3    3    0  502  0.67661650982E+03 -0.88178013977E+03  0.58739069974E+03  0.12571292497E+04  0.50400001928E-02 0.  1.
</event>
<event>
 5   0  0.3424193E-06  0.2477323E+04  0.7818609E-02  0.8411109E-01
        1   -1    0    0  501    0  0.00000000000E+00  0.00000000000E+00  0.93509109213E+03  0.93509109214E+03  0.50400001928E-02 0. -1.
       -1   -1    0    0    0  501  0.00000000000E+00  0.00000000000E+00 -0.16407833575E+04  0.16407833575E+04  0.50400001928E-02 0.  1.
    10030    2    1    2    0    0  0.00000000000E+00  0.00000000000E+00 -0.70569226540E+03  0.25758744497E+04  0.24773226692E+04 0.  0.
        1    1    3    3  502    0 -0.72290256635E+03 -0.45507160621E+03 -0.12855270780E+04  0.15434565609E+04  0.50400001928E-02 0.  1.
       -1    1    3    3    0  502  0.72290256635E+03  0.45507160621E+03  0.57983481255E+03  0.10324178888E+04  0.50400001928E-02 0. -1.
</event>
<event>
 5   0  0.8354653E-06  0.2490864E+04  0.7818609E-02  0.8406248E-01
       -2   -1    0    0    0  501  0.00000000000E+00  0.00000000000E+00  0.43351514444E+03  0.43351514444E+03  0.25500000920E-02 0. -1.
        2   -1    0    0  501    0  0.00000000000E+00  0.00000000000E+00 -0.35779618710E+04  0.35779618710E+04  0.25500000920E-02 0.  1.
    10030    2    1    2    0    0  0.00000000000E+00  0.00000000000E+00 -0.31444467265E+04  0.40114770154E+04  0.24908638319E+04 0.  0.
        3    1    3    3  502    0  0.72125803007E+03  0.64412419221E+03 -0.28362076950E+04  0.29965285282E+04  0.10100000352E+00 0.  1.
       -3    1    3    3    0  502 -0.72125803007E+03 -0.64412419221E+03 -0.30823903152E+03  0.10149484872E+04  0.10100000352E+00 0. -1.
</event>
<event>
 5   0  0.3481387E-06  0.2499326E+04  0.7818609E-02  0.8403226E-01
        1   -1    0    0  501    0  0.00000000000E+00  0.00000000000E+00  0.16195953704E+04  0.16195953704E+04  0.50400001928E-02 0. -1.
       -1   -1    0    0    0  501  0.00000000000E+00  0.00000000000E+00 -0.96422704605E+03  0.96422704606E+03  0.50400001928E-02 0.  1.
    10030    2    1    2    0    0  0.00000000000E+00  0.00000000000E+00  0.65536832431E+03  0.25838224164E+04  0.24993260370E+04 0.  0.
        4    1    3    3  502    0 -0.59902411635E+03 -0.64012688363E+03  0.12483325388E+04  0.15254271728E+04  0.12699999809E+01 0. -1.
       -4    1    3    3    0  502  0.59902411635E+03  0.64012688363E+03 -0.59296421453E+03  0.10583952436E+04  0.12699999809E+01 0.  1.
</event>
<event>
 5   0  0.8407986E-06  0.2494063E+04  0.7818609E-02  0.8405104E-01
       -2   -1    0    0    0  501  0.00000000000E+00  0.00000000000E+00  0.11379357028E+04  0.11379357028E+04  0.25500000920E-02 0.  1.
        2   -1    0    0  501    0  0.00000000000E+00  0.00000000000E+00 -0.13665867937E+04  0.13665867937E+04  0.25500000920E-02 0. -1.
    10030    2    1    2    0    0  0.00000000000E+00  0.00000000000E+00 -0.22865109086E+03  0.25045224966E+04  0.24940632739E+04 0.  0.
        5    1    3    3  502    0 -0.23223983518E+03 -0.11589038628E+04  0.28492486284E+03  0.12158115691E+04  0.46999998093E+01 0.  1.
       -5    1    3    3    0  502  0.23223983518E+03  0.11589038628E+04 -0.51357595370E+03  0.12887109274E+04  0.46999998093E+01 0. -1.
</event>
<event>
 5   0  0.3481387E-06  0.2504379E+04  0.7818609E-02  0.8401427E-01
       -1   -1    0    0    0  501  0.00000000000E+00  0.00000000000E+00  0.70998390191E+03  0.70998390193E+03  0.50400001928E-02 0.  1.
        1   -1    0    0  501    0  0.00000000000E+00  0.00000000000E+00 -0.22084707178E+04  0.22084707178E+04  0.50400001928E-02 0. -1.
    10030    2    1    2    0    0  0.00000000000E+00  0.00000000000E+00 -0.14984868159E+04  0.29184546197E+04  0.25043790907E+04 0.  0.
        4    1    3    3  502    0  0.46776112356E+03  0.25404133993E+03  0.57157624919E+03  0.78104960959E+03  0.12699999809E+01 0.  1.
       -4    1    3    3    0  502 -0.46776112356E+03 -0.25404133993E+03 -0.20700630651E+04  0.21374050101E+04  0.12699999809E+01 0. -1.
</event>
<event>
 5   0  0.3484857E-06  0.2477497E+04  0.7818609E-02  0.8411046E-01
       -1   -1    0    0    0  501  0.00000000000E+00  0.00000000000E+00  0.16333411062E+04  0.16333411062E+04  0.50400001928E-02 0.  1.
        1   -1    0    0  501    0  0.00000000000E+00  0.00000000000E+00 -0.93948438462E+03  0.93948438464E+03  0.50400001928E-02 0. -1.
    10030    2    1    2    0    0  0.00000000000E+00  0.00000000000E+00  0.69385672159E+03  0.25728254909E+04  0.24774974987E+04 0.  0.
        3    1    3    3  502    0  0.10387049026E+03 -0.53612553854E+03 -0.80773480819E+03  0.97501548828E+03  0.10100000352E+00 0. -1.
       -3    1    3    3    0  502 -0.10387049026E+03  0.53612553854E+03  0.15015915298E+04  0.15978100026E+04  0.10100000352E+00 0.  1.
</event>
<event>
 5   0  0.8579923E-06  0.2536778E+04  0.7818609E-02  0.8389999E-01
       -2   -1    0    0    0  501  0.00000000000E+00  0.00000000000E+00  0.99576607139E+03  0.99576607140E+03  0.25500000920E-02 0.  1.
        2   -1    0    0  501    0  0.00000000000E+00  0.00000000000E+00 -0.16156511790E+04  0.16156511790E+04  0.25500000920E-02 0. -1.
    10030    2    1    2    0    0  0.00000000000E+00  0.00000000000E+00 -0.61988510757E+03  0.26114172504E+04  0.25367779779E+04 0.  0.
        1    1    3    3  502    0  0.10688648396E+04  0.67912986542E+03 -0.23627436307E+03  0.12882216402E+04  0.50400001928E-02 0.  1.
       -1    1    3    3    0  502 -0.10688648396E+04 -0.67912986542E+03 -0.38361074450E+03  0.13231956102E+04  0.50400001928E-02 0. -1.
</event>
<event>
 5   0  0.8948286E-06  0.2499212E+04  0.7818609E-02  0.8403266E-01
       -2   -1    0    0    0  501  0.00000000000E+00  0.00000000000E+00  0.75585210352E+03  0.75585210352E+03  0.25500000920E-02 0. -1.
        2   -1    0    0  501    0  0.00000000000E+00  0.00000000000E+00 -0.20658998307E+04  0.20658998307E+04  0.25500000920E-02 0.  1.
    10030    2    1    2    0    0  0.00000000000E+00  0.00000000000E+00 -0.13100477272E+04  0.28217519343E+04  0.24992116619E+04 0.  0.
        4    1    3    3  502    0  0.19090762416E+03  0.40140551528E+03  0.66357770092E+03  0.79869211009E+03  0.12699999809E+01 0. -1.
       -4    1    3    3    0  502 -0.19090762416E+03 -0.40140551528E+03 -0.19736254281E+04  0.20230598242E+04  0.12699999809E+01 0.  1.
</event>
<event>
 5   0  0.8354653E-06  0.2496698E+04  0.7818609E-02  0.8404163E-01
        2   -1    0    0  501    0  0.00000000000E+00  0.00000000000E+00  0.19876575324E+04  0.19876575324E+04  0.25500000920E-02 0.  1.
       -2   -1    0    0    0  501  0.00000000000E+00  0.00000000000E+00 -0.78402624845E+03  0.78402624846E+03  0.25500000920E-02 0. -1.
    10030    2    1    2    0    0  0.00000000000E+00  0.00000000000E+00  0.12036312839E+04  0.27716837808E+04  0.24966983625E+04 0.  0.
        3    1    3    3  502    0  0.83604563237E+03  0.24025591087E+02 -0.42698264211E+03  0.93907599016E+03  0.10100000352E+00 0.  1.
       -3    1    3    3    0  502 -0.83604563237E+03 -0.24025591087E+02  0.16306139260E+04  0.18326077906E+04  0.10100000352E+00 0. -1.
</event>
<event>
 5   0  0.3481387E-06  0.2498010E+04  0.7818609E-02  0.8403695E-01
       -1   -1    0    0    0  501  0.00000000000E+00  0.00000000000E+00  0.86927801998E+03  0.86927802000E+03  0.50400001928E-02 0. -1.
        1   -1    0    0  501    0  0.00000000000E+00  0.00000000000E+00 -0.17946086726E+04  0.17946086726E+04  0.50400001928E-02 0.  1.
    10030    2    1    2    0    0  0.00000000000E+00  0.00000000000E+00 -0.92533065260E+03  0.26638866926E+04  0.24980103071E+04 0.  0.
        4    1    3    3  502    0  0.49640047999E+02  0.10933020393E+04  0.17916316505E+03  0.11089970857E+04  0.12699999809E+01 0. -1.
       -4    1    3    3    0  502 -0.49640047999E+02 -0.10933020393E+04 -0.11044938176E+04  0.15548896069E+04  0.12699999809E+01 0.  1.
</event>
<event>
 5   0  0.3522870E-06  0.2472008E+04  0.7818609E-02  0.8413026E-01
       -1   -1    0    0    0  501  0.00000000000E+00  0.00000000000E+00  0.10678913387E+04  0.10678913387E+04  0.50400001928E-02 0. -1.
        1   -1    0    0  501    0  0.00000000000E+00  0.00000000000E+00 -0.14305822400E+04  0.14305822400E+04  0.50400001928E-02 0.  1.
    10030    2    1    2    0    0  0.00000000000E+00  0.00000000000E+00 -0.36269090130E+03  0.24984735787E+04  0.24720084008E+04 0.  0.
        2    1    3    3  502    0 -0.90034217850E+03 -0.44055304819E+03 -0.91227758759E+03  0.13553425484E+04  0.25500000920E-02 0.  1.
       -2    1    3    3    0  502  0.90034217850E+03  0.44055304819E+03  0.54958668629E+03  0.11431310303E+04  0.25500000920E-02 0. -1.
</event>
<event>
 5   0  0.8407986E-06  0.2497629E+04  0.7818609E-02  0.8403831E-01
        2   -1    0    0  501    0  0.00000000000E+00  0.00000000000E+00  0.93900848747E+03  0.93900848747E+03  0.25500000920E-02 0.  1.
       -2   -1    0    0    0  501  0.00000000000E+00  0.00000000000E+00 -0.16608339261E+04  0.16608339261E+04  0.25500000920E-02 0. -1.
    10030    2    1    2    0    0  0.00000000000E+00  0.00000000000E+00 -0.72182543868E+03  0.25998424136E+04  0.24976285976E+04 0.  0.
        5    1    3    3  502    0  0.37649962236E+03 -0.11533035543E+04 -0.66909315019E+03  0.13854850370E+04  0.46999998093E+01 0.  1.
       -5    1    3    3    0  502 -0.37649962236E+03  0.11533035543E+04 -0.52732288484E+02  0.12143573767E+04  0.46999998093E+01 0. -1.
</event>
<event>
 5   0  0.3424193E-06  0.2503961E+04  0.7818609E-02  0.8401576E-01
       -1   -1    0    0    0  501  0.00000000000E+00  0.00000000000E+00  0.11515119443E+04  0.11515119444E+04  0.50400001928E-02 0. -1.
        1   -1    0    0  501    0  0.00000000000E+00  0.00000000000E+00 -0.13612152979E+04  0.13612152979E+04  0.50400001928E-02 0.  1.
    10030    2    1    2    0    0  0.00000000000E+00  0.00000000000E+00 -0.20970335352E+03  0.25127272422E+04  0.25039614009E+04 0.  0.
        1    1    3    3  502    0 -0.54269262646E+02  0.61526324035E+03  0.98797941950E+03  0.11651597921E+04  0.50400001928E-02 0. -1.
       -1    1    3    3    0  502  0.54269262646E+02 -0.61526324035E+03 -0.11976827730E+04  0.13475674501E+04  0.50400001928E-02 0.  1.
</event>
<event>
 5   0  0.8354653E-06  0.2498340E+04  0.7818609E-02  0.8403577E-01
       -2   -1    0    0    0  501  0.00000000000E+00  0.00000000000E+00  0.88662592310E+03  0.88662592311E+03  0.25500000920E-02 0.  1.
        2   -1    0    0  501    0  0.00000000000E+00  0.00000000000E+00 -0.17599589348E+04  0.17599589348E+04  0.25500000920E-02 0. -1.
    10030    2    1    2    0    0  0.00000000000E+00  0.00000000000E+00 -0.87333301168E+03  0.26465848579E+04  0.24983396208E+04 0.  0.
        3    1    3    3  502    0 -0.71247623530E+03  0.88329182805E+03  0.11642370480E+03  0.11407810169E+04  0.10100000352E+00 0.  1.
       -3    1    3    3    0  502  0.71247623530E+03 -0.88329182805E+03 -0.98975671649E+03  0.15058038409E+04  0.10100000352E+00 0. -1.
</event>
<event>
 5   0  0.3522870E-06  0.2495923E+04  0.7818609E-02  0.8404439E-01
        1   -1    0    0  501    0  0.00000000000E+00  0.00000000000E+00  0.13092207041E+04  0.13092207042E+04  0.50400001928E-02 0.  1.
       -1   -1    0    0    0  501  0.00000000000E+00  0.00000000000E+00 -0.11895691121E+04  0.11895691122E+04  0.50400001928E-02 0. -1.
    10030    2    1    2    0    0  0.00000000000E+00  0.00000000000E+00  0.11965159200E+03  0.24987898163E+04  0.24959234849E+04 0.  0.
        2    1    3    3  502    0 -0.47514035228E+03  0.68996000652E+03 -0.86622584255E+03  0.12050520218E+04  0.25500000920E-02 0. -1.
       -2    1    3    3    0  502  0.47514035228E+03 -0.68996000652E+03  0.98587743454E+03  0.12937377945E+04  0.25500000920E-02 0.  1.
</event>
<event>
 5   0  0.3481387E-06  0.2502316E+04  0.7818609E-02  0.8402161E-01
        1   -1    0    0  501    0  0.00000000000E+00  0.00000000000E+00  0.15434126321E+04  0.15434126321E+04  0.50400001928E-02 0. -1.
       -1   -1    0    0    0  501  0.00000000000E+00  0.00000000000E+00 -0.10142436641E+04  0.10142436641E+04  0.50400001928E-02 0.  1.
    10030    2    1    2    0    0  0.00000000000E+00  0.00000000000E+00  0.52916896805E+03  0.25576562963E+04  0.25023161137E+04 0.  0.
        4    1    3    3  502    0 -0.86013494312E+03 -0.34428636430E+03  0.11240309363E+04  0.14566442186E+04  0.12699999809E+01 0. -1.
       -4    1    3    3    0  502  0.86013494312E+03  0.34428636430E+03 -0.59486196821E+03  0.11010120777E+04  0.12699999809E+01 0.  1.
</event>
<event>
 5   0  0.2901250E-06  0.2511116E+04  0.7818609E-02  0.8399036E-01
        3   -1    0    0  501    0  0.00000000000E+00  0.00000000000E+00  0.16364992915E+04  0.16364992946E+04  0.10100000352E+00 0.  1.
       -3   -1    0    0    0  501  0.00000000000E+00  0.00000000000E+00 -0.96329156835E+03  0.96329157365E+03  0.10100000352E+00 0. -1.
    10030    2    1    2    0    0  0.00000000000E+00  0.00000000000E+00  0.67320772311E+03  0.25997908682E+04  0.25111160706E+04 0.  0.
        4    1    3    3  502    0 -0.55708843680E+03  0.10044824005E+04 -0.18834362880E+03  0.11639619215E+04  0.12699999809E+01 0. -1.
       -4    1    3    3    0  502  0.55708843680E+03 -0.10044824005E+04  0.86155135191E+03  0.14358289467E+04  0.12699999809E+01 0.  1.
</event>
<event>
 5   0  0.8948286E-06  0.2497841E+04  0.7818609E-02  0.8403755E-01
        2   -1    0    0  501    0  0.00000000000E+00  0.00000000000E+00  0.12723995558E+04  0.12723995558E+04  0.25500000920E-02 0.  1.
       -2   -1    0    0    0  501  0.00000000000E+00  0.00000000000E+00 -0.12258744375E+04  0.12258744375E+04  0.25500000920E-02 0. -1.
    10030    2    1    2    0    0  0.00000000000E+00  0.00000000000E+00  0.46525118315E+02  0.24982739932E+04  0.24978407392E+04 0.  0.
        4    1    3    3  502    0 -0.69868193031E+03  0.10284226896E+03  0.10535225380E+04  0.12683234299E+04  0.12699999809E+01 0.  1.
       -4    1    3    3    0  502  0.69868193031E+03 -0.10284226896E+03 -0.10069974197E+04  0.12299505633E+04  0.12699999809E+01 0. -1.
</event>
<event>
 5   0  0.3642184E-06  0.2482327E+04  0.7818609E-02  0.8409309E-01
       -1   -1    0    0    0  501  0.00000000000E+00  0.00000000000E+00  0.15501216547E+04  0.15501216547E+04  0.50400001928E-02 0. -1.
        1   -1    0    0  501    0  0.00000000000E+00  0.00000000000E+00 -0.99378414906E+03  0.99378414907E+03  0.50400001928E-02 0.  1.
    10030    2    1    2    0    0  0.00000000000E+00  0.00000000000E+00  0.55633750567E+03  0.25439058038E+04  0.24823265938E+04 0.  0.
        5    1    3    3  502    0 -0.86168083682E+02 -0.85027062643E+03  0.12005401707E+04  0.14736702034E+04  0.46999998093E+01 0. -1.
       -5    1    3    3    0  502  0.86168083682E+02  0.85027062643E+03 -0.64420266504E+03  0.10702356004E+04  0.46999998093E+01 0.  1.
</event>
<event>
 5   0  0.8056723E-06  0.2503291E+04  0.7818609E-02  0.8401814E-01
        2   -1    0    0  501    0  0.00000000000E+00  0.00000000000E+00  0.18833680474E+04  0.18833680474E+04  0.25500000920E-02 0. -1.
       -2   -1    0    0    0  501  0.00000000000E+00  0.00000000000E+00 -0.83181654585E+03  0.83181654585E+03  0.25500000920E-02 0.  1.
    10030    2    1    2    0    0  0.00000000000E+00  0.00000000000E+00  0.10515515015E+04  0.27151845932E+04  0.25032911966E+04 0.  0.
        2    1    3    3  502    0  0.10776200184E+03  0.21840889284E+03  0.18574195469E+04  0.18733185706E+04  0.25500000920E-02 0. -1.
       -2    1    3    3    0  502 -0.10776200184E+03 -0.21840889284E+03 -0.80586804540E+03  0.84186602266E+03  0.25500000920E-02 0.  1.
</event>
<event>
 5   0  0.3522870E-06  0.2468396E+04  0.7818609E-02  0.8414332E-01
        1   -1    0    0  501    0  0.00000000000E+00  0.00000000000E+00  0.22060351141E+04  0.22060351141E+04  0.50400001928E-02 0. -1.
       -1   -1    0    0    0  501  0.00000000000E+00  0.00000000000E+00 -0.69048973977E+03  0.69048973979E+03  0.50400001928E-02 0.  1.
    10030    2    1    2    0    0  0.00000000000E+00  0.00000000000E+00  0.15155453743E+04  0.28965248539E+04  0.24683959260E+04 0.  0.
        2    1    3    3  502    0 -0.85147648972E+03  0.81538276569E+03  0.32921110149E+03  0.12240266404E+04  0.25500000920E-02 0.  1.
       -2    1    3    3    0  502  0.85147648972E+03 -0.81538276569E+03  0.11863342728E+04  0.16724982135E+04  0.25500000920E-02 0. -1.
</event>
<event>
 5   0  0.3424193E-06  0.2483871E+04  0.7818609E-02  0.8408754E-01
        1   -1    0    0  501    0  0.00000000000E+00  0.00000000000E+00  0.17025195042E+04  0.17025195042E+04  0.50400001928E-02 0. -1.
       -1   -1    0    0    0  501  0.00000000000E+00  0.00000000000E+00 -0.90595333732E+03  0.90595333733E+03  0.50400001928E-02 0.  1.
    10030    2    1    2    0    0  0.00000000000E+00  0.00000000000E+00  0.79656616685E+03  0.26084728415E+04  0.24838705495E+04 0.  0.
        1    1    3    3  502    0  0.57345833060E+03 -0.16496278263E+03  0.15421124044E+04  0.16535349541E+04  0.50400001928E-02 0. -1.
       -1    1    3    3    0  502 -0.57345833060E+03  0.16496278263E+03 -0.74554623752E+03  0.95493788745E+03  0.50400001928E-02 0.  1.
</event>
<event>
 5   0  0.8056723E-06  0.2504817E+04  0.7818609E-02  0.8401271E-01
       -2   -1    0    0    0  501  0.00000000000E+00  0.00000000000E+00  0.10274178966E+04  0.10274178966E+04  0.25500000920E-02 0.  1.
        2   -1    0    0  501    0  0.00000000000E+00  0.00000000000E+00 -0.15266690357E+04  0.15266690357E+04  0.25500000920E-02 0. -1.
    10030    2    1    2    0    0  0.00000000000E+00  0.00000000000E+00 -0.49925113913E+03  0.25540869323E+04  0.25048170308E+04 0.  0.
        2    1    3    3  502    0 -0.97275901509E+03  0.38236076915E+03  0.45392255819E+03  0.11395198761E+04  0.25500000920E-02 0.  1.
       -2    1    3    3    0  502  0.97275901509E+03 -0.38236076915E+03 -0.95317369732E+03  0.14145670562E+04  0.25500000920E-02 0. -1.
</event>
<event>
 5   0  0.8579923E-06  0.2500863E+04  0.7818609E-02  0.8402678E-01
       -2   -1    0    0    0  501  0.00000000000E+00  0.00000000000E+00  0.11360117462E+04  0.11360117462E+04  0.25500000920E-02 0.  1.
        2   -1    0    0  501    0  0.00000000000E+00  0.00000000000E+00 -0.13763762100E+04  0.13763762100E+04  0.25500000920E-02 0. -1.
    10030    2    1    2    0    0  0.00000000000E+00  0.00000000000E+00 -0.24036446381E+03  0.25123879562E+04  0.25008634843E+04 0.  0.
        1    1    3    3  502    0 -0.12277046245E+04  0.48343415959E+01  0.11818215623E+03  0.12333892484E+04  0.50400001928E-02 0.  1.
       -1    1    3    3    0  502  0.12277046245E+04 -0.48343415959E+01 -0.35854662004E+03  0.12789987079E+04  0.50400001928E-02 0. -1.
</event>
<event>
 5   0  0.3522870E-06  0.2499318E+04  0.7818609E-02  0.8403229E-01
        1   -1    0    0  501    0  0.00000000000E+00  0.00000000000E+00  0.86888346547E+03  0.86888346549E+03  0.50400001928E-02 0. -1.
       -1   -1    0    0    0  501  0.00000000000E+00  0.00000000000E+00 -0.17973034984E+04  0.17973034984E+04  0.50400001928E-02 0.  1.
    10030    2    1    2    0    0  0.00000000000E+00  0.00000000000E+00 -0.92842003289E+03  0.26661869639E+04  0.24993177407E+04 0.  0.
        2    1    3    3  502    0 -0.85944134697E+02 -0.10966540560E+04  0.16834778915E+03  0.11128241060E+04  0.25500000920E-02 0. -1.
       -2    1    3    3    0  502  0.85944134697E+02  0.10966540560E+04 -0.10967678220E+04  0.15533628579E+04  0.25500000920E-02 0.  1.
</event>
<event>
 5   0  0.3424193E-06  0.2486878E+04  0.7818609E-02  0.8407675E-01
        1   -1    0    0  501    0  0.00000000000E+00  0.00000000000E+00  0.51063318975E+03  0.51063318977E+03  0.50400001928E-02 0.  1.
       -1   -1    0    0    0  501  0.00000000000E+00  0.00000000000E+00 -0.30278879123E+04  0.30278879123E+04  0.50400001928E-02 0. -1.
    10030    2    1    2    0    0  0.00000000000E+00  0.00000000000E+00 -0.25172547226E+04  0.35385211021E+04  0.24868776109E+04 0.  0.
        1    1    3    3  502    0  0.90845700789E+03 -0.84697240352E+03 -0.11746453606E+04  0.17095169232E+04  0.50400001928E-02 0. -1.
       -1    1    3    3    0  502 -0.90845700789E+03  0.84697240352E+03 -0.13426093619E+04  0.18290041789E+04  0.50400001928E-02 0.  1.
</event>
<event>
 5   0  0.3481387E-06  0.2503736E+04  0.7818609E-02  0.8401656E-01
        1   -1    0    0  501    0  0.00000000000E+00  0.00000000000E+00  0.13477230482E+04  0.13477230482E+04  0.50400001928E-02 0.  1.
       -1   -1    0    0    0  501  0.00000000000E+00  0.00000000000E+00 -0.11628305331E+04  0.11628305331E+04  0.50400001928E-02 0. -1.
    10030    2    1    2    0    0  0.00000000000E+00  0.00000000000E+00  0.18489251506E+03  0.25105535813E+04  0.25037360169E+04 0.  0.
        4    1    3    3  502    0 -0.59915142386E+03  0.16149112044E+03  0.11826556505E+04  0.13355664758E+04  0.12699999809E+01 0.  1.
       -4    1    3    3    0  502  0.59915142386E+03 -0.16149112044E+03 -0.99776313546E+03  0.11749871055E+04  0.12699999809E+01 0. -1.
</event>
<event>
 5   0  0.8948286E-06  0.2495854E+04  0.7818609E-02  0.8404464E-01
        2   -1    0    0  501    0  0.00000000000E+00  0.00000000000E+00  0.15811967601E+04  0.15811967601E+04  0.25500000920E-02 0.  1.
       -2   -1    0    0    0  501  0.00000000000E+00  0.00000000000E+00 -0.98490087032E+03  0.98490087033E+03  0.25500000920E-02 0. -1.
    10030    2    1    2    0    0  0.00000000000E+00  0.00000000000E+00  0.59629588978E+03  0.25660976304E+04  0.24958542146E+04 0.  0.
        4    1    3    3  502    0 -0.97168224421E+03  0.26409073626E+03  0.10560582902E+04  0.14591679224E+04  0.12699999809E+01 0. -1.
       -4    1    3    3    0  502  0.97168224421E+03 -0.26409073626E+03 -0.45976240042E+03  0.11069297080E+04  0.12699999809E+01 0.  1.
</event>
<event>
 5   0  0.3484857E-06  0.2501624E+04  0.7818609E-02  0.8402407E-01
       -1   -1    0    0    0  501  0.00000000000E+00  0.00000000000E+00  0.14078900255E+04  0.14078900255E+04  0.50400001928E-02 0.  1.
        1   -1    0    0  501    0  0.00000000000E+00  0.00000000000E+00 -0.11112593966E+04  0.11112593966E+04  0.50400001928E-02 0. -1.
    10030    2    1    2    0    0  0.00000000000E+00  0.00000000000E+00  0.29663062895E+03  0.25191494221E+04  0.25016242885E+04 0.  0.
        3    1    3    3  502    0  0.36765048873E+03  0.42780820096E+03 -0.97590351317E+03  0.11271975940E+04  0.10100000352E+00 0. -1.
       -3    1    3    3    0  502 -0.36765048873E+03 -0.42780820096E+03  0.12725341421E+04  0.13919518281E+04  0.10100000352E+00 0.  1.
</event>
<event>
 5   0  0.3424193E-06  0.2496765E+04  0.7818609E-02  0.8404139E-01
        1   -1    0    0  501    0  0.00000000000E+00  0.00000000000E+00  0.11023598882E+04  0.11023598882E+04  0.50400001928E-02 0. -1.
       -1   -1    0    0    0  501  0.00000000000E+00  0.00000000000E+00 -0.14137479498E+04  0.14137479498E+04  0.50400001928E-02 0.  1.
    10030    2    1    2    0    0  0.00000000000E+00  0.00000000000E+00 -0.31138806156E+03  0.25161078380E+04  0.24967651327E+04 0.  0.
        1    1    3    3  502    0 -0.99778527989E+03 -0.27973383739E+03  0.54585470865E+03  0.11712317651E+04  0.50400001928E-02 0. -1.
       -1    1    3    3    0  502  0.99778527989E+03  0.27973383739E+03 -0.85724277021E+03  0.13448760730E+04  0.50400001928E-02 0.  1.
</event>
<event>
 5   0  0.3424193E-06  0.2497156E+04  0.7818609E-02  0.8403999E-01
       -1   -1    0    0    0  501  0.00000000000E+00  0.00000000000E+00  0.93814119748E+03  0.93814119749E+03  0.50400001928E-02 0.  1.
        1   -1    0    0  501    0  0.00000000000E+00  0.00000000000E+00 -0.16617403579E+04  0.16617403579E+04  0.50400001928E-02 0. -1.
    10030    2    1    2    0    0  0.00000000000E+00  0.00000000000E+00 -0.72359916042E+03  0.25998815554E+04  0.24971560538E+04 0.  0.
        1    1    3    3  502    0 -0.18727705964E+03 -0.77256325327E+03  0.64062689425E+03  0.10209453928E+04  0.50400001928E-02 0.  1.
       -1    1    3    3    0  502  0.18727705964E+03  0.77256325327E+03 -0.13642260547E+04  0.15789361626E+04  0.50400001928E-02 0. -1.
</event>
<event>
 5   0  0.8948286E-06  0.2502418E+04  0.7818609E-02  0.8402125E-01
        2   -1    0    0  501    0  0.00000000000E+00  0.00000000000E+00  0.19830166488E+04  0.19830166488E+04  0.25500000920E-02 0. -1.
       -2   -1    0    0    0  501  0.00000000000E+00  0.00000000000E+00 -0.78946556096E+03  0.78946556096E+03  0.25500000920E-02 0.  1.
    10030    2    1    2    0    0  0.00000000000E+00  0.00000000000E+00  0.11935510879E+04  0.27724822098E+04  0.25024175120E+04 0.  0.
        4    1    3    3  502    0 -0.51193293719E+03  0.50567985454E+03 -0.53728065396E+03  0.89803093571E+03  0.12699999809E+01 0.  1.
       -4    1    3    3    0  502  0.51193293719E+03 -0.50567985454E+03  0.17308317418E+04  0.18744512741E+04  0.12699999809E+01 0. -1.
</event>
<event>
 5   0  0.8354653E-06  0.2496281E+04  0.7818609E-02  0.8404312E-01
        2   -1    0    0  501    0  0.00000000000E+00  0.00000000000E+00  0.50153520914E+03  0.50153520915E+03  0.25500000920E-02 0. -1.
       -2   -1    0    0    0  501  0.00000000000E+00  0.00000000000E+00 -0.31061711532E+04  0.31061711532E+04  0.25500000920E-02 0.  1.
    10030    2    1    2    0    0  0.00000000000E+00  0.00000000000E+00 -0.26046359441E+04  0.36077063624E+04  0.24962805924E+04 0.  0.
        3    1    3    3  502    0  0.65919514661E+03 -0.29321393113E+03  0.16965103673E+03  0.74114380196E+03  0.10100000352E+00 0. -1.
       -3    1    3    3    0  502 -0.65919514661E+03  0.29321393113E+03 -0.27742869808E+04  0.28665625604E+04  0.10100000352E+00 0.  1.
</event>
<event>
 5   0  0.8407986E-06  0.2506013E+04  0.7818609E-02  0.8400846E-01
        2   -1    0    0  501    0  0.00000000000E+00  0.00000000000E+00  0.18300087138E+04  0.18300087138E+04  0.25500000920E-02 0.  1.
       -2   -1    0    0    0  501  0.00000000000E+00  0.00000000000E+00 -0.85793338977E+03  0.85793338978E+03  0.25500000920E-02 0. -1.
    10030    2    1    2    0    0  0.00000000000E+00  0.00000000000E+00  0.97207532406E+03  0.26879421036E+04  0.25060132315E+04 0.  0.
        5    1    3    3  502    0 -0.59878864974E+03 -0.76516445608E+03 -0.36258852942E+03  0.10370713686E+04  0.46999998093E+01 0. -1.
       -5    1    3    3    0  502  0.59878864974E+03  0.76516445608E+03  0.13346638535E+04  0.16508707350E+04  0.46999998093E+01 0.  1.
</event>
<event>
 5   0  0.8354653E-06  0.2507315E+04  0.7818609E-02  0.8400384E-01
        2   -1    0    0  501    0  0.00000000000E+00  0.00000000000E+00  0.11707205824E+04  0.11707205824E+04  0.25500000920E-02 0. -1.
       -2   -1    0    0    0  501  0.00000000000E+00  0.00000000000E+00 -0.13424694135E+04  0.13424694135E+04  0.25500000920E-02 0.  1.
    10030    2    1    2    0    0  0.00000000000E+00  0.00000000000E+00 -0.17174883107E+03  0.25131899959E+04  0.25073145584E+04 0.  0.
        3    1    3    3  502    0  0.10978584826E+04 -0.56102418546E+03  0.14184770466E+03  0.12410327014E+04  0.10100000352E+00 0. -1.
       -3    1    3    3    0  502 -0.10978584826E+04  0.56102418546E+03 -0.31359653573E+03  0.12721572945E+04  0.10100000352E+00 0.  1.
</event>
<event>
 5   0  0.3642184E-06  0.2404397E+04  0.7818609E-02  0.8437859E-01
        1   -1    0    0  501    0  0.00000000000E+00  0.00000000000E+00  0.77767380664E+03  0.77767380665E+03  0.50400001928E-02 0. -1.
       -1   -1    0    0    0  501  0.00000000000E+00  0.00000000000E+00 -0.18584664113E+04  0.18584664113E+04  0.50400001928E-02 0.  1.
    10030    2    1    2    0    0  0.00000000000E+00  0.00000000000E+00 -0.10807926046E+04  0.26361402179E+04  0.24043965136E+04 0.  0.
        5    1    3    3  502    0  0.31856428261E+02  0.10651896601E+04  0.69664629447E+02  0.10679508858E+04  0.46999998093E+01 0. -1.
       -5    1    3    3    0  502 -0.31856428261E+02 -0.10651896601E+04 -0.11504572341E+04  0.15681893321E+04  0.46999998093E+01 0.  1.
</event>
<event>
 5   0  0.8407986E-06  0.2483683E+04  0.7818609E-02  0.8408822E-01
       -2   -1    0    0    0  501  0.00000000000E+00  0.00000000000E+00  0.82921320492E+03  0.82921320492E+03  0.25500000920E-02 0. -1.
        2   -1    0    0  501    0  0.00000000000E+00  0.00000000000E+00 -0.18597999855E+04  0.18597999855E+04  0.25500000920E-02 0.  1.
    10030    2    1    2    0    0  0.00000000000E+00  0.00000000000E+00 -0.10305867806E+04  0.26890131904E+04  0.24836833184E+04 0.  0.
        5    1    3    3  502    0 -0.21539965881E+03 -0.83789469207E+03  0.44924728999E+03  0.97483831766E+03  0.46999998093E+01 0. -1.
       -5    1    3    3    0  502  0.21539965881E+03  0.83789469207E+03 -0.14798340706E+04  0.17141748728E+04  0.46999998093E+01 0.  1.
</event>
<event>
 5   0  0.8056723E-06  0.2417269E+04  0.7818609E-02  0.8433067E-01
        2   -1    0    0  501    0  0.00000000000E+00  0.00000000000E+00  0.14861295271E+04  0.14861295271E+04  0.25500000920E-02 0. -1.
       -2   -1    0    0    0  501  0.00000000000E+00  0.00000000000E+00 -0.98295422168E+03  0.98295422169E+03  0.25500000920E-02 0.  1.
    10030    2    1    2    0    0  0.00000000000E+00  0.00000000000E+00  0.50317530539E+03  0.24690837488E+04  0.24172689487E+04 0.  0.
        2    1    3    3  502    0  0.97855267910E+03 -0.66583853251E+03  0.50155979576E+03  0.12854837711E+04  0.25500000920E-02 0.  1.
       -2    1    3    3    0  502 -0.97855267910E+03  0.66583853251E+03  0.16155096317E+01  0.11835999776E+04  0.25500000920E-02 0. -1.
</event>
<event>
 5   0  0.8407986E-06  0.2500420E+04  0.7818609E-02  0.8402836E-01
        2   -1    0    0  501    0  0.00000000000E+00  0.00000000000E+00  0.11641640825E+04  0.11641640825E+04  0.25500000920E-02 0.  1.
       -2   -1    0    0    0  501  0.00000000000E+00  0.00000000000E+00 -0.13426161159E+04  0.13426161159E+04  0.25500000920E-02 0. -1.
    10030    2    1    2    0    0  0.00000000000E+00  0.00000000000E+00 -0.17845203341E+03  0.25067801984E+04  0.25004203316E+04 0.  0.
        5    1    3    3  502    0  0.14671309472E+03  0.10524624029E+04  0.57108534807E+03  0.12063840211E+04  0.46999998093E+01 0.  1.
       -5    1    3    3    0  502 -0.14671309472E+03 -0.10524624029E+04 -0.74953738148E+03  0.13003961773E+04  0.46999998093E+01 0. -1.
</event>
<event>
 5   0  0.3424193E-06  0.2476437E+04  0.7818609E-02  0.8411428E-01
        1   -1    0    0  501    0  0.00000000000E+00  0.00000000000E+00  0.20461713105E+04  0.20461713106E+04  0.50400001928E-02 0. -1.
       -1   -1    0    0    0  501  0.00000000000E+00  0.00000000000E+00 -0.74929473829E+03  0.74929473830E+03  0.50400001928E-02 0.  1.
    10030    2    1    2    0    0  0.00000000000E+00  0.00000000000E+00  0.12968765723E+04  0.27954660489E+04  0.24764372769E+04 0.  0.
        1    1    3    3  502    0 -0.89868956218E+03 -0.23487232033E+03 -0.27580561072E+03  0.96895648559E+03  0.50400001928E-02 0.  1.
       -1    1    3    3    0  502  0.89868956218E+03  0.23487232033E+03  0.15726821830E+04  0.18265095633E+04  0.50400001928E-02 0. -1.
</event>
<event>
 5   0  0.8056723E-06  0.2485181E+04  0.7818609E-02  0.8408284E-01
       -2   -1    0    0    0  501  0.00000000000E+00  0.00000000000E+00  0.20122062289E+04  0.20122062289E+04  0.25500000920E-02 0.  1.
        2   -1    0    0  501    0  0.00000000000E+00  0.00000000000E+00 -0.76733255336E+03  0.76733255336E+03  0.25500000920E-02 0. -1.
    10030    2    1    2    0    0  0.00000000000E+00  0.00000000000E+00  0.12448736755E+04  0.27795387822E+04  0.24851811552E+04 0.  0.
        2    1    3    3  502    0  0.11403016488E+04  0.43748538171E+03  0.36653513834E+03  0.12751585459E+04  0.25500000920E-02 0. -1.
       -2    1    3    3    0  502 -0.11403016488E+04 -0.43748538171E+03  0.87833853716E+03  0.15043802363E+04  0.25500000920E-02 0.  1.
</event>
<event>
 5   0  0.3642184E-06  0.2493948E+04  0.7818609E-02  0.8405145E-01
       -1   -1    0    0    0  501  0.00000000000E+00  0.00000000000E+00  0.83097880157E+03  0.83097880159E+03  0.50400001928E-02 0. -1.
        1   -1    0    0  501    0  0.00000000000E+00  0.00000000000E+00 -0.18712199962E+04  0.18712199962E+04  0.50400001928E-02 0.  1.
    10030    2    1    2    0    0  0.00000000000E+00  0.00000000000E+00 -0.10402411946E+04  0.27021987978E+04  0.24939479946E+04 0.  0.
        5    1    3    3  502    0  0.39978797995E+03 -0.12212828975E+03  0.75278790700E+03  0.86107924781E+03  0.46999998093E+01 0. -1.
       -5    1    3    3    0  502 -0.39978797995E+03  0.12212828975E+03 -0.17930291016E+04  0.18411195500E+04  0.46999998093E+01 0.  1.
</event>
<event>
 5   0  0.3484857E-06  0.2513373E+04  0.7818609E-02  0.8398237E-01
       -1   -1    0    0    0  501  0.00000000000E+00  0.00000000000E+00  0.13398468352E+04  0.13398468352E+04  0.50400001928E-02 0. -1.
        1   -1    0    0  501    0  0.00000000000E+00  0.00000000000E+00 -0.11786879462E+04  0.11786879462E+04  0.50400001928E-02 0.  1.
    10030    2    1    2    0    0  0.00000000000E+00  0.00000000000E+00  0.16115888895E+03  0.25185347814E+04  0.25133732826E+04 0.  0.
        3    1    3    3  502    0  0.36569265077E+03  0.11911892574E+04 -0.82845461990E+02  0.12488099706E+04  0.10100000352E+00 0. -1.
       -3    1    3    3    0  502 -0.36569265077E+03 -0.11911892574E+04  0.24400435094E+03  0.12697248108E+04  0.10100000352E+00 0.  1.
</event>
<event>
 5   0  0.8948286E-06  0.2482517E+04  0.7818609E-02  0.8409241E-01
        2   -1    0    0  501    0  0.00000000000E+00  0.00000000000E+00  0.16733808060E+04  0.16733808060E+04  0.25500000920E-02 0. -1.
       -2   -1    0    0    0  501  0.00000000000E+00  0.00000000000E+00 -0.92072423504E+03  0.92072423504E+03  0.25500000920E-02 0.  1.
    10030    2    1    2    0    0  0.00000000000E+00  0.00000000000E+00  0.75265657095E+03  0.25941050410E+04  0.24825166767E+04 0.  0.
        4    1    3    3  502    0 -0.89461099270E+03  0.85503082922E+03  0.47717596003E+03  0.13263125789E+04  0.12699999809E+01 0.  1.
       -4    1    3    3    0  502  0.89461099270E+03 -0.85503082922E+03  0.27548061092E+03  0.12677924621E+04  0.12699999809E+01 0. -1.
</event>
<event>
 5   0  0.3484857E-06  0.2492578E+04  0.7818609E-02  0.8405634E-01
        1   -1    0    0  501    0  0.00000000000E+00  0.00000000000E+00  0.15482913129E+04  0.15482913129E+04  0.50400001928E-02 0.  1.
       -1   -1    0    0    0  501  0.00000000000E+00  0.00000000000E+00 -0.10031939146E+04  0.10031939146E+04  0.50400001928E-02 0. -1.
    10030    2    1    2    0    0  0.00000000000E+00  0.00000000000E+00  0.54509739832E+03  0.25514852275E+04  0.24925781217E+04 0.  0.
        3    1    3    3  502    0  0.39565471283E+03  0.10002008318E+04 -0.37184600638E+03  0.11380746102E+04  0.10100000352E+00 0. -1.
       -3    1    3    3    0  502 -0.39565471283E+03 -0.10002008318E+04  0.91694340471E+03  0.14134106174E+04  0.10100000352E+00 0.  1.
</event>
<event>
 5   0  0.3481387E-06  0.2488125E+04  0.7818609E-02  0.8407228E-01
       -1   -1    0    0    0  501  0.00000000000E+00  0.00000000000E+00  0.11619037857E+04  0.11619037857E+04  0.50400001928E-02 0. -1.
        1   -1    0    0  501    0  0.00000000000E+00  0.00000000000E+00 -0.13320305550E+04  0.13320305550E+04  0.50400001928E-02 0.  1.
    10030    2    1    2    0    0  0.00000000000E+00  0.00000000000E+00 -0.17012676930E+03  0.24939343407E+04  0.24881248719E+04 0.  0.
        4    1    3    3  502    0  0.35637575816E+03  0.11848241570E+04  0.45154412145E+02  0.12380842047E+04  0.12699999809E+01 0.  1.
       -4    1    3    3    0  502 -0.35637575816E+03 -0.11848241570E+04 -0.21528118145E+03  0.12558501360E+04  0.12699999809E+01 0. -1.
</event>
<event>
 5   0  0.3484857E-06  0.2498717E+04  0.7818609E-02  0.8403443E-01
        1   -1    0    0  501    0  0.00000000000E+00  0.00000000000E+00  0.14539361613E+04  0.14539361613E+04  0.50400001928E-02 0. -1.
       -1   -1    0    0    0  501  0.00000000000E+00  0.00000000000E+00 -0.10735660370E+04  0.10735660371E+04  0.50400001928E-02 0.  1.
    10030    2    1    2    0    0  0.00000000000E+00  0.00000000000E+00  0.38037012425E+03  0.25275021984E+04  0.24987168570E+04 0.  0.
        3    1    3    3  502    0  0.27745316073E+03  0.18687201572E+03 -0.10274242157E+04  0.10805100351E+04  0.10100000352E+00 0.  1.
       -3    1    3    3    0  502 -0.27745316073E+03 -0.18687201572E+03  0.14077943400E+04  0.14469921633E+04  0.10100000352E+00 0. -1.
</event>
<event>
 5   0  0.8407986E-06  0.2482156E+04  0.7818609E-02  0.8409370E-01
       -2   -1    0    0    0  501  0.00000000000E+00  0.00000000000E+00  0.91377417990E+03  0.91377417990E+03  0.25500000920E-02 0. -1.
        2   -1    0    0  501    0  0.00000000000E+00  0.00000000000E+00 -0.16856185536E+04  0.16856185536E+04  0.25500000920E-02 0.  1.
    10030    2    1    2    0    0  0.00000000000E+00  0.00000000000E+00 -0.77184437366E+03  0.25993927335E+04  0.24821560881E+04 0.  0.
        5    1    3    3  502    0 -0.10564155113E+04  0.25516434795E+03 -0.10135015901E+04  0.14860451340E+04  0.46999998093E+01 0. -1.
       -5    1    3    3    0  502  0.10564155113E+04 -0.25516434795E+03  0.24165721644E+03  0.11133475995E+04  0.46999998093E+01 0.  1.
</event>
<event>
 5   0  0.3481387E-06  0.2485827E+04  0.7818609E-02  0.8408052E-01
       -1   -1    0    0    0  501  0.00000000000E+00  0.00000000000E+00  0.87592668961E+03  0.87592668962E+03  0.50400001928E-02 0. -1.
        1   -1    0    0  501    0  0.00000000000E+00  0.00000000000E+00 -0.17636566728E+04  0.17636566728E+04  0.50400001928E-02 0.  1.
    10030    2    1    2    0    0  0.00000000000E+00  0.00000000000E+00 -0.88772998320E+03  0.26395833624E+04  0.24858269860E+04 0.  0.
        4    1    3    3  502    0 -0.53737200822E+02 -0.89449593479E+03  0.47069930474E+03  0.10122105080E+04  0.12699999809E+01 0. -1.
       -4    1    3    3    0  502  0.53737200822E+02  0.89449593479E+03 -0.13584292879E+04  0.16273728544E+04  0.12699999809E+01 0.  1.
</event>
<event>
 5   0  0.3642184E-06  0.2482281E+04  0.7818609E-02  0.8409325E-01
        1   -1    0    0  501    0  0.00000000000E+00  0.00000000000E+00  0.18805386340E+04  0.18805386340E+04  0.50400001928E-02 0. -1.
       -1   -1    0    0    0  501  0.00000000000E+00  0.00000000000E+00 -0.81914258274E+03  0.81914258276E+03  0.50400001928E-02 0.  1.
    10030    2    1    2    0    0  0.00000000000E+00  0.00000000000E+00  0.10613960513E+04  0.26996812168E+04  0.24822806237E+04 0.  0.
        5    1    3    3  502    0  0.21558850101E+03 -0.41995640405E+03  0.17790806017E+04  0.18406497930E+04  0.46999998093E+01 0. -1.
       -5    1    3    3    0  502 -0.21558850101E+03  0.41995640405E+03 -0.71768455046E+03  0.85903142377E+03  0.46999998093E+01 0.  1.
</event>
<event>
 5   0  0.8407986E-06  0.2501040E+04  0.7818609E-02  0.8402615E-01
        2   -1    0    0  501    0  0.00000000000E+00  0.00000000000E+00  0.10854396358E+04  0.10854396358E+04  0.25500000920E-02 0. -1.
       -2   -1    0    0    0  501  0.00000000000E+00  0.00000000000E+00 -0.14407071772E+04  0.14407071772E+04  0.25500000920E-02 0.  1.
    10030    2    1    2    0    0  0.00000000000E+00  0.00000000000E+00 -0.35526754144E+03  0.25261468130E+04  0.25010403225E+04 0.  0.
        5    1    3    3  502    0 -0.64456756075E+03 -0.63778538207E+03  0.69213836849E+03  0.11407520086E+04  0.46999998093E+01 0. -1.
       -5    1    3    3    0  502  0.64456756075E+03  0.63778538207E+03 -0.10474059099E+04  0.13853948044E+04  0.46999998093E+01 0.  1.
</event>
<event>
 5   0  0.3642184E-06  0.2569775E+04  0.7818609E-02  0.8378541E-01
       -1   -1    0    0    0  501  0.00000000000E+00  0.00000000000E+00  0.16543198402E+04  0.16543198402E+04  0.50400001928E-02 0. -1.
        1   -1    0    0  501    0  0.00000000000E+00  0.00000000000E+00 -0.99795439747E+03  0.99795439748E+03  0.50400001928E-02 0.  1.
    10030    2    1    2    0    0  0.00000000000E+00  0.00000000000E+00  0.65636544274E+03  0.26522742377E+04  0.25697749002E+04 0.  0.
        5    1    3    3  502    0  0.10896568954E+04  0.28696817944E+02 -0.37390427978E+03  0.11523897594E+04  0.46999998093E+01 0.  1.
       -5    1    3    3    0  502 -0.10896568954E+04 -0.28696817944E+02  0.10302697225E+04  0.14998844783E+04  0.46999998093E+01 0. -1.
</event>
<event>
 5   0  0.8948286E-06  0.2503238E+04  0.7818609E-02  0.8401833E-01
       -2   -1    0    0    0  501  0.00000000000E+00  0.00000000000E+00  0.59531349490E+03  0.59531349491E+03  0.25500000920E-02 0. -1.
        2   -1    0    0  501    0  0.00000000000E+00  0.00000000000E+00 -0.26314704000E+04  0.26314704000E+04  0.25500000920E-02 0.  1.
    10030    2    1    2    0    0  0.00000000000E+00  0.00000000000E+00 -0.20361569051E+04  0.32267838949E+04  0.25032377758E+04 0.  0.
        4    1    3    3  502    0 -0.48195945758E+02 -0.12020966850E+04 -0.14631048294E+04  0.18942113515E+04  0.12699999809E+01 0.  1.
       -4    1    3    3    0  502  0.48195945758E+02  0.12020966850E+04 -0.57305207568E+03  0.13325725435E+04  0.12699999809E+01 0. -1.
</event>
<event>
 5   0  0.3481387E-06  0.2489004E+04  0.7818609E-02  0.8406913E-01
        1   -1    0    0  501    0  0.00000000000E+00  0.00000000000E+00  0.78906716844E+03  0.78906716846E+03  0.50400001928E-02 0. -1.
       -1   -1    0    0    0  501  0.00000000000E+00  0.00000000000E+00 -0.19628051587E+04  0.19628051587E+04  0.50400001928E-02 0.  1.
    10030    2    1    2    0    0  0.00000000000E+00  0.00000000000E+00 -0.11737379903E+04  0.27518723272E+04  0.24890039042E+04 0.  0.
        4    1    3    3  502    0 -0.73538830695E+03  0.99841028285E+03 -0.47004792097E+03  0.13261092398E+04  0.12699999809E+01 0.  1.
       -4    1    3    3    0  502  0.73538830695E+03 -0.99841028285E+03 -0.70369006932E+03  0.14257630874E+04  0.12699999809E+01 0. -1.
</event>
<event>
 5   0  0.3522870E-06  0.2490165E+04  0.7818609E-02  0.8406498E-01
        1   -1    0    0  501    0  0.00000000000E+00  0.00000000000E+00  0.82277237635E+03  0.82277237637E+03  0.50400001928E-02 0. -1.
       -1   -1    0    0    0  501  0.00000000000E+00  0.00000000000E+00 -0.18841546875E+04  0.18841546875E+04  0.50400001928E-02 0.  1.
    10030    2    1    2    0    0  0.00000000000E+00  0.00000000000E+00 -0.10613823112E+04  0.27069270639E+04  0.24901649983E+04 0.  0.
        2    1    3    3  502    0  0.67277256838E+03 -0.63248008569E+03 -0.14386043604E+04  0.17094550282E+04  0.25500000920E-02 0.  1.
       -2    1    3    3    0  502 -0.67277256838E+03  0.63248008569E+03  0.37722204926E+03  0.99747203571E+03  0.25500000920E-02 0. -1.
</event>
<event>
 5   0  0.3484857E-06  0.2510133E+04  0.7818609E-02  0.8399385E-01
        1   -1    0    0  501    0  0.00000000000E+00  0.00000000000E+00  0.84440577394E+03  0.84440577396E+03  0.50400001928E-02 0.  1.
       -1   -1    0    0    0  501  0.00000000000E+00  0.00000000000E+00 -0.18654436345E+04  0.18654436345E+04  0.50400001928E-02 0. -1.
    10030    2    1    2    0    0  0.00000000000E+00  0.00000000000E+00 -0.10210378605E+04  0.27098494085E+04  0.25101325670E+04 0.  0.
        3    1    3    3  502    0  0.14038081381E+03  0.46544342595E+03 -0.17596671551E+04  0.18255883607E+04  0.10100000352E+00 0. -1.
       -3    1    3    3    0  502 -0.14038081381E+03 -0.46544342595E+03  0.73862929456E+03  0.88426104778E+03  0.10100000352E+00 0.  1.
</event>
<event>
 5   0  0.8354653E-06  0.2506992E+04  0.7818609E-02  0.8400499E-01
       -2   -1    0    0    0  501  0.00000000000E+00  0.00000000000E+00  0.91033970824E+03  0.91033970825E+03  0.25500000920E-02 0.  1.
        2   -1    0    0  501    0  0.00000000000E+00  0.00000000000E+00 -0.17260069743E+04  0.17260069743E+04  0.25500000920E-02 0. -1.
    10030    2    1    2    0    0  0.00000000000E+00  0.00000000000E+00 -0.81566726603E+03  0.26363466825E+04  0.25069923697E+04 0.  0.
        3    1    3    3  502    0  0.10332223859E+04  0.70401402175E+03 -0.50229280233E+03  0.13473983491E+04  0.10100000352E+00 0. -1.
       -3    1    3    3    0  502 -0.10332223859E+04 -0.70401402175E+03 -0.31337446370E+03  0.12889483335E+04  0.10100000352E+00 0.  1.
</event>
<event>
 5   0  0.3522870E-06  0.2507700E+04  0.7818609E-02  0.8400248E-01
        1   -1    0    0  501    0  0.00000000000E+00  0.00000000000E+00  0.19360533990E+04  0.19360533990E+04  0.50400001928E-02 0.  1.
       -1   -1    0    0    0  501  0.00000000000E+00  0.00000000000E+00 -0.81203316701E+03  0.81203316702E+03  0.50400001928E-02 0. -1.
    10030    2    1    2    0    0  0.00000000000E+00  0.00000000000E+00  0.11240202320E+04  0.27480865661E+04  0.25076998011E+04 0.  0.
        2    1    3    3  502    0 -0.11578510143E+03  0.50629282228E+03  0.18126354376E+04  0.18855730804E+04  0.25500000920E-02 0.  1.
       -2    1    3    3    0  502  0.11578510143E+03 -0.50629282228E+03 -0.68861520561E+03  0.86251348570E+03  0.25500000920E-02 0. -1.
</event>
<event>
 5   0  0.3522870E-06  0.2471689E+04  0.7818609E-02  0.8413141E-01
        1   -1    0    0  501    0  0.00000000000E+00  0.00000000000E+00  0.15934457823E+04  0.15934457824E+04  0.50400001928E-02 0. -1.
       -1   -1    0    0    0  501  0.00000000000E+00  0.00000000000E+00 -0.95849646063E+03  0.95849646065E+03  0.50400001928E-02 0.  1.
    10030    2    1    2    0    0  0.00000000000E+00  0.00000000000E+00  0.63494932171E+03  0.25519422430E+04  0.24716894163E+04 0.  0.
        2    1    3    3  502    0  0.47658546884E+03  0.10333271140E+04  0.81522048694E+03  0.13998153721E+04  0.25500000920E-02 0. -1.
       -2    1    3    3    0  502 -0.47658546884E+03 -0.10333271140E+04 -0.18027116523E+03  0.11521268709E+04  0.25500000920E-02 0.  1.
</event>
<event>
 5   0  0.8407986E-06  0.2495874E+04  0.7818609E-02  0.8404457E-01
       -2   -1    0    0    0  501  0.00000000000E+00  0.00000000000E+00  0.93599893270E+03  0.93599893271E+03  0.25500000920E-02 0.  1.
        2   -1    0    0  501    0  0.00000000000E+00  0.00000000000E+00 -0.16638334091E+04  0.16638334091E+04  0.25500000920E-02 0. -1.
    10030    2    1    2    0    0  0.00000000000E+00  0.00000000000E+00 -0.72783447641E+03  0.25998323418E+04  0.24958736307E+04 0.  0.
        5    1    3    3  502    0 -0.11179112797E+04  0.53881374493E+03 -0.22699513578E+03  0.12615842273E+04  0.46999998093E+01 0. -1.
       -5    1    3    3    0  502  0.11179112797E+04 -0.53881374493E+03 -0.50083934063E+03  0.13382481145E+04  0.46999998093E+01 0.  1.
</event>
<event>
 5   0  0.8948286E-06  0.2496368E+04  0.7818609E-02  0.8404281E-01
        2   -1    0    0  501    0  0.00000000000E+00  0.00000000000E+00  0.11291525452E+04  0.11291525452E+04  0.25500000920E-02 0. -1.
       -2   -1    0    0    0  501  0.00000000000E+00  0.00000000000E+00 -0.13797635264E+04  0.13797635264E+04  0.25500000920E-02 0.  1.
    10030    2    1    2    0    0  0.00000000000E+00  0.00000000000E+00 -0.25061098123E+03  0.25089160716E+04  0.24963681600E+04 0.  0.
        4    1    3    3  502    0  0.20752911013E+03  0.42144301086E+03 -0.12875260845E+04  0.13705500991E+04  0.12699999809E+01 0.  1.
       -4    1    3    3    0  502 -0.20752911013E+03 -0.42144301086E+03  0.10369151033E+04  0.11383659725E+04  0.12699999809E+01 0. -1.
</event>
<event>
 5   0  0.3522870E-06  0.2559158E+04  0.7818609E-02  0.8382208E-01
        1   -1    0    0  501    0  0.00000000000E+00  0.00000000000E+00  0.12496022648E+04  0.12496022648E+04  0.50400001928E-02 0.  1.
       -1   -1    0    0    0  501  0.00000000000E+00  0.00000000000E+00 -0.13102751246E+04  0.13102751247E+04  0.50400001928E-02 0. -1.
    10030    2    1    2    0    0  0.00000000000E+00  0.00000000000E+00 -0.60672859828E+02  0.25598773895E+04  0.25591582705E+04 0.  0.
        2    1    3    3  502    0  0.99159642719E+03  0.59314318406E+03  0.51958204954E+03  0.12669048178E+04  0.25500000920E-02 0.  1.
       -2    1    3    3    0  502 -0.99159642719E+03 -0.59314318406E+03 -0.58025490937E+03  0.12929725717E+04  0.25500000920E-02 0. -1.
</event>
<event>
 5   0  0.3424193E-06  0.2485240E+04  0.7818609E-02  0.8408263E-01
       -1   -1    0    0    0  501  0.00000000000E+00  0.00000000000E+00  0.12809564591E+04  0.12809564591E+04  0.50400001928E-02 0. -1.
        1   -1    0    0  501    0  0.00000000000E+00  0.00000000000E+00 -0.12054305268E+04  0.12054305268E+04  0.50400001928E-02 0.  1.
    10030    2    1    2    0    0  0.00000000000E+00  0.00000000000E+00  0.75525932285E+02  0.24863869859E+04  0.24852396418E+04 0.  0.
        1    1    3    3  502    0 -0.18074011046E+03  0.68905607031E+03 -0.98086166588E+03  0.12122519801E+04  0.50400001928E-02 0.  1.
       -1    1    3    3    0  502  0.18074011046E+03 -0.68905607031E+03  0.10563875982E+04  0.12741350059E+04  0.50400001928E-02 0. -1.
</event>
<event>
 5   0  0.3484857E-06  0.2529275E+04  0.7818609E-02  0.8392630E-01
       -1   -1    0    0    0  501  0.00000000000E+00  0.00000000000E+00  0.15033443929E+04  0.15033443929E+04  0.50400001928E-02 0. -1.
        1   -1    0    0  501    0  0.00000000000E+00  0.00000000000E+00 -0.10638331994E+04  0.10638331994E+04  0.50400001928E-02 0.  1.
    10030    2    1    2    0    0  0.00000000000E+00  0.00000000000E+00  0.43951119358E+03  0.25671775923E+04  0.25292747382E+04 0.  0.
        3    1    3    3  502    0 -0.41419954225E+03 -0.32671517451E+03 -0.94681736769E+03  0.10838667833E+04  0.10100000352E+00 0.  1.
       -3    1    3    3    0  502  0.41419954225E+03  0.32671517451E+03  0.13863285613E+04  0.14833108090E+04  0.10100000352E+00 0. -1.
</event>
<event>
 5   0  0.8056723E-06  0.2496743E+04  0.7818609E-02  0.8404147E-01
       -2   -1    0    0    0  501  0.00000000000E+00  0.00000000000E+00  0.11492931597E+04  0.11492931597E+04  0.25500000920E-02 0.  1.
        2   -1    0    0  501    0  0.00000000000E+00  0.00000000000E+00 -0.13559910676E+04  0.13559910676E+04  0.25500000920E-02 0. -1.
    10030    2    1    2    0    0  0.00000000000E+00  0.00000000000E+00 -0.20669790799E+03  0.25052842273E+04  0.24967428851E+04 0.  0.
        2    1    3    3  502    0 -0.10961745413E+04 -0.12115308594E+03  0.48359191612E+03  0.12042166900E+04  0.25500000920E-02 0.  1.
       -2    1    3    3    0  502  0.10961745413E+04  0.12115308594E+03 -0.69028982411E+03  0.13010675373E+04  0.25500000920E-02 0. -1.
</event>
<event>
 5   0  0.3424193E-06  0.2491486E+04  0.7818609E-02  0.8406025E-01
       -1   -1    0    0    0  501  0.00000000000E+00  0.00000000000E+00  0.10454127193E+04  0.10454127193E+04  0.50400001928E-02 0. -1.
        1   -1    0    0  501    0  0.00000000000E+00  0.00000000000E+00 -0.14844618863E+04  0.14844618863E+04  0.50400001928E-02 0.  1.
    10030    2    1    2    0    0  0.00000000000E+00  0.00000000000E+00 -0.43904916699E+03  0.25298746057E+04  0.24914857715E+04 0.  0.
        1    1    3    3  502    0  0.92599754288E+02 -0.18672836112E+03  0.10275821304E+04  0.10485071436E+04  0.50400001928E-02 0. -1.
       -1    1    3    3    0  502 -0.92599754288E+02  0.18672836112E+03 -0.14666312974E+04  0.14813674621E+04  0.50400001928E-02 0.  1.
</event>
<event>
 5   0  0.8407986E-06  0.2500124E+04  0.7818609E-02  0.8402941E-01
       -2   -1    0    0    0  501  0.00000000000E+00  0.00000000000E+00  0.11755696325E+04  0.11755696325E+04  0.25500000920E-02 0.  1.
        2   -1    0    0  501    0  0.00000000000E+00  0.00000000000E+00 -0.13292748051E+04  0.13292748051E+04  0.25500000920E-02 0. -1.
    10030    2    1    2    0    0  0.00000000000E+00  0.00000000000E+00 -0.15370517258E+03  0.25048444377E+04  0.25001240723E+04 0.  0.
        5    1    3    3  502    0  0.23889209616E+03 -0.12269600973E+04 -0.88384760430E+02  0.12531298695E+04  0.46999998093E+01 0. -1.
       -5    1    3    3    0  502 -0.23889209616E+03  0.12269600973E+04 -0.65320412153E+02  0.12517145682E+04  0.46999998093E+01 0.  1.
</event>
<event>
 5   0  0.3484857E-06  0.2503684E+04  0.7818609E-02  0.8401674E-01
       -1   -1    0    0    0  501  0.00000000000E+00  0.00000000000E+00  0.13052197446E+04  0.13052197446E+04  0.50400001928E-02 0.  1.
        1   -1    0    0  501    0  0.00000000000E+00  0.00000000000E+00 -0.12006475375E+04  0.12006475375E+04  0.50400001928E-02 0. -1.
    10030    2    1    2    0    0  0.00000000000E+00  0.00000000000E+00  0.10457220707E+03  0.25058672821E+04  0.25036843829E+04 0.  0.
        3    1    3    3  502    0  0.59758936655E+03 -0.43792145989E+03  0.10622350635E+04  0.12950797645E+04  0.10100000352E+00 0.  1.
       -3    1    3    3    0  502 -0.59758936655E+03  0.43792145989E+03 -0.95766285643E+03  0.12107875176E+04  0.10100000352E+00 0. -1.
</event>
<event>
 5   0  0.8056723E-06  0.2495572E+04  0.7818609E-02  0.8404565E-01
        2   -1    0    0  501    0  0.00000000000E+00  0.00000000000E+00  0.17476043517E+04  0.17476043517E+04  0.25500000920E-02 0.  1.
       -2   -1    0    0    0  501  0.00000000000E+00  0.00000000000E+00 -0.89091638927E+03  0.89091638927E+03  0.25500000920E-02 0. -1.
    10030    2    1    2    0    0  0.00000000000E+00  0.00000000000E+00  0.85668796241E+03  0.26385207410E+04  0.24955715649E+04 0.  0.
        2    1    3    3  502    0  0.31336114860E+03  0.17324805119E+03  0.16921197186E+04  0.17295893266E+04  0.25500000920E-02 0.  1.
       -2    1    3    3    0  502 -0.31336114860E+03 -0.17324805119E+03 -0.83543175619E+03  0.90893141433E+03  0.25500000920E-02 0. -1.
</event>
<event>
 5   0  0.2901250E-06  0.2500950E+04  0.7818609E-02  0.8402647E-01
        3   -1    0    0  501    0  0.00000000000E+00  0.00000000000E+00  0.11918154270E+04  0.11918154312E+04  0.10100000352E+00 0. -1.
       -3   -1    0    0    0  501  0.00000000000E+00  0.00000000000E+00 -0.13120218751E+04  0.13120218790E+04  0.10100000352E+00 0.  1.
    10030    2    1    2    0    0  0.00000000000E+00  0.00000000000E+00 -0.12020644815E+03  0.25038373102E+04  0.25009501566E+04 0.  0.
        5    1    3    3  502    0  0.11673253602E+04  0.36862062748E+03  0.19540928859E+03  0.12396517832E+04  0.46999998093E+01 0. -1.
       -5    1    3    3    0  502 -0.11673253602E+04 -0.36862062748E+03 -0.31561573674E+03  0.12641855270E+04  0.46999998093E+01 0.  1.
</event>
<event>
 5   0  0.8407986E-06  0.2492259E+04  0.7818609E-02  0.8405748E-01
        2   -1    0    0  501    0  0.00000000000E+00  0.00000000000E+00  0.25431286554E+04  0.25431286554E+04  0.25500000920E-02 0.  1.
       -2   -1    0    0    0  501  0.00000000000E+00  0.00000000000E+00 -0.61060174169E+03  0.61060174170E+03  0.25500000920E-02 0. -1.
    10030    2    1    2    0    0  0.00000000000E+00  0.00000000000E+00  0.19325269137E+04  0.31537303971E+04  0.24922590446E+04 0.  0.
        5    1    3    3  502    0  0.94329371808E+03  0.15703479292E+03  0.19772888976E+04  0.21963962392E+04  0.46999998093E+01 0.  1.
       -5    1    3    3    0  502 -0.94329371808E+03 -0.15703479292E+03 -0.44761983907E+02  0.95733415794E+03  0.46999998093E+01 0. -1.
</event>
<event>
 5   0  0.3424193E-06  0.2424812E+04  0.7818609E-02  0.8430272E-01
        1   -1    0    0  501    0  0.00000000000E+00  0.00000000000E+00  0.14054161067E+04  0.14054161068E+04  0.50400001928E-02 0. -1.
       -1   -1    0    0    0  501  0.00000000000E+00  0.00000000000E+00 -0.10459028382E+04  0.10459028382E+04  0.50400001928E-02 0.  1.
    10030    2    1    2    0    0  0.00000000000E+00  0.00000000000E+00  0.35951326859E+03  0.24513189449E+04  0.24248123184E+04 0.  0.
        1    1    3    3  502    0 -0.38234186916E+03  0.11505375783E+04  0.18236764604E+03  0.12260424065E+04  0.50400001928E-02 0. -1.
       -1    1    3    3    0  502  0.38234186916E+03 -0.11505375783E+04  0.17714562255E+03  0.12252765385E+04  0.50400001928E-02 0.  1.
</event>
<event>
 5   0  0.3481387E-06  0.2508180E+04  0.7818609E-02  0.8400077E-01
       -1   -1    0    0    0  501  0.00000000000E+00  0.00000000000E+00  0.13224388371E+04  0.13224388372E+04  0.50400001928E-02 0.  1.
        1   -1    0    0  501    0  0.00000000000E+00  0.00000000000E+00 -0.11892738831E+04  0.11892738831E+04  0.50400001928E-02 0. -1.
    10030    2    1    2    0    0  0.00000000000E+00  0.00000000000E+00  0.13316495407E+03  0.25117127202E+04  0.25081801937E+04 0.  0.
        4    1    3    3  502    0 -0.12760150527E+03  0.49351958100E+03 -0.10808483115E+04  0.11950223455E+04  0.12699999809E+01 0. -1.
       -4    1    3    3    0  502  0.12760150527E+03 -0.49351958100E+03  0.12140132656E+04  0.13166903747E+04  0.12699999809E+01 0.  1.
</event>
<event>
 5   0  0.8354653E-06  0.2500282E+04  0.7818609E-02  0.8402885E-01
        2   -1    0    0  501    0  0.00000000000E+00  0.00000000000E+00  0.18093346481E+04  0.18093346481E+04  0.25500000920E-02 0.  1.
       -2   -1    0    0    0  501  0.00000000000E+00  0.00000000000E+00 -0.86377217650E+03  0.86377217650E+03  0.25500000920E-02 0. -1.
    10030    2    1    2    0    0  0.00000000000E+00  0.00000000000E+00  0.94556247163E+03  0.26731068246E+04  0.25002823257E+04 0.  0.
        3    1    3    3  502    0  0.10995406985E+04 -0.16126316714E+03 -0.13938550795E+03  0.11200106636E+04  0.10100000352E+00 0. -1.
       -3    1    3    3    0  502 -0.10995406985E+04  0.16126316714E+03  0.10849479796E+04  0.15530961610E+04  0.10100000352E+00 0.  1.
</event>
<event>
 5   0  0.3642184E-06  0.2480969E+04  0.7818609E-02  0.8409797E-01
        1   -1    0    0  501    0  0.00000000000E+00  0.00000000000E+00  0.18859360224E+04  0.18859360224E+04  0.50400001928E-02 0. -1.
       -1   -1    0    0    0  501  0.00000000000E+00  0.00000000000E+00 -0.81593523669E+03  0.81593523671E+03  0.50400001928E-02 0.  1.
    10030    2    1    2    0    0  0.00000000000E+00  0.00000000000E+00  0.10700007857E+04  0.27018712591E+04  0.24809688872E+04 0.  0.
        5    1    3    3  502    0  0.11511275807E+04 -0.40249807563E+02  0.10365081308E+04  0.15495437875E+04  0.46999998093E+01 0. -1.
       -5    1    3    3    0  502 -0.11511275807E+04  0.40249807563E+02  0.33492654916E+02  0.11523274717E+04  0.46999998093E+01 0.  1.
</event>
<event>
 5   0  0.8579923E-06  0.2519787E+04  0.7818609E-02  0.8395970E-01
        2   -1    0    0  501    0  0.00000000000E+00  0.00000000000E+00  0.12766126840E+04  0.12766126840E+04  0.25500000920E-02 0.  1.
       -2   -1    0    0    0  501  0.00000000000E+00  0.00000000000E+00 -0.12433933652E+04  0.12433933652E+04  0.25500000920E-02 0. -1.
    10030    2    1    2    0    0  0.00000000000E+00  0.00000000000E+00  0.33219318768E+02  0.25200060492E+04  0.25197870872E+04 0.  0.
        1    1    3    3  502    0  0.32013473676E+02 -0.12543500236E+04  0.13025446274E+03  0.12615011174E+04  0.50400001928E-02 0. -1.
       -1    1    3    3    0  502 -0.32013473676E+02  0.12543500236E+04 -0.97035143969E+02  0.12585049318E+04  0.50400001928E-02 0.  1.
</event>
<event>
 5   0  0.3424193E-06  0.2501720E+04  0.7818609E-02  0.8402373E-01
       -1   -1    0    0    0  501  0.00000000000E+00  0.00000000000E+00  0.11506526826E+04  0.11506526827E+04  0.50400001928E-02 0.  1.
        1   -1    0    0  501    0  0.00000000000E+00  0.00000000000E+00 -0.13597935717E+04  0.13597935717E+04  0.50400001928E-02 0. -1.
    10030    2    1    2    0    0  0.00000000000E+00  0.00000000000E+00 -0.20914088904E+03  0.25104462543E+04  0.25017195056E+04 0.  0.
        1    1    3    3  502    0 -0.43427431843E+03 -0.90480871980E+01  0.10725406098E+04  0.11571600629E+04  0.50400001928E-02 0.  1.
       -1    1    3    3    0  502  0.43427431843E+03  0.90480871980E+01 -0.12816814988E+04  0.13532861914E+04  0.50400001928E-02 0. -1.
</event>
<event>
 5   0  0.8056723E-06  0.2497798E+04  0.7818609E-02  0.8403771E-01
        2   -1    0    0  501    0  0.00000000000E+00  0.00000000000E+00  0.18220507614E+04  0.18220507614E+04  0.25500000920E-02 0.  1.
       -2   -1    0    0    0  501  0.00000000000E+00  0.00000000000E+00 -0.85604001503E+03  0.85604001503E+03  0.25500000920E-02 0. -1.
    10030    2    1    2    0    0  0.00000000000E+00  0.00000000000E+00  0.96601074632E+03  0.26780907764E+04  0.24977977189E+04 0.  0.
        2    1    3    3  502    0  0.10744741803E+03  0.10611193459E+04 -0.21368872915E+03  0.10877417372E+04  0.25500000920E-02 0. -1.
       -2    1    3    3    0  502 -0.10744741803E+03 -0.10611193459E+04  0.11796994755E+04  0.15903490392E+04  0.25500000920E-02 0.  1.
</event>
<event>
 5   0  0.3484857E-06  0.2488531E+04  0.7818609E-02  0.8407083E-01
       -1   -1    0    0    0  501  0.00000000000E+00  0.00000000000E+00  0.99401976065E+03  0.99401976067E+03  0.50400001928E-02 0.  1.
        1   -1    0    0  501    0  0.00000000000E+00  0.00000000000E+00 -0.15575105842E+04  0.15575105842E+04  0.50400001928E-02 0. -1.
    10030    2    1    2    0    0  0.00000000000E+00  0.00000000000E+00 -0.56349082353E+03  0.25515303449E+04  0.24885307297E+04 0.  0.
        3    1    3    3  502    0 -0.93093906903E+03  0.36769289713E+03 -0.10396132376E+04  0.14431359294E+04  0.10100000352E+00 0. -1.
       -3    1    3    3    0  502  0.93093906903E+03 -0.36769289713E+03  0.47612241403E+03  0.11083944154E+04  0.10100000352E+00 0.  1.
</event>
<event>
 5   0  0.8948286E-06  0.2500796E+04  0.7818609E-02  0.8402702E-01
        2   -1    0    0  501    0  0.00000000000E+00  0.00000000000E+00  0.53689597643E+03  0.53689597644E+03  0.25500000920E-02 0. -1.
       -2   -1    0    0    0  501  0.00000000000E+00  0.00000000000E+00 -0.29121001427E+04  0.29121001427E+04  0.25500000920E-02 0.  1.
    10030    2    1    2    0    0  0.00000000000E+00  0.00000000000E+00 -0.23752041663E+04  0.34489961191E+04  0.25007957530E+04 0.  0.
        4    1    3    3  502    0  0.10157670686E+04 -0.47598478284E+03 -0.42575037122E+03  0.11998371734E+04  0.12699999809E+01 0. -1.
       -4    1    3    3    0  502 -0.10157670686E+04  0.47598478284E+03 -0.19494537951E+04  0.22491589457E+04  0.12699999809E+01 0.  1.
</event>
<event>
 5   0  0.8579923E-06  0.2501624E+04  0.7818609E-02  0.8402407E-01
       -2   -1    0    0    0  501  0.00000000000E+00  0.00000000000E+00  0.86040071191E+03  0.86040071191E+03  0.25500000920E-02 0. -1.
        2   -1    0    0  501    0  0.00000000000E+00  0.00000000000E+00 -0.18183749724E+04  0.18183749724E+04  0.25500000920E-02 0.  1.
    10030    2    1    2    0    0  0.00000000000E+00  0.00000000000E+00 -0.95797426050E+03  0.26787756843E+04  0.25016243689E+04 0.  0.
        1    1    3    3  502    0  0.29727588636E+03 -0.53829860019E+03  0.68736180645E+03  0.92228227164E+03  0.50400001928E-02 0. -1.
       -1    1    3    3    0  502 -0.29727588636E+03  0.53829860019E+03 -0.16453360670E+04  0.17564934127E+04  0.50400001928E-02 0.  1.
</event>
<event>
 5   0  0.3484857E-06  0.2506273E+04  0.7818609E-02  0.8400754E-01
       -1   -1    0    0    0  501  0.00000000000E+00  0.00000000000E+00  0.93510089812E+03  0.93510089813E+03  0.50400001928E-02 0. -1.
        1   -1    0    0  501    0  0.00000000000E+00  0.00000000000E+00 -0.16793392139E+04  0.16793392139E+04  0.50400001928E-02 0.  1.
    10030    2    1    2    0    0  0.00000000000E+00  0.00000000000E+00 -0.74423831575E+03  0.26144401120E+04  0.25062734146E+04 0.  0.
        3    1    3    3  502    0 -0.11863541488E+04 -0.18378984974E+03 -0.74698436126E+03  0.14139308758E+04  0.10100000352E+00 0.  1.
       -3    1    3    3    0  502  0.11863541488E+04  0.18378984974E+03  0.27460455127E+01  0.12005092362E+04  0.10100000352E+00 0. -1.
</event>
<event>
 5   0  0.3642184E-06  0.2492565E+04  0.7818609E-02  0.8405639E-01
       -1   -1    0    0    0  501  0.00000000000E+00  0.00000000000E+00  0.12843195075E+04  0.12843195075E+04  0.50400001928E-02 0. -1.
        1   -1    0    0  501    0  0.00000000000E+00  0.00000000000E+00 -0.12093718763E+04  0.12093718763E+04  0.50400001928E-02 0.  1.
    10030    2    1    2    0    0  0.00000000000E+00  0.00000000000E+00  0.74947631188E+02  0.24936913838E+04  0.24925648578E+04 0.  0.
        5    1    3    3  502    0  0.90769196657E+03  0.24303921936E+03  0.85651654566E+03  0.12714619347E+04  0.46999998093E+01 0. -1.
       -5    1    3    3    0  502 -0.90769196657E+03 -0.24303921936E+03 -0.78156891447E+03  0.12222294492E+04  0.46999998093E+01 0.  1.
</event>
<event>
 5   0  0.3484857E-06  0.2499405E+04  0.7818609E-02  0.8403197E-01
        1   -1    0    0  501    0  0.00000000000E+00  0.00000000000E+00  0.15436954992E+04  0.15436954992E+04  0.50400001928E-02 0.  1.
       -1   -1    0    0    0  501  0.00000000000E+00  0.00000000000E+00 -0.10117001301E+04  0.10117001301E+04  0.50400001928E-02 0. -1.
    10030    2    1    2    0    0  0.00000000000E+00  0.00000000000E+00  0.53199536912E+03  0.25553956293E+04  0.24994054792E+04 0.  0.
        3    1    3    3  502    0  0.15220939299E+03 -0.28962537019E+03  0.14991283582E+04  0.15344172832E+04  0.10100000352E+00 0.  1.
       -3    1    3    3    0  502 -0.15220939299E+03  0.28962537019E+03 -0.96713298912E+03  0.10209783461E+04  0.10100000352E+00 0. -1.
</event>
<event>
 5   0  0.3642184E-06  0.2503523E+04  0.7818609E-02  0.8401731E-01
        1   -1    0    0  501    0  0.00000000000E+00  0.00000000000E+00  0.13923513721E+04  0.13923513721E+04  0.50400001928E-02 0.  1.
       -1   -1    0    0    0  501  0.00000000000E+00  0.00000000000E+00 -0.11253677629E+04  0.11253677629E+04  0.50400001928E-02 0. -1.
    10030    2    1    2    0    0  0.00000000000E+00  0.00000000000E+00  0.26698360918E+03  0.25177191351E+04  0.25035233962E+04 0.  0.
        5    1    3    3  502    0  0.71460740952E+03  0.70919295086E+03  0.88152859454E+03  0.13381827769E+04  0.46999998093E+01 0.  1.
       -5    1    3    3    0  502 -0.71460740952E+03 -0.70919295086E+03 -0.61454498536E+03  0.11795363582E+04  0.46999998093E+01 0. -1.
</event>
<event>
 5   0  0.8056723E-06  0.2495276E+04  0.7818609E-02  0.8404671E-01
       -2   -1    0    0    0  501  0.00000000000E+00  0.00000000000E+00  0.11770920966E+04  0.11770920966E+04  0.25500000920E-02 0.  1.
        2   -1    0    0  501    0  0.00000000000E+00  0.00000000000E+00 -0.13224113820E+04  0.13224113820E+04  0.25500000920E-02 0. -1.
    10030    2    1    2    0    0  0.00000000000E+00  0.00000000000E+00 -0.14531928538E+03  0.24995034787E+04  0.24952755249E+04 0.  0.
        2    1    3    3  502    0  0.41984680316E+03  0.74360272019E+03 -0.98380717657E+03  0.13027251837E+04  0.25500000920E-02 0. -1.
       -2    1    3    3    0  502 -0.41984680316E+03 -0.74360272019E+03  0.83848789119E+03  0.11967782950E+04  0.25500000920E-02 0.  1.
</event>
<event>
 5   0  0.3484857E-06  0.2504874E+04  0.7818609E-02  0.8401251E-01
        1   -1    0    0  501    0  0.00000000000E+00  0.00000000000E+00  0.14281623210E+04  0.14281623210E+04  0.50400001928E-02 0. -1.
       -1   -1    0    0    0  501  0.00000000000E+00  0.00000000000E+00 -0.10983336477E+04  0.10983336477E+04  0.50400001928E-02 0.  1.
    10030    2    1    2    0    0  0.00000000000E+00  0.00000000000E+00  0.32982867332E+03  0.25264959687E+04  0.25048742335E+04 0.  0.
        3    1    3    3  502    0 -0.97605245603E+02  0.34901779075E+03 -0.10442912081E+04  0.11053887732E+04  0.10100000352E+00 0.  1.
       -3    1    3    3    0  502  0.97605245603E+02 -0.34901779075E+03  0.13741198815E+04  0.14211071955E+04  0.10100000352E+00 0. -1.
</event>
<event>
 5   0  0.8579923E-06  0.2497908E+04  0.7818609E-02  0.8403731E-01
       -2   -1    0    0    0  501  0.00000000000E+00  0.00000000000E+00  0.11674704877E+04  0.11674704877E+04  0.25500000920E-02 0. -1.
        2   -1    0    0  501    0  0.00000000000E+00  0.00000000000E+00 -0.13361249069E+04  0.13361249069E+04  0.25500000920E-02 0.  1.
    10030    2    1    2    0    0  0.00000000000E+00  0.00000000000E+00 -0.16865441918E+03  0.25035953947E+04  0.24979082423E+04 0.  0.
        1    1    3    3  502    0 -0.12961689504E+03  0.42047444227E+03 -0.12558713252E+04  0.13307186335E+04  0.50400001928E-02 0.  1.
       -1    1    3    3    0  502  0.12961689504E+03 -0.42047444227E+03  0.10872169060E+04  0.11728767612E+04  0.50400001928E-02 0. -1.
</event>
<event>
 5   0  0.8948286E-06  0.2500696E+04  0.7818609E-02  0.8402737E-01
        2   -1    0    0  501    0  0.00000000000E+00  0.00000000000E+00  0.14404199152E+04  0.14404199152E+04  0.25500000920E-02 0. -1.
       -2   -1    0    0    0  501  0.00000000000E+00  0.00000000000E+00 -0.10853575776E+04  0.10853575776E+04  0.25500000920E-02 0.  1.
    10030    2    1    2    0    0  0.00000000000E+00  0.00000000000E+00  0.35506233756E+03  0.25257774928E+04  0.25006964389E+04 0.  0.
        4    1    3    3  502    0  0.10676095465E+04 -0.92514098178E+02  0.82821296218E+03  0.13543586400E+04  0.12699999809E+01 0. -1.
       -4    1    3    3    0  502 -0.10676095465E+04  0.92514098178E+02 -0.47315062462E+03  0.11714188528E+04  0.12699999809E+01 0.  1.
</event>
<event>
 5   0  0.3484857E-06  0.2507169E+04  0.7818609E-02  0.8400436E-01
        1   -1    0    0  501    0  0.00000000000E+00  0.00000000000E+00  0.16899399075E+04  0.16899399075E+04  0.50400001928E-02 0. -1.
       -1   -1    0    0    0  501  0.00000000000E+00  0.00000000000E+00 -0.92989960026E+03  0.92989960027E+03  0.50400001928E-02 0.  1.
    10030    2    1    2    0    0  0.00000000000E+00  0.00000000000E+00  0.76004030726E+03  0.26198395078E+04  0.25071692759E+04 0.  0.
        3    1    3    3  502    0 -0.85982242853E+03 -0.59766726453E+03 -0.34013454095E+03  0.11009960417E+04  0.10100000352E+00 0.  1.
       -3    1    3    3    0  502  0.85982242853E+03  0.59766726453E+03  0.11001748482E+04  0.15188434661E+04  0.10100000352E+00 0. -1.
</event>
<event>
 5   0  0.8354653E-06  0.2494532E+04  0.7818609E-02  0.8404936E-01
        2   -1    0    0  501    0  0.00000000000E+00  0.00000000000E+00  0.30574883684E+04  0.30574883684E+04  0.25500000920E-02 0. -1.
       -2   -1    0    0    0  501  0.00000000000E+00  0.00000000000E+00 -0.50880718838E+03  0.50880718839E+03  0.25500000920E-02 0.  1.
    10030    2    1    2    0    0  0.00000000000E+00  0.00000000000E+00  0.25486811800E+04  0.35662955568E+04  0.24945316677E+04 0.  0.
        3    1    3    3  502    0 -0.10047250620E+04 -0.47758016495E+03  0.46799427825E+03  0.12068860422E+04  0.10100000352E+00 0. -1.
       -3    1    3    3    0  502  0.10047250620E+04  0.47758016495E+03  0.20806869017E+04  0.23594095146E+04  0.10100000352E+00 0.  1.
</event>
<event>
 5   0  0.8354653E-06  0.2504624E+04  0.7818609E-02  0.8401340E-01
       -2   -1    0    0    0  501  0.00000000000E+00  0.00000000000E+00  0.95375387078E+03  0.95375387078E+03  0.25500000920E-02 0. -1.
        2   -1    0    0  501    0  0.00000000000E+00  0.00000000000E+00 -0.16443290190E+04  0.16443290190E+04  0.25500000920E-02 0.  1.
    10030    2    1    2    0    0  0.00000000000E+00  0.00000000000E+00 -0.69057514825E+03  0.25980828898E+04  0.25046238574E+04 0.  0.
        3    1    3    3  502    0  0.97184573144E+03 -0.78418033144E+03 -0.24763533428E+03  0.12730853023E+04  0.10100000352E+00 0.  1.
       -3    1    3    3    0  502 -0.97184573144E+03  0.78418033144E+03 -0.44293981397E+03  0.13249975875E+04  0.10100000352E+00 0. -1.
</event>
<event>
 5   0  0.3522870E-06  0.2427265E+04  0.7818609E-02  0.8429366E-01
       -1   -1    0    0    0  501  0.00000000000E+00  0.00000000000E+00  0.13975992734E+04  0.13975992734E+04  0.50400001928E-02 0. -1.
        1   -1    0    0  501    0  0.00000000000E+00  0.00000000000E+00 -0.10538813621E+04  0.10538813621E+04  0.50400001928E-02 0.  1.
    10030    2    1    2    0    0  0.00000000000E+00  0.00000000000E+00  0.34371791125E+03  0.24514806355E+04  0.24272649842E+04 0.  0.
        2    1    3    3  502    0 -0.23243389163E+03 -0.11553126559E+04  0.46480608559E+03  0.12668139343E+04  0.25500000920E-02 0. -1.
       -2    1    3    3    0  502  0.23243389163E+03  0.11553126559E+04 -0.12108817434E+03  0.11846667012E+04  0.25500000920E-02 0.  1.
</event>
<event>
 5   0  0.3642184E-06  0.2443025E+04  0.7818609E-02  0.8423569E-01
        1   -1    0    0  501    0  0.00000000000E+00  0.00000000000E+00  0.13383379413E+04  0.13383379413E+04  0.50400001928E-02 0.  1.
       -1   -1    0    0    0  501  0.00000000000E+00  0.00000000000E+00 -0.11148847727E+04  0.11148847727E+04  0.50400001928E-02 0. -1.
    10030    2    1    2    0    0  0.00000000000E+00  0.00000000000E+00  0.22345316854E+03  0.24532227140E+04  0.24430248394E+04 0.  0.
        5    1    3    3  502    0 -0.63942052730E+03  0.28696984692E+03  0.11163326676E+04  0.13181164663E+04  0.46999998093E+01 0.  1.
       -5    1    3    3    0  502  0.63942052730E+03 -0.28696984692E+03 -0.89287949910E+03  0.11351062478E+04  0.46999998093E+01 0. -1.
</event>
<event>
 5   0  0.3424193E-06  0.2497858E+04  0.7818609E-02  0.8403749E-01
       -1   -1    0    0    0  501  0.00000000000E+00  0.00000000000E+00  0.11913013625E+04  0.11913013625E+04  0.50400001928E-02 0.  1.
        1   -1    0    0  501    0  0.00000000000E+00  0.00000000000E+00 -0.13093444585E+04  0.13093444585E+04  0.50400001928E-02 0. -1.
    10030    2    1    2    0    0  0.00000000000E+00  0.00000000000E+00 -0.11804309601E+03  0.25006458209E+04  0.24978581523E+04 0.  0.
        1    1    3    3  502    0 -0.54695454742E+03 -0.96716199278E+03  0.51193260588E+03  0.12233709945E+04  0.50400001928E-02 0.  1.
       -1    1    3    3    0  502  0.54695454742E+03  0.96716199278E+03 -0.62997570189E+03  0.12772748264E+04  0.50400001928E-02 0. -1.
</event>
<event>
 5   0  0.8407986E-06  0.2507309E+04  0.7818609E-02  0.8400386E-01
        2   -1    0    0  501    0  0.00000000000E+00  0.00000000000E+00  0.14748859737E+04  0.14748859737E+04  0.25500000920E-02 0. -1.
       -2   -1    0    0    0  501  0.00000000000E+00  0.00000000000E+00 -0.10656071358E+04  0.10656071358E+04  0.25500000920E-02 0.  1.
    10030    2    1    2    0    0  0.00000000000E+00  0.00000000000E+00  0.40927883793E+03  0.25404931095E+04  0.25073085315E+04 0.  0.
        5    1    3    3  502    0 -0.30990076432E+03  0.20999380658E+02 -0.10259918967E+04  0.10719892349E+04  0.46999998093E+01 0.  1.
       -5    1    3    3    0  502  0.30990076432E+03 -0.20999380658E+02  0.14352707346E+04  0.14685038745E+04  0.46999998093E+01 0. -1.
</event>
<event>
 5   0  0.8354653E-06  0.2560578E+04  0.7818609E-02  0.8381717E-01
       -2   -1    0    0    0  501  0.00000000000E+00  0.00000000000E+00  0.14651208472E+04  0.14651208472E+04  0.25500000920E-02 0.  1.
        2   -1    0    0  501    0  0.00000000000E+00  0.00000000000E+00 -0.11187746519E+04  0.11187746519E+04  0.25500000920E-02 0. -1.
    10030    2    1    2    0    0  0.00000000000E+00  0.00000000000E+00  0.34634619531E+03  0.25838954992E+04  0.25605781112E+04 0.  0.
        3    1    3    3  502    0 -0.10395261695E+04  0.72044459824E+03  0.37369087196E+03  0.13188252174E+04  0.10100000352E+00 0.  1.
       -3    1    3    3    0  502  0.10395261695E+04 -0.72044459824E+03 -0.27344676656E+02  0.12650702817E+04  0.10100000352E+00 0. -1.
</event>
<event>
 5   0  0.8948286E-06  0.2500764E+04  0.7818609E-02  0.8402714E-01
        2   -1    0    0  501    0  0.00000000000E+00  0.00000000000E+00  0.64319533354E+03  0.64319533354E+03  0.25500000920E-02 0. -1.
       -2   -1    0    0    0  501  0.00000000000E+00  0.00000000000E+00 -0.24307619551E+04  0.24307619551E+04  0.25500000920E-02 0.  1.
    10030    2    1    2    0    0  0.00000000000E+00  0.00000000000E+00 -0.17875666216E+04  0.30739572887E+04  0.25007636806E+04 0.  0.
        4    1    3    3  502    0  0.46371574237E+03 -0.51609840996E+03  0.38486616313E+03  0.79341882692E+03  0.12699999809E+01 0. -1.
       -4    1    3    3    0  502 -0.46371574237E+03  0.51609840996E+03 -0.21724327847E+04  0.22805384618E+04  0.12699999809E+01 0.  1.
</event>
<event>
 5   0  0.8354653E-06  0.2501130E+04  0.7818609E-02  0.8402583E-01
        2   -1    0    0  501    0  0.00000000000E+00  0.00000000000E+00  0.19130126088E+04  0.19130126088E+04  0.25500000920E-02 0.  1.
       -2   -1    0    0    0  501  0.00000000000E+00  0.00000000000E+00 -0.81751308110E+03  0.81751308111E+03  0.25500000920E-02 0. -1.
    10030    2    1    2    0    0  0.00000000000E+00  0.00000000000E+00  0.10954995277E+04  0.27305256899E+04  0.25011300102E+04 0.  0.
        3    1    3    3  502    0  0.44400036649E+03 -0.10078972056E+04  0.11944661818E+04  0.16247284611E+04  0.10100000352E+00 0. -1.
       -3    1    3    3    0  502 -0.44400036649E+03  0.10078972056E+04 -0.98966654137E+02  0.11057972288E+04  0.10100000352E+00 0.  1.
</event>
<event>
 5   0  0.3642184E-06  0.2500361E+04  0.7818609E-02  0.8402857E-01
        1   -1    0    0  501    0  0.00000000000E+00  0.00000000000E+00  0.25912221313E+04  0.25912221313E+04  0.50400001928E-02 0. -1.
       -1   -1    0    0    0  501  0.00000000000E+00  0.00000000000E+00 -0.60317140181E+03  0.60317140183E+03  0.50400001928E-02 0.  1.
    10030    2    1    2    0    0  0.00000000000E+00  0.00000000000E+00  0.19880507295E+04  0.31943935331E+04  0.25003608423E+04 0.  0.
        5    1    3    3  502    0 -0.55599735264E+03  0.28674208539E+03  0.23768616328E+04  0.24578135387E+04  0.46999998093E+01 0. -1.
       -5    1    3    3    0  502  0.55599735264E+03 -0.28674208539E+03 -0.38881090329E+03  0.73657999443E+03  0.46999998093E+01 0.  1.
</event>
<event>
 5   0  0.3481387E-06  0.2501573E+04  0.7818609E-02  0.8402425E-01
        1   -1    0    0  501    0  0.00000000000E+00  0.00000000000E+00  0.13166144657E+04  0.13166144658E+04  0.50400001928E-02 0.  1.
       -1   -1    0    0    0  501  0.00000000000E+00  0.00000000000E+00 -0.11882497500E+04  0.11882497500E+04  0.50400001928E-02 0. -1.
    10030    2    1    2    0    0  0.00000000000E+00  0.00000000000E+00  0.12836471574E+03  0.25048642158E+04  0.25015729530E+04 0.  0.
        4    1    3    3  502    0 -0.27974441129E+03  0.11994960150E+04  0.28222461455E+03  0.12636059400E+04  0.12699999809E+01 0.  1.
       -4    1    3    3    0  502  0.27974441129E+03 -0.11994960150E+04 -0.15385989881E+03  0.12412582757E+04  0.12699999809E+01 0. -1.
</event>
<event>
 5   0  0.3642184E-06  0.2501095E+04  0.7818609E-02  0.8402595E-01
        1   -1    0    0  501    0  0.00000000000E+00  0.00000000000E+00  0.16714750749E+04  0.16714750749E+04  0.50400001928E-02 0.  1.
       -1   -1    0    0    0  501  0.00000000000E+00  0.00000000000E+00 -0.93562243591E+03  0.93562243592E+03  0.50400001928E-02 0. -1.
    10030    2    1    2    0    0  0.00000000000E+00  0.00000000000E+00  0.73585263899E+03  0.26070975108E+04  0.25010954249E+04 0.  0.
        5    1    3    3  502    0 -0.33253691985E+03 -0.87366913209E+03  0.12337745669E+04  0.15479342129E+04  0.46999998093E+01 0.  1.
       -5    1    3    3    0  502  0.33253691985E+03  0.87366913209E+03 -0.49792192793E+03  0.10591632980E+04  0.46999998093E+01 0. -1.
</event>
<event>
 5   0  0.3481387E-06  0.2501277E+04  0.7818609E-02  0.8402531E-01
        1   -1    0    0  501    0  0.00000000000E+00  0.00000000000E+00  0.90885201450E+03  0.90885201451E+03  0.50400001928E-02 0. -1.
       -1   -1    0    0    0  501  0.00000000000E+00  0.00000000000E+00 -0.17209585648E+04  0.17209585648E+04  0.50400001928E-02 0.  1.
    10030    2    1    2    0    0  0.00000000000E+00  0.00000000000E+00 -0.81210655027E+03  0.26298105793E+04  0.25012770006E+04 0.  0.
        4    1    3    3  502    0  0.78492571714E+03 -0.18119223711E+03 -0.14118500830E+04  0.16255033921E+04  0.12699999809E+01 0.  1.
       -4    1    3    3    0  502 -0.78492571714E+03  0.18119223711E+03  0.59974353269E+03  0.10043071871E+04  0.12699999809E+01 0. -1.
</event>
<event>
 5   0  0.8354653E-06  0.2519858E+04  0.7818609E-02  0.8395945E-01
       -2   -1    0    0    0  501  0.00000000000E+00  0.00000000000E+00  0.14807799432E+04  0.14807799432E+04  0.25500000920E-02 0.  1.
        2   -1    0    0  501    0  0.00000000000E+00  0.00000000000E+00 -0.10720170989E+04  0.10720170989E+04  0.25500000920E-02 0. -1.
    10030    2    1    2    0    0  0.00000000000E+00  0.00000000000E+00  0.40876284425E+03  0.25527970421E+04  0.25198582649E+04 0.  0.
        3    1    3    3  502    0 -0.66475642680E+03 -0.92136026829E+03 -0.34736196603E+03  0.11880514284E+04  0.10100000352E+00 0. -1.
       -3    1    3    3    0  502  0.66475642680E+03  0.92136026829E+03  0.75612481029E+03  0.13647456136E+04  0.10100000352E+00 0.  1.
</event>
<event>
 5   0  0.3484857E-06  0.2502775E+04  0.7818609E-02  0.8401998E-01
       -1   -1    0    0    0  501  0.00000000000E+00  0.00000000000E+00  0.94154341175E+03  0.94154341177E+03  0.50400001928E-02 0. -1.
        1   -1    0    0  501    0  0.00000000000E+00  0.00000000000E+00 -0.16631948341E+04  0.16631948341E+04  0.50400001928E-02 0.  1.
    10030    2    1    2    0    0  0.00000000000E+00  0.00000000000E+00 -0.72165142236E+03  0.26047382459E+04  0.25027745712E+04 0.  0.
        3    1    3    3  502    0  0.11618781952E+04 -0.45580107624E+03 -0.45538179953E+03  0.13285662027E+04  0.10100000352E+00 0.  1.
       -3    1    3    3    0  502 -0.11618781952E+04  0.45580107624E+03 -0.26626962283E+03  0.12761720432E+04  0.10100000352E+00 0. -1.
</event>
<event>
 5   0  0.8407986E-06  0.2504386E+04  0.7818609E-02  0.8401425E-01
        2   -1    0    0  501    0  0.00000000000E+00  0.00000000000E+00  0.12627269504E+04  0.12627269504E+04  0.25500000920E-02 0. -1.
       -2   -1    0    0    0  501  0.00000000000E+00  0.00000000000E+00 -0.12417465359E+04  0.12417465359E+04  0.25500000920E-02 0.  1.
    10030    2    1    2    0    0  0.00000000000E+00  0.00000000000E+00  0.20980414508E+02  0.25044734862E+04  0.25043856064E+04 0.  0.
        5    1    3    3  502    0  0.31498679163E+03  0.18859603832E+03 -0.11867065874E+04  0.12422076152E+04  0.46999998093E+01 0.  1.
       -5    1    3    3    0  502 -0.31498679163E+03 -0.18859603832E+03  0.12076870019E+04  0.12622658710E+04  0.46999998093E+01 0. -1.
</event>
<event>
 5   0  0.8354653E-06  0.2486028E+04  0.7818609E-02  0.8407980E-01
        2   -1    0    0  501    0  0.00000000000E+00  0.00000000000E+00  0.22502307920E+04  0.22502307920E+04  0.25500000920E-02 0.  1.
       -2   -1    0    0    0  501  0.00000000000E+00  0.00000000000E+00 -0.68663339609E+03  0.68663339609E+03  0.25500000920E-02 0. -1.
    10030    2    1    2    0    0  0.00000000000E+00  0.00000000000E+00  0.15635973959E+04  0.29368641881E+04  0.24860278443E+04 0.  0.
        3    1    3    3  502    0 -0.87499634792E+03  0.20386413789E+03 -0.23299538527E+03  0.92815195703E+03  0.10100000352E+00 0. -1.
       -3    1    3    3    0  502  0.87499634792E+03 -0.20386413789E+03  0.17965927812E+04  0.20087122310E+04  0.10100000352E+00 0.  1.
</event>
<event>
 5   0  0.3484857E-06  0.2497202E+04  0.7818609E-02  0.8403983E-01
       -1   -1    0    0    0  501  0.00000000000E+00  0.00000000000E+00  0.13828019325E+04  0.13828019325E+04  0.50400001928E-02 0.  1.
        1   -1    0    0  501    0  0.00000000000E+00  0.00000000000E+00 -0.11274244734E+04  0.11274244734E+04  0.50400001928E-02 0. -1.
    10030    2    1    2    0    0  0.00000000000E+00  0.00000000000E+00  0.25537745913E+03  0.25102264059E+04  0.24972022269E+04 0.  0.
        3    1    3    3  502    0  0.17244783769E+01 -0.10757383106E+04 -0.50948537463E+03  0.11902904031E+04  0.10100000352E+00 0. -1.
       -3    1    3    3    0  502 -0.17244783769E+01  0.10757383106E+04  0.76486283376E+03  0.13199360027E+04  0.10100000352E+00 0.  1.
</event>
<event>
 5   0  0.8948286E-06  0.2499026E+04  0.7818609E-02  0.8403333E-01
       -2   -1    0    0    0  501  0.00000000000E+00  0.00000000000E+00  0.76675794225E+03  0.76675794225E+03  0.25500000920E-02 0.  1.
        2   -1    0    0  501    0  0.00000000000E+00  0.00000000000E+00 -0.20362127937E+04  0.20362127937E+04  0.25500000920E-02 0. -1.
    10030    2    1    2    0    0  0.00000000000E+00  0.00000000000E+00 -0.12694548515E+04  0.28029707360E+04  0.24990256755E+04 0.  0.
        4    1    3    3  502    0  0.91164727043E+03 -0.30136938901E+03 -0.15315765238E+04  0.18076649345E+04  0.12699999809E+01 0. -1.
       -4    1    3    3    0  502 -0.91164727043E+03  0.30136938901E+03  0.26212167237E+03  0.99530580142E+03  0.12699999809E+01 0.  1.
</event>
<event>
 5   0  0.8407986E-06  0.2448306E+04  0.7818609E-02  0.8421637E-01
       -2   -1    0    0    0  501  0.00000000000E+00  0.00000000000E+00  0.10710844792E+04  0.10710844792E+04  0.25500000920E-02 0.  1.
        2   -1    0    0  501    0  0.00000000000E+00  0.00000000000E+00 -0.13990969592E+04  0.13990969592E+04  0.25500000920E-02 0. -1.
    10030    2    1    2    0    0  0.00000000000E+00  0.00000000000E+00 -0.32801247995E+03  0.24701814384E+04  0.24483063843E+04 0.  0.
        5    1    3    3  502    0 -0.49550287612E+03  0.67690218446E+03 -0.10634925412E+04  0.13545324443E+04  0.46999998093E+01 0. -1.
       -5    1    3    3    0  502  0.49550287612E+03 -0.67690218446E+03  0.73548006120E+03  0.11156489941E+04  0.46999998093E+01 0.  1.
</event>
<event>
 5   0  0.3522870E-06  0.2502484E+04  0.7818609E-02  0.8402101E-01
        1   -1    0    0  501    0  0.00000000000E+00  0.00000000000E+00  0.90737334463E+03  0.90737334465E+03  0.50400001928E-02 0. -1.
       -1   -1    0    0    0  501  0.00000000000E+00  0.00000000000E+00 -0.17254268483E+04  0.17254268484E+04  0.50400001928E-02 0.  1.
    10030    2    1    2    0    0  0.00000000000E+00  0.00000000000E+00 -0.81805350371E+03  0.26328001930E+04  0.25024838304E+04 0.  0.
        2    1    3    3  502    0  0.94720565891E+03  0.77775208736E+03 -0.67416100185E+03  0.13987815863E+04  0.25500000920E-02 0. -1.
       -2    1    3    3    0  502 -0.94720565891E+03 -0.77775208736E+03 -0.14389250186E+03  0.12340186067E+04  0.25500000920E-02 0.  1.
</event>
<event>
 5   0  0.3481387E-06  0.2493530E+04  0.7818609E-02  0.8405294E-01
        1   -1    0    0  501    0  0.00000000000E+00  0.00000000000E+00  0.11506715032E+04  0.11506715032E+04  0.50400001928E-02 0. -1.
       -1   -1    0    0    0  501  0.00000000000E+00  0.00000000000E+00 -0.13508835366E+04  0.13508835366E+04  0.50400001928E-02 0.  1.
    10030    2    1    2    0    0  0.00000000000E+00  0.00000000000E+00 -0.20021203340E+03  0.25015550399E+04  0.24935301801E+04 0.  0.
        4    1    3    3  502    0  0.63930159207E+03  0.10480946352E+04 -0.31809010447E+03  0.12682238830E+04  0.12699999809E+01 0.  1.
       -4    1    3    3    0  502 -0.63930159207E+03 -0.10480946352E+04  0.11787807107E+03  0.12333311569E+04  0.12699999809E+01 0. -1.
</event>
<event>
 5   0  0.3484857E-06  0.2498130E+04  0.7818609E-02  0.8403652E-01
        1   -1    0    0  501    0  0.00000000000E+00  0.00000000000E+00  0.10889051851E+04  0.10889051851E+04  0.50400001928E-02 0. -1.
       -1   -1    0    0    0  501  0.00000000000E+00  0.00000000000E+00 -0.14327812515E+04  0.14327812515E+04  0.50400001928E-02 0.  1.
    10030    2    1    2    0    0  0.00000000000E+00  0.00000000000E+00 -0.34387606637E+03  0.25216864367E+04  0.24981296475E+04 0.  0.
        3    1    3    3  502    0  0.11238970697E+04 -0.54091208578E+03 -0.23914222534E+03  0.12700076858E+04  0.10100000352E+00 0.  1.
       -3    1    3    3    0  502 -0.11238970697E+04  0.54091208578E+03 -0.10473384102E+03  0.12516787509E+04  0.10100000352E+00 0. -1.
</event>
<event>
 5   0  0.3642184E-06  0.2489923E+04  0.7818609E-02  0.8406584E-01
       -1   -1    0    0    0  501  0.00000000000E+00  0.00000000000E+00  0.85496546192E+03  0.85496546193E+03  0.50400001928E-02 0. -1.
        1   -1    0    0  501    0  0.00000000000E+00  0.00000000000E+00 -0.18128560539E+04  0.18128560539E+04  0.50400001928E-02 0.  1.
    10030    2    1    2    0    0  0.00000000000E+00  0.00000000000E+00 -0.95789059198E+03  0.26678215158E+04  0.24899231422E+04 0.  0.
        5    1    3    3  502    0 -0.10094589100E+04 -0.72851898055E+03 -0.46539127545E+03  0.13290441397E+04  0.46999998093E+01 0. -1.
       -5    1    3    3    0  502  0.10094589100E+04  0.72851898055E+03 -0.49249931653E+03  0.13387773761E+04  0.46999998093E+01 0.  1.
</event>
<event>
 5   0  0.8354653E-06  0.2480963E+04  0.7818609E-02  0.8409799E-01
       -2   -1    0    0    0  501  0.00000000000E+00  0.00000000000E+00  0.10109179002E+04  0.10109179002E+04  0.25500000920E-02 0. -1.
        2   -1    0    0  501    0  0.00000000000E+00  0.00000000000E+00 -0.15221752362E+04  0.15221752362E+04  0.25500000920E-02 0.  1.
    10030    2    1    2    0    0  0.00000000000E+00  0.00000000000E+00 -0.51125733602E+03  0.25330931363E+04  0.24809628723E+04 0.  0.
        3    1    3    3  502    0 -0.67643331559E+03  0.81300065376E+03 -0.91752656455E+03  0.14001382433E+04  0.10100000352E+00 0.  1.
       -3    1    3    3    0  502  0.67643331559E+03 -0.81300065376E+03  0.40626922853E+03  0.11329548931E+04  0.10100000352E+00 0. -1.
</event>
<event>
 5   0  0.3424193E-06  0.2509717E+04  0.7818609E-02  0.8399532E-01
        1   -1    0    0  501    0  0.00000000000E+00  0.00000000000E+00  0.10677707987E+04  0.10677707987E+04  0.50400001928E-02 0.  1.
       -1   -1    0    0    0  501  0.00000000000E+00  0.00000000000E+00 -0.14747261396E+04  0.14747261396E+04  0.50400001928E-02 0. -1.
    10030    2    1    2    0    0  0.00000000000E+00  0.00000000000E+00 -0.40695534086E+03  0.25424969383E+04  0.25097167234E+04 0.  0.
        1    1    3    3  502    0  0.12326449237E+04  0.23501754145E+03 -0.19864512506E+03  0.12704749657E+04  0.50400001928E-02 0. -1.
       -1    1    3    3    0  502 -0.12326449237E+04 -0.23501754145E+03 -0.20831021580E+03  0.12720219726E+04  0.50400001928E-02 0.  1.
</event>
<event>
 5   0  0.8579923E-06  0.2496657E+04  0.7818609E-02  0.8404178E-01
        2   -1    0    0  501    0  0.00000000000E+00  0.00000000000E+00  0.19074309749E+04  0.19074309749E+04  0.25500000920E-02 0.  1.
       -2   -1    0    0    0  501  0.00000000000E+00  0.00000000000E+00 -0.81697507094E+03  0.81697507095E+03  0.25500000920E-02 0. -1.
    10030    2    1    2    0    0  0.00000000000E+00  0.00000000000E+00  0.10904559039E+04  0.27244060458E+04  0.24966566092E+04 0.  0.
        1    1    3    3  502    0 -0.13932264177E+03  0.77856751732E+03  0.15991162319E+04  0.17840265975E+04  0.50400001928E-02 0.  1.
       -1    1    3    3    0  502  0.13932264177E+03 -0.77856751732E+03 -0.50866032796E+03  0.94037944831E+03  0.50400001928E-02 0. -1.
</event>
<event>
 5   0  0.3484857E-06  0.2505515E+04  0.7818609E-02  0.8401023E-01
       -1   -1    0    0    0  501  0.00000000000E+00  0.00000000000E+00  0.14526024207E+04  0.14526024207E+04  0.50400001928E-02 0.  1.
        1   -1    0    0  501    0  0.00000000000E+00  0.00000000000E+00 -0.10804067967E+04  0.10804067968E+04  0.50400001928E-02 0. -1.
    10030    2    1    2    0    0  0.00000000000E+00  0.00000000000E+00  0.37219562397E+03  0.25330092175E+04  0.25055151393E+04 0.  0.
        3    1    3    3  502    0  0.11023458314E+03 -0.12392173269E+04  0.37549133956E+02  0.12446771446E+04  0.10100000352E+00 0.  1.
       -3    1    3    3    0  502 -0.11023458314E+03  0.12392173269E+04  0.33464649001E+03  0.12883320729E+04  0.10100000352E+00 0. -1.
</event>
<event>
 5   0  0.3522870E-06  0.2497536E+04  0.7818609E-02  0.8403864E-01
        1   -1    0    0  501    0  0.00000000000E+00  0.00000000000E+00  0.25516235006E+04  0.25516235006E+04  0.50400001928E-02 0. -1.
       -1   -1    0    0    0  501  0.00000000000E+00  0.00000000000E+00 -0.61114899644E+03  0.61114899646E+03  0.50400001928E-02 0.  1.
    10030    2    1    2    0    0  0.00000000000E+00  0.00000000000E+00  0.19404745041E+04  0.31627724970E+04  0.24975364996E+04 0.  0.
        2    1    3    3  502    0 -0.49937157900E+03  0.38825834449E+03 -0.39326255692E+03  0.74483015155E+03  0.25500000920E-02 0.  1.
       -2    1    3    3    0  502  0.49937157900E+03 -0.38825834449E+03  0.23337370610E+04  0.24179423455E+04  0.25500000920E-02 0. -1.
</event>
<event>
 5   0  0.3642184E-06  0.2401591E+04  0.7818609E-02  0.8438908E-01
       -1   -1    0    0    0  501  0.00000000000E+00  0.00000000000E+00  0.21195043640E+04  0.21195043640E+04  0.50400001928E-02 0.  1.
        1   -1    0    0  501    0  0.00000000000E+00  0.00000000000E+00 -0.68030540089E+03  0.68030540091E+03  0.50400001928E-02 0. -1.
    10030    2    1    2    0    0  0.00000000000E+00  0.00000000000E+00  0.14391989631E+04  0.27998097650E+04  0.24015913608E+04 0.  0.
        5    1    3    3  502    0 -0.77494873789E+03 -0.14587349236E+03 -0.33613125737E+03  0.85722280319E+03  0.46999998093E+01 0. -1.
       -5    1    3    3    0  502  0.77494873789E+03  0.14587349236E+03  0.17753302205E+04  0.19425869618E+04  0.46999998093E+01 0.  1.
</event>
<event>
 5   0  0.8407986E-06  0.2524774E+04  0.7818609E-02  0.8394212E-01
       -2   -1    0    0    0  501  0.00000000000E+00  0.00000000000E+00  0.74452852660E+03  0.74452852660E+03  0.25500000920E-02 0.  1.
        2   -1    0    0  501    0  0.00000000000E+00  0.00000000000E+00 -0.21404438076E+04  0.21404438076E+04  0.25500000920E-02 0. -1.
    10030    2    1    2    0    0  0.00000000000E+00  0.00000000000E+00 -0.13959152810E+04  0.28849723342E+04  0.25247744251E+04 0.  0.
        5    1    3    3  502    0 -0.45313479760E+03 -0.96214065732E+03 -0.14750991398E+04  0.18185118508E+04  0.46999998093E+01 0. -1.
       -5    1    3    3    0  502  0.45313479760E+03  0.96214065732E+03  0.79183858759E+02  0.10664604834E+04  0.46999998093E+01 0.  1.
</event>
<event>
 5   0  0.8407986E-06  0.2494192E+04  0.7818609E-02  0.8405058E-01
        2   -1    0    0  501    0  0.00000000000E+00  0.00000000000E+00  0.17729788094E+04  0.17729788094E+04  0.25500000920E-02 0. -1.
       -2   -1    0    0    0  501  0.00000000000E+00  0.00000000000E+00 -0.87719524730E+03  0.87719524730E+03  0.25500000920E-02 0.  1.
    10030    2    1    2    0    0  0.00000000000E+00  0.00000000000E+00  0.89578356207E+03  0.26501740567E+04  0.24941921218E+04 0.  0.
        5    1    3    3  502    0  0.11925178690E+03  0.19606768531E+03 -0.85455754639E+03  0.88484700146E+03  0.46999998093E+01 0.  1.
       -5    1    3    3    0  502 -0.11925178690E+03 -0.19606768531E+03  0.17503411085E+04  0.17653270552E+04  0.46999998093E+01 0. -1.
</event>
<event>
 5   0  0.8407986E-06  0.2502478E+04  0.7818609E-02  0.8402103E-01
        2   -1    0    0  501    0  0.00000000000E+00  0.00000000000E+00  0.20413696909E+04  0.20413696909E+04  0.25500000920E-02 0.  1.
       -2   -1    0    0    0  501  0.00000000000E+00  0.00000000000E+00 -0.76693545173E+03  0.76693545174E+03  0.25500000920E-02 0. -1.
    10030    2    1    2    0    0  0.00000000000E+00  0.00000000000E+00  0.12744342391E+04  0.28083051426E+04  0.25024778009E+04 0.  0.
        5    1    3    3  502    0  0.55717995709E+03 -0.49895334706E-01 -0.62002212900E+03  0.83360604456E+03  0.46999998093E+01 0. -1.
       -5    1    3    3    0  502 -0.55717995709E+03  0.49895334706E-01  0.18944563681E+04  0.19746990981E+04  0.46999998093E+01 0.  1.
</event>
<event>
 5   0  0.3481387E-06  0.2499164E+04  0.7818609E-02  0.8403283E-01
        1   -1    0    0  501    0  0.00000000000E+00  0.00000000000E+00  0.11390752630E+04  0.11390752630E+04  0.50400001928E-02 0.  1.
       -1   -1    0    0    0  501  0.00000000000E+00  0.00000000000E+00 -0.13708096385E+04  0.13708096385E+04  0.50400001928E-02 0. -1.
    10030    2    1    2    0    0  0.00000000000E+00  0.00000000000E+00 -0.23173437547E+03  0.25098849015E+04  0.24991641399E+04 0.  0.
        4    1    3    3  502    0  0.85748680767E+02  0.93538721318E+03 -0.94350897378E+03  0.13313575295E+04  0.12699999809E+01 0.  1.
       -4    1    3    3    0  502 -0.85748680767E+02 -0.93538721318E+03  0.71177459831E+03  0.11785273720E+04  0.12699999809E+01 0. -1.
</event>
<event>
 5   0  0.8056723E-06  0.2502966E+04  0.7818609E-02  0.8401930E-01
        2   -1    0    0  501    0  0.00000000000E+00  0.00000000000E+00  0.13687649074E+04  0.13687649074E+04  0.25500000920E-02 0.  1.
       -2   -1    0    0    0  501  0.00000000000E+00  0.00000000000E+00 -0.11442506570E+04  0.11442506570E+04  0.25500000920E-02 0. -1.
    10030    2    1    2    0    0  0.00000000000E+00  0.00000000000E+00  0.22451425038E+03  0.25130155643E+04  0.25029663558E+04 0.  0.
        2    1    3    3  502    0 -0.34338725636E+03 -0.24943692225E+03  0.12943014870E+04  0.13621123027E+04  0.25500000920E-02 0.  1.
       -2    1    3    3    0  502  0.34338725636E+03  0.24943692225E+03 -0.10697872366E+04  0.11509032616E+04  0.25500000920E-02 0. -1.
</event>
<event>
 5   0  0.8354653E-06  0.2509040E+04  0.7818609E-02  0.8399772E-01
       -2   -1    0    0    0  501  0.00000000000E+00  0.00000000000E+00  0.14878574091E+04  0.14878574091E+04  0.25500000920E-02 0. -1.
        2   -1    0    0  501    0  0.00000000000E+00  0.00000000000E+00 -0.10577765918E+04  0.10577765918E+04  0.25500000920E-02 0.  1.
    10030    2    1    2    0    0  0.00000000000E+00  0.00000000000E+00  0.43008081734E+03  0.25456340009E+04  0.25090402462E+04 0.  0.
        3    1    3    3  502    0 -0.61132393462E+03  0.97552685869E+03  0.72075888205E+03  0.13582573325E+04  0.10100000352E+00 0. -1.
       -3    1    3    3    0  502  0.61132393462E+03 -0.97552685869E+03 -0.29067806471E+03  0.11873766684E+04  0.10100000352E+00 0.  1.
</event>
<event>
 5   0  0.3424193E-06  0.2505481E+04  0.7818609E-02  0.8401036E-01
       -1   -1    0    0    0  501  0.00000000000E+00  0.00000000000E+00  0.94319068059E+03  0.94319068060E+03  0.50400001928E-02 0.  1.
        1   -1    0    0  501    0  0.00000000000E+00  0.00000000000E+00 -0.16638823286E+04  0.16638823286E+04  0.50400001928E-02 0. -1.
    10030    2    1    2    0    0  0.00000000000E+00  0.00000000000E+00 -0.72069164804E+03  0.26070730092E+04  0.25054806373E+04 0.  0.
        1    1    3    3  502    0 -0.19405607165E+02 -0.81362230588E+02 -0.16609734208E+04  0.16630781987E+04  0.50400001928E-02 0. -1.
       -1    1    3    3    0  502  0.19405607165E+02  0.81362230588E+02  0.94028177278E+03  0.94399481058E+03  0.50400001928E-02 0.  1.
</event>
<event>
 5   0  0.8354653E-06  0.2497871E+04  0.7818609E-02  0.8403744E-01
       -2   -1    0    0    0  501  0.00000000000E+00  0.00000000000E+00  0.13128096460E+04  0.13128096460E+04  0.25500000920E-02 0.  1.
        2   -1    0    0  501    0  0.00000000000E+00  0.00000000000E+00 -0.11881688807E+04  0.11881688807E+04  0.25500000920E-02 0. -1.
    10030    2    1    2    0    0  0.00000000000E+00  0.00000000000E+00  0.12464076537E+03  0.25009785267E+04  0.24978707474E+04 0.  0.
        3    1    3    3  502    0 -0.12363765482E+04 -0.89678362803E+02 -0.90087200819E+02  0.12428937572E+04  0.10100000352E+00 0. -1.
       -3    1    3    3    0  502  0.12363765482E+04  0.89678362803E+02  0.21472796619E+03  0.12580847695E+04  0.10100000352E+00 0.  1.
</event>
<event>
 5   0  0.3481387E-06  0.2499433E+04  0.7818609E-02  0.8403188E-01
       -1   -1    0    0    0  501  0.00000000000E+00  0.00000000000E+00  0.77927556540E+03  0.77927556541E+03  0.50400001928E-02 0.  1.
        1   -1    0    0  501    0  0.00000000000E+00  0.00000000000E+00 -0.20041581532E+04  0.20041581532E+04  0.50400001928E-02 0. -1.
    10030    2    1    2    0    0  0.00000000000E+00  0.00000000000E+00 -0.12248825878E+04  0.27834337186E+04  0.24994331181E+04 0.  0.
        4    1    3    3  502    0 -0.62676552886E+03  0.83252977895E+03 -0.13806406633E+04  0.17297719835E+04  0.12699999809E+01 0. -1.
       -4    1    3    3    0  502  0.62676552886E+03 -0.83252977895E+03  0.15575807549E+03  0.10536617351E+04  0.12699999809E+01 0.  1.
</event>
<event>
 5   0  0.8407986E-06  0.2532499E+04  0.7818609E-02  0.8391498E-01
       -2   -1    0    0    0  501  0.00000000000E+00  0.00000000000E+00  0.15155170717E+04  0.15155170717E+04  0.25500000920E-02 0.  1.
        2   -1    0    0  501    0  0.00000000000E+00  0.00000000000E+00 -0.10579808069E+04  0.10579808069E+04  0.25500000920E-02 0. -1.
    10030    2    1    2    0    0  0.00000000000E+00  0.00000000000E+00  0.45753626482E+03  0.25734978785E+04  0.25324991406E+04 0.  0.
        5    1    3    3  502    0  0.28015773003E+02 -0.26751272552E+03 -0.10286063665E+04  0.10632032210E+04  0.46999998093E+01 0. -1.
       -5    1    3    3    0  502 -0.28015773003E+02  0.26751272552E+03  0.14861426314E+04  0.15102946575E+04  0.46999998093E+01 0.  1.
</event>
<event>
 5   0  0.3484857E-06  0.2500206E+04  0.7818609E-02  0.8402912E-01
        1   -1    0    0  501    0  0.00000000000E+00  0.00000000000E+00  0.13159125041E+04  0.13159125041E+04  0.50400001928E-02 0. -1.
       -1   -1    0    0    0  501  0.00000000000E+00  0.00000000000E+00 -0.11875846223E+04  0.11875846223E+04  0.50400001928E-02 0.  1.
    10030    2    1    2    0    0  0.00000000000E+00  0.00000000000E+00  0.12832788180E+03  0.25034971264E+04  0.25002059549E+04 0.  0.
        3    1    3    3  502    0  0.12724707991E+03  0.31811056594E+03 -0.11396545900E+04  0.11900414893E+04  0.10100000352E+00 0.  1.
       -3    1    3    3    0  502 -0.12724707991E+03 -0.31811056594E+03  0.12679824718E+04  0.13134556371E+04  0.10100000352E+00 0. -1.
</event>
<event>
 5   0  0.8056723E-06  0.2482617E+04  0.7818609E-02  0.8409205E-01
       -2   -1    0    0    0  501  0.00000000000E+00  0.00000000000E+00  0.15041755338E+04  0.15041755338E+04  0.25500000920E-02 0. -1.
        2   -1    0    0  501    0  0.00000000000E+00  0.00000000000E+00 -0.10243797764E+04  0.10243797764E+04  0.25500000920E-02 0.  1.
    10030    2    1    2    0    0  0.00000000000E+00  0.00000000000E+00  0.47979575744E+03  0.25285553102E+04  0.24826171650E+04 0.  0.
        2    1    3    3  502    0  0.83824042636E+03  0.91308434421E+03  0.30804610413E+03  0.12772088452E+04  0.25500000920E-02 0. -1.
       -2    1    3    3    0  502 -0.83824042636E+03 -0.91308434421E+03  0.17174965331E+03  0.12513464650E+04  0.25500000920E-02 0.  1.
</event>
<event>
 5   0  0.3642184E-06  0.2484903E+04  0.7818609E-02  0.8408384E-01
       -1   -1    0    0    0  501  0.00000000000E+00  0.00000000000E+00  0.76773472196E+03  0.76773472197E+03  0.50400001928E-02 0.  1.
        1   -1    0    0  501    0  0.00000000000E+00  0.00000000000E+00 -0.20107027644E+04  0.20107027644E+04  0.50400001928E-02 0. -1.
    10030    2    1    2    0    0  0.00000000000E+00  0.00000000000E+00 -0.12429680424E+04  0.27784374864E+04  0.24849034812E+04 0.  0.
        5    1    3    3  502    0  0.78071183445E+03  0.12704403448E+03 -0.16927949627E+04  0.18684828153E+04  0.46999998093E+01 0. -1.
       -5    1    3    3    0  502 -0.78071183445E+03 -0.12704403448E+03  0.44982692033E+03  0.90995467106E+03  0.46999998093E+01 0.  1.
</event>
<event>
 5   0  0.3522870E-06  0.2489350E+04  0.7818609E-02  0.8406790E-01
        1   -1    0    0  501    0  0.00000000000E+00  0.00000000000E+00  0.10727126330E+04  0.10727126330E+04  0.50400001928E-02 0. -1.
       -1   -1    0    0    0  501  0.00000000000E+00  0.00000000000E+00 -0.14442038478E+04  0.14442038479E+04  0.50400001928E-02 0.  1.
    10030    2    1    2    0    0  0.00000000000E+00  0.00000000000E+00 -0.37149121483E+03  0.25169164809E+04  0.24893498848E+04 0.  0.
        2    1    3    3  502    0  0.87778786497E+03 -0.55863965775E+03 -0.87641035073E+03  0.13603988040E+04  0.25500000920E-02 0.  1.
       -2    1    3    3    0  502 -0.87778786497E+03  0.55863965775E+03  0.50491913591E+03  0.11565176769E+04  0.25500000920E-02 0. -1.
</event>
<event>
 5   0  0.3642184E-06  0.2444179E+04  0.7818609E-02  0.8423146E-01
       -1   -1    0    0    0  501  0.00000000000E+00  0.00000000000E+00  0.10246943503E+04  0.10246943503E+04  0.50400001928E-02 0.  1.
        1   -1    0    0  501    0  0.00000000000E+00  0.00000000000E+00 -0.14575107083E+04  0.14575107084E+04  0.50400001928E-02 0. -1.
    10030    2    1    2    0    0  0.00000000000E+00  0.00000000000E+00 -0.43281635801E+03  0.24822050587E+04  0.24441791984E+04 0.  0.
        5    1    3    3  502    0 -0.40622824593E+03  0.35626611782E+03 -0.13296067458E+04  0.14352083901E+04  0.46999998093E+01 0. -1.
       -5    1    3    3    0  502  0.40622824593E+03 -0.35626611782E+03  0.89679038778E+03  0.10469966686E+04  0.46999998093E+01 0.  1.
</event>
<event>
 5   0  0.8407986E-06  0.2494902E+04  0.7818609E-02  0.8404804E-01
       -2   -1    0    0    0  501  0.00000000000E+00  0.00000000000E+00  0.16337381239E+04  0.16337381239E+04  0.25500000920E-02 0.  1.
        2   -1    0    0  501    0  0.00000000000E+00  0.00000000000E+00 -0.95249886494E+03  0.95249886495E+03  0.25500000920E-02 0. -1.
    10030    2    1    2    0    0  0.00000000000E+00  0.00000000000E+00  0.68123925901E+03  0.25862369889E+04  0.24949017686E+04 0.  0.
        5    1    3    3  502    0  0.11323896398E+04 -0.86189920013E+02  0.87563088653E+03  0.14340455146E+04  0.46999998093E+01 0.  1.
       -5    1    3    3    0  502 -0.11323896398E+04  0.86189920013E+02 -0.19439162752E+03  0.11521914743E+04  0.46999998093E+01 0. -1.
</event>
<event>
 5   0  0.3642184E-06  0.2497034E+04  0.7818609E-02  0.8404043E-01
       -1   -1    0    0    0  501  0.00000000000E+00  0.00000000000E+00  0.10922344515E+04  0.10922344516E+04  0.50400001928E-02 0. -1.
        1   -1    0    0  501    0  0.00000000000E+00  0.00000000000E+00 -0.14271610731E+04  0.14271610731E+04  0.50400001928E-02 0.  1.
    10030    2    1    2    0    0  0.00000000000E+00  0.00000000000E+00 -0.33492662152E+03  0.25193955246E+04  0.24970338339E+04 0.  0.
        5    1    3    3  502    0 -0.11427607929E+04  0.70072166157E+02 -0.66987854113E+03  0.13264884802E+04  0.46999998093E+01 0. -1.
       -5    1    3    3    0  502  0.11427607929E+04 -0.70072166157E+02  0.33495191961E+03  0.11929070444E+04  0.46999998093E+01 0.  1.
</event>
<event>
 5   0  0.8579923E-06  0.2513680E+04  0.7818609E-02  0.8398128E-01
       -2   -1    0    0    0  501  0.00000000000E+00  0.00000000000E+00  0.12733876953E+04  0.12733876953E+04  0.25500000920E-02 0.  1.
        2   -1    0    0  501    0  0.00000000000E+00  0.00000000000E+00 -0.12405075494E+04  0.12405075494E+04  0.25500000920E-02 0. -1.
    10030    2    1    2    0    0  0.00000000000E+00  0.00000000000E+00  0.32880145861E+02  0.25138952447E+04  0.25136802099E+04 0.  0.
        1    1    3    3  502    0  0.11347362503E+04 -0.36751967845E+03 -0.37976294501E+03  0.12517655397E+04  0.50400001928E-02 0. -1.
       -1    1    3    3    0  502 -0.11347362503E+04  0.36751967845E+03  0.41264309087E+03  0.12621297050E+04  0.50400001928E-02 0.  1.
</event>
<event>
 5   0  0.8407986E-06  0.2497925E+04  0.7818609E-02  0.8403725E-01
       -2   -1    0    0    0  501  0.00000000000E+00  0.00000000000E+00  0.14738698740E+04  0.14738698740E+04  0.25500000920E-02 0.  1.
        2   -1    0    0  501    0  0.00000000000E+00  0.00000000000E+00 -0.10583754229E+04  0.10583754230E+04  0.25500000920E-02 0. -1.
    10030    2    1    2    0    0  0.00000000000E+00  0.00000000000E+00  0.41549445105E+03  0.25322452970E+04  0.24979252601E+04 0.  0.
        5    1    3    3  502    0 -0.39090377171E+03 -0.10564384570E+04  0.75461955887E+03  0.13558542476E+04  0.46999998093E+01 0.  1.
       -5    1    3    3    0  502  0.39090377171E+03  0.10564384570E+04 -0.33912510782E+03  0.11763910493E+04  0.46999998093E+01 0. -1.
</event>
<event>
 5   0  0.8407986E-06  0.2513681E+04  0.7818609E-02  0.8398128E-01
        2   -1    0    0  501    0  0.00000000000E+00  0.00000000000E+00  0.16000782554E+04  0.16000782554E+04  0.25500000920E-02 0. -1.
       -2   -1    0    0    0  501  0.00000000000E+00  0.00000000000E+00 -0.98723191357E+03  0.98723191358E+03  0.25500000920E-02 0.  1.
    10030    2    1    2    0    0  0.00000000000E+00  0.00000000000E+00  0.61284634179E+03  0.25873101689E+04  0.25136812192E+04 0.  0.
        5    1    3    3  502    0 -0.39795563546E+01  0.78710702267E+02  0.15975233472E+04  0.15994730840E+04  0.46999998093E+01 0. -1.
       -5    1    3    3    0  502  0.39795563546E+01 -0.78710702267E+02 -0.98467700539E+03  0.98783708498E+03  0.46999998093E+01 0.  1.
</event>
<event>
 5   0  0.3642184E-06  0.2493133E+04  0.7818609E-02  0.8405436E-01
        1   -1    0    0  501    0  0.00000000000E+00  0.00000000000E+00  0.13195776732E+04  0.13195776732E+04  0.50400001928E-02 0. -1.
       -1   -1    0    0    0  501  0.00000000000E+00  0.00000000000E+00 -0.11775945771E+04  0.11775945771E+04  0.50400001928E-02 0.  1.
    10030    2    1    2    0    0  0.00000000000E+00  0.00000000000E+00  0.14198309610E+03  0.24971722504E+04  0.24931325774E+04 0.  0.
        5    1    3    3  502    0  0.23293389190E+03  0.18725703357E+03  0.12831516267E+04  0.13175065775E+04  0.46999998093E+01 0. -1.
       -5    1    3    3    0  502 -0.23293389190E+03 -0.18725703357E+03 -0.11411685306E+04  0.11796656729E+04  0.46999998093E+01 0.  1.
</event>
<event>
 5   0  0.3642184E-06  0.2497008E+04  0.7818609E-02  0.8404052E-01
        1   -1    0    0  501    0  0.00000000000E+00  0.00000000000E+00  0.61062928620E+03  0.61062928622E+03  0.50400001928E-02 0.  1.
       -1   -1    0    0    0  501  0.00000000000E+00  0.00000000000E+00 -0.25527151438E+04  0.25527151438E+04  0.50400001928E-02 0. -1.
    10030    2    1    2    0    0  0.00000000000E+00  0.00000000000E+00 -0.19420858576E+04  0.31633444300E+04  0.24970083109E+04 0.  0.
        5    1    3    3  502    0  0.73252030325E+03  0.41932780338E+02 -0.22507509913E+04  0.23673289732E+04  0.46999998093E+01 0. -1.
       -5    1    3    3    0  502 -0.73252030325E+03 -0.41932780338E+02  0.30866513367E+03  0.79601545681E+03  0.46999998093E+01 0.  1.
</event>
<event>
 5   0  0.8407986E-06  0.2515626E+04  0.7818609E-02  0.8397440E-01
        2   -1    0    0  501    0  0.00000000000E+00  0.00000000000E+00  0.97130758996E+03  0.97130758996E+03  0.25500000920E-02 0.  1.
       -2   -1    0    0    0  501  0.00000000000E+00  0.00000000000E+00 -0.16288285621E+04  0.16288285621E+04  0.25500000920E-02 0. -1.
    10030    2    1    2    0    0  0.00000000000E+00  0.00000000000E+00 -0.65752097211E+03  0.26001361520E+04  0.25156260017E+04 0.  0.
        5    1    3    3  502    0  0.43632017738E+03  0.55232794822E+03  0.74867396823E+03  0.10276070554E+04  0.46999998093E+01 0.  1.
       -5    1    3    3    0  502 -0.43632017738E+03 -0.55232794822E+03 -0.14061949403E+04  0.15725290967E+04  0.46999998093E+01 0. -1.
</event>
<event>
 5   0  0.3481387E-06  0.2505585E+04  0.7818609E-02  0.8400999E-01
        1   -1    0    0  501    0  0.00000000000E+00  0.00000000000E+00  0.68590274602E+03  0.68590274604E+03  0.50400001928E-02 0.  1.
       -1   -1    0    0    0  501  0.00000000000E+00  0.00000000000E+00 -0.22882090591E+04  0.22882090591E+04  0.50400001928E-02 0. -1.
    10030    2    1    2    0    0  0.00000000000E+00  0.00000000000E+00 -0.16023063131E+04  0.29741118052E+04  0.25055848636E+04 0.  0.
        4    1    3    3  502    0  0.35356599581E+03 -0.62213647646E+03  0.41944544977E+03  0.82945693497E+03  0.12699999809E+01 0.  1.
       -4    1    3    3    0  502 -0.35356599581E+03  0.62213647646E+03 -0.20217517629E+04  0.21446548702E+04  0.12699999809E+01 0. -1.
</event>
<event>
 5   0  0.8579923E-06  0.2500537E+04  0.7818609E-02  0.8402794E-01
       -2   -1    0    0    0  501  0.00000000000E+00  0.00000000000E+00  0.14513603021E+04  0.14513603021E+04  0.25500000920E-02 0.  1.
        2   -1    0    0  501    0  0.00000000000E+00  0.00000000000E+00 -0.10770387859E+04  0.10770387859E+04  0.25500000920E-02 0. -1.
    10030    2    1    2    0    0  0.00000000000E+00  0.00000000000E+00  0.37432151624E+03  0.25283990881E+04  0.25005370125E+04 0.  0.
        1    1    3    3  502    0 -0.67636871327E+03  0.86402566549E+03  0.79313492862E+03  0.13539121101E+04  0.50400001928E-02 0.  1.
       -1    1    3    3    0  502  0.67636871327E+03 -0.86402566549E+03 -0.41881341238E+03  0.11744869779E+04  0.50400001928E-02 0. -1.
</event>
<event>
 5   0  0.3642184E-06  0.2516718E+04  0.7818609E-02  0.8397054E-01
        1   -1    0    0  501    0  0.00000000000E+00  0.00000000000E+00  0.16535452223E+04  0.16535452223E+04  0.50400001928E-02 0.  1.
       -1   -1    0    0    0  501  0.00000000000E+00  0.00000000000E+00 -0.95761936711E+03  0.95761936713E+03  0.50400001928E-02 0. -1.
    10030    2    1    2    0    0  0.00000000000E+00  0.00000000000E+00  0.69592585521E+03  0.26111645895E+04  0.25167176475E+04 0.  0.
        5    1    3    3  502    0  0.11965018842E+04  0.15242936871E+03 -0.24093694191E+02  0.12064220106E+04  0.46999998093E+01 0. -1.
       -5    1    3    3    0  502 -0.11965018842E+04 -0.15242936871E+03  0.72001954940E+03  0.14047425789E+04  0.46999998093E+01 0.  1.
</event>
<event>
 5   0  0.3424193E-06  0.2491233E+04  0.7818609E-02  0.8406116E-01
        1   -1    0    0  501    0  0.00000000000E+00  0.00000000000E+00  0.16049573886E+04  0.16049573886E+04  0.50400001928E-02 0.  1.
       -1   -1    0    0    0  501  0.00000000000E+00  0.00000000000E+00 -0.96672961956E+03  0.96672961957E+03  0.50400001928E-02 0. -1.
    10030    2    1    2    0    0  0.00000000000E+00  0.00000000000E+00  0.63822776900E+03  0.25716870081E+04  0.24912325027E+04 0.  0.
        1    1    3    3  502    0 -0.42897738775E+03 -0.15964267008E+03 -0.87676885149E+03  0.98905561030E+03  0.50400001928E-02 0. -1.
       -1    1    3    3    0  502  0.42897738775E+03  0.15964267008E+03  0.15149966205E+04  0.15826313978E+04  0.50400001928E-02 0.  1.
</event>
<event>
 5   0  0.3424193E-06  0.2528981E+04  0.7818609E-02  0.8392733E-01
        1   -1    0    0  501    0  0.00000000000E+00  0.00000000000E+00  0.18825178657E+04  0.18825178657E+04  0.50400001928E-02 0.  1.
       -1   -1    0    0    0  501  0.00000000000E+00  0.00000000000E+00 -0.84936011956E+03  0.84936011958E+03  0.50400001928E-02 0. -1.
    10030    2    1    2    0    0  0.00000000000E+00  0.00000000000E+00  0.10331577461E+04  0.27318779853E+04  0.25289805057E+04 0.  0.
        1    1    3    3  502    0  0.25905370468E+03  0.96118543655E+03  0.13588453396E+04  0.16844722979E+04  0.50400001928E-02 0.  1.
       -1    1    3    3    0  502 -0.25905370468E+03 -0.96118543655E+03 -0.32568759351E+03  0.10474056874E+04  0.50400001928E-02 0. -1.
</event>
<event>
 5   0  0.3481387E-06  0.2500959E+04  0.7818609E-02  0.8402644E-01
       -1   -1    0    0    0  501  0.00000000000E+00  0.00000000000E+00  0.71890198349E+03  0.71890198351E+03  0.50400001928E-02 0. -1.
        1   -1    0    0  501    0  0.00000000000E+00  0.00000000000E+00 -0.21751210726E+04  0.21751210726E+04  0.50400001928E-02 0.  1.
    10030    2    1    2    0    0  0.00000000000E+00  0.00000000000E+00 -0.14562190891E+04  0.28940230561E+04  0.25009588989E+04 0.  0.
        4    1    3    3  502    0 -0.60046635380E+03  0.10900894027E+03  0.53487402309E+03  0.81150146308E+03  0.12699999809E+01 0. -1.
       -4    1    3    3    0  502  0.60046635380E+03 -0.10900894027E+03 -0.19910931122E+04  0.20825215930E+04  0.12699999809E+01 0.  1.
</event>
<event>
 5   0  0.8948286E-06  0.2493346E+04  0.7818609E-02  0.8405360E-01
        2   -1    0    0  501    0  0.00000000000E+00  0.00000000000E+00  0.14998664536E+04  0.14998664536E+04  0.25500000920E-02 0. -1.
       -2   -1    0    0    0  501  0.00000000000E+00  0.00000000000E+00 -0.10362210445E+04  0.10362210445E+04  0.25500000920E-02 0.  1.
    10030    2    1    2    0    0  0.00000000000E+00  0.00000000000E+00  0.46364540919E+03  0.25360874981E+04  0.24933456905E+04 0.  0.
        4    1    3    3  502    0  0.84921323944E+02  0.51468695813E+03 -0.91987589463E+03  0.10574911681E+04  0.12699999809E+01 0.  1.
       -4    1    3    3    0  502 -0.84921323944E+02 -0.51468695813E+03  0.13835213038E+04  0.14785963300E+04  0.12699999809E+01 0. -1.
</event>
<event>
 5   0  0.8354653E-06  0.2495881E+04  0.7818609E-02  0.8404454E-01
       -2   -1    0    0    0  501  0.00000000000E+00  0.00000000000E+00  0.73546249762E+03  0.73546249763E+03  0.25500000920E-02 0. -1.
        2   -1    0    0  501    0  0.00000000000E+00  0.00000000000E+00 -0.21175189375E+04  0.21175189375E+04  0.25500000920E-02 0.  1.
    10030    2    1    2    0    0  0.00000000000E+00  0.00000000000E+00 -0.13820564399E+04  0.28529814351E+04  0.24958812204E+04 0.  0.
        3    1    3    3  502    0 -0.76448740271E+03  0.41653812416E+03 -0.17130497073E+04  0.19215838019E+04  0.10100000352E+00 0.  1.
       -3    1    3    3    0  502  0.76448740271E+03 -0.41653812416E+03  0.33099326748E+03  0.93139763319E+03  0.10100000352E+00 0. -1.
</event>
<event>
 5   0  0.3481387E-06  0.2508962E+04  0.7818609E-02  0.8399800E-01
       -1   -1    0    0    0  501  0.00000000000E+00  0.00000000000E+00  0.12417206112E+04  0.12417206112E+04  0.50400001928E-02 0.  1.
        1   -1    0    0  501    0  0.00000000000E+00  0.00000000000E+00 -0.12673724401E+04  0.12673724401E+04  0.50400001928E-02 0. -1.
    10030    2    1    2    0    0  0.00000000000E+00  0.00000000000E+00 -0.25651828878E+02  0.25090930512E+04  0.25089619215E+04 0.  0.
        4    1    3    3  502    0  0.90892584949E+03 -0.86046859658E+03  0.71845283262E+02  0.12536808857E+04  0.12699999809E+01 0. -1.
       -4    1    3    3    0  502 -0.90892584949E+03  0.86046859658E+03 -0.97497112140E+02  0.12554121655E+04  0.12699999809E+01 0.  1.
</event>
<event>
 5   0  0.8407986E-06  0.2492818E+04  0.7818609E-02  0.8405548E-01
        2   -1    0    0  501    0  0.00000000000E+00  0.00000000000E+00  0.23247748451E+04  0.23247748451E+04  0.25500000920E-02 0. -1.
       -2   -1    0    0    0  501  0.00000000000E+00  0.00000000000E+00 -0.66825219141E+03  0.66825219141E+03  0.25500000920E-02 0.  1.
    10030    2    1    2    0    0  0.00000000000E+00  0.00000000000E+00  0.16565226537E+04  0.29930270365E+04  0.24928183927E+04 0.  0.
        5    1    3    3  502    0  0.54233716929E+03 -0.11079446797E+04  0.10425136119E+04  0.16150937247E+04  0.46999998093E+01 0.  1.
       -5    1    3    3    0  502 -0.54233716929E+03  0.11079446797E+04  0.61400904180E+03  0.13779333119E+04  0.46999998093E+01 0. -1.
</event>
<event>
 5   0  0.8354653E-06  0.2525560E+04  0.7818609E-02  0.8393936E-01
        2   -1    0    0  501    0  0.00000000000E+00  0.00000000000E+00  0.15634160905E+04  0.15634160905E+04  0.25500000920E-02 0.  1.
       -2   -1    0    0    0  501  0.00000000000E+00  0.00000000000E+00 -0.10199545487E+04  0.10199545487E+04  0.25500000920E-02 0. -1.
    10030    2    1    2    0    0  0.00000000000E+00  0.00000000000E+00  0.54346154180E+03  0.25833706391E+04  0.25255600194E+04 0.  0.
        3    1    3    3  502    0 -0.91601368472E+03  0.86667255440E+03  0.33966605059E+03  0.13059768081E+04  0.10100000352E+00 0. -1.
       -3    1    3    3    0  502  0.91601368472E+03 -0.86667255440E+03  0.20379549121E+03  0.12773938310E+04  0.10100000352E+00 0.  1.
</event>
<event>
 5   0  0.8056723E-06  0.2496731E+04  0.7818609E-02  0.8404151E-01
        2   -1    0    0  501    0  0.00000000000E+00  0.00000000000E+00  0.11760586275E+04  0.11760586275E+04  0.25500000920E-02 0.  1.
       -2   -1    0    0    0  501  0.00000000000E+00  0.00000000000E+00 -0.13251182594E+04  0.13251182594E+04  0.25500000920E-02 0. -1.
    10030    2    1    2    0    0  0.00000000000E+00  0.00000000000E+00 -0.14905963188E+03  0.25011768869E+04  0.24967312722E+04 0.  0.
        2    1    3    3  502    0  0.67511433789E+03 -0.22252285651E+03 -0.11025738952E+04  0.13118555505E+04  0.25500000920E-02 0. -1.
       -2    1    3    3    0  502 -0.67511433789E+03  0.22252285651E+03  0.95351426334E+03  0.11893213364E+04  0.25500000920E-02 0.  1.
</event>
<event>
 5   0  0.8056723E-06  0.2493633E+04  0.7818609E-02  0.8405257E-01
        2   -1    0    0  501    0  0.00000000000E+00  0.00000000000E+00  0.11621340490E+04  0.11621340490E+04  0.25500000920E-02 0. -1.
       -2   -1    0    0    0  501  0.00000000000E+00  0.00000000000E+00 -0.13376698830E+04  0.13376698830E+04  0.25500000920E-02 0.  1.
    10030    2    1    2    0    0  0.00000000000E+00  0.00000000000E+00 -0.17553583406E+03  0.24998039320E+04  0.24936332669E+04 0.  0.
        2    1    3    3  502    0 -0.80759917549E+03  0.53744614896E+03 -0.87296019479E+03  0.13050380427E+04  0.25500000920E-02 0.  1.
       -2    1    3    3    0  502  0.80759917549E+03 -0.53744614896E+03  0.69742436073E+03  0.11947658893E+04  0.25500000920E-02 0. -1.
</event>
<event>
 5   0  0.8056723E-06  0.2469531E+04  0.7818609E-02  0.8413921E-01
       -2   -1    0    0    0  501  0.00000000000E+00  0.00000000000E+00  0.15601740308E+04  0.15601740308E+04  0.25500000920E-02 0. -1.
        2   -1    0    0  501    0  0.00000000000E+00  0.00000000000E+00 -0.97722835938E+03  0.97722835938E+03  0.25500000920E-02 0.  1.
    10030    2    1    2    0    0  0.00000000000E+00  0.00000000000E+00  0.58294567142E+03  0.25374023902E+04  0.24695313794E+04 0.  0.
        2    1    3    3  502    0  0.20398360470E+03 -0.65199994323E+02  0.15409475011E+04  0.15557569063E+04  0.25500000920E-02 0. -1.
       -2    1    3    3    0  502 -0.20398360470E+03  0.65199994323E+02 -0.95800182973E+03  0.98164548387E+03  0.25500000920E-02 0.  1.
</event>
<event>
 5   0  0.8056723E-06  0.2495231E+04  0.7818609E-02  0.8404686E-01
       -2   -1    0    0    0  501  0.00000000000E+00  0.00000000000E+00  0.12037248931E+04  0.12037248931E+04  0.25500000920E-02 0.  1.
        2   -1    0    0  501    0  0.00000000000E+00  0.00000000000E+00 -0.12931069421E+04  0.12931069421E+04  0.25500000920E-02 0. -1.
    10030    2    1    2    0    0  0.00000000000E+00  0.00000000000E+00 -0.89382048929E+02  0.24968318352E+04  0.24952314647E+04 0.  0.
        2    1    3    3  502    0 -0.18455668314E+03  0.43414053602E+03  0.11110414605E+04  0.12070427918E+04  0.25500000920E-02 0.  1.
       -2    1    3    3    0  502  0.18455668314E+03 -0.43414053602E+03 -0.12004235095E+04  0.12897890434E+04  0.25500000920E-02 0. -1.
</event>
<event>
 5   0  0.8354653E-06  0.2500837E+04  0.7818609E-02  0.8402688E-01
       -2   -1    0    0    0  501  0.00000000000E+00  0.00000000000E+00  0.14146246273E+04  0.14146246273E+04  0.25500000920E-02 0.  1.
        2   -1    0    0  501    0  0.00000000000E+00  0.00000000000E+00 -0.11052726573E+04  0.11052726573E+04  0.25500000920E-02 0. -1.
    10030    2    1    2    0    0  0.00000000000E+00  0.00000000000E+00  0.30935196995E+03  0.25198972846E+04  0.25008365968E+04 0.  0.
        3    1    3    3  502    0  0.96931668830E+03 -0.10252640189E+03 -0.63453012182E+03  0.11630627631E+04  0.10100000352E+00 0. -1.
       -3    1    3    3    0  502 -0.96931668830E+03  0.10252640189E+03  0.94388209177E+03  0.13568345215E+04  0.10100000352E+00 0.  1.
</event>
<event>
 5   0  0.8948286E-06  0.2485001E+04  0.7818609E-02  0.8408349E-01
       -2   -1    0    0    0  501  0.00000000000E+00  0.00000000000E+00  0.79809067561E+03  0.79809067562E+03  0.25500000920E-02 0. -1.
        2   -1    0    0  501    0  0.00000000000E+00  0.00000000000E+00 -0.19343754799E+04  0.19343754799E+04  0.25500000920E-02 0.  1.
    10030    2    1    2    0    0  0.00000000000E+00  0.00000000000E+00 -0.11362848043E+04  0.27324661555E+04  0.24850006307E+04 0.  0.
        4    1    3    3  502    0  0.18213363324E+03  0.11942253613E+04 -0.24858411056E+03  0.12333460775E+04  0.12699999809E+01 0. -1.
       -4    1    3    3    0  502 -0.18213363324E+03 -0.11942253613E+04 -0.88770069374E+03  0.14991200781E+04  0.12699999809E+01 0.  1.
</event>
<event>
 5   0  0.8579923E-06  0.2476997E+04  0.7818609E-02  0.8411227E-01
       -2   -1    0    0    0  501  0.00000000000E+00  0.00000000000E+00  0.17998945344E+04  0.17998945344E+04  0.25500000920E-02 0. -1.
        2   -1    0    0  501    0  0.00000000000E+00  0.00000000000E+00 -0.85220459346E+03  0.85220459346E+03  0.25500000920E-02 0.  1.
    10030    2    1    2    0    0  0.00000000000E+00  0.00000000000E+00  0.94768994095E+03  0.26520991279E+04  0.24769968833E+04 0.  0.
        1    1    3    3  502    0 -0.15350893221E+03  0.55129244574E+03 -0.70215730897E+03  0.90582185863E+03  0.50400001928E-02 0.  1.
       -1    1    3    3    0  502  0.15350893221E+03 -0.55129244574E+03  0.16498472499E+04  0.17462772692E+04  0.50400001928E-02 0. -1.
</event>
<event>
 5   0  0.3424193E-06  0.2494856E+04  0.7818609E-02  0.8404820E-01
       -1   -1    0    0    0  501  0.00000000000E+00  0.00000000000E+00  0.10116156778E+04  0.10116156778E+04  0.50400001928E-02 0. -1.
        1   -1    0    0  501    0  0.00000000000E+00  0.00000000000E+00 -0.15382092667E+04  0.15382092667E+04  0.50400001928E-02 0.  1.
    10030    2    1    2    0    0  0.00000000000E+00  0.00000000000E+00 -0.52659358891E+03  0.25498249445E+04  0.24948559958E+04 0.  0.
        1    1    3    3  502    0  0.60674672586E+03 -0.82185902042E+03  0.46835512666E+03  0.11238106440E+04  0.50400001928E-02 0. -1.
       -1    1    3    3    0  502 -0.60674672586E+03  0.82185902042E+03 -0.99494871557E+03  0.14260143006E+04  0.50400001928E-02 0.  1.
</event>
<event>
 5   0  0.3484857E-06  0.2519646E+04  0.7818609E-02  0.8396020E-01
       -1   -1    0    0    0  501  0.00000000000E+00  0.00000000000E+00  0.89608223947E+03  0.89608223948E+03  0.50400001928E-02 0. -1.
        1   -1    0    0  501    0  0.00000000000E+00  0.00000000000E+00 -0.17712140440E+04  0.17712140440E+04  0.50400001928E-02 0.  1.
    10030    2    1    2    0    0  0.00000000000E+00  0.00000000000E+00 -0.87513180451E+03  0.26672962835E+04  0.25196455680E+04 0.  0.
        3    1    3    3  502    0 -0.25704650833E+03 -0.12233396945E+04 -0.60333235937E+03  0.13880356125E+04  0.10100000352E+00 0.  1.
       -3    1    3    3    0  502  0.25704650833E+03  0.12233396945E+04 -0.27179944514E+03  0.12792606709E+04  0.10100000352E+00 0. -1.
</event>
<event>
 5   0  0.3424193E-06  0.2501914E+04  0.7818609E-02  0.8402304E-01
       -1   -1    0    0    0  501  0.00000000000E+00  0.00000000000E+00  0.96248080131E+03  0.96248080133E+03  0.50400001928E-02 0. -1.
        1   -1    0    0  501    0  0.00000000000E+00  0.00000000000E+00 -0.16258958298E+04  0.16258958298E+04  0.50400001928E-02 0.  1.
    10030    2    1    2    0    0  0.00000000000E+00  0.00000000000E+00 -0.66341502845E+03  0.25883766311E+04  0.25019140841E+04 0.  0.
        1    1    3    3  502    0 -0.10122062566E+04  0.45377174123E+03 -0.92998587042E+03  0.14475303168E+04  0.50400001928E-02 0.  1.
       -1    1    3    3    0  502  0.10122062566E+04 -0.45377174123E+03  0.26657084197E+03  0.11408463143E+04  0.50400001928E-02 0. -1.
</event>
<event>
 5   0  0.8948286E-06  0.2511733E+04  0.7818609E-02  0.8398818E-01
       -2   -1    0    0    0  501  0.00000000000E+00  0.00000000000E+00  0.83863407924E+03  0.83863407925E+03  0.25500000920E-02 0. -1.
        2   -1    0    0  501    0  0.00000000000E+00  0.00000000000E+00 -0.18806775751E+04  0.18806775751E+04  0.25500000920E-02 0.  1.
    10030    2    1    2    0    0  0.00000000000E+00  0.00000000000E+00 -0.10420434959E+04  0.27193116543E+04  0.25117327139E+04 0.  0.
        4    1    3    3  502    0 -0.61053752969E+03 -0.36955658816E+03  0.59775869508E+03  0.93093781611E+03  0.12699999809E+01 0. -1.
       -4    1    3    3    0  502  0.61053752969E+03  0.36955658816E+03 -0.16398021909E+04  0.17883738382E+04  0.12699999809E+01 0.  1.
</event>
<event>
 5   0  0.8056723E-06  0.2501531E+04  0.7818609E-02  0.8402440E-01
        2   -1    0    0  501    0  0.00000000000E+00  0.00000000000E+00  0.19787980370E+04  0.19787980370E+04  0.25500000920E-02 0.  1.
       -2   -1    0    0    0  501  0.00000000000E+00  0.00000000000E+00 -0.79058791294E+03  0.79058791295E+03  0.25500000920E-02 0. -1.
    10030    2    1    2    0    0  0.00000000000E+00  0.00000000000E+00  0.11882101241E+04  0.27693859500E+04  0.25015305796E+04 0.  0.
        2    1    3    3  502    0 -0.48157887295E+03  0.10845402854E+04  0.15646945324E+03  0.11969246139E+04  0.25500000920E-02 0. -1.
       -2    1    3    3    0  502  0.48157887295E+03 -0.10845402854E+04  0.10317406708E+04  0.15724613361E+04  0.25500000920E-02 0.  1.
</event>
<event>
 5   0  0.8056723E-06  0.2488434E+04  0.7818609E-02  0.8407118E-01
        2   -1    0    0  501    0  0.00000000000E+00  0.00000000000E+00  0.16240965994E+04  0.16240965994E+04  0.25500000920E-02 0.  1.
       -2   -1    0    0    0  501  0.00000000000E+00  0.00000000000E+00 -0.95319186084E+03  0.95319186085E+03  0.25500000920E-02 0. -1.
    10030    2    1    2    0    0  0.00000000000E+00  0.00000000000E+00  0.67090473851E+03  0.25772884602E+04  0.24884337723E+04 0.  0.
        2    1    3    3  502    0  0.50530438173E+02  0.43496644936E+03  0.15416516621E+04  0.16026350129E+04  0.25500000920E-02 0.  1.
       -2    1    3    3    0  502 -0.50530438173E+02 -0.43496644936E+03 -0.87074692364E+03  0.97465344728E+03  0.25500000920E-02 0. -1.
</event>
<event>
 5   0  0.8579923E-06  0.2501555E+04  0.7818609E-02  0.8402432E-01
       -2   -1    0    0    0  501  0.00000000000E+00  0.00000000000E+00  0.10922745631E+04  0.10922745631E+04  0.25500000920E-02 0.  1.
        2   -1    0    0  501    0  0.00000000000E+00  0.00000000000E+00 -0.14322812265E+04  0.14322812265E+04  0.25500000920E-02 0. -1.
    10030    2    1    2    0    0  0.00000000000E+00  0.00000000000E+00 -0.34000666343E+03  0.25245557897E+04  0.25015549972E+04 0.  0.
        1    1    3    3  502    0 -0.63853103037E+03 -0.91680787667E+03 -0.73747749368E+03  0.13387052003E+04  0.50400001928E-02 0. -1.
       -1    1    3    3    0  502  0.63853103037E+03  0.91680787667E+03  0.39747083025E+03  0.11858505894E+04  0.50400001928E-02 0.  1.
</event>
<event>
 5   0  0.8407986E-06  0.2496025E+04  0.7818609E-02  0.8404403E-01
       -2   -1    0    0    0  501  0.00000000000E+00  0.00000000000E+00  0.18318228689E+04  0.18318228689E+04  0.25500000920E-02 0. -1.
        2   -1    0    0  501    0  0.00000000000E+00  0.00000000000E+00 -0.85026519767E+03  0.85026519767E+03  0.25500000920E-02 0.  1.
    10030    2    1    2    0    0  0.00000000000E+00  0.00000000000E+00  0.98155767121E+03  0.26820880666E+04  0.24960250269E+04 0.  0.
        5    1    3    3  502    0  0.68624426014E+03  0.10343295636E+04  0.62982460008E+03  0.13919302955E+04  0.46999998093E+01 0.  1.
       -5    1    3    3    0  502 -0.68624426014E+03 -0.10343295636E+04  0.35173307113E+03  0.12901577710E+04  0.46999998093E+01 0. -1.
</event>
<event>
 5   0  0.3522870E-06  0.2505696E+04  0.7818609E-02  0.8400959E-01
       -1   -1    0    0    0  501  0.00000000000E+00  0.00000000000E+00  0.85766633520E+03  0.85766633522E+03  0.50400001928E-02 0. -1.
        1   -1    0    0  501    0  0.00000000000E+00  0.00000000000E+00 -0.18301146070E+04  0.18301146070E+04  0.50400001928E-02 0.  1.
    10030    2    1    2    0    0  0.00000000000E+00  0.00000000000E+00 -0.97244827178E+03  0.26877809422E+04  0.25056956623E+04 0.  0.
        2    1    3    3  502    0  0.35735136999E+03 -0.11525267646E+04 -0.12466999645E+03  0.12130789557E+04  0.25500000920E-02 0.  1.
       -2    1    3    3    0  502 -0.35735136999E+03  0.11525267646E+04 -0.84777827533E+03  0.14747019865E+04  0.25500000920E-02 0. -1.
</event>
<event>
 5   0  0.3484857E-06  0.2502397E+04  0.7818609E-02  0.8402132E-01
        1   -1    0    0  501    0  0.00000000000E+00  0.00000000000E+00  0.19674158928E+04  0.19674158928E+04  0.50400001928E-02 0.  1.
       -1   -1    0    0    0  501  0.00000000000E+00  0.00000000000E+00 -0.79571294801E+03  0.79571294803E+03  0.50400001928E-02 0. -1.
    10030    2    1    2    0    0  0.00000000000E+00  0.00000000000E+00  0.11717029448E+04  0.27631288408E+04  0.25023974904E+04 0.  0.
        3    1    3    3  502    0  0.20492690141E+03 -0.29561872600E+03  0.19090929946E+04  0.19426841066E+04  0.10100000352E+00 0.  1.
       -3    1    3    3    0  502 -0.20492690141E+03  0.29561872600E+03 -0.73739004980E+03  0.82044473417E+03  0.10100000352E+00 0. -1.
</event>
<event>
 5   0  0.3424193E-06  0.2504677E+04  0.7818609E-02  0.8401321E-01
       -1   -1    0    0    0  501  0.00000000000E+00  0.00000000000E+00  0.63221394149E+03  0.63221394151E+03  0.50400001928E-02 0. -1.
        1   -1    0    0  501    0  0.00000000000E+00  0.00000000000E+00 -0.24807297412E+04  0.24807297412E+04  0.50400001928E-02 0.  1.
    10030    2    1    2    0    0  0.00000000000E+00  0.00000000000E+00 -0.18485157997E+04  0.31129436827E+04  0.25046771668E+04 0.  0.
        1    1    3    3  502    0 -0.87443706062E+03  0.55773452771E+03 -0.51917302214E+02  0.10384620276E+04  0.50400001928E-02 0. -1.
       -1    1    3    3    0  502  0.87443706062E+03 -0.55773452771E+03 -0.17965984975E+04  0.20744816552E+04  0.50400001928E-02 0.  1.
</event>
<event>
 5   0  0.3522870E-06  0.2490839E+04  0.7818609E-02  0.8406256E-01
       -1   -1    0    0    0  501  0.00000000000E+00  0.00000000000E+00  0.15884687154E+04  0.15884687154E+04  0.50400001928E-02 0. -1.
        1   -1    0    0  501    0  0.00000000000E+00  0.00000000000E+00 -0.97645594989E+03  0.97645594991E+03  0.50400001928E-02 0.  1.
    10030    2    1    2    0    0  0.00000000000E+00  0.00000000000E+00  0.61201276546E+03  0.25649246653E+04  0.24908389979E+04 0.  0.
        2    1    3    3  502    0 -0.98462308168E+03 -0.74043091830E+03  0.11795718885E+03  0.12375922011E+04  0.25500000920E-02 0. -1.
       -2    1    3    3    0  502  0.98462308168E+03  0.74043091830E+03  0.49405557660E+03  0.13273324642E+04  0.25500000920E-02 0.  1.
</event>
<event>
 5   0  0.8354653E-06  0.2482518E+04  0.7818609E-02  0.8409240E-01
        2   -1    0    0  501    0  0.00000000000E+00  0.00000000000E+00  0.14039433065E+04  0.14039433065E+04  0.25500000920E-02 0.  1.
       -2   -1    0    0    0  501  0.00000000000E+00  0.00000000000E+00 -0.10974256115E+04  0.10974256115E+04  0.25500000920E-02 0. -1.
    10030    2    1    2    0    0  0.00000000000E+00  0.00000000000E+00  0.30651769501E+03  0.25013689180E+04  0.24825175461E+04 0.  0.
        3    1    3    3  502    0 -0.28323328224E+03  0.11850848467E+04 -0.85343382949E+02  0.12214461467E+04  0.10100000352E+00 0. -1.
       -3    1    3    3    0  502  0.28323328224E+03 -0.11850848467E+04  0.39186107796E+03  0.12799227714E+04  0.10100000352E+00 0.  1.
</event>
<event>
 5   0  0.3522870E-06  0.2502298E+04  0.7818609E-02  0.8402167E-01
       -1   -1    0    0    0  501  0.00000000000E+00  0.00000000000E+00  0.21904574989E+04  0.21904574989E+04  0.50400001928E-02 0.  1.
        1   -1    0    0  501    0  0.00000000000E+00  0.00000000000E+00 -0.71463340127E+03  0.71463340128E+03  0.50400001928E-02 0. -1.
    10030    2    1    2    0    0  0.00000000000E+00  0.00000000000E+00  0.14758240976E+04  0.29050909002E+04  0.25022982179E+04 0.  0.
        2    1    3    3  502    0 -0.51299658828E+03  0.39226893694E+03 -0.50618628838E+03  0.82052725550E+03  0.25500000920E-02 0. -1.
       -2    1    3    3    0  502  0.51299658828E+03 -0.39226893694E+03  0.19820103860E+04  0.20845636447E+04  0.25500000920E-02 0.  1.
</event>
<event>
 5   0  0.8407986E-06  0.2491452E+04  0.7818609E-02  0.8406037E-01
       -2   -1    0    0    0  501  0.00000000000E+00  0.00000000000E+00  0.11338399456E+04  0.11338399456E+04  0.25500000920E-02 0. -1.
        2   -1    0    0  501    0  0.00000000000E+00  0.00000000000E+00 -0.13686526989E+04  0.13686526990E+04  0.25500000920E-02 0.  1.
    10030    2    1    2    0    0  0.00000000000E+00  0.00000000000E+00 -0.23481275339E+03  0.25024926445E+04  0.24914518672E+04 0.  0.
        5    1    3    3  502    0  0.86568348140E+03  0.23855516831E+03  0.74984010307E+03  0.11698712444E+04  0.46999998093E+01 0. -1.
       -5    1    3    3    0  502 -0.86568348140E+03 -0.23855516831E+03 -0.98465285646E+03  0.13326214001E+04  0.46999998093E+01 0.  1.
</event>
<event>
 5   0  0.8579923E-06  0.2497386E+04  0.7818609E-02  0.8403917E-01
        2   -1    0    0  501    0  0.00000000000E+00  0.00000000000E+00  0.12017594838E+04  0.12017594838E+04  0.25500000920E-02 0.  1.
       -2   -1    0    0    0  501  0.00000000000E+00  0.00000000000E+00 -0.12974595765E+04  0.12974595765E+04  0.25500000920E-02 0. -1.
    10030    2    1    2    0    0  0.00000000000E+00  0.00000000000E+00 -0.95700092667E+02  0.24992190603E+04  0.24973861142E+04 0.  0.
        1    1    3    3  502    0  0.55993082701E+03  0.93126229584E+03 -0.66349450686E+03  0.12731837869E+04  0.50400001928E-02 0. -1.
       -1    1    3    3    0  502 -0.55993082701E+03 -0.93126229584E+03  0.56779441420E+03  0.12260352734E+04  0.50400001928E-02 0.  1.
</event>
<event>
 5   0  0.3642184E-06  0.2508662E+04  0.7818609E-02  0.8399906E-01
       -1   -1    0    0    0  501  0.00000000000E+00  0.00000000000E+00  0.22402897249E+04  0.22402897249E+04  0.50400001928E-02 0.  1.
        1   -1    0    0  501    0  0.00000000000E+00  0.00000000000E+00 -0.70229564470E+03  0.70229564472E+03  0.50400001928E-02 0. -1.
    10030    2    1    2    0    0  0.00000000000E+00  0.00000000000E+00  0.15379940802E+04  0.29425853696E+04  0.25086615688E+04 0.  0.
        5    1    3    3  502    0 -0.16212606043E+03  0.12428015482E+04  0.71054734411E+03  0.14407429215E+04  0.46999998093E+01 0.  1.
       -5    1    3    3    0  502  0.16212606043E+03 -0.12428015482E+04  0.82744673606E+03  0.15018424480E+04  0.46999998093E+01 0. -1.
</event>
<event>
 5   0  0.3484857E-06  0.2527291E+04  0.7818609E-02  0.8393327E-01
       -1   -1    0    0    0  501  0.00000000000E+00  0.00000000000E+00  0.14798237014E+04  0.14798237014E+04  0.50400001928E-02 0.  1.
        1   -1    0    0  501    0  0.00000000000E+00  0.00000000000E+00 -0.10790472228E+04  0.10790472228E+04  0.50400001928E-02 0. -1.
    10030    2    1    2    0    0  0.00000000000E+00  0.00000000000E+00  0.40077647862E+03  0.25588709242E+04  0.25272907670E+04 0.  0.
        3    1    3    3  502    0 -0.22114657355E+03 -0.11886474588E+04 -0.17164165343E+03  0.12211672513E+04  0.10100000352E+00 0.  1.
       -3    1    3    3    0  502  0.22114657355E+03  0.11886474588E+04  0.57241813205E+03  0.13377036729E+04  0.10100000352E+00 0. -1.
</event>
<event>
 5   0  0.3481387E-06  0.2482495E+04  0.7818609E-02  0.8409248E-01
        1   -1    0    0  501    0  0.00000000000E+00  0.00000000000E+00  0.12683274704E+04  0.12683274704E+04  0.50400001928E-02 0. -1.
       -1   -1    0    0    0  501  0.00000000000E+00  0.00000000000E+00 -0.12147460822E+04  0.12147460823E+04  0.50400001928E-02 0.  1.
    10030    2    1    2    0    0  0.00000000000E+00  0.00000000000E+00  0.53581388155E+02  0.24830735527E+04  0.24824953782E+04 0.  0.
        4    1    3    3  502    0  0.10293615927E+04 -0.58723049651E+03  0.39602334433E+03  0.12495043204E+04  0.12699999809E+01 0. -1.
       -4    1    3    3    0  502 -0.10293615927E+04  0.58723049651E+03 -0.34244195618E+03  0.12335692323E+04  0.12699999809E+01 0.  1.
</event>
<event>
 5   0  0.3642184E-06  0.2500409E+04  0.7818609E-02  0.8402840E-01
       -1   -1    0    0    0  501  0.00000000000E+00  0.00000000000E+00  0.83975190939E+03  0.83975190941E+03  0.50400001928E-02 0.  1.
        1   -1    0    0  501    0  0.00000000000E+00  0.00000000000E+00 -0.18612769424E+04  0.18612769424E+04  0.50400001928E-02 0. -1.
    10030    2    1    2    0    0  0.00000000000E+00  0.00000000000E+00 -0.10215250330E+04  0.27010288518E+04  0.25004086596E+04 0.  0.
        5    1    3    3  502    0  0.24197651232E+03  0.21843706021E+03  0.79302397873E+03  0.85742434222E+03  0.46999998093E+01 0.  1.
       -5    1    3    3    0  502 -0.24197651232E+03 -0.21843706021E+03 -0.18145490117E+04  0.18436045096E+04  0.46999998093E+01 0. -1.
</event>
<event>
 5   0  0.8056723E-06  0.2511592E+04  0.7818609E-02  0.8398868E-01
       -2   -1    0    0    0  501  0.00000000000E+00  0.00000000000E+00  0.12128676365E+04  0.12128676365E+04  0.25500000920E-02 0. -1.
        2   -1    0    0  501    0  0.00000000000E+00  0.00000000000E+00 -0.13002434176E+04  0.13002434176E+04  0.25500000920E-02 0.  1.
    10030    2    1    2    0    0  0.00000000000E+00  0.00000000000E+00 -0.87375781029E+02  0.25131110541E+04  0.25115916553E+04 0.  0.
        2    1    3    3  502    0  0.39025026470E+03  0.64963033777E+03 -0.10456469060E+04  0.12913916125E+04  0.25500000920E-02 0.  1.
       -2    1    3    3    0  502 -0.39025026470E+03 -0.64963033777E+03  0.95827112500E+03  0.12217194416E+04  0.25500000920E-02 0. -1.
</event>
<event>
 5   0  0.3522870E-06  0.2441032E+04  0.7818609E-02  0.8424300E-01
        1   -1    0    0  501    0  0.00000000000E+00  0.00000000000E+00  0.10127168511E+04  0.10127168511E+04  0.50400001928E-02 0. -1.
       -1   -1    0    0    0  501  0.00000000000E+00  0.00000000000E+00 -0.14709534396E+04  0.14709534396E+04  0.50400001928E-02 0.  1.
    10030    2    1    2    0    0  0.00000000000E+00  0.00000000000E+00 -0.45823658848E+03  0.24836702907E+04  0.24410320239E+04 0.  0.
        2    1    3    3  502    0 -0.11981775162E+04  0.18420955840E+03 -0.37335774743E+03  0.12684472907E+04  0.25500000920E-02 0.  1.
       -2    1    3    3    0  502  0.11981775162E+04 -0.18420955840E+03 -0.84878841052E+02  0.12152229999E+04  0.25500000920E-02 0. -1.
</event>
<event>
 5   0  0.8407986E-06  0.2459698E+04  0.7818609E-02  0.8417486E-01
       -2   -1    0    0    0  501  0.00000000000E+00  0.00000000000E+00  0.13304595722E+04  0.13304595722E+04  0.25500000920E-02 0. -1.
        2   -1    0    0  501    0  0.00000000000E+00  0.00000000000E+00 -0.11368468903E+04  0.11368468903E+04  0.25500000920E-02 0.  1.
    10030    2    1    2    0    0  0.00000000000E+00  0.00000000000E+00  0.19361268189E+03  0.24673064625E+04  0.24596982151E+04 0.  0.
        5    1    3    3  502    0  0.20967930770E+03 -0.31446403828E+03 -0.10771357029E+04  0.11415325033E+04  0.46999998093E+01 0.  1.
       -5    1    3    3    0  502 -0.20967930770E+03  0.31446403828E+03  0.12707483848E+04  0.13257739592E+04  0.46999998093E+01 0. -1.
</event>
<event>
 5   0  0.3424193E-06  0.2500422E+04  0.7818609E-02  0.8402835E-01
       -1   -1    0    0    0  501  0.00000000000E+00  0.00000000000E+00  0.97870576945E+03  0.97870576946E+03  0.50400001928E-02 0.  1.
        1   -1    0    0  501    0  0.00000000000E+00  0.00000000000E+00 -0.15970346752E+04  0.15970346752E+04  0.50400001928E-02 0. -1.
    10030    2    1    2    0    0  0.00000000000E+00  0.00000000000E+00 -0.61832890577E+03  0.25757404447E+04  0.25004216050E+04 0.  0.
        1    1    3    3  502    0  0.31202977183E+02  0.37472025024E+03  0.91907598187E+03  0.99302041882E+03  0.50400001928E-02 0.  1.
       -1    1    3    3    0  502 -0.31202977183E+02 -0.37472025024E+03 -0.15374048876E+04  0.15827200259E+04  0.50400001928E-02 0. -1.
</event>
<event>
 5   0  0.8354653E-06  0.2587492E+04  0.7818609E-02  0.8372462E-01
       -2   -1    0    0    0  501  0.00000000000E+00  0.00000000000E+00  0.12217246339E+04  0.12217246339E+04  0.25500000920E-02 0. -1.
        2   -1    0    0  501    0  0.00000000000E+00  0.00000000000E+00 -0.13700130938E+04  0.13700130938E+04  0.25500000920E-02 0.  1.
    10030    2    1    2    0    0  0.00000000000E+00  0.00000000000E+00 -0.14828845989E+03  0.25917377278E+04  0.25874920255E+04 0.  0.
        3    1    3    3  502    0 -0.34115177299E+03  0.11793524932E+04  0.33459630542E+03  0.12724824294E+04  0.10100000352E+00 0. -1.
       -3    1    3    3    0  502  0.34115177299E+03 -0.11793524932E+04 -0.48288476531E+03  0.13192552983E+04  0.10100000352E+00 0.  1.
</event>
<event>
 5   0  0.8407986E-06  0.2502927E+04  0.7818609E-02  0.8401943E-01
       -2   -1    0    0    0  501  0.00000000000E+00  0.00000000000E+00  0.82364456497E+03  0.82364456498E+03  0.25500000920E-02 0. -1.
        2   -1    0    0  501    0  0.00000000000E+00  0.00000000000E+00 -0.19015010036E+04  0.19015010036E+04  0.25500000920E-02 0.  1.
    10030    2    1    2    0    0  0.00000000000E+00  0.00000000000E+00 -0.10778564386E+04  0.27251455686E+04  0.25029270600E+04 0.  0.
        5    1    3    3  502    0  0.80220078633E+02  0.10044174748E+04 -0.13470147258E+04  0.16821891945E+04  0.46999998093E+01 0.  1.
       -5    1    3    3    0  502 -0.80220078633E+02 -0.10044174748E+04  0.26915828715E+03  0.10429563741E+04  0.46999998093E+01 0. -1.
</event>
<event>
 5   0  0.8407986E-06  0.2501633E+04  0.7818609E-02  0.8402404E-01
        2   -1    0    0  501    0  0.00000000000E+00  0.00000000000E+00  0.29133297770E+04  0.29133297770E+04  0.25500000920E-02 0. -1.
       -2   -1    0    0    0  501  0.00000000000E+00  0.00000000000E+00 -0.53702892945E+03  0.53702892946E+03  0.25500000920E-02 0.  1.
    10030    2    1    2    0    0  0.00000000000E+00  0.00000000000E+00  0.23763008476E+04  0.34503587065E+04  0.25016333635E+04 0.  0.
        5    1    3    3  502    0 -0.57568263783E+03 -0.32868878521E+03 -0.27480478002E+03  0.71762565042E+03  0.46999998093E+01 0.  1.
       -5    1    3    3    0  502  0.57568263783E+03  0.32868878521E+03  0.26511056276E+04  0.27327330561E+04  0.46999998093E+01 0. -1.
</event>
<event>
 5   0  0.8354653E-06  0.2486497E+04  0.7818609E-02  0.8407812E-01
        2   -1    0    0  501    0  0.00000000000E+00  0.00000000000E+00  0.10693738291E+04  0.10693738291E+04  0.25500000920E-02 0.  1.
       -2   -1    0    0    0  501  0.00000000000E+00  0.00000000000E+00 -0.14453946036E+04  0.14453946036E+04  0.25500000920E-02 0. -1.
    10030    2    1    2    0    0  0.00000000000E+00  0.00000000000E+00 -0.37602077448E+03  0.25147684327E+04  0.24864972647E+04 0.  0.
        3    1    3    3  502    0 -0.62664735541E+03 -0.20751877301E+03 -0.12535144497E+04  0.14167037217E+04  0.10100000352E+00 0. -1.
       -3    1    3    3    0  502  0.62664735541E+03  0.20751877301E+03  0.87749367525E+03  0.10980647110E+04  0.10100000352E+00 0.  1.
</event>
<event>
 5   0  0.3424193E-06  0.2504230E+04  0.7818609E-02  0.8401480E-01
        1   -1    0    0  501    0  0.00000000000E+00  0.00000000000E+00  0.23185300977E+04  0.23185300977E+04  0.50400001928E-02 0. -1.
       -1   -1    0    0    0  501  0.00000000000E+00  0.00000000000E+00 -0.67620076568E+03  0.67620076570E+03  0.50400001928E-02 0.  1.
    10030    2    1    2    0    0  0.00000000000E+00  0.00000000000E+00  0.16423293320E+04  0.29947308634E+04  0.25042298835E+04 0.  0.
        1    1    3    3  502    0 -0.79919074235E+03  0.93854545617E+03  0.55856748875E+03  0.13533554801E+04  0.50400001928E-02 0. -1.
       -1    1    3    3    0  502  0.79919074235E+03 -0.93854545617E+03  0.10837618432E+04  0.16413753833E+04  0.50400001928E-02 0.  1.
</event>
<event>
 5   0  0.3481387E-06  0.2475019E+04  0.7818609E-02  0.8411940E-01
        1   -1    0    0  501    0  0.00000000000E+00  0.00000000000E+00  0.30942497718E+04  0.30942497718E+04  0.50400001928E-02 0.  1.
       -1   -1    0    0    0  501  0.00000000000E+00  0.00000000000E+00 -0.49492758123E+03  0.49492758126E+03  0.50400001928E-02 0. -1.
    10030    2    1    2    0    0  0.00000000000E+00  0.00000000000E+00  0.25993221906E+04  0.35891773531E+04  0.24750188325E+04 0.  0.
        4    1    3    3  502    0 -0.10819278454E+04  0.91146542713E+02  0.43861135325E+03  0.11710068689E+04  0.12699999809E+01 0. -1.
       -4    1    3    3    0  502  0.10819278454E+04 -0.91146542713E+02  0.21607108373E+04  0.24181704841E+04  0.12699999809E+01 0.  1.
</event>
<event>
 5   0  0.3642184E-06  0.2510417E+04  0.7818609E-02  0.8399284E-01
        1   -1    0    0  501    0  0.00000000000E+00  0.00000000000E+00  0.17439941932E+04  0.17439941932E+04  0.50400001928E-02 0.  1.
       -1   -1    0    0    0  501  0.00000000000E+00  0.00000000000E+00 -0.90341368408E+03  0.90341368409E+03  0.50400001928E-02 0. -1.
    10030    2    1    2    0    0  0.00000000000E+00  0.00000000000E+00  0.84058050912E+03  0.26474078773E+04  0.25104168730E+04 0.  0.
        5    1    3    3  502    0  0.85455365681E+03  0.91683605280E+03  0.49240172021E+03  0.13466001055E+04  0.46999998093E+01 0.  1.
       -5    1    3    3    0  502 -0.85455365681E+03 -0.91683605280E+03  0.34817878891E+03  0.13008077718E+04  0.46999998093E+01 0. -1.
</event>
<event>
 5   0  0.8056723E-06  0.2499440E+04  0.7818609E-02  0.8403185E-01
       -2   -1    0    0    0  501  0.00000000000E+00  0.00000000000E+00  0.76021831852E+03  0.76021831853E+03  0.25500000920E-02 0.  1.
        2   -1    0    0  501    0  0.00000000000E+00  0.00000000000E+00 -0.20544098719E+04  0.20544098719E+04  0.25500000920E-02 0. -1.
    10030    2    1    2    0    0  0.00000000000E+00  0.00000000000E+00 -0.12941915533E+04  0.28146281904E+04  0.24994399520E+04 0.  0.
        2    1    3    3  502    0  0.85495688882E+03  0.74679500941E+03 -0.12356354025E+04  0.16779299496E+04  0.25500000920E-02 0. -1.
       -2    1    3    3    0  502 -0.85495688882E+03 -0.74679500941E+03 -0.58556150832E+02  0.11366982408E+04  0.25500000920E-02 0.  1.
</event>
<event>
 5   0  0.3484857E-06  0.2464606E+04  0.7818609E-02  0.8415704E-01
        1   -1    0    0  501    0  0.00000000000E+00  0.00000000000E+00  0.13477349484E+04  0.13477349484E+04  0.50400001928E-02 0.  1.
       -1   -1    0    0    0  501  0.00000000000E+00  0.00000000000E+00 -0.11267574769E+04  0.11267574769E+04  0.50400001928E-02 0. -1.
    10030    2    1    2    0    0  0.00000000000E+00  0.00000000000E+00  0.22097747143E+03  0.24744924253E+04  0.24646057940E+04 0.  0.
        3    1    3    3  502    0  0.14447025505E+03 -0.87890137171E+03  0.96550994264E+03  0.13136014370E+04  0.10100000352E+00 0.  1.
       -3    1    3    3    0  502 -0.14447025505E+03  0.87890137171E+03 -0.74453247121E+03  0.11608909883E+04  0.10100000352E+00 0. -1.
</event>
<event>
 5   0  0.3481387E-06  0.2499057E+04  0.7818609E-02  0.8403321E-01
       -1   -1    0    0    0  501  0.00000000000E+00  0.00000000000E+00  0.92443982823E+03  0.92443982825E+03  0.50400001928E-02 0.  1.
        1   -1    0    0  501    0  0.00000000000E+00  0.00000000000E+00 -0.16889382182E+04  0.16889382182E+04  0.50400001928E-02 0. -1.
    10030    2    1    2    0    0  0.00000000000E+00  0.00000000000E+00 -0.76449838998E+03  0.26133780465E+04  0.24990572273E+04 0.  0.
        4    1    3    3  502    0 -0.10252543505E+04  0.63100841735E+03 -0.32272602091E+02  0.12043094451E+04  0.12699999809E+01 0.  1.
       -4    1    3    3    0  502  0.10252543505E+04 -0.63100841735E+03 -0.73222578789E+03  0.14090686013E+04  0.12699999809E+01 0. -1.
</event>
<event>
 5   0  0.8948286E-06  0.2478654E+04  0.7818609E-02  0.8410630E-01
       -2   -1    0    0    0  501  0.00000000000E+00  0.00000000000E+00  0.12617676725E+04  0.12617676725E+04  0.25500000920E-02 0. -1.
        2   -1    0    0  501    0  0.00000000000E+00  0.00000000000E+00 -0.12172856251E+04  0.12172856251E+04  0.25500000920E-02 0.  1.
    10030    2    1    2    0    0  0.00000000000E+00  0.00000000000E+00  0.44482047365E+02  0.24790532976E+04  0.24786541913E+04 0.  0.
        4    1    3    3  502    0 -0.33533045472E+03 -0.18023803994E+03  0.12018366145E+04  0.12606923200E+04  0.12699999809E+01 0. -1.
       -4    1    3    3    0  502  0.33533045472E+03  0.18023803994E+03 -0.11573545671E+04  0.12183609776E+04  0.12699999809E+01 0.  1.
</event>
<event>
 5   0  0.3481387E-06  0.2537304E+04  0.7818609E-02  0.8389815E-01
        1   -1    0    0  501    0  0.00000000000E+00  0.00000000000E+00  0.17828894331E+04  0.17828894331E+04  0.50400001928E-02 0.  1.
       -1   -1    0    0    0  501  0.00000000000E+00  0.00000000000E+00 -0.90273579614E+03  0.90273579615E+03  0.50400001928E-02 0. -1.
    10030    2    1    2    0    0  0.00000000000E+00  0.00000000000E+00  0.88015363693E+03  0.26856252292E+04  0.25373041692E+04 0.  0.
        4    1    3    3  502    0 -0.11376248886E+03 -0.86694373637E+03 -0.53286444016E+03  0.10239528653E+04  0.12699999809E+01 0. -1.
       -4    1    3    3    0  502  0.11376248886E+03  0.86694373637E+03  0.14130180771E+04  0.16616723639E+04  0.12699999809E+01 0.  1.
</event>
<event>
 5   0  0.3481387E-06  0.2500440E+04  0.7818609E-02  0.8402829E-01
        1   -1    0    0  501    0  0.00000000000E+00  0.00000000000E+00  0.14099037027E+04  0.14099037027E+04  0.50400001928E-02 0. -1.
       -1   -1    0    0    0  501  0.00000000000E+00  0.00000000000E+00 -0.11086221064E+04  0.11086221064E+04  0.50400001928E-02 0.  1.
    10030    2    1    2    0    0  0.00000000000E+00  0.00000000000E+00  0.30128159627E+03  0.25185258091E+04  0.25004402914E+04 0.  0.
        4    1    3    3  502    0 -0.74278631115E+02 -0.31397568245E+03  0.13672475825E+04  0.14048009144E+04  0.12699999809E+01 0. -1.
       -4    1    3    3    0  502  0.74278631115E+02  0.31397568245E+03 -0.10659659863E+04  0.11137248947E+04  0.12699999809E+01 0.  1.
</event>
<event>
 5   0  0.3424193E-06  0.2467318E+04  0.7818609E-02  0.8414722E-01
        1   -1    0    0  501    0  0.00000000000E+00  0.00000000000E+00  0.83994939867E+03  0.83994939868E+03  0.50400001928E-02 0.  1.
       -1   -1    0    0    0  501  0.00000000000E+00  0.00000000000E+00 -0.18119125129E+04  0.18119125129E+04  0.50400001928E-02 0. -1.
    10030    2    1    2    0    0  0.00000000000E+00  0.00000000000E+00 -0.97196311420E+03  0.26518619116E+04  0.24673182410E+04 0.  0.
        1    1    3    3  502    0  0.61111966701E+03  0.10646619876E+04 -0.61736370444E+03  0.13740852735E+04  0.50400001928E-02 0. -1.
       -1    1    3    3    0  502 -0.61111966701E+03 -0.10646619876E+04 -0.35459940975E+03  0.12777766380E+04  0.50400001928E-02 0.  1.
</event>
<event>
 5   0  0.8579923E-06  0.2514623E+04  0.7818609E-02  0.8397795E-01
        2   -1    0    0  501    0  0.00000000000E+00  0.00000000000E+00  0.14950481229E+04  0.14950481229E+04  0.25500000920E-02 0.  1.
       -2   -1    0    0    0  501  0.00000000000E+00  0.00000000000E+00 -0.10573786613E+04  0.10573786613E+04  0.25500000920E-02 0. -1.
    10030    2    1    2    0    0  0.00000000000E+00  0.00000000000E+00  0.43766946159E+03  0.25524267842E+04  0.25146228209E+04 0.  0.
        1    1    3    3  502    0 -0.83557710003E+03  0.25181262918E+03 -0.69988752525E+03  0.11186783444E+04  0.50400001928E-02 0. -1.
       -1    1    3    3    0  502  0.83557710003E+03 -0.25181262918E+03  0.11375569868E+04  0.14337484398E+04  0.50400001928E-02 0.  1.
</event>
<event>
 5   0  0.3484857E-06  0.2503927E+04  0.7818609E-02  0.8401588E-01
        1   -1    0    0  501    0  0.00000000000E+00  0.00000000000E+00  0.14917917432E+04  0.14917917432E+04  0.50400001928E-02 0.  1.
       -1   -1    0    0    0  501  0.00000000000E+00  0.00000000000E+00 -0.10506915287E+04  0.10506915288E+04  0.50400001928E-02 0. -1.
    10030    2    1    2    0    0  0.00000000000E+00  0.00000000000E+00  0.44110021445E+03  0.25424832720E+04  0.25039272731E+04 0.  0.
        3    1    3    3  502    0 -0.57649147778E+03  0.29649138691E+03 -0.86699938333E+03  0.10825606253E+04  0.10100000352E+00 0. -1.
       -3    1    3    3    0  502  0.57649147778E+03 -0.29649138691E+03  0.13080995978E+04  0.14599226467E+04  0.10100000352E+00 0.  1.
</event>
<event>
 5   0  0.8056723E-06  0.2486255E+04  0.7818609E-02  0.8407899E-01
        2   -1    0    0  501    0  0.00000000000E+00  0.00000000000E+00  0.12987899422E+04  0.12987899422E+04  0.25500000920E-02 0. -1.
       -2   -1    0    0    0  501  0.00000000000E+00  0.00000000000E+00 -0.11898508909E+04  0.11898508910E+04  0.25500000920E-02 0.  1.
    10030    2    1    2    0    0  0.00000000000E+00  0.00000000000E+00  0.10893905129E+03  0.24886408332E+04  0.24862553127E+04 0.  0.
        2    1    3    3  502    0 -0.62609126923E+03 -0.31855453783E+03  0.10810749156E+04  0.12892595720E+04  0.25500000920E-02 0. -1.
       -2    1    3    3    0  502  0.62609126923E+03  0.31855453783E+03 -0.97213586429E+03  0.11993812612E+04  0.25500000920E-02 0.  1.
</event>
<event>
 5   0  0.8354653E-06  0.2491092E+04  0.7818609E-02  0.8406166E-01
        2   -1    0    0  501    0  0.00000000000E+00  0.00000000000E+00  0.21565940364E+04  0.21565940364E+04  0.25500000920E-02 0.  1.
       -2   -1    0    0    0  501  0.00000000000E+00  0.00000000000E+00 -0.71936799249E+03  0.71936799250E+03  0.25500000920E-02 0. -1.
    10030    2    1    2    0    0  0.00000000000E+00  0.00000000000E+00  0.14372260439E+04  0.28759620289E+04  0.24910919073E+04 0.  0.
        3    1    3    3  502    0 -0.17808581408E+03  0.46867233417E+02  0.21407910725E+04  0.21486967029E+04  0.10100000352E+00 0.  1.
       -3    1    3    3    0  502  0.17808581408E+03 -0.46867233417E+02 -0.70356502859E+03  0.72726532600E+03  0.10100000352E+00 0. -1.
</event>
<event>
 5   0  0.3642184E-06  0.2504377E+04  0.7818609E-02  0.8401428E-01
       -1   -1    0    0    0  501  0.00000000000E+00  0.00000000000E+00  0.10857769516E+04  0.10857769516E+04  0.50400001928E-02 0. -1.
        1   -1    0    0  501    0  0.00000000000E+00  0.00000000000E+00 -0.14441049464E+04  0.14441049464E+04  0.50400001928E-02 0.  1.
    10030    2    1    2    0    0  0.00000000000E+00  0.00000000000E+00 -0.35832799481E+03  0.25298818980E+04  0.25043768618E+04 0.  0.
        5    1    3    3  502    0  0.62651058888E+03 -0.25411750209E+03 -0.12438725154E+04  0.14157443792E+04  0.46999998093E+01 0.  1.
       -5    1    3    3    0  502 -0.62651058888E+03  0.25411750209E+03  0.88554452056E+03  0.11141375188E+04  0.46999998093E+01 0. -1.
</event>
<event>
 5   0  0.8948286E-06  0.2503747E+04  0.7818609E-02  0.8401652E-01
       -2   -1    0    0    0  501  0.00000000000E+00  0.00000000000E+00  0.94339292385E+03  0.94339292386E+03  0.25500000920E-02 0.  1.
        2   -1    0    0  501    0  0.00000000000E+00  0.00000000000E+00 -0.16612239298E+04  0.16612239298E+04  0.25500000920E-02 0. -1.
    10030    2    1    2    0    0  0.00000000000E+00  0.00000000000E+00 -0.71783100593E+03  0.26046168536E+04  0.25037467127E+04 0.  0.
        4    1    3    3  502    0  0.87409311918E+03  0.58218092431E+03  0.34986469980E+03  0.11069689836E+04  0.12699999809E+01 0.  1.
       -4    1    3    3    0  502 -0.87409311918E+03 -0.58218092431E+03 -0.10676957057E+04  0.14976478700E+04  0.12699999809E+01 0. -1.
</event>
<event>
 5   0  0.8948286E-06  0.2496787E+04  0.7818609E-02  0.8404131E-01
        2   -1    0    0  501    0  0.00000000000E+00  0.00000000000E+00  0.11807794552E+04  0.11807794552E+04  0.25500000920E-02 0. -1.
       -2   -1    0    0    0  501  0.00000000000E+00  0.00000000000E+00 -0.13198791910E+04  0.13198791910E+04  0.25500000920E-02 0.  1.
    10030    2    1    2    0    0  0.00000000000E+00  0.00000000000E+00 -0.13909973583E+03  0.25006586462E+04  0.24967869208E+04 0.  0.
        4    1    3    3  502    0 -0.96734429518E+03  0.68669827624E+02  0.71780790501E+03  0.12065323585E+04  0.12699999809E+01 0. -1.
       -4    1    3    3    0  502  0.96734429518E+03 -0.68669827624E+02 -0.85690764084E+03  0.12941262877E+04  0.12699999809E+01 0.  1.
</event>
<event>
 5   0  0.8056723E-06  0.2488807E+04  0.7818609E-02  0.8406984E-01
        2   -1    0    0  501    0  0.00000000000E+00  0.00000000000E+00  0.13034810364E+04  0.13034810364E+04  0.25500000920E-02 0. -1.
       -2   -1    0    0    0  501  0.00000000000E+00  0.00000000000E+00 -0.11880033635E+04  0.11880033635E+04  0.25500000920E-02 0.  1.
    10030    2    1    2    0    0  0.00000000000E+00  0.00000000000E+00  0.11547767288E+03  0.24914843998E+04  0.24888068269E+04 0.  0.
        2    1    3    3  502    0  0.14461991079E+03  0.11356586127E+04  0.54601808513E+03  0.12683734279E+04  0.25500000920E-02 0. -1.
       -2    1    3    3    0  502 -0.14461991079E+03 -0.11356586127E+04 -0.43054041225E+03  0.12231109720E+04  0.25500000920E-02 0.  1.
</event>
<event>
 5   0  0.3642184E-06  0.2503149E+04  0.7818609E-02  0.8401864E-01
        1   -1    0    0  501    0  0.00000000000E+00  0.00000000000E+00  0.64549925804E+03  0.64549925806E+03  0.50400001928E-02 0.  1.
       -1   -1    0    0    0  501  0.00000000000E+00  0.00000000000E+00 -0.24267094744E+04  0.24267094744E+04  0.50400001928E-02 0. -1.
    10030    2    1    2    0    0  0.00000000000E+00  0.00000000000E+00 -0.17812102164E+04  0.30722087325E+04  0.25031493485E+04 0.  0.
        5    1    3    3  502    0 -0.98910628658E+03 -0.55760937804E+02  0.48108652554E+02  0.99185536284E+03  0.46999998093E+01 0.  1.
       -5    1    3    3    0  502  0.98910628658E+03  0.55760937804E+02 -0.18293188689E+04  0.20803533696E+04  0.46999998093E+01 0. -1.
</event>
<event>
 5   0  0.8354653E-06  0.2508455E+04  0.7818609E-02  0.8399980E-01
        2   -1    0    0  501    0  0.00000000000E+00  0.00000000000E+00  0.20061565246E+04  0.20061565246E+04  0.25500000920E-02 0. -1.
       -2   -1    0    0    0  501  0.00000000000E+00  0.00000000000E+00 -0.78412959663E+03  0.78412959663E+03  0.25500000920E-02 0.  1.
    10030    2    1    2    0    0  0.00000000000E+00  0.00000000000E+00  0.12220269280E+04  0.27902861212E+04  0.25084550675E+04 0.  0.
        3    1    3    3  502    0 -0.48464988596E+03 -0.10502671564E+04  0.11504070125E+04  0.16313745482E+04  0.10100000352E+00 0.  1.
       -3    1    3    3    0  502  0.48464988596E+03  0.10502671564E+04  0.71619915447E+02  0.11589115731E+04  0.10100000352E+00 0. -1.
</event>
<event>
 5   0  0.2901250E-06  0.2497491E+04  0.7818609E-02  0.8403880E-01
        3   -1    0    0  501    0  0.00000000000E+00  0.00000000000E+00  0.11369670056E+04  0.11369670101E+04  0.10100000352E+00 0.  1.
       -3   -1    0    0    0  501  0.00000000000E+00  0.00000000000E+00 -0.13715128796E+04  0.13715128833E+04  0.10100000352E+00 0. -1.
    10030    2    1    2    0    0  0.00000000000E+00  0.00000000000E+00 -0.23454587393E+03  0.25084798934E+04  0.24974906624E+04 0.  0.
        4    1    3    3  502    0  0.46804106095E+03 -0.11426505510E+04  0.69692771843E+02  0.12367584290E+04  0.12699999809E+01 0.  1.
       -4    1    3    3    0  502 -0.46804106095E+03  0.11426505510E+04 -0.30423864577E+03  0.12717214644E+04  0.12699999809E+01 0. -1.
</event>
<event>
 5   0  0.3484857E-06  0.2438896E+04  0.7818609E-02  0.8425084E-01
       -1   -1    0    0    0  501  0.00000000000E+00  0.00000000000E+00  0.42969936702E+03  0.42969936705E+03  0.50400001928E-02 0.  1.
        1   -1    0    0  501    0  0.00000000000E+00  0.00000000000E+00 -0.34606823710E+04  0.34606823710E+04  0.50400001928E-02 0. -1.
    10030    2    1    2    0    0  0.00000000000E+00  0.00000000000E+00 -0.30309830040E+04  0.38903817380E+04  0.24388956717E+04 0.  0.
        3    1    3    3  502    0  0.65396947686E+03 -0.83673372256E+03 -0.24715832469E+04  0.26900786524E+04  0.10100000352E+00 0. -1.
       -3    1    3    3    0  502 -0.65396947686E+03  0.83673372256E+03 -0.55939975701E+03  0.12003030857E+04  0.10100000352E+00 0.  1.
</event>
<event>
 5   0  0.2901250E-06  0.2496176E+04  0.7818609E-02  0.8404349E-01
        3   -1    0    0  501    0  0.00000000000E+00  0.00000000000E+00  0.11338924372E+04  0.11338924417E+04  0.10100000352E+00 0.  1.
       -3   -1    0    0    0  501  0.00000000000E+00  0.00000000000E+00 -0.13737841328E+04  0.13737841366E+04  0.10100000352E+00 0. -1.
    10030    2    1    2    0    0  0.00000000000E+00  0.00000000000E+00 -0.23989169567E+03  0.25076765782E+04  0.24961758342E+04 0.  0.
        1    1    3    3  502    0  0.85040929387E+03 -0.90230564039E+03  0.23442322177E+02  0.12401213563E+04  0.50400001928E-02 0.  1.
       -1    1    3    3    0  502 -0.85040929387E+03  0.90230564039E+03 -0.26333401784E+03  0.12675552220E+04  0.50400001928E-02 0. -1.
</event>
<event>
 5   0  0.8948286E-06  0.2431178E+04  0.7818609E-02  0.8427922E-01
       -2   -1    0    0    0  501  0.00000000000E+00  0.00000000000E+00  0.56270977447E+03  0.56270977448E+03  0.25500000920E-02 0.  1.
        2   -1    0    0  501    0  0.00000000000E+00  0.00000000000E+00 -0.26259663446E+04  0.26259663446E+04  0.25500000920E-02 0. -1.
    10030    2    1    2    0    0  0.00000000000E+00  0.00000000000E+00 -0.20632565701E+04  0.31886761191E+04  0.24311782572E+04 0.  0.
        4    1    3    3  502    0  0.15904657130E+03  0.96718062664E+03 -0.88641182149E+02  0.98417124956E+03  0.12699999809E+01 0.  1.
       -4    1    3    3    0  502 -0.15904657130E+03 -0.96718062664E+03 -0.19746153880E+04  0.22045048695E+04  0.12699999809E+01 0. -1.
</event>
<event>
 5   0  0.3481387E-06  0.2498528E+04  0.7818609E-02  0.8403510E-01
       -1   -1    0    0    0  501  0.00000000000E+00  0.00000000000E+00  0.12519049233E+04  0.12519049233E+04  0.50400001928E-02 0. -1.
        1   -1    0    0  501    0  0.00000000000E+00  0.00000000000E+00 -0.12466282812E+04  0.12466282812E+04  0.50400001928E-02 0.  1.
    10030    2    1    2    0    0  0.00000000000E+00  0.00000000000E+00  0.52766421205E+01  0.24985332045E+04  0.24985276327E+04 0.  0.
        4    1    3    3  502    0 -0.56102114934E+03 -0.86390629210E+03 -0.70417274744E+03  0.12477738908E+04  0.12699999809E+01 0.  1.
       -4    1    3    3    0  502  0.56102114934E+03  0.86390629210E+03  0.70944938956E+03  0.12507593137E+04  0.12699999809E+01 0. -1.
</event>
<event>
 5   0  0.3484857E-06  0.2503414E+04  0.7818609E-02  0.8401770E-01
       -1   -1    0    0    0  501  0.00000000000E+00  0.00000000000E+00  0.85773340127E+03  0.85773340128E+03  0.50400001928E-02 0.  1.
        1   -1    0    0  501    0  0.00000000000E+00  0.00000000000E+00 -0.18266401412E+04  0.18266401412E+04  0.50400001928E-02 0. -1.
    10030    2    1    2    0    0  0.00000000000E+00  0.00000000000E+00 -0.96890673995E+03  0.26843735425E+04  0.25034138781E+04 0.  0.
        3    1    3    3  502    0  0.12456850961E+04 -0.11854331515E+03 -0.51813020761E+03  0.13543422014E+04  0.10100000352E+00 0. -1.
       -3    1    3    3    0  502 -0.12456850961E+04  0.11854331515E+03 -0.45077653233E+03  0.13300313411E+04  0.10100000352E+00 0.  1.
</event>
<event>
 5   0  0.8056723E-06  0.2468590E+04  0.7818609E-02  0.8414262E-01
       -2   -1    0    0    0  501  0.00000000000E+00  0.00000000000E+00  0.65368411477E+03  0.65368411478E+03  0.25500000920E-02 0.  1.
        2   -1    0    0  501    0  0.00000000000E+00  0.00000000000E+00 -0.23306118407E+04  0.23306118407E+04  0.25500000920E-02 0. -1.
    10030    2    1    2    0    0  0.00000000000E+00  0.00000000000E+00 -0.16769277259E+04  0.29842959555E+04  0.24685898306E+04 0.  0.
        2    1    3    3  502    0  0.77791168922E+03  0.49910985125E+03 -0.18274258160E+04  0.20478628746E+04  0.25500000920E-02 0. -1.
       -2    1    3    3    0  502 -0.77791168922E+03 -0.49910985125E+03  0.15049809014E+03  0.93643308089E+03  0.25500000920E-02 0.  1.
</event>
<event>
 5   0  0.3484857E-06  0.2512277E+04  0.7818609E-02  0.8398625E-01
        1   -1    0    0  501    0  0.00000000000E+00  0.00000000000E+00  0.77879231066E+03  0.77879231067E+03  0.50400001928E-02 0.  1.
       -1   -1    0    0    0  501  0.00000000000E+00  0.00000000000E+00 -0.20260644982E+04  0.20260644982E+04  0.50400001928E-02 0. -1.
    10030    2    1    2    0    0  0.00000000000E+00  0.00000000000E+00 -0.12472721875E+04  0.28048568089E+04  0.25122766186E+04 0.  0.
        3    1    3    3  502    0  0.64310678996E+03  0.42224506071E+03 -0.17322569969E+04  0.18954132921E+04  0.10100000352E+00 0. -1.
       -3    1    3    3    0  502 -0.64310678996E+03 -0.42224506071E+03  0.48498480936E+03  0.90944351672E+03  0.10100000352E+00 0.  1.
</event>
<event>
 5   0  0.8948286E-06  0.2496636E+04  0.7818609E-02  0.8404185E-01
       -2   -1    0    0    0  501  0.00000000000E+00  0.00000000000E+00  0.90707357340E+03  0.90707357340E+03  0.25500000920E-02 0.  1.
        2   -1    0    0  501    0  0.00000000000E+00  0.00000000000E+00 -0.17179395525E+04  0.17179395525E+04  0.25500000920E-02 0. -1.
    10030    2    1    2    0    0  0.00000000000E+00  0.00000000000E+00 -0.81086597912E+03  0.26250131259E+04  0.24966357915E+04 0.  0.
        4    1    3    3  502    0  0.45811113995E+03 -0.13079698443E+03 -0.16185924479E+04  0.16872512537E+04  0.12699999809E+01 0. -1.
       -4    1    3    3    0  502 -0.45811113995E+03  0.13079698443E+03  0.80772646882E+03  0.93776187223E+03  0.12699999809E+01 0.  1.
</event>
<event>
 5   0  0.8579923E-06  0.2505653E+04  0.7818609E-02  0.8400974E-01
       -2   -1    0    0    0  501  0.00000000000E+00  0.00000000000E+00  0.88905188811E+03  0.88905188811E+03  0.25500000920E-02 0.  1.
        2   -1    0    0  501    0  0.00000000000E+00  0.00000000000E+00 -0.17654469534E+04  0.17654469534E+04  0.25500000920E-02 0. -1.
    10030    2    1    2    0    0  0.00000000000E+00  0.00000000000E+00 -0.87639506528E+03  0.26544988415E+04  0.25056527671E+04 0.  0.
        1    1    3    3  502    0  0.12210674261E+04 -0.18967108133E+03 -0.65683854588E+03  0.13994347621E+04  0.50400001928E-02 0.  1.
       -1    1    3    3    0  502 -0.12210674261E+04  0.18967108133E+03 -0.21955651941E+03  0.12550640794E+04  0.50400001928E-02 0. -1.
</event>
<event>
 5   0  0.8579923E-06  0.2486291E+04  0.7818609E-02  0.8407886E-01
        2   -1    0    0  501    0  0.00000000000E+00  0.00000000000E+00  0.11208203462E+04  0.11208203462E+04  0.25500000920E-02 0. -1.
       -2   -1    0    0    0  501  0.00000000000E+00  0.00000000000E+00 -0.13788215953E+04  0.13788215953E+04  0.25500000920E-02 0.  1.
    10030    2    1    2    0    0  0.00000000000E+00  0.00000000000E+00 -0.25800124915E+03  0.24996419415E+04  0.24862914534E+04 0.  0.
        1    1    3    3  502    0 -0.11432860356E+04  0.33029704424E+03  0.23239053800E+03  0.12125198798E+04  0.50400001928E-02 0. -1.
       -1    1    3    3    0  502  0.11432860356E+04 -0.33029704424E+03 -0.49039178715E+03  0.12871220617E+04  0.50400001928E-02 0.  1.
</event>
<event>
 5   0  0.8354653E-06  0.2502366E+04  0.7818609E-02  0.8402143E-01
       -2   -1    0    0    0  501  0.00000000000E+00  0.00000000000E+00  0.15669611267E+04  0.15669611267E+04  0.25500000920E-02 0.  1.
        2   -1    0    0  501    0  0.00000000000E+00  0.00000000000E+00 -0.99904138454E+03  0.99904138455E+03  0.25500000920E-02 0. -1.
    10030    2    1    2    0    0  0.00000000000E+00  0.00000000000E+00  0.56791974211E+03  0.25660025112E+04  0.25023660911E+04 0.  0.
        3    1    3    3  502    0 -0.54608380979E+03 -0.20570013751E+03 -0.85095542453E+03  0.10318164656E+04  0.10100000352E+00 0. -1.
       -3    1    3    3    0  502  0.54608380979E+03  0.20570013751E+03  0.14188751666E+04  0.15341860456E+04  0.10100000352E+00 0.  1.
</event>
<event>
 5   0  0.8407986E-06  0.2482417E+04  0.7818609E-02  0.8409276E-01
        2   -1    0    0  501    0  0.00000000000E+00  0.00000000000E+00  0.10477074817E+04  0.10477074817E+04  0.25500000920E-02 0. -1.
       -2   -1    0    0    0  501  0.00000000000E+00  0.00000000000E+00 -0.14704470648E+04  0.14704470648E+04  0.25500000920E-02 0.  1.
    10030    2    1    2    0    0  0.00000000000E+00  0.00000000000E+00 -0.42273958313E+03  0.25181545465E+04  0.24824168797E+04 0.  0.
        5    1    3    3  502    0  0.49418164224E+03 -0.16107063178E+03  0.93198449132E+03  0.10671346804E+04  0.46999998093E+01 0. -1.
       -5    1    3    3    0  502 -0.49418164224E+03  0.16107063178E+03 -0.13547240745E+04  0.14510198661E+04  0.46999998093E+01 0.  1.
</event>
<event>
 5   0  0.3484857E-06  0.2503327E+04  0.7818609E-02  0.8401801E-01
        1   -1    0    0  501    0  0.00000000000E+00  0.00000000000E+00  0.90564078929E+03  0.90564078930E+03  0.50400001928E-02 0.  1.
       -1   -1    0    0    0  501  0.00000000000E+00  0.00000000000E+00 -0.17298932655E+04  0.17298932655E+04  0.50400001928E-02 0. -1.
    10030    2    1    2    0    0  0.00000000000E+00  0.00000000000E+00 -0.82425247617E+03  0.26355340548E+04  0.25033273077E+04 0.  0.
        3    1    3    3  502    0 -0.46398262496E+03  0.94373608085E+03  0.30250327161E+03  0.10942695765E+04  0.10100000352E+00 0.  1.
       -3    1    3    3    0  502  0.46398262496E+03 -0.94373608085E+03 -0.11267557478E+04  0.15412644782E+04  0.10100000352E+00 0. -1.
</event>
<event>
 5   0  0.3481387E-06  0.2492868E+04  0.7818609E-02  0.8405531E-01
       -1   -1    0    0    0  501  0.00000000000E+00  0.00000000000E+00  0.31088353170E+04  0.31088353170E+04  0.50400001928E-02 0. -1.
        1   -1    0    0  501    0  0.00000000000E+00  0.00000000000E+00 -0.49973615488E+03  0.49973615490E+03  0.50400001928E-02 0.  1.
    10030    2    1    2    0    0  0.00000000000E+00  0.00000000000E+00  0.26090991621E+04  0.36085714719E+04  0.24928677522E+04 0.  0.
        4    1    3    3  502    0  0.11408576442E+04 -0.50170354894E+03  0.12781270110E+04  0.17851814710E+04  0.12699999809E+01 0. -1.
       -4    1    3    3    0  502 -0.11408576442E+04  0.50170354894E+03  0.13309721511E+04  0.18233900009E+04  0.12699999809E+01 0.  1.
</event>
<event>
 5   0  0.8948286E-06  0.2475967E+04  0.7818609E-02  0.8411598E-01
       -2   -1    0    0    0  501  0.00000000000E+00  0.00000000000E+00  0.59648753754E+03  0.59648753754E+03  0.25500000920E-02 0.  1.
        2   -1    0    0  501    0  0.00000000000E+00  0.00000000000E+00 -0.25693795266E+04  0.25693795266E+04  0.25500000920E-02 0. -1.
    10030    2    1    2    0    0  0.00000000000E+00  0.00000000000E+00 -0.19728919891E+04  0.31658670641E+04  0.24759667743E+04 0.  0.
        4    1    3    3  502    0 -0.10505329298E+04  0.64988788974E+03 -0.88235232741E+03  0.15180648696E+04  0.12699999809E+01 0. -1.
       -4    1    3    3    0  502  0.10505329298E+04 -0.64988788974E+03 -0.10905396617E+04  0.16478021945E+04  0.12699999809E+01 0.  1.
</event>
<event>
 5   0  0.3484857E-06  0.2496397E+04  0.7818609E-02  0.8404270E-01
       -1   -1    0    0    0  501  0.00000000000E+00  0.00000000000E+00  0.87119679199E+03  0.87119679200E+03  0.50400001928E-02 0.  1.
        1   -1    0    0  501    0  0.00000000000E+00  0.00000000000E+00 -0.17883433504E+04  0.17883433504E+04  0.50400001928E-02 0. -1.
    10030    2    1    2    0    0  0.00000000000E+00  0.00000000000E+00 -0.91714655844E+03  0.26595401424E+04  0.24963965950E+04 0.  0.
        3    1    3    3  502    0  0.11077608714E+04  0.56807458790E+03 -0.36236020745E+03  0.12965908436E+04  0.10100000352E+00 0. -1.
       -3    1    3    3    0  502 -0.11077608714E+04 -0.56807458790E+03 -0.55478635098E+03  0.13629492988E+04  0.10100000352E+00 0.  1.
</event>
<event>
 5   0  0.3522870E-06  0.2498433E+04  0.7818609E-02  0.8403544E-01
        1   -1    0    0  501    0  0.00000000000E+00  0.00000000000E+00  0.11943676954E+04  0.11943676954E+04  0.50400001928E-02 0. -1.
       -1   -1    0    0    0  501  0.00000000000E+00  0.00000000000E+00 -0.13065844436E+04  0.13065844436E+04  0.50400001928E-02 0.  1.
    10030    2    1    2    0    0  0.00000000000E+00  0.00000000000E+00 -0.11221674818E+03  0.25009521391E+04  0.24984333097E+04 0.  0.
        2    1    3    3  502    0 -0.27042231341E+03  0.85868741058E+03 -0.92304730090E+03  0.12893752814E+04  0.25500000920E-02 0.  1.
       -2    1    3    3    0  502  0.27042231341E+03 -0.85868741058E+03  0.81083055272E+03  0.12115768576E+04  0.25500000920E-02 0. -1.
</event>
<event>
 5   0  0.3484857E-06  0.2507037E+04  0.7818609E-02  0.8400483E-01
        1   -1    0    0  501    0  0.00000000000E+00  0.00000000000E+00  0.10469179704E+04  0.10469179704E+04  0.50400001928E-02 0. -1.
       -1   -1    0    0    0  501  0.00000000000E+00  0.00000000000E+00 -0.15008898231E+04  0.15008898231E+04  0.50400001928E-02 0.  1.
    10030    2    1    2    0    0  0.00000000000E+00  0.00000000000E+00 -0.45397185272E+03  0.25478077935E+04  0.25070369183E+04 0.  0.
        3    1    3    3  502    0  0.17815943017E+03 -0.11594255894E+04 -0.67610044566E+03  0.13539277317E+04  0.10100000352E+00 0.  1.
       -3    1    3    3    0  502 -0.17815943017E+03  0.11594255894E+04  0.22212859294E+03  0.11938800618E+04  0.10100000352E+00 0. -1.
</event>
<event>
 5   0  0.3484857E-06  0.2458819E+04  0.7818609E-02  0.8417805E-01
       -1   -1    0    0    0  501  0.00000000000E+00  0.00000000000E+00  0.11609007468E+04  0.11609007469E+04  0.50400001928E-02 0.  1.
        1   -1    0    0  501    0  0.00000000000E+00  0.00000000000E+00 -0.13019610699E+04  0.13019610699E+04  0.50400001928E-02 0. -1.
    10030    2    1    2    0    0  0.00000000000E+00  0.00000000000E+00 -0.14106032303E+03  0.24628618167E+04  0.24588188859E+04 0.  0.
        3    1    3    3  502    0  0.10342436439E+04  0.18015356489E+03 -0.71137300364E+03  0.12681351594E+04  0.10100000352E+00 0. -1.
       -3    1    3    3    0  502 -0.10342436439E+04 -0.18015356489E+03  0.57031268061E+03  0.11947266574E+04  0.10100000352E+00 0.  1.
</event>
<event>
 5   0  0.3642184E-06  0.2506669E+04  0.7818609E-02  0.8400614E-01
        1   -1    0    0  501    0  0.00000000000E+00  0.00000000000E+00  0.17526205852E+04  0.17526205852E+04  0.50400001928E-02 0. -1.
       -1   -1    0    0    0  501  0.00000000000E+00  0.00000000000E+00 -0.89628475856E+03  0.89628475857E+03  0.50400001928E-02 0.  1.
    10030    2    1    2    0    0  0.00000000000E+00  0.00000000000E+00  0.85633582659E+03  0.26489053437E+04  0.25066687999E+04 0.  0.
        5    1    3    3  502    0  0.10652686842E+04  0.53162281748E+02 -0.26735977717E+03  0.10996030822E+04  0.46999998093E+01 0.  1.
       -5    1    3    3    0  502 -0.10652686842E+04 -0.53162281748E+02  0.11236956038E+04  0.15493022616E+04  0.46999998093E+01 0. -1.
</event>
<event>
 5   0  0.3522870E-06  0.2492680E+04  0.7818609E-02  0.8405598E-01
        1   -1    0    0  501    0  0.00000000000E+00  0.00000000000E+00  0.15834254289E+04  0.15834254289E+04  0.50400001928E-02 0.  1.
       -1   -1    0    0    0  501  0.00000000000E+00  0.00000000000E+00 -0.98101484549E+03  0.98101484551E+03  0.50400001928E-02 0. -1.
    10030    2    1    2    0    0  0.00000000000E+00  0.00000000000E+00  0.60241058343E+03  0.25644402744E+04  0.24926803666E+04 0.  0.
        2    1    3    3  502    0  0.59430014537E+03 -0.15553482990E+03 -0.81443960538E+03  0.10201449000E+04  0.25500000920E-02 0. -1.
       -2    1    3    3    0  502 -0.59430014537E+03  0.15553482990E+03  0.14168501888E+04  0.15442953745E+04  0.25500000920E-02 0.  1.
</event>
<event>
 5   0  0.3522870E-06  0.2502530E+04  0.7818609E-02  0.8402085E-01
        1   -1    0    0  501    0  0.00000000000E+00  0.00000000000E+00  0.17460860746E+04  0.17460860746E+04  0.50400001928E-02 0.  1.
       -1   -1    0    0    0  501  0.00000000000E+00  0.00000000000E+00 -0.89667061035E+03  0.89667061037E+03  0.50400001928E-02 0. -1.
    10030    2    1    2    0    0  0.00000000000E+00  0.00000000000E+00  0.84941546420E+03  0.26427566849E+04  0.25025299728E+04 0.  0.
        2    1    3    3  502    0  0.82507602652E+03 -0.73916704461E+03  0.10391577219E+04  0.15188703501E+04  0.25500000920E-02 0.  1.
       -2    1    3    3    0  502 -0.82507602652E+03  0.73916704461E+03 -0.18974225765E+03  0.11238863349E+04  0.25500000920E-02 0. -1.
</event>
<event>
 5   0  0.8407986E-06  0.2405336E+04  0.7818609E-02  0.8437508E-01
        2   -1    0    0  501    0  0.00000000000E+00  0.00000000000E+00  0.14690224810E+04  0.14690224810E+04  0.25500000920E-02 0. -1.
       -2   -1    0    0    0  501  0.00000000000E+00  0.00000000000E+00 -0.98460747840E+03  0.98460747840E+03  0.25500000920E-02 0.  1.
    10030    2    1    2    0    0  0.00000000000E+00  0.00000000000E+00  0.48441500264E+03  0.24536299594E+04  0.24053361684E+04 0.  0.
        5    1    3    3  502    0  0.41144495085E+03 -0.16334569540E+03 -0.89846555181E+03  0.10016142978E+04  0.46999998093E+01 0.  1.
       -5    1    3    3    0  502 -0.41144495085E+03  0.16334569540E+03  0.13828805544E+04  0.14520156616E+04  0.46999998093E+01 0. -1.
</event>
<event>
 5   0  0.3484857E-06  0.2499537E+04  0.7818609E-02  0.8403150E-01
        1   -1    0    0  501    0  0.00000000000E+00  0.00000000000E+00  0.13584769189E+04  0.13584769189E+04  0.50400001928E-02 0. -1.
       -1   -1    0    0    0  501  0.00000000000E+00  0.00000000000E+00 -0.11497595494E+04  0.11497595494E+04  0.50400001928E-02 0.  1.
    10030    2    1    2    0    0  0.00000000000E+00  0.00000000000E+00  0.20871736947E+03  0.25082364683E+04  0.24995374053E+04 0.  0.
        3    1    3    3  502    0 -0.51092678515E+03  0.33030066594E+03  0.11998434795E+04  0.13452765869E+04  0.10100000352E+00 0. -1.
       -3    1    3    3    0  502  0.51092678515E+03 -0.33030066594E+03 -0.99112611001E+03  0.11629598814E+04  0.10100000352E+00 0.  1.
</event>
<event>
 5   0  0.8407986E-06  0.2507483E+04  0.7818609E-02  0.8400324E-01
       -2   -1    0    0    0  501  0.00000000000E+00  0.00000000000E+00  0.11147675700E+04  0.11147675700E+04  0.25500000920E-02 0.  1.
        2   -1    0    0  501    0  0.00000000000E+00  0.00000000000E+00 -0.14100411664E+04  0.14100411664E+04  0.25500000920E-02 0. -1.
    10030    2    1    2    0    0  0.00000000000E+00  0.00000000000E+00 -0.29527359638E+03  0.25248087363E+04  0.25074833316E+04 0.  0.
        5    1    3    3  502    0  0.48690586298E+03  0.54590023453E+03  0.87761348948E+03  0.11425024781E+04  0.46999998093E+01 0.  1.
       -5    1    3    3    0  502 -0.48690586298E+03 -0.54590023453E+03 -0.11728870859E+04  0.13823062583E+04  0.46999998093E+01 0. -1.
</event>
<event>
 5   0  0.3484857E-06  0.2517011E+04  0.7818609E-02  0.8396950E-01
        1   -1    0    0  501    0  0.00000000000E+00  0.00000000000E+00  0.11884374356E+04  0.11884374356E+04  0.50400001928E-02 0. -1.
       -1   -1    0    0    0  501  0.00000000000E+00  0.00000000000E+00 -0.13327045951E+04  0.13327045952E+04  0.50400001928E-02 0.  1.
    10030    2    1    2    0    0  0.00000000000E+00  0.00000000000E+00 -0.14426715951E+03  0.25211420308E+04  0.25170109507E+04 0.  0.
        3    1    3    3  502    0  0.94987702827E+03 -0.63007395073E+03  0.46219905639E+03  0.12299949309E+04  0.10100000352E+00 0. -1.
       -3    1    3    3    0  502 -0.94987702827E+03  0.63007395073E+03 -0.60646621590E+03  0.12911470999E+04  0.10100000352E+00 0.  1.
</event>
<event>
 5   0  0.8948286E-06  0.2495944E+04  0.7818609E-02  0.8404432E-01
       -2   -1    0    0    0  501  0.00000000000E+00  0.00000000000E+00  0.11570182084E+04  0.11570182084E+04  0.25500000920E-02 0.  1.
        2   -1    0    0  501    0  0.00000000000E+00  0.00000000000E+00 -0.13460760357E+04  0.13460760357E+04  0.25500000920E-02 0. -1.
    10030    2    1    2    0    0  0.00000000000E+00  0.00000000000E+00 -0.18905782733E+03  0.25030942441E+04  0.24959442968E+04 0.  0.
        4    1    3    3  502    0  0.87584982133E+03  0.30434950322E+03 -0.93220087554E+03  0.13148161905E+04  0.12699999809E+01 0. -1.
       -4    1    3    3    0  502 -0.87584982133E+03 -0.30434950322E+03  0.74314304821E+03  0.11882780536E+04  0.12699999809E+01 0.  1.
</event>
<event>
 5   0  0.3481387E-06  0.2493353E+04  0.7818609E-02  0.8405357E-01
       -1   -1    0    0    0  501  0.00000000000E+00  0.00000000000E+00  0.72464695002E+03  0.72464695004E+03  0.50400001928E-02 0. -1.
        1   -1    0    0  501    0  0.00000000000E+00  0.00000000000E+00 -0.21447721774E+04  0.21447721774E+04  0.50400001928E-02 0.  1.
    10030    2    1    2    0    0  0.00000000000E+00  0.00000000000E+00 -0.14201252274E+04  0.28694191275E+04  0.24933532577E+04 0.  0.
        4    1    3    3  502    0  0.51723214768E+03  0.49489316434E+03  0.46454411810E+03  0.85337634679E+03  0.12699999809E+01 0. -1.
       -4    1    3    3    0  502 -0.51723214768E+03 -0.49489316434E+03 -0.18846693455E+04  0.20160427807E+04  0.12699999809E+01 0.  1.
</event>
<event>
 5   0  0.8948286E-06  0.2494344E+04  0.7818609E-02  0.8405003E-01
       -2   -1    0    0    0  501  0.00000000000E+00  0.00000000000E+00  0.63609368314E+03  0.63609368314E+03  0.25500000920E-02 0.  1.
        2   -1    0    0  501    0  0.00000000000E+00  0.00000000000E+00 -0.24452969828E+04  0.24452969828E+04  0.25500000920E-02 0. -1.
    10030    2    1    2    0    0  0.00000000000E+00  0.00000000000E+00 -0.18092032997E+04  0.30813906660E+04  0.24943439732E+04 0.  0.
        4    1    3    3  502    0 -0.35318002791E+03  0.11841183753E+04 -0.69581673655E+03  0.14181096582E+04  0.12699999809E+01 0. -1.
       -4    1    3    3    0  502  0.35318002791E+03 -0.11841183753E+04 -0.11133865631E+04  0.16632810078E+04  0.12699999809E+01 0.  1.
</event>
<event>
 5   0  0.8056723E-06  0.2499329E+04  0.7818609E-02  0.8403224E-01
        2   -1    0    0  501    0  0.00000000000E+00  0.00000000000E+00  0.20692495141E+04  0.20692495141E+04  0.25500000920E-02 0. -1.
       -2   -1    0    0    0  501  0.00000000000E+00  0.00000000000E+00 -0.75469959859E+03  0.75469959859E+03  0.25500000920E-02 0.  1.
    10030    2    1    2    0    0  0.00000000000E+00  0.00000000000E+00  0.13145499155E+04  0.28239491127E+04  0.24993293322E+04 0.  0.
        2    1    3    3  502    0  0.31093794210E+03  0.10216462092E+04 -0.76034094172E+02  0.10706187763E+04  0.25500000920E-02 0.  1.
       -2    1    3    3    0  502 -0.31093794210E+03 -0.10216462092E+04  0.13905840097E+04  0.17533303364E+04  0.25500000920E-02 0. -1.
</event>
<event>
 5   0  0.3424193E-06  0.2507592E+04  0.7818609E-02  0.8400286E-01
        1   -1    0    0  501    0  0.00000000000E+00  0.00000000000E+00  0.11082977148E+04  0.11082977148E+04  0.50400001928E-02 0. -1.
       -1   -1    0    0    0  501  0.00000000000E+00  0.00000000000E+00 -0.14183953045E+04  0.14183953045E+04  0.50400001928E-02 0.  1.
    10030    2    1    2    0    0  0.00000000000E+00  0.00000000000E+00 -0.31009758967E+03  0.25266930193E+04  0.25075918923E+04 0.  0.
        1    1    3    3  502    0 -0.44285614318E+03  0.85165463291E+03 -0.96777014898E+03  0.13630906935E+04  0.50400001928E-02 0.  1.
       -1    1    3    3    0  502  0.44285614318E+03 -0.85165463291E+03  0.65767255931E+03  0.11636023258E+04  0.50400001928E-02 0. -1.
</event>
<event>
 5   0  0.2901250E-06  0.2499847E+04  0.7818609E-02  0.8403040E-01
       -3   -1    0    0    0  501  0.00000000000E+00  0.00000000000E+00  0.83650821375E+03  0.83650821985E+03  0.10100000352E+00 0. -1.
        3   -1    0    0  501    0  0.00000000000E+00  0.00000000000E+00 -0.18676549618E+04  0.18676549645E+04  0.10100000352E+00 0.  1.
    10030    2    1    2    0    0  0.00000000000E+00  0.00000000000E+00 -0.10311467480E+04  0.27041631844E+04  0.24998469777E+04 0.  0.
        3    1    3    3  502    0  0.40673251487E+03  0.51636294064E+03 -0.16655952273E+04  0.17906059020E+04  0.10100000352E+00 0.  1.
       -3    1    3    3    0  502 -0.40673251487E+03 -0.51636294064E+03  0.63444847922E+03  0.91355728234E+03  0.10100000352E+00 0. -1.
</event>
<event>
 5   0  0.3424193E-06  0.2498804E+04  0.7818609E-02  0.8403412E-01
       -1   -1    0    0    0  501  0.00000000000E+00  0.00000000000E+00  0.99270174750E+03  0.99270174751E+03  0.50400001928E-02 0.  1.
        1   -1    0    0  501    0  0.00000000000E+00  0.00000000000E+00 -0.15724817563E+04  0.15724817563E+04  0.50400001928E-02 0. -1.
    10030    2    1    2    0    0  0.00000000000E+00  0.00000000000E+00 -0.57978000876E+03  0.25651835038E+04  0.24988040238E+04 0.  0.
        1    1    3    3  502    0 -0.67013034258E+03 -0.76770485098E+03  0.45219612160E+03  0.11148662461E+04  0.50400001928E-02 0.  1.
       -1    1    3    3    0  502  0.67013034258E+03  0.76770485098E+03 -0.10319761304E+04  0.14503172577E+04  0.50400001928E-02 0. -1.
</event>
<event>
 5   0  0.8407986E-06  0.2554116E+04  0.7818609E-02  0.8383956E-01
       -2   -1    0    0    0  501  0.00000000000E+00  0.00000000000E+00  0.85932688449E+03  0.85932688449E+03  0.25500000920E-02 0.  1.
        2   -1    0    0  501    0  0.00000000000E+00  0.00000000000E+00 -0.18978537484E+04  0.18978537484E+04  0.25500000920E-02 0. -1.
    10030    2    1    2    0    0  0.00000000000E+00  0.00000000000E+00 -0.10385268639E+04  0.27571806329E+04  0.25541156973E+04 0.  0.
        5    1    3    3  502    0 -0.11827107154E+04  0.45630323783E+03 -0.35259479167E+03  0.13158124708E+04  0.46999998093E+01 0.  1.
       -5    1    3    3    0  502  0.11827107154E+04 -0.45630323783E+03 -0.68593207224E+03  0.14413681621E+04  0.46999998093E+01 0. -1.
</event>
<event>
 5   0  0.8354653E-06  0.2529601E+04  0.7818609E-02  0.8392515E-01
       -2   -1    0    0    0  501  0.00000000000E+00  0.00000000000E+00  0.82506451118E+03  0.82506451119E+03  0.25500000920E-02 0. -1.
        2   -1    0    0  501    0  0.00000000000E+00  0.00000000000E+00 -0.19389028779E+04  0.19389028779E+04  0.25500000920E-02 0.  1.
    10030    2    1    2    0    0  0.00000000000E+00  0.00000000000E+00 -0.11138383668E+04  0.27639673891E+04  0.25296007236E+04 0.  0.
        3    1    3    3  502    0  0.12624653098E+04 -0.34581489733E+02 -0.48196781934E+03  0.13517793929E+04  0.10100000352E+00 0.  1.
       -3    1    3    3    0  502 -0.12624653098E+04  0.34581489733E+02 -0.63187054742E+03  0.14121879963E+04  0.10100000352E+00 0. -1.
</event>
<event>
 5   0  0.8407986E-06  0.2504427E+04  0.7818609E-02  0.8401410E-01
       -2   -1    0    0    0  501  0.00000000000E+00  0.00000000000E+00  0.87874027492E+03  0.87874027492E+03  0.25500000920E-02 0. -1.
        2   -1    0    0  501    0  0.00000000000E+00  0.00000000000E+00 -0.17844168890E+04  0.17844168890E+04  0.25500000920E-02 0.  1.
    10030    2    1    2    0    0  0.00000000000E+00  0.00000000000E+00 -0.90567661404E+03  0.26631571639E+04  0.25044272699E+04 0.  0.
        5    1    3    3  502    0 -0.92533750275E+03  0.68913114311E+03 -0.97037295972E+03  0.15075798478E+04  0.46999998093E+01 0.  1.
       -5    1    3    3    0  502  0.92533750275E+03 -0.68913114311E+03  0.64696345683E+02  0.11555773161E+04  0.46999998093E+01 0. -1.
</event>
<event>
 5   0  0.3522870E-06  0.2498519E+04  0.7818609E-02  0.8403513E-01
        1   -1    0    0  501    0  0.00000000000E+00  0.00000000000E+00  0.12427250407E+04  0.12427250407E+04  0.50400001928E-02 0. -1.
       -1   -1    0    0    0  501  0.00000000000E+00  0.00000000000E+00 -0.12558283675E+04  0.12558283675E+04  0.50400001928E-02 0.  1.
    10030    2    1    2    0    0  0.00000000000E+00  0.00000000000E+00 -0.13103326761E+02  0.24985534082E+04  0.24985190486E+04 0.  0.
        2    1    3    3  502    0  0.11112708305E+04  0.13190705818E+03 -0.56183133033E+03  0.12521887935E+04  0.25500000920E-02 0.  1.
       -2    1    3    3    0  502 -0.11112708305E+04 -0.13190705818E+03  0.54872800357E+03  0.12463646147E+04  0.25500000920E-02 0. -1.
</event>
<event>
 5   0  0.8948286E-06  0.2499970E+04  0.7818609E-02  0.8402996E-01
        2   -1    0    0  501    0  0.00000000000E+00  0.00000000000E+00  0.22690441649E+04  0.22690441649E+04  0.25500000920E-02 0.  1.
       -2   -1    0    0    0  501  0.00000000000E+00  0.00000000000E+00 -0.68859968649E+03  0.68859968650E+03  0.25500000920E-02 0. -1.
    10030    2    1    2    0    0  0.00000000000E+00  0.00000000000E+00  0.15804444784E+04  0.29576438514E+04  0.24999704803E+04 0.  0.
        4    1    3    3  502    0  0.76890908179E+03 -0.87244013105E+03  0.24795649952E+03  0.11890571882E+04  0.12699999809E+01 0. -1.
       -4    1    3    3    0  502 -0.76890908179E+03  0.87244013105E+03  0.13324879788E+04  0.17685866631E+04  0.12699999809E+01 0.  1.
</event>
<event>
 5   0  0.3424193E-06  0.2510126E+04  0.7818609E-02  0.8399387E-01
       -1   -1    0    0    0  501  0.00000000000E+00  0.00000000000E+00  0.69507593940E+03  0.69507593942E+03  0.50400001928E-02 0. -1.
        1   -1    0    0  501    0  0.00000000000E+00  0.00000000000E+00 -0.22662037814E+04  0.22662037814E+04  0.50400001928E-02 0.  1.
    10030    2    1    2    0    0  0.00000000000E+00  0.00000000000E+00 -0.15711278420E+04  0.29612797209E+04  0.25101264688E+04 0.  0.
        1    1    3    3  502    0 -0.11583248447E+04  0.43879357362E+03 -0.10242303370E+04  0.16072660108E+04  0.50400001928E-02 0.  1.
       -1    1    3    3    0  502  0.11583248447E+04 -0.43879357362E+03 -0.54689750500E+03  0.13540137101E+04  0.50400001928E-02 0. -1.
</event>
<event>
 5   0  0.8354653E-06  0.2504375E+04  0.7818609E-02  0.8401429E-01
        2   -1    0    0  501    0  0.00000000000E+00  0.00000000000E+00  0.16689430663E+04  0.16689430663E+04  0.25500000920E-02 0. -1.
       -2   -1    0    0    0  501  0.00000000000E+00  0.00000000000E+00 -0.93950063229E+03  0.93950063230E+03  0.25500000920E-02 0.  1.
    10030    2    1    2    0    0  0.00000000000E+00  0.00000000000E+00  0.72944243401E+03  0.26084436986E+04  0.25043746254E+04 0.  0.
        3    1    3    3  502    0  0.60959237249E+03 -0.36115942370E+03  0.14400650366E+04  0.16049381015E+04  0.10100000352E+00 0. -1.
       -3    1    3    3    0  502 -0.60959237249E+03  0.36115942370E+03 -0.71062260256E+03  0.10035055971E+04  0.10100000352E+00 0.  1.
</event>
<event>
 5   0  0.3424193E-06  0.2500383E+04  0.7818609E-02  0.8402849E-01
        1   -1    0    0  501    0  0.00000000000E+00  0.00000000000E+00  0.21214898376E+04  0.21214898376E+04  0.50400001928E-02 0. -1.
       -1   -1    0    0    0  501  0.00000000000E+00  0.00000000000E+00 -0.73673622942E+03  0.73673622943E+03  0.50400001928E-02 0.  1.
    10030    2    1    2    0    0  0.00000000000E+00  0.00000000000E+00  0.13847536082E+04  0.28582260670E+04  0.25003827097E+04 0.  0.
        1    1    3    3  502    0 -0.11872683431E+04  0.34287026483E+03  0.47605210211E+03  0.13243080235E+04  0.50400001928E-02 0. -1.
       -1    1    3    3    0  502  0.11872683431E+04 -0.34287026483E+03  0.90870150606E+03  0.15339180435E+04  0.50400001928E-02 0.  1.
</event>
<event>
 5   0  0.8407986E-06  0.2489982E+04  0.7818609E-02  0.8406563E-01
       -2   -1    0    0    0  501  0.00000000000E+00  0.00000000000E+00  0.60341302393E+03  0.60341302393E+03  0.25500000920E-02 0.  1.
        2   -1    0    0  501    0  0.00000000000E+00  0.00000000000E+00 -0.25687257627E+04  0.25687257627E+04  0.25500000920E-02 0. -1.
    10030    2    1    2    0    0  0.00000000000E+00  0.00000000000E+00 -0.19653127388E+04  0.31721387866E+04  0.24899819920E+04 0.  0.
        5    1    3    3  502    0  0.10322521459E+04 -0.68474223000E+03 -0.11415906733E+04  0.16845378504E+04  0.46999998093E+01 0. -1.
       -5    1    3    3    0  502 -0.10322521459E+04  0.68474223000E+03 -0.82372206547E+03  0.14876009362E+04  0.46999998093E+01 0.  1.
</event>
<event>
 5   0  0.2901250E-06  0.2500286E+04  0.7818609E-02  0.8402884E-01
        3   -1    0    0  501    0  0.00000000000E+00  0.00000000000E+00  0.95503784646E+03  0.95503785180E+03  0.10100000352E+00 0. -1.
       -3   -1    0    0    0  501  0.00000000000E+00  0.00000000000E+00 -0.16364353648E+04  0.16364353679E+04  0.10100000352E+00 0.  1.
    10030    2    1    2    0    0  0.00000000000E+00  0.00000000000E+00 -0.68139751837E+03  0.25914732197E+04  0.25002861577E+04 0.  0.
        5    1    3    3  502    0 -0.14436144967E+03 -0.10916990681E+04 -0.95404820342E+03  0.14570096595E+04  0.46999998093E+01 0.  1.
       -5    1    3    3    0  502  0.14436144967E+03  0.10916990681E+04  0.27265068505E+03  0.11344635602E+04  0.46999998093E+01 0. -1.
</event>
<event>
 5   0  0.3481387E-06  0.2504593E+04  0.7818609E-02  0.8401351E-01
       -1   -1    0    0    0  501  0.00000000000E+00  0.00000000000E+00  0.10855950904E+04  0.10855950904E+04  0.50400001928E-02 0.  1.
        1   -1    0    0  501    0  0.00000000000E+00  0.00000000000E+00 -0.14445960313E+04  0.14445960313E+04  0.50400001928E-02 0. -1.
    10030    2    1    2    0    0  0.00000000000E+00  0.00000000000E+00 -0.35900094088E+03  0.25301911217E+04  0.25045928685E+04 0.  0.
        4    1    3    3  502    0  0.33692271927E+03 -0.62164465551E+03 -0.12236432882E+04  0.14132457345E+04  0.12699999809E+01 0. -1.
       -4    1    3    3    0  502 -0.33692271927E+03  0.62164465551E+03  0.86464234727E+03  0.11169453872E+04  0.12699999809E+01 0.  1.
</event>
<event>
 5   0  0.8056723E-06  0.2500385E+04  0.7818609E-02  0.8402849E-01
       -2   -1    0    0    0  501  0.00000000000E+00  0.00000000000E+00  0.11659485838E+04  0.11659485838E+04  0.25500000920E-02 0. -1.
        2   -1    0    0  501    0  0.00000000000E+00  0.00000000000E+00 -0.13405229081E+04  0.13405229081E+04  0.25500000920E-02 0.  1.
    10030    2    1    2    0    0  0.00000000000E+00  0.00000000000E+00 -0.17457432431E+03  0.25064714919E+04  0.25003845994E+04 0.  0.
        2    1    3    3  502    0  0.73425718857E+02  0.55269759195E+03  0.10344162278E+04  0.11751097381E+04  0.25500000920E-02 0. -1.
       -2    1    3    3    0  502 -0.73425718857E+02 -0.55269759195E+03 -0.12089905521E+04  0.13313617537E+04  0.25500000920E-02 0.  1.
</event>
<event>
 5   0  0.8354653E-06  0.2499505E+04  0.7818609E-02  0.8403162E-01
       -2   -1    0    0    0  501  0.00000000000E+00  0.00000000000E+00  0.63947657131E+03  0.63947657132E+03  0.25500000920E-02 0.  1.
        2   -1    0    0  501    0  0.00000000000E+00  0.00000000000E+00 -0.24424361542E+04  0.24424361542E+04  0.25500000920E-02 0. -1.
    10030    2    1    2    0    0  0.00000000000E+00  0.00000000000E+00 -0.18029595829E+04  0.30819127255E+04  0.24995045089E+04 0.  0.
        3    1    3    3  502    0 -0.68334921406E+03 -0.10170856963E+04 -0.59832183854E+03  0.13636049628E+04  0.10100000352E+00 0.  1.
       -3    1    3    3    0  502  0.68334921406E+03  0.10170856963E+04 -0.12046377444E+04  0.17183077627E+04  0.10100000352E+00 0. -1.
</event>
<event>
 5   0  0.3642184E-06  0.2505522E+04  0.7818609E-02  0.8401021E-01
        1   -1    0    0  501    0  0.00000000000E+00  0.00000000000E+00  0.16861815524E+04  0.16861815524E+04  0.50400001928E-02 0.  1.
       -1   -1    0    0    0  501  0.00000000000E+00  0.00000000000E+00 -0.93074789334E+03  0.93074789335E+03  0.50400001928E-02 0. -1.
    10030    2    1    2    0    0  0.00000000000E+00  0.00000000000E+00  0.75543365907E+03  0.26169294458E+04  0.25055218440E+04 0.  0.
        5    1    3    3  502    0 -0.19607759873E+03  0.40219188592E+03 -0.84443337686E+03  0.95566445773E+03  0.46999998093E+01 0. -1.
       -5    1    3    3    0  502  0.19607759873E+03 -0.40219188592E+03  0.15998670359E+04  0.16612649880E+04  0.46999998093E+01 0.  1.
</event>
<event>
 5   0  0.2901250E-06  0.2507805E+04  0.7818609E-02  0.8400210E-01
       -4   -1    0    0    0  501  0.00000000000E+00  0.00000000000E+00  0.83294472105E+03  0.83294568925E+03  0.12699999809E+01 0. -1.
        4   -1    0    0  501    0  0.00000000000E+00  0.00000000000E+00 -0.18876030833E+04  0.18876035105E+04  0.12699999809E+01 0.  1.
    10030    2    1    2    0    0  0.00000000000E+00  0.00000000000E+00 -0.10546583622E+04  0.27205491998E+04  0.25078045552E+04 0.  0.
        2    1    3    3  502    0 -0.83186388981E+03  0.49208536429E+03  0.33926527841E+03  0.10243273237E+04  0.25500000920E-02 0. -1.
       -2    1    3    3    0  502  0.83186388981E+03 -0.49208536429E+03 -0.13939236406E+04  0.16962218761E+04  0.25500000920E-02 0.  1.
</event>
<event>
 5   0  0.8948286E-06  0.2496878E+04  0.7818609E-02  0.8404099E-01
        2   -1    0    0  501    0  0.00000000000E+00  0.00000000000E+00  0.26501394179E+04  0.26501394179E+04  0.25500000920E-02 0. -1.
       -2   -1    0    0    0  501  0.00000000000E+00  0.00000000000E+00 -0.58812000488E+03  0.58812000489E+03  0.25500000920E-02 0.  1.
    10030    2    1    2    0    0  0.00000000000E+00  0.00000000000E+00  0.20620194130E+04  0.32382594228E+04  0.24968780566E+04 0.  0.
        4    1    3    3  502    0 -0.24053439304E+03  0.20030398001E+03 -0.53640138012E+03  0.62105276115E+03  0.12699999809E+01 0.  1.
       -4    1    3    3    0  502  0.24053439304E+03 -0.20030398001E+03  0.25984207931E+04  0.26172066616E+04  0.12699999809E+01 0. -1.
</event>
<event>
 5   0  0.8056723E-06  0.2456961E+04  0.7818609E-02  0.8418481E-01
       -2   -1    0    0    0  501  0.00000000000E+00  0.00000000000E+00  0.16969011673E+04  0.16969011673E+04  0.25500000920E-02 0. -1.
        2   -1    0    0  501    0  0.00000000000E+00  0.00000000000E+00 -0.88936479568E+03  0.88936479569E+03  0.25500000920E-02 0.  1.
    10030    2    1    2    0    0  0.00000000000E+00  0.00000000000E+00  0.80753637157E+03  0.25862659629E+04  0.24569608543E+04 0.  0.
        2    1    3    3  502    0  0.94369714018E+03 -0.48601191054E+03 -0.24715465467E+03  0.10898886608E+04  0.25500000920E-02 0.  1.
       -2    1    3    3    0  502 -0.94369714018E+03  0.48601191054E+03  0.10546910262E+04  0.14963773022E+04  0.25500000920E-02 0. -1.
</event>
<event>
 5   0  0.3522870E-06  0.2517359E+04  0.7818609E-02  0.8396827E-01
       -1   -1    0    0    0  501  0.00000000000E+00  0.00000000000E+00  0.84303967685E+03  0.84303967687E+03  0.50400001928E-02 0. -1.
        1   -1    0    0  501    0  0.00000000000E+00  0.00000000000E+00 -0.18792400232E+04  0.18792400232E+04  0.50400001928E-02 0.  1.
    10030    2    1    2    0    0  0.00000000000E+00  0.00000000000E+00 -0.10362003464E+04  0.27222797001E+04  0.25173588556E+04 0.  0.
        2    1    3    3  502    0  0.48637099130E+03  0.83082820917E+03  0.35873148381E+03  0.10273852889E+04  0.25500000920E-02 0. -1.
       -2    1    3    3    0  502 -0.48637099130E+03 -0.83082820917E+03 -0.13949318302E+04  0.16948944112E+04  0.25500000920E-02 0.  1.
</event>
<event>
 5   0  0.8056723E-06  0.2440568E+04  0.7818609E-02  0.8424470E-01
       -2   -1    0    0    0  501  0.00000000000E+00  0.00000000000E+00  0.11503592874E+04  0.11503592874E+04  0.25500000920E-02 0.  1.
        2   -1    0    0  501    0  0.00000000000E+00  0.00000000000E+00 -0.12944593518E+04  0.12944593518E+04  0.25500000920E-02 0. -1.
    10030    2    1    2    0    0  0.00000000000E+00  0.00000000000E+00 -0.14410006444E+03  0.24448186392E+04  0.24405682433E+04 0.  0.
        2    1    3    3  502    0  0.87928036682E+03 -0.36776427461E+03 -0.83541970159E+03  0.12674030941E+04  0.25500000920E-02 0.  1.
       -2    1    3    3    0  502 -0.87928036682E+03  0.36776427461E+03  0.69131963715E+03  0.11774155451E+04  0.25500000920E-02 0. -1.
</event>
<event>
 5   0  0.8407986E-06  0.2491886E+04  0.7818609E-02  0.8405882E-01
        2   -1    0    0  501    0  0.00000000000E+00  0.00000000000E+00  0.13735011852E+04  0.13735011852E+04  0.25500000920E-02 0.  1.
       -2   -1    0    0    0  501  0.00000000000E+00  0.00000000000E+00 -0.11302308497E+04  0.11302308497E+04  0.25500000920E-02 0. -1.
    10030    2    1    2    0    0  0.00000000000E+00  0.00000000000E+00  0.24327033544E+03  0.25037320349E+04  0.24918855605E+04 0.  0.
        5    1    3    3  502    0  0.71680941406E+03  0.95433863626E+03 -0.23751816287E+03  0.12169695709E+04  0.46999998093E+01 0. -1.
       -5    1    3    3    0  502 -0.71680941406E+03 -0.95433863626E+03  0.48078849831E+03  0.12867624640E+04  0.46999998093E+01 0.  1.
</event>
<event>
 5   0  0.8948286E-06  0.2503753E+04  0.7818609E-02  0.8401650E-01
       -2   -1    0    0    0  501  0.00000000000E+00  0.00000000000E+00  0.10110827885E+04  0.10110827885E+04  0.25500000920E-02 0. -1.
        2   -1    0    0  501    0  0.00000000000E+00  0.00000000000E+00 -0.15500157405E+04  0.15500157405E+04  0.25500000920E-02 0.  1.
    10030    2    1    2    0    0  0.00000000000E+00  0.00000000000E+00 -0.53893295196E+03  0.25610985290E+04  0.25037525733E+04 0.  0.
        4    1    3    3  502    0  0.21811931835E+03  0.12325516404E+04 -0.29075273553E+03  0.12850285403E+04  0.12699999809E+01 0.  1.
       -4    1    3    3    0  502 -0.21811931835E+03 -0.12325516404E+04 -0.24818021644E+03  0.12760699887E+04  0.12699999809E+01 0. -1.
</event>
<event>
 5   0  0.8056723E-06  0.2509550E+04  0.7818609E-02  0.8399591E-01
        2   -1    0    0  501    0  0.00000000000E+00  0.00000000000E+00  0.20760175201E+04  0.20760175201E+04  0.25500000920E-02 0.  1.
       -2   -1    0    0    0  501  0.00000000000E+00  0.00000000000E+00 -0.75840400027E+03  0.75840400027E+03  0.25500000920E-02 0. -1.
    10030    2    1    2    0    0  0.00000000000E+00  0.00000000000E+00  0.13176135198E+04  0.28344215203E+04  0.25095497539E+04 0.  0.
        2    1    3    3  502    0 -0.20108593282E+02  0.59193840806E+03 -0.59058839360E+03  0.83641501967E+03  0.25500000920E-02 0. -1.
       -2    1    3    3    0  502  0.20108593282E+02 -0.59193840806E+03  0.19082019134E+04  0.19980065007E+04  0.25500000920E-02 0.  1.
</event>
<event>
 5   0  0.8407986E-06  0.2477713E+04  0.7818609E-02  0.8410969E-01
       -2   -1    0    0    0  501  0.00000000000E+00  0.00000000000E+00  0.12888112315E+04  0.12888112315E+04  0.25500000920E-02 0.  1.
        2   -1    0    0  501    0  0.00000000000E+00  0.00000000000E+00 -0.11908375674E+04  0.11908375674E+04  0.25500000920E-02 0. -1.
    10030    2    1    2    0    0  0.00000000000E+00  0.00000000000E+00  0.97973664064E+02  0.24796487989E+04  0.24777125190E+04 0.  0.
        5    1    3    3  502    0  0.80973675580E+03  0.14401894433E+03  0.97617059253E+03  0.12764584544E+04  0.46999998093E+01 0.  1.
       -5    1    3    3    0  502 -0.80973675580E+03 -0.14401894433E+03 -0.87819692846E+03  0.12031903445E+04  0.46999998093E+01 0. -1.
</event>
<event>
 5   0  0.3424193E-06  0.2507479E+04  0.7818609E-02  0.8400326E-01
        1   -1    0    0  501    0  0.00000000000E+00  0.00000000000E+00  0.17202922680E+04  0.17202922680E+04  0.50400001928E-02 0.  1.
       -1   -1    0    0    0  501  0.00000000000E+00  0.00000000000E+00 -0.91371827921E+03  0.91371827922E+03  0.50400001928E-02 0. -1.
    10030    2    1    2    0    0  0.00000000000E+00  0.00000000000E+00  0.80657398883E+03  0.26340105473E+04  0.25074788062E+04 0.  0.
        1    1    3    3  502    0  0.23419913372E+03  0.19716410819E+03 -0.87385139789E+03  0.92592612308E+03  0.50400001928E-02 0. -1.
       -1    1    3    3    0  502 -0.23419913372E+03 -0.19716410819E+03  0.16804253867E+04  0.17080844242E+04  0.50400001928E-02 0.  1.
</event>
<event>
 5   0  0.8354653E-06  0.2495273E+04  0.7818609E-02  0.8404671E-01
       -2   -1    0    0    0  501  0.00000000000E+00  0.00000000000E+00  0.13260148138E+04  0.13260148138E+04  0.25500000920E-02 0. -1.
        2   -1    0    0  501    0  0.00000000000E+00  0.00000000000E+00 -0.11738911378E+04  0.11738911378E+04  0.25500000920E-02 0.  1.
    10030    2    1    2    0    0  0.00000000000E+00  0.00000000000E+00  0.15212367605E+03  0.24999059516E+04  0.24952731622E+04 0.  0.
        3    1    3    3  502    0  0.29191037615E+03  0.89121192703E+03  0.90046667662E+03  0.13001194609E+04  0.10100000352E+00 0. -1.
       -3    1    3    3    0  502 -0.29191037615E+03 -0.89121192703E+03 -0.74834300057E+03  0.11997864907E+04  0.10100000352E+00 0.  1.
</event>
<event>
 5   0  0.3424193E-06  0.2501104E+04  0.7818609E-02  0.8402592E-01
       -1   -1    0    0    0  501  0.00000000000E+00  0.00000000000E+00  0.14514116348E+04  0.14514116348E+04  0.50400001928E-02 0. -1.
        1   -1    0    0  501    0  0.00000000000E+00  0.00000000000E+00 -0.10774894605E+04  0.10774894606E+04  0.50400001928E-02 0.  1.
    10030    2    1    2    0    0  0.00000000000E+00  0.00000000000E+00  0.37392217422E+03  0.25289010953E+04  0.25011043476E+04 0.  0.
        1    1    3    3  502    0  0.72954371643E+03 -0.24732960065E+03 -0.80911418534E+03  0.11171713076E+04  0.50400001928E-02 0.  1.
       -1    1    3    3    0  502 -0.72954371643E+03  0.24732960065E+03  0.11830363596E+04  0.14117297877E+04  0.50400001928E-02 0. -1.
</event>
<event>
 5   0  0.8056723E-06  0.2566650E+04  0.7818609E-02  0.8379618E-01
       -2   -1    0    0    0  501  0.00000000000E+00  0.00000000000E+00  0.10756431852E+04  0.10756431852E+04  0.25500000920E-02 0. -1.
        2   -1    0    0  501    0  0.00000000000E+00  0.00000000000E+00 -0.15311052683E+04  0.15311052683E+04  0.25500000920E-02 0.  1.
    10030    2    1    2    0    0  0.00000000000E+00  0.00000000000E+00 -0.45546208310E+03  0.26067484534E+04  0.25666499158E+04 0.  0.
        2    1    3    3  502    0  0.51778370269E+03  0.11496690202E+04 -0.47038656285E+03  0.13457720227E+04  0.25500000920E-02 0.  1.
       -2    1    3    3    0  502 -0.51778370269E+03 -0.11496690202E+04  0.14924479754E+02  0.12609764307E+04  0.25500000920E-02 0. -1.
</event>
<event>
 5   0  0.8407986E-06  0.2499273E+04  0.7818609E-02  0.8403245E-01
       -2   -1    0    0    0  501  0.00000000000E+00  0.00000000000E+00  0.72158833311E+03  0.72158833312E+03  0.25500000920E-02 0. -1.
        2   -1    0    0  501    0  0.00000000000E+00  0.00000000000E+00 -0.21641026051E+04  0.21641026051E+04  0.25500000920E-02 0.  1.
    10030    2    1    2    0    0  0.00000000000E+00  0.00000000000E+00 -0.14425142720E+04  0.28856909382E+04  0.24992728474E+04 0.  0.
        5    1    3    3  502    0 -0.48441362651E+03  0.88362900606E+03  0.13199450382E+03  0.10163175788E+04  0.46999998093E+01 0. -1.
       -5    1    3    3    0  502  0.48441362651E+03 -0.88362900606E+03 -0.15745087758E+04  0.18693733594E+04  0.46999998093E+01 0.  1.
</event>
<event>
 5   0  0.3424193E-06  0.2497168E+04  0.7818609E-02  0.8403995E-01
        1   -1    0    0  501    0  0.00000000000E+00  0.00000000000E+00  0.12668229923E+04  0.12668229923E+04  0.50400001928E-02 0. -1.
       -1   -1    0    0    0  501  0.00000000000E+00  0.00000000000E+00 -0.12306071567E+04  0.12306071567E+04  0.50400001928E-02 0.  1.
    10030    2    1    2    0    0  0.00000000000E+00  0.00000000000E+00  0.36215835628E+02  0.24974301491E+04  0.24971675480E+04 0.  0.
        1    1    3    3  502    0 -0.20367166817E+02 -0.11173248675E+03  0.12616462784E+04  0.12667479236E+04  0.50400001928E-02 0. -1.
       -1    1    3    3    0  502  0.20367166817E+02  0.11173248675E+03 -0.12254304428E+04  0.12306822255E+04  0.50400001928E-02 0.  1.
</event>
<event>
 5   0  0.3481387E-06  0.2509038E+04  0.7818609E-02  0.8399773E-01
       -1   -1    0    0    0  501  0.00000000000E+00  0.00000000000E+00  0.88349488179E+03  0.88349488180E+03  0.50400001928E-02 0. -1.
        1   -1    0    0  501    0  0.00000000000E+00  0.00000000000E+00 -0.17813545902E+04  0.17813545902E+04  0.50400001928E-02 0.  1.
    10030    2    1    2    0    0  0.00000000000E+00  0.00000000000E+00 -0.89785970845E+03  0.26648494720E+04  0.25090377942E+04 0.  0.
        4    1    3    3  502    0  0.11810130880E+04 -0.40976993698E+03 -0.33696648555E+03  0.12947012553E+04  0.12699999809E+01 0.  1.
       -4    1    3    3    0  502 -0.11810130880E+04  0.40976993698E+03 -0.56089322290E+03  0.13701482167E+04  0.12699999809E+01 0. -1.
</event>
<event>
 5   0  0.3642184E-06  0.2492355E+04  0.7818609E-02  0.8405714E-01
       -1   -1    0    0    0  501  0.00000000000E+00  0.00000000000E+00  0.13075101561E+04  0.13075101561E+04  0.50400001928E-02 0. -1.
        1   -1    0    0  501    0  0.00000000000E+00  0.00000000000E+00 -0.11877214262E+04  0.11877214262E+04  0.50400001928E-02 0.  1.
    10030    2    1    2    0    0  0.00000000000E+00  0.00000000000E+00  0.11978872986E+03  0.24952315823E+04  0.24923545714E+04 0.  0.
        5    1    3    3  502    0  0.98576076946E+03 -0.75969867440E+03 -0.39708612502E+01  0.12445498095E+04  0.46999998093E+01 0.  1.
       -5    1    3    3    0  502 -0.98576076946E+03  0.75969867440E+03  0.12375959111E+03  0.12506817728E+04  0.46999998093E+01 0. -1.
</event>
<event>
 5   0  0.2901250E-06  0.2485208E+04  0.7818609E-02  0.8408274E-01
       -3   -1    0    0    0  501  0.00000000000E+00  0.00000000000E+00  0.77486116132E+03  0.77486116790E+03  0.10100000352E+00 0. -1.
        3   -1    0    0  501    0  0.00000000000E+00  0.00000000000E+00 -0.19926978134E+04  0.19926978160E+04  0.10100000352E+00 0.  1.
    10030    2    1    2    0    0  0.00000000000E+00  0.00000000000E+00 -0.12178366521E+04  0.27675589839E+04  0.24852075604E+04 0.  0.
        5    1    3    3  502    0 -0.22534015687E+03  0.87654915897E+03  0.33924006516E+03  0.96655187455E+03  0.46999998093E+01 0. -1.
       -5    1    3    3    0  502  0.22534015687E+03 -0.87654915897E+03 -0.15570767173E+04  0.18010071093E+04  0.46999998093E+01 0.  1.
</event>
<event>
 5   0  0.2901250E-06  0.2571878E+04  0.7818609E-02  0.8377817E-01
       -3   -1    0    0    0  501  0.00000000000E+00  0.00000000000E+00  0.18088295888E+04  0.18088295916E+04  0.10100000352E+00 0. -1.
        3   -1    0    0  501    0  0.00000000000E+00  0.00000000000E+00 -0.91420382664E+03  0.91420383222E+03  0.10100000352E+00 0.  1.
    10030    2    1    2    0    0  0.00000000000E+00  0.00000000000E+00  0.89462576218E+03  0.27230334239E+04  0.25718778690E+04 0.  0.
        4    1    3    3  502    0  0.11869233466E+04  0.48253829233E+03  0.56332987883E+03  0.13996329518E+04  0.12699999809E+01 0. -1.
       -4    1    3    3    0  502 -0.11869233466E+04 -0.48253829233E+03  0.33129588335E+03  0.13234004721E+04  0.12699999809E+01 0.  1.
</event>
<event>
 5   0  0.3484857E-06  0.2517423E+04  0.7818609E-02  0.8396805E-01
        1   -1    0    0  501    0  0.00000000000E+00  0.00000000000E+00  0.20685749559E+04  0.20685749559E+04  0.50400001928E-02 0.  1.
       -1   -1    0    0    0  501  0.00000000000E+00  0.00000000000E+00 -0.76591598210E+03  0.76591598211E+03  0.50400001928E-02 0. -1.
    10030    2    1    2    0    0  0.00000000000E+00  0.00000000000E+00  0.13026589738E+04  0.28344909380E+04  0.25174229831E+04 0.  0.
        3    1    3    3  502    0 -0.38266843597E+03 -0.11327786775E+04  0.10942327419E+04  0.16207923888E+04  0.10100000352E+00 0.  1.
       -3    1    3    3    0  502  0.38266843597E+03  0.11327786775E+04  0.20842623194E+03  0.12136985492E+04  0.10100000352E+00 0. -1.
</event>
<event>
 5   0  0.8407986E-06  0.2495533E+04  0.7818609E-02  0.8404579E-01
       -2   -1    0    0    0  501  0.00000000000E+00  0.00000000000E+00  0.12731367437E+04  0.12731367437E+04  0.25500000920E-02 0. -1.
        2   -1    0    0  501    0  0.00000000000E+00  0.00000000000E+00 -0.12229019872E+04  0.12229019872E+04  0.25500000920E-02 0.  1.
    10030    2    1    2    0    0  0.00000000000E+00  0.00000000000E+00  0.50234756519E+02  0.24960387310E+04  0.24955331726E+04 0.  0.
        5    1    3    3  502    0  0.10805703778E+04 -0.70736454771E+01 -0.59888158117E+03  0.12354608922E+04  0.46999998093E+01 0.  1.
       -5    1    3    3    0  502 -0.10805703778E+04  0.70736454771E+01  0.64911633768E+03  0.12605778388E+04  0.46999998093E+01 0. -1.
</event>
<event>
 5   0  0.2901250E-06  0.2498023E+04  0.7818609E-02  0.8403690E-01
       -3   -1    0    0    0  501  0.00000000000E+00  0.00000000000E+00  0.74731341956E+03  0.74731342639E+03  0.10100000352E+00 0.  1.
        3   -1    0    0  501    0  0.00000000000E+00  0.00000000000E+00 -0.20875173241E+04  0.20875173265E+04  0.10100000352E+00 0. -1.
    10030    2    1    2    0    0  0.00000000000E+00  0.00000000000E+00 -0.13402039045E+04  0.28348307529E+04  0.24980229967E+04 0.  0.
        4    1    3    3  502    0  0.25180267370E+03  0.69121759846E+03 -0.18155728794E+04  0.19589519770E+04  0.12699999809E+01 0. -1.
       -4    1    3    3    0  502 -0.25180267370E+03 -0.69121759846E+03  0.47536897487E+03  0.87587877591E+03  0.12699999809E+01 0.  1.
</event>
<event>
 5   0  0.8407986E-06  0.2497264E+04  0.7818609E-02  0.8403961E-01
        2   -1    0    0  501    0  0.00000000000E+00  0.00000000000E+00  0.16557685678E+04  0.16557685678E+04  0.25500000920E-02 0. -1.
       -2   -1    0    0    0  501  0.00000000000E+00  0.00000000000E+00 -0.94160602813E+03  0.94160602813E+03  0.25500000920E-02 0.  1.
    10030    2    1    2    0    0  0.00000000000E+00  0.00000000000E+00  0.71416253968E+03  0.25973745959E+04  0.24972638344E+04 0.  0.
        5    1    3    3  502    0  0.10381795751E+04 -0.51041743376E+03  0.84571995228E+03  0.14330412117E+04  0.46999998093E+01 0. -1.
       -5    1    3    3    0  502 -0.10381795751E+04  0.51041743376E+03 -0.13155741260E+03  0.11643333842E+04  0.46999998093E+01 0.  1.
</event>
<event>
 5   0  0.3481387E-06  0.2489330E+04  0.7818609E-02  0.8406797E-01
        1   -1    0    0  501    0  0.00000000000E+00  0.00000000000E+00  0.12325409163E+04  0.12325409164E+04  0.50400001928E-02 0.  1.
       -1   -1    0    0    0  501  0.00000000000E+00  0.00000000000E+00 -0.12569086967E+04  0.12569086967E+04  0.50400001928E-02 0. -1.
    10030    2    1    2    0    0  0.00000000000E+00  0.00000000000E+00 -0.24367780380E+02  0.24894496131E+04  0.24893303492E+04 0.  0.
        4    1    3    3  502    0 -0.67881914792E+03 -0.45409711439E+03 -0.95147867491E+03  0.12539190192E+04  0.12699999809E+01 0. -1.
       -4    1    3    3    0  502  0.67881914792E+03  0.45409711439E+03  0.92711089454E+03  0.12355305939E+04  0.12699999809E+01 0.  1.
</event>
<event>
 5   0  0.3642184E-06  0.2503004E+04  0.7818609E-02  0.8401916E-01
       -1   -1    0    0    0  501  0.00000000000E+00  0.00000000000E+00  0.10902601498E+04  0.10902601498E+04  0.50400001928E-02 0.  1.
        1   -1    0    0  501    0  0.00000000000E+00  0.00000000000E+00 -0.14365901554E+04  0.14365901554E+04  0.50400001928E-02 0. -1.
    10030    2    1    2    0    0  0.00000000000E+00  0.00000000000E+00 -0.34633000560E+03  0.25268503052E+04  0.25030037939E+04 0.  0.
        5    1    3    3  502    0 -0.62197166645E+03  0.34802307884E+02 -0.12689438168E+04  0.14136125547E+04  0.46999998093E+01 0. -1.
       -5    1    3    3    0  502  0.62197166645E+03 -0.34802307884E+02  0.92261381123E+03  0.11132377505E+04  0.46999998093E+01 0.  1.
</event>
<event>
 5   0  0.8354653E-06  0.2500013E+04  0.7818609E-02  0.8402981E-01
       -2   -1    0    0    0  501  0.00000000000E+00  0.00000000000E+00  0.15924789295E+04  0.15924789295E+04  0.25500000920E-02 0. -1.
        2   -1    0    0  501    0  0.00000000000E+00  0.00000000000E+00 -0.98118451176E+03  0.98118451176E+03  0.25500000920E-02 0.  1.
    10030    2    1    2    0    0  0.00000000000E+00  0.00000000000E+00  0.61129441775E+03  0.25736634413E+04  0.25000125287E+04 0.  0.
        3    1    3    3  502    0 -0.41452294359E+02  0.42493508185E+03  0.15150888347E+04  0.15740972980E+04  0.10100000352E+00 0. -1.
       -3    1    3    3    0  502  0.41452294359E+02 -0.42493508185E+03 -0.90379441691E+03  0.99956614325E+03  0.10100000352E+00 0.  1.
</event>
<event>
 5   0  0.8407986E-06  0.2369425E+04  0.7818609E-02  0.8451040E-01
       -2   -1    0    0    0  501  0.00000000000E+00  0.00000000000E+00  0.13965485947E+04  0.13965485947E+04  0.25500000920E-02 0. -1.
        2   -1    0    0  501    0  0.00000000000E+00  0.00000000000E+00 -0.10050089667E+04  0.10050089667E+04  0.25500000920E-02 0.  1.
    10030    2    1    2    0    0  0.00000000000E+00  0.00000000000E+00  0.39153962796E+03  0.24015575614E+04  0.23694251287E+04 0.  0.
        5    1    3    3  502    0  0.69750579513E+03  0.50069143248E+03  0.10231211579E+04  0.13356665896E+04  0.46999998093E+01 0.  1.
       -5    1    3    3    0  502 -0.69750579513E+03 -0.50069143248E+03 -0.63158152994E+03  0.10658909718E+04  0.46999998093E+01 0. -1.
</event>
<event>
 5   0  0.2901250E-06  0.2501127E+04  0.7818609E-02  0.8402584E-01
        3   -1    0    0  501    0  0.00000000000E+00  0.00000000000E+00  0.10701256445E+04  0.10701256493E+04  0.10100000352E+00 0. -1.
       -3   -1    0    0    0  501  0.00000000000E+00  0.00000000000E+00 -0.14614253010E+04  0.14614253045E+04  0.10100000352E+00 0.  1.
    10030    2    1    2    0    0  0.00000000000E+00  0.00000000000E+00 -0.39129965643E+03  0.25315509538E+04  0.25011267082E+04 0.  0.
        3    1    3    3  502    0 -0.34225315514E+03  0.28363675053E+03  0.98746652270E+03  0.10829021988E+04  0.10100000352E+00 0. -1.
       -3    1    3    3    0  502  0.34225315514E+03 -0.28363675053E+03 -0.13787661791E+04  0.14486487550E+04  0.10100000352E+00 0.  1.
</event>
<event>
 5   0  0.8948286E-06  0.2497319E+04  0.7818609E-02  0.8403941E-01
       -2   -1    0    0    0  501  0.00000000000E+00  0.00000000000E+00  0.67552875341E+03  0.67552875341E+03  0.25500000920E-02 0. -1.
        2   -1    0    0  501    0  0.00000000000E+00  0.00000000000E+00 -0.23080446237E+04  0.23080446237E+04  0.25500000920E-02 0.  1.
    10030    2    1    2    0    0  0.00000000000E+00  0.00000000000E+00 -0.16325158703E+04  0.29835733771E+04  0.24973189684E+04 0.  0.
        4    1    3    3  502    0 -0.10046310579E+04  0.14617552525E+03 -0.16847870892E+04  0.19670180466E+04  0.12699999809E+01 0.  1.
       -4    1    3    3    0  502  0.10046310579E+04 -0.14617552525E+03  0.52271218924E+02  0.10165553305E+04  0.12699999809E+01 0. -1.
</event>
<event>
 5   0  0.3424193E-06  0.2462919E+04  0.7818609E-02  0.8416316E-01
        1   -1    0    0  501    0  0.00000000000E+00  0.00000000000E+00  0.23948871985E+04  0.23948871985E+04  0.50400001928E-02 0. -1.
       -1   -1    0    0    0  501  0.00000000000E+00  0.00000000000E+00 -0.63322068947E+03  0.63322068949E+03  0.50400001928E-02 0.  1.
    10030    2    1    2    0    0  0.00000000000E+00  0.00000000000E+00  0.17616665090E+04  0.30281078880E+04  0.24629186938E+04 0.  0.
        1    1    3    3  502    0 -0.57797668360E+03  0.10206631530E+04  0.41968535550E+03  0.12457712938E+04  0.50400001928E-02 0.  1.
       -1    1    3    3    0  502  0.57797668360E+03 -0.10206631530E+04  0.13419811535E+04  0.17823365942E+04  0.50400001928E-02 0. -1.
</event>
<event>
 5   0  0.3481387E-06  0.2504306E+04  0.7818609E-02  0.8401453E-01
       -1   -1    0    0    0  501  0.00000000000E+00  0.00000000000E+00  0.10200369580E+04  0.10200369580E+04  0.50400001928E-02 0. -1.
        1   -1    0    0  501    0  0.00000000000E+00  0.00000000000E+00 -0.15370880263E+04  0.15370880263E+04  0.50400001928E-02 0.  1.
    10030    2    1    2    0    0  0.00000000000E+00  0.00000000000E+00 -0.51705106829E+03  0.25571249843E+04  0.25043055680E+04 0.  0.
        4    1    3    3  502    0 -0.88476931471E+02  0.10684026172E+04  0.40209195398E+03  0.11449855336E+04  0.12699999809E+01 0.  1.
       -4    1    3    3    0  502  0.88476931471E+02 -0.10684026172E+04 -0.91914302227E+03  0.14121394507E+04  0.12699999809E+01 0. -1.
</event>
<event>
 5   0  0.3481387E-06  0.2491292E+04  0.7818609E-02  0.8406095E-01
       -1   -1    0    0    0  501  0.00000000000E+00  0.00000000000E+00  0.67136244371E+03  0.67136244373E+03  0.50400001928E-02 0.  1.
        1   -1    0    0  501    0  0.00000000000E+00  0.00000000000E+00 -0.23111708897E+04  0.23111708897E+04  0.50400001928E-02 0. -1.
    10030    2    1    2    0    0  0.00000000000E+00  0.00000000000E+00 -0.16398084460E+04  0.29825333334E+04  0.24912915015E+04 0.  0.
        4    1    3    3  502    0 -0.81728080130E+03  0.81100915707E+03 -0.25083516248E+03  0.11783902803E+04  0.12699999809E+01 0. -1.
       -4    1    3    3    0  502  0.81728080130E+03 -0.81100915707E+03 -0.13889732835E+04  0.18041430532E+04  0.12699999809E+01 0.  1.
</event>
<event>
 5   0  0.3481387E-06  0.2523850E+04  0.7818609E-02  0.8394538E-01
       -1   -1    0    0    0  501  0.00000000000E+00  0.00000000000E+00  0.90205594242E+03  0.90205594244E+03  0.50400001928E-02 0. -1.
        1   -1    0    0  501    0  0.00000000000E+00  0.00000000000E+00 -0.17653617660E+04  0.17653617660E+04  0.50400001928E-02 0.  1.
    10030    2    1    2    0    0  0.00000000000E+00  0.00000000000E+00 -0.86330582359E+03  0.26674177085E+04  0.25238502900E+04 0.  0.
        4    1    3    3  502    0 -0.81086046489E+03  0.83894925799E+03 -0.93975260951E+03  0.14981545751E+04  0.12699999809E+01 0.  1.
       -4    1    3    3    0  502  0.81086046489E+03 -0.83894925799E+03  0.76446785914E+02  0.11692631333E+04  0.12699999809E+01 0. -1.
</event>
<event>
 5   0  0.3424193E-06  0.2504095E+04  0.7818609E-02  0.8401528E-01
       -1   -1    0    0    0  501  0.00000000000E+00  0.00000000000E+00  0.12248283670E+04  0.12248283670E+04  0.50400001928E-02 0. -1.
        1   -1    0    0  501    0  0.00000000000E+00  0.00000000000E+00 -0.12798714994E+04  0.12798714994E+04  0.50400001928E-02 0.  1.
    10030    2    1    2    0    0  0.00000000000E+00  0.00000000000E+00 -0.55043132342E+02  0.25046998664E+04  0.25040949811E+04 0.  0.
        1    1    3    3  502    0  0.67503599992E+03 -0.89814040837E+03 -0.58018840461E+03  0.12644953061E+04  0.50400001928E-02 0. -1.
       -1    1    3    3    0  502 -0.67503599992E+03  0.89814040837E+03  0.52514527227E+03  0.12402045603E+04  0.50400001928E-02 0.  1.
</event>
<event>
 5   0  0.3642184E-06  0.2499409E+04  0.7818609E-02  0.8403196E-01
        1   -1    0    0  501    0  0.00000000000E+00  0.00000000000E+00  0.19933659286E+04  0.19933659286E+04  0.50400001928E-02 0.  1.
       -1   -1    0    0    0  501  0.00000000000E+00  0.00000000000E+00 -0.78347920948E+03  0.78347920949E+03  0.50400001928E-02 0. -1.
    10030    2    1    2    0    0  0.00000000000E+00  0.00000000000E+00  0.12098867191E+04  0.27768451381E+04  0.24994085396E+04 0.  0.
        5    1    3    3  502    0 -0.11282412649E+04  0.50906156654E+03  0.41358448662E+03  0.13050464543E+04  0.46999998093E+01 0. -1.
       -5    1    3    3    0  502  0.11282412649E+04 -0.50906156654E+03  0.79630223252E+03  0.14717986838E+04  0.46999998093E+01 0.  1.
</event>
<event>
 5   0  0.8948286E-06  0.2505200E+04  0.7818609E-02  0.8401135E-01
        2   -1    0    0  501    0  0.00000000000E+00  0.00000000000E+00  0.11441901965E+04  0.11441901965E+04  0.25500000920E-02 0. -1.
       -2   -1    0    0    0  501  0.00000000000E+00  0.00000000000E+00 -0.13712816221E+04  0.13712816221E+04  0.25500000920E-02 0.  1.
    10030    2    1    2    0    0  0.00000000000E+00  0.00000000000E+00 -0.22709142563E+03  0.25154718186E+04  0.25052001826E+04 0.  0.
        4    1    3    3  502    0  0.95401156715E+03 -0.21964555298E+03  0.67108201116E+03  0.11869013935E+04  0.12699999809E+01 0. -1.
       -4    1    3    3    0  502 -0.95401156715E+03  0.21964555298E+03 -0.89817343680E+03  0.13285704252E+04  0.12699999809E+01 0.  1.
</event>
<event>
 5   0  0.3642184E-06  0.2501279E+04  0.7818609E-02  0.8402530E-01
        1   -1    0    0  501    0  0.00000000000E+00  0.00000000000E+00  0.87358115162E+03  0.87358115163E+03  0.50400001928E-02 0.  1.
       -1   -1    0    0    0  501  0.00000000000E+00  0.00000000000E+00 -0.17904446461E+04  0.17904446461E+04  0.50400001928E-02 0. -1.
    10030    2    1    2    0    0  0.00000000000E+00  0.00000000000E+00 -0.91686349449E+03  0.26640257977E+04  0.25012786297E+04 0.  0.
        5    1    3    3  502    0 -0.66801185211E+03 -0.72954699916E+03 -0.12734664983E+04  0.16125190451E+04  0.46999998093E+01 0. -1.
       -5    1    3    3    0  502  0.66801185211E+03  0.72954699916E+03  0.35660300380E+03  0.10515067526E+04  0.46999998093E+01 0.  1.
</event>
<event>
 5   0  0.8948286E-06  0.2513505E+04  0.7818609E-02  0.8398190E-01
       -2   -1    0    0    0  501  0.00000000000E+00  0.00000000000E+00  0.12089274734E+04  0.12089274734E+04  0.25500000920E-02 0. -1.
        2   -1    0    0  501    0  0.00000000000E+00  0.00000000000E+00 -0.13064690018E+04  0.13064690018E+04  0.25500000920E-02 0.  1.
    10030    2    1    2    0    0  0.00000000000E+00  0.00000000000E+00 -0.97541528467E+02  0.25153964752E+04  0.25135045410E+04 0.  0.
        4    1    3    3  502    0  0.82678619543E+02  0.49233902384E+02 -0.13027761730E+04  0.13063258021E+04  0.12699999809E+01 0.  1.
       -4    1    3    3    0  502 -0.82678619543E+02 -0.49233902384E+02  0.12052346446E+04  0.12090706731E+04  0.12699999809E+01 0. -1.
</event>
<event>
 5   0  0.3424193E-06  0.2474676E+04  0.7818609E-02  0.8412063E-01
        1   -1    0    0  501    0  0.00000000000E+00  0.00000000000E+00  0.13143885349E+04  0.13143885349E+04  0.50400001928E-02 0.  1.
       -1   -1    0    0    0  501  0.00000000000E+00  0.00000000000E+00 -0.11648037748E+04  0.11648037748E+04  0.50400001928E-02 0. -1.
    10030    2    1    2    0    0  0.00000000000E+00  0.00000000000E+00  0.14958476008E+03  0.24791923097E+04  0.24746755158E+04 0.  0.
        1    1    3    3  502    0 -0.11095910538E+04 -0.27104668032E+03 -0.40183444298E+03  0.12108383580E+04  0.50400001928E-02 0. -1.
       -1    1    3    3    0  502  0.11095910538E+04  0.27104668032E+03  0.55141920306E+03  0.12683539518E+04  0.50400001928E-02 0.  1.
</event>
<event>
 5   0  0.8579923E-06  0.2487147E+04  0.7818609E-02  0.8407579E-01
       -2   -1    0    0    0  501  0.00000000000E+00  0.00000000000E+00  0.69885904795E+03  0.69885904795E+03  0.25500000920E-02 0. -1.
        2   -1    0    0  501    0  0.00000000000E+00  0.00000000000E+00 -0.22128568160E+04  0.22128568160E+04  0.25500000920E-02 0.  1.
    10030    2    1    2    0    0  0.00000000000E+00  0.00000000000E+00 -0.15139977680E+04  0.29117158639E+04  0.24871469660E+04 0.  0.
        1    1    3    3  502    0 -0.10275258846E+04 -0.15634535623E+03 -0.15563614066E+04  0.18715005055E+04  0.50400001928E-02 0.  1.
       -1    1    3    3    0  502  0.10275258846E+04  0.15634535623E+03  0.42363638602E+02  0.10402153584E+04  0.50400001928E-02 0. -1.
</event>
<event>
 5   0  0.3484857E-06  0.2493410E+04  0.7818609E-02  0.8405337E-01
        1   -1    0    0  501    0  0.00000000000E+00  0.00000000000E+00  0.11781418309E+04  0.11781418309E+04  0.50400001928E-02 0.  1.
       -1   -1    0    0    0  501  0.00000000000E+00  0.00000000000E+00 -0.13192577994E+04  0.13192577994E+04  0.50400001928E-02 0. -1.
    10030    2    1    2    0    0  0.00000000000E+00  0.00000000000E+00 -0.14111596848E+03  0.24973996303E+04  0.24934095526E+04 0.  0.
        3    1    3    3  502    0 -0.41347151828E+03 -0.28286643830E+03 -0.12140068117E+04  0.13133105754E+04  0.10100000352E+00 0. -1.
       -3    1    3    3    0  502  0.41347151828E+03  0.28286643830E+03  0.10728908432E+04  0.11840890549E+04  0.10100000352E+00 0.  1.
</event>
<event>
 5   0  0.8056723E-06  0.2519594E+04  0.7818609E-02  0.8396038E-01
       -2   -1    0    0    0  501  0.00000000000E+00  0.00000000000E+00  0.13342294083E+04  0.13342294083E+04  0.25500000920E-02 0. -1.
        2   -1    0    0  501    0  0.00000000000E+00  0.00000000000E+00 -0.11895171156E+04  0.11895171156E+04  0.25500000920E-02 0.  1.
    10030    2    1    2    0    0  0.00000000000E+00  0.00000000000E+00  0.14471229265E+03  0.25237465239E+04  0.25195941874E+04 0.  0.
        2    1    3    3  502    0  0.81660518281E+03  0.23323343854E+03 -0.85968627215E+03  0.12084297034E+04  0.25500000920E-02 0.  1.
       -2    1    3    3    0  502 -0.81660518281E+03 -0.23323343854E+03  0.10043985648E+04  0.13153168205E+04  0.25500000920E-02 0. -1.
</event>
<event>
 5   0  0.3424193E-06  0.2505004E+04  0.7818609E-02  0.8401205E-01
        1   -1    0    0  501    0  0.00000000000E+00  0.00000000000E+00  0.18515092583E+04  0.18515092583E+04  0.50400001928E-02 0.  1.
       -1   -1    0    0    0  501  0.00000000000E+00  0.00000000000E+00 -0.84728764159E+03  0.84728764161E+03  0.50400001928E-02 0. -1.
    10030    2    1    2    0    0  0.00000000000E+00  0.00000000000E+00  0.10042216167E+04  0.26987968999E+04  0.25050037229E+04 0.  0.
        1    1    3    3  502    0 -0.11522685057E+04 -0.27453673998E+03  0.94062217570E+03  0.15125684144E+04  0.50400001928E-02 0.  1.
       -1    1    3    3    0  502  0.11522685057E+04  0.27453673998E+03  0.63599441007E+02  0.11862284855E+04  0.50400001928E-02 0. -1.
</event>
<event>
 5   0  0.3484857E-06  0.2511196E+04  0.7818609E-02  0.8399008E-01
       -1   -1    0    0    0  501  0.00000000000E+00  0.00000000000E+00  0.22763317372E+04  0.22763317372E+04  0.50400001928E-02 0.  1.
        1   -1    0    0  501    0  0.00000000000E+00  0.00000000000E+00 -0.69257331167E+03  0.69257331168E+03  0.50400001928E-02 0. -1.
    10030    2    1    2    0    0  0.00000000000E+00  0.00000000000E+00  0.15837584256E+04  0.29689050489E+04  0.25111962167E+04 0.  0.
        3    1    3    3  502    0 -0.24456534982E+03  0.69750760214E+03 -0.40810605125E+03  0.84432199110E+03  0.10100000352E+00 0. -1.
       -3    1    3    3    0  502  0.24456534982E+03 -0.69750760214E+03  0.19918644768E+04  0.21245830578E+04  0.10100000352E+00 0.  1.
</event>
<event>
 5   0  0.3424193E-06  0.2501260E+04  0.7818609E-02  0.8402537E-01
       -1   -1    0    0    0  501  0.00000000000E+00  0.00000000000E+00  0.15917839552E+04  0.15917839552E+04  0.50400001928E-02 0. -1.
        1   -1    0    0  501    0  0.00000000000E+00  0.00000000000E+00 -0.98259308978E+03  0.98259308980E+03  0.50400001928E-02 0.  1.
    10030    2    1    2    0    0  0.00000000000E+00  0.00000000000E+00  0.60919086537E+03  0.25743770450E+04  0.25012604141E+04 0.  0.
        1    1    3    3  502    0  0.36603891332E+03 -0.11087535987E+04  0.76575207652E+03  0.13963148898E+04  0.50400001928E-02 0. -1.
       -1    1    3    3    0  502 -0.36603891332E+03  0.11087535987E+04 -0.15656121115E+03  0.11780621552E+04  0.50400001928E-02 0.  1.
</event>
<event>
 5   0  0.8407986E-06  0.2501045E+04  0.7818609E-02  0.8402613E-01
       -2   -1    0    0    0  501  0.00000000000E+00  0.00000000000E+00  0.18460052530E+04  0.18460052530E+04  0.25500000920E-02 0. -1.
        2   -1    0    0  501    0  0.00000000000E+00  0.00000000000E+00 -0.84712994719E+03  0.84712994719E+03  0.25500000920E-02 0.  1.
    10030    2    1    2    0    0  0.00000000000E+00  0.00000000000E+00  0.99887530582E+03  0.26931352002E+04  0.25010448477E+04 0.  0.
        5    1    3    3  502    0  0.53515664342E+03 -0.87555478547E+03 -0.27015369629E+03  0.10611286091E+04  0.46999998093E+01 0.  1.
       -5    1    3    3    0  502 -0.53515664342E+03  0.87555478547E+03  0.12690290021E+04  0.16320065911E+04  0.46999998093E+01 0. -1.
</event>
<event>
 5   0  0.8354653E-06  0.2493058E+04  0.7818609E-02  0.8405463E-01
       -2   -1    0    0    0  501  0.00000000000E+00  0.00000000000E+00  0.13000361364E+04  0.13000361364E+04  0.25500000920E-02 0.  1.
        2   -1    0    0  501    0  0.00000000000E+00  0.00000000000E+00 -0.11952245224E+04  0.11952245224E+04  0.25500000920E-02 0. -1.
    10030    2    1    2    0    0  0.00000000000E+00  0.00000000000E+00  0.10481161394E+03  0.24952606588E+04  0.24930584191E+04 0.  0.
        3    1    3    3  502    0  0.39476447200E+03  0.58222313077E+02  0.12343834587E+04  0.12972784433E+04  0.10100000352E+00 0.  1.
       -3    1    3    3    0  502 -0.39476447200E+03 -0.58222313077E+02 -0.11295718447E+04  0.11979822155E+04  0.10100000352E+00 0. -1.
</event>
<event>
 5   0  0.8579923E-06  0.2495864E+04  0.7818609E-02  0.8404461E-01
       -2   -1    0    0    0  501  0.00000000000E+00  0.00000000000E+00  0.11927836440E+04  0.11927836440E+04  0.25500000920E-02 0. -1.
        2   -1    0    0  501    0  0.00000000000E+00  0.00000000000E+00 -0.13056298044E+04  0.13056298044E+04  0.25500000920E-02 0.  1.
    10030    2    1    2    0    0  0.00000000000E+00  0.00000000000E+00 -0.11284616039E+03  0.24984134484E+04  0.24958636788E+04 0.  0.
        1    1    3    3  502    0 -0.81625946269E+03  0.29474249918E+03  0.84125457009E+03  0.12086612027E+04  0.50400001928E-02 0. -1.
       -1    1    3    3    0  502  0.81625946269E+03 -0.29474249918E+03 -0.95410073049E+03  0.12897522457E+04  0.50400001928E-02 0.  1.
</event>
<event>
 5   0  0.3522870E-06  0.2491192E+04  0.7818609E-02  0.8406130E-01
       -1   -1    0    0    0  501  0.00000000000E+00  0.00000000000E+00  0.89450271627E+03  0.89450271628E+03  0.50400001928E-02 0. -1.
        1   -1    0    0  501    0  0.00000000000E+00  0.00000000000E+00 -0.17344934640E+04  0.17344934640E+04  0.50400001928E-02 0.  1.
    10030    2    1    2    0    0  0.00000000000E+00  0.00000000000E+00 -0.83999074769E+03  0.26289961802E+04  0.24911917749E+04 0.  0.
        2    1    3    3  502    0 -0.36359706277E+03  0.87736328200E+03  0.43052697842E+03  0.10427476357E+04  0.25500000920E-02 0. -1.
       -2    1    3    3    0  502  0.36359706277E+03 -0.87736328200E+03 -0.12705177261E+04  0.15862485445E+04  0.25500000920E-02 0.  1.
</event>
<event>
 5   0  0.3424193E-06  0.2505668E+04  0.7818609E-02  0.8400969E-01
       -1   -1    0    0    0  501  0.00000000000E+00  0.00000000000E+00  0.88175091992E+03  0.88175091994E+03  0.50400001928E-02 0.  1.
        1   -1    0    0  501    0  0.00000000000E+00  0.00000000000E+00 -0.17800865643E+04  0.17800865643E+04  0.50400001928E-02 0. -1.
    10030    2    1    2    0    0  0.00000000000E+00  0.00000000000E+00 -0.89833564436E+03  0.26618374842E+04  0.25056679474E+04 0.  0.
        1    1    3    3  502    0  0.71920770011E+03  0.76818449536E+03 -0.11714137883E+04  0.15746673929E+04  0.50400001928E-02 0. -1.
       -1    1    3    3    0  502 -0.71920770011E+03 -0.76818449536E+03  0.27307814392E+03  0.10871700913E+04  0.50400001928E-02 0.  1.
</event>
<event>
 5   0  0.8407986E-06  0.2493759E+04  0.7818609E-02  0.8405212E-01
        2   -1    0    0  501    0  0.00000000000E+00  0.00000000000E+00  0.14599165014E+04  0.14599165014E+04  0.25500000920E-02 0.  1.
       -2   -1    0    0    0  501  0.00000000000E+00  0.00000000000E+00 -0.10649299159E+04  0.10649299159E+04  0.25500000920E-02 0. -1.
    10030    2    1    2    0    0  0.00000000000E+00  0.00000000000E+00  0.39498658548E+03  0.25248464173E+04  0.24937592161E+04 0.  0.
        5    1    3    3  502    0  0.78923447434E+03  0.89523648480E+03  0.56303032421E+03  0.13196077657E+04  0.46999998093E+01 0.  1.
       -5    1    3    3    0  502 -0.78923447434E+03 -0.89523648480E+03 -0.16804373873E+03  0.12052386516E+04  0.46999998093E+01 0. -1.
</event>
<event>
 5   0  0.3484857E-06  0.2504127E+04  0.7818609E-02  0.8401517E-01
        1   -1    0    0  501    0  0.00000000000E+00  0.00000000000E+00  0.12803572223E+04  0.12803572223E+04  0.50400001928E-02 0. -1.
       -1   -1    0    0    0  501  0.00000000000E+00  0.00000000000E+00 -0.12243951117E+04  0.12243951117E+04  0.50400001928E-02 0.  1.
    10030    2    1    2    0    0  0.00000000000E+00  0.00000000000E+00  0.55962110618E+02  0.25047523340E+04  0.25041270927E+04 0.  0.
        3    1    3    3  502    0  0.90288513985E+03 -0.77274309533E+03 -0.36623617318E+03  0.12435684187E+04  0.10100000352E+00 0.  1.
       -3    1    3    3    0  502 -0.90288513985E+03  0.77274309533E+03  0.42219828380E+03  0.12611839153E+04  0.10100000352E+00 0. -1.
</event>
<event>
 5   0  0.3481387E-06  0.2495677E+04  0.7818609E-02  0.8404527E-01
        1   -1    0    0  501    0  0.00000000000E+00  0.00000000000E+00  0.18557588742E+04  0.18557588742E+04  0.50400001928E-02 0.  1.
       -1   -1    0    0    0  501  0.00000000000E+00  0.00000000000E+00 -0.83906420510E+03  0.83906420512E+03  0.50400001928E-02 0. -1.
    10030    2    1    2    0    0  0.00000000000E+00  0.00000000000E+00  0.10166946691E+04  0.26948230793E+04  0.24956769379E+04 0.  0.
        4    1    3    3  502    0  0.42994823060E+03 -0.63861533003E+03  0.15687570374E+04  0.17474796926E+04  0.12699999809E+01 0.  1.
       -4    1    3    3    0  502 -0.42994823060E+03  0.63861533003E+03 -0.55206236838E+03  0.94734338665E+03  0.12699999809E+01 0. -1.
</event>
<event>
 5   0  0.8407986E-06  0.2497094E+04  0.7818609E-02  0.8404022E-01
       -2   -1    0    0    0  501  0.00000000000E+00  0.00000000000E+00  0.19669953942E+04  0.19669953942E+04  0.25500000920E-02 0.  1.
        2   -1    0    0  501    0  0.00000000000E+00  0.00000000000E+00 -0.79251300657E+03  0.79251300657E+03  0.25500000920E-02 0. -1.
    10030    2    1    2    0    0  0.00000000000E+00  0.00000000000E+00  0.11744823876E+04  0.27595084008E+04  0.24970938579E+04 0.  0.
        5    1    3    3  502    0  0.41189841766E+03 -0.58381862033E+03 -0.54424308493E+03  0.89817988922E+03  0.46999998093E+01 0. -1.
       -5    1    3    3    0  502 -0.41189841766E+03  0.58381862033E+03  0.17187254726E+04  0.18613285116E+04  0.46999998093E+01 0.  1.
</event>
<event>
 5   0  0.2901250E-06  0.2454854E+04  0.7818609E-02  0.8419248E-01
       -3   -1    0    0    0  501  0.00000000000E+00  0.00000000000E+00  0.14733459594E+04  0.14733459628E+04  0.10100000352E+00 0. -1.
        3   -1    0    0  501    0  0.00000000000E+00  0.00000000000E+00 -0.10225547902E+04  0.10225547952E+04  0.10100000352E+00 0.  1.
    10030    2    1    2    0    0  0.00000000000E+00  0.00000000000E+00  0.45079116919E+03  0.24959007580E+04  0.24548539499E+04 0.  0.
        2    1    3    3  502    0  0.18947260046E+03 -0.30832764726E+03 -0.96708001514E+03  0.10325742395E+04  0.25500000920E-02 0.  1.
       -2    1    3    3    0  502 -0.18947260046E+03  0.30832764726E+03  0.14178711843E+04  0.14633265185E+04  0.25500000920E-02 0. -1.
</event>
<event>
 5   0  0.8407986E-06  0.2568883E+04  0.7818609E-02  0.8378848E-01
       -2   -1    0    0    0  501  0.00000000000E+00  0.00000000000E+00  0.12394874697E+04  0.12394874697E+04  0.25500000920E-02 0. -1.
        2   -1    0    0  501    0  0.00000000000E+00  0.00000000000E+00 -0.13310263702E+04  0.13310263702E+04  0.25500000920E-02 0.  1.
    10030    2    1    2    0    0  0.00000000000E+00  0.00000000000E+00 -0.91538900501E+02  0.25705138400E+04  0.25688834211E+04 0.  0.
        5    1    3    3  502    0  0.92396718737E+03  0.69294436880E+03  0.51662031702E+03  0.12652295853E+04  0.46999998093E+01 0. -1.
       -5    1    3    3    0  502 -0.92396718737E+03 -0.69294436880E+03 -0.60815921752E+03  0.13052842547E+04  0.46999998093E+01 0.  1.
</event>
<event>
 5   0  0.8948286E-06  0.2504466E+04  0.7818609E-02  0.8401396E-01
       -2   -1    0    0    0  501  0.00000000000E+00  0.00000000000E+00  0.10617853599E+04  0.10617853599E+04  0.25500000920E-02 0. -1.
        2   -1    0    0  501    0  0.00000000000E+00  0.00000000000E+00 -0.14768408609E+04  0.14768408609E+04  0.25500000920E-02 0.  1.
    10030    2    1    2    0    0  0.00000000000E+00  0.00000000000E+00 -0.41505550107E+03  0.25386262208E+04  0.25044664142E+04 0.  0.
        4    1    3    3  502    0  0.78271210069E+03  0.88126455429E+03  0.22111229472E+03  0.11992321322E+04  0.12699999809E+01 0. -1.
       -4    1    3    3    0  502 -0.78271210069E+03 -0.88126455429E+03 -0.63616779578E+03  0.13393940886E+04  0.12699999809E+01 0.  1.
</event>
<event>
 5   0  0.8579923E-06  0.2495861E+04  0.7818609E-02  0.8404462E-01
        2   -1    0    0  501    0  0.00000000000E+00  0.00000000000E+00  0.12740746528E+04  0.12740746528E+04  0.25500000920E-02 0.  1.
       -2   -1    0    0    0  501  0.00000000000E+00  0.00000000000E+00 -0.12223226365E+04  0.12223226365E+04  0.25500000920E-02 0. -1.
    10030    2    1    2    0    0  0.00000000000E+00  0.00000000000E+00  0.51752016263E+02  0.24963972893E+04  0.24958608044E+04 0.  0.
        1    1    3    3  502    0  0.83041687879E+03 -0.59388114125E+02  0.95570540757E+03  0.12674746415E+04  0.50400001928E-02 0.  1.
       -1    1    3    3    0  502 -0.83041687879E+03  0.59388114125E+02 -0.90395339130E+03  0.12289226478E+04  0.50400001928E-02 0. -1.
</event>
<event>
 5   0  0.8579923E-06  0.2516129E+04  0.7818609E-02  0.8397262E-01
        2   -1    0    0  501    0  0.00000000000E+00  0.00000000000E+00  0.11617802883E+04  0.11617802883E+04  0.25500000920E-02 0. -1.
       -2   -1    0    0    0  501  0.00000000000E+00  0.00000000000E+00 -0.13623286812E+04  0.13623286812E+04  0.25500000920E-02 0.  1.
    10030    2    1    2    0    0  0.00000000000E+00  0.00000000000E+00 -0.20054839295E+03  0.25241089695E+04  0.25161292558E+04 0.  0.
        1    1    3    3  502    0  0.43304695762E+03 -0.33331267890E+03  0.10365007872E+04  0.11717341385E+04  0.50400001928E-02 0. -1.
       -1    1    3    3    0  502 -0.43304695762E+03  0.33331267890E+03 -0.12370491801E+04  0.13523748310E+04  0.50400001928E-02 0.  1.
</event>
<event>
 5   0  0.3522870E-06  0.2498486E+04  0.7818609E-02  0.8403525E-01
       -1   -1    0    0    0  501  0.00000000000E+00  0.00000000000E+00  0.53167971866E+03  0.53167971869E+03  0.50400001928E-02 0.  1.
        1   -1    0    0  501    0  0.00000000000E+00  0.00000000000E+00 -0.29352400523E+04  0.29352400523E+04  0.50400001928E-02 0. -1.
    10030    2    1    2    0    0  0.00000000000E+00  0.00000000000E+00 -0.24035603337E+04  0.34669197710E+04  0.24984856256E+04 0.  0.
        2    1    3    3  502    0  0.26411594481E+03 -0.59750099411E+03  0.27577391368E+03  0.70909514294E+03  0.25500000920E-02 0.  1.
       -2    1    3    3    0  502 -0.26411594481E+03  0.59750099411E+03 -0.26793342473E+04  0.27578246281E+04  0.25500000920E-02 0. -1.
</event>
<event>
 5   0  0.8579923E-06  0.2502248E+04  0.7818609E-02  0.8402185E-01
        2   -1    0    0  501    0  0.00000000000E+00  0.00000000000E+00  0.28292101833E+04  0.28292101833E+04  0.25500000920E-02 0.  1.
       -2   -1    0    0    0  501  0.00000000000E+00  0.00000000000E+00 -0.55326771047E+03  0.55326771048E+03  0.25500000920E-02 0. -1.
    10030    2    1    2    0    0  0.00000000000E+00  0.00000000000E+00  0.22759424729E+04  0.33824778938E+04  0.25022475022E+04 0.  0.
        1    1    3    3  502    0 -0.11841151819E+04 -0.27013765194E+03  0.15439712867E+04  0.19644211486E+04  0.50400001928E-02 0.  1.
       -1    1    3    3    0  502  0.11841151819E+04  0.27013765194E+03  0.73197118618E+03  0.14180567452E+04  0.50400001928E-02 0. -1.
</event>
<event>
 5   0  0.3642184E-06  0.2499234E+04  0.7818609E-02  0.8403258E-01
        1   -1    0    0  501    0  0.00000000000E+00  0.00000000000E+00  0.73031157294E+03  0.73031157295E+03  0.50400001928E-02 0.  1.
       -1   -1    0    0    0  501  0.00000000000E+00  0.00000000000E+00 -0.21381873180E+04  0.21381873180E+04  0.50400001928E-02 0. -1.
    10030    2    1    2    0    0  0.00000000000E+00  0.00000000000E+00 -0.14078757450E+04  0.28684988909E+04  0.24992342375E+04 0.  0.
        5    1    3    3  502    0 -0.86121506184E+03 -0.64699352431E+03  0.23077846906E+02  0.10774259512E+04  0.46999998093E+01 0.  1.
       -5    1    3    3    0  502  0.86121506184E+03  0.64699352431E+03 -0.14309535919E+04  0.17910729398E+04  0.46999998093E+01 0. -1.
</event>
<event>
 5   0  0.3484857E-06  0.2498877E+04  0.7818609E-02  0.8403386E-01
        1   -1    0    0  501    0  0.00000000000E+00  0.00000000000E+00  0.10095915501E+04  0.10095915502E+04  0.50400001928E-02 0. -1.
       -1   -1    0    0    0  501  0.00000000000E+00  0.00000000000E+00 -0.15462650648E+04  0.15462650648E+04  0.50400001928E-02 0.  1.
    10030    2    1    2    0    0  0.00000000000E+00  0.00000000000E+00 -0.53667351465E+03  0.25558566150E+04  0.24988766626E+04 0.  0.
        3    1    3    3  502    0  0.46485233722E+03  0.84634333969E+03 -0.10793301741E+04  0.14482190369E+04  0.10100000352E+00 0.  1.
       -3    1    3    3    0  502 -0.46485233722E+03 -0.84634333969E+03  0.54265665943E+03  0.11076375780E+04  0.10100000352E+00 0. -1.
</event>
<event>
 5   0  0.8948286E-06  0.2482225E+04  0.7818609E-02  0.8409345E-01
        2   -1    0    0  501    0  0.00000000000E+00  0.00000000000E+00  0.17609741138E+04  0.17609741138E+04  0.25500000920E-02 0. -1.
       -2   -1    0    0    0  501  0.00000000000E+00  0.00000000000E+00 -0.87472087212E+03  0.87472087213E+03  0.25500000920E-02 0.  1.
    10030    2    1    2    0    0  0.00000000000E+00  0.00000000000E+00  0.88625324170E+03  0.26356949860E+04  0.24822254633E+04 0.  0.
        4    1    3    3  502    0 -0.50080357782E+03  0.62251391272E+03 -0.56534748842E+03  0.97874776661E+03  0.12699999809E+01 0.  1.
       -4    1    3    3    0  502  0.50080357782E+03 -0.62251391272E+03  0.14516007301E+04  0.16569472193E+04  0.12699999809E+01 0. -1.
</event>
<event>
 5   0  0.3481387E-06  0.2505963E+04  0.7818609E-02  0.8400864E-01
        1   -1    0    0  501    0  0.00000000000E+00  0.00000000000E+00  0.14859274831E+04  0.14859274831E+04  0.50400001928E-02 0. -1.
       -1   -1    0    0    0  501  0.00000000000E+00  0.00000000000E+00 -0.10565538012E+04  0.10565538012E+04  0.50400001928E-02 0.  1.
    10030    2    1    2    0    0  0.00000000000E+00  0.00000000000E+00  0.42937368182E+03  0.25424812843E+04  0.25059627536E+04 0.  0.
        4    1    3    3  502    0  0.79785001167E+02 -0.12212819296E+04 -0.57675409867E+02  0.12252441650E+04  0.12699999809E+01 0.  1.
       -4    1    3    3    0  502 -0.79785001167E+02  0.12212819296E+04  0.48704909169E+03  0.13172371193E+04  0.12699999809E+01 0. -1.
</event>
<event>
 5   0  0.8354653E-06  0.2492301E+04  0.7818609E-02  0.8405734E-01
       -2   -1    0    0    0  501  0.00000000000E+00  0.00000000000E+00  0.12773491485E+04  0.12773491485E+04  0.25500000920E-02 0.  1.
        2   -1    0    0  501    0  0.00000000000E+00  0.00000000000E+00 -0.12157136864E+04  0.12157136864E+04  0.25500000920E-02 0. -1.
    10030    2    1    2    0    0  0.00000000000E+00  0.00000000000E+00  0.61635462124E+02  0.24930628349E+04  0.24923008182E+04 0.  0.
        3    1    3    3  502    0 -0.18508510560E+03  0.10162850958E+04 -0.66638815631E+03  0.12292945446E+04  0.10100000352E+00 0.  1.
       -3    1    3    3    0  502  0.18508510560E+03 -0.10162850958E+04  0.72802361843E+03  0.12637682903E+04  0.10100000352E+00 0. -1.
</event>
<event>
 5   0  0.8354653E-06  0.2493809E+04  0.7818609E-02  0.8405194E-01
       -2   -1    0    0    0  501  0.00000000000E+00  0.00000000000E+00  0.87116016308E+03  0.87116016309E+03  0.25500000920E-02 0. -1.
        2   -1    0    0  501    0  0.00000000000E+00  0.00000000000E+00 -0.17847136177E+04  0.17847136177E+04  0.25500000920E-02 0.  1.
    10030    2    1    2    0    0  0.00000000000E+00  0.00000000000E+00 -0.91355345463E+03  0.26558737808E+04  0.24938094605E+04 0.  0.
        3    1    3    3  502    0  0.10773038026E+04 -0.21370348972E+03 -0.10854966549E+04  0.15442006549E+04  0.10100000352E+00 0. -1.
       -3    1    3    3    0  502 -0.10773038026E+04  0.21370348972E+03  0.17194320029E+03  0.11116731259E+04  0.10100000352E+00 0.  1.
</event>
<event>
 5   0  0.8354653E-06  0.2498181E+04  0.7818609E-02  0.8403634E-01
        2   -1    0    0  501    0  0.00000000000E+00  0.00000000000E+00  0.17728798029E+04  0.17728798029E+04  0.25500000920E-02 0. -1.
       -2   -1    0    0    0  501  0.00000000000E+00  0.00000000000E+00 -0.88005252142E+03  0.88005252143E+03  0.25500000920E-02 0.  1.
    10030    2    1    2    0    0  0.00000000000E+00  0.00000000000E+00  0.89282728144E+03  0.26529323243E+04  0.24981812110E+04 0.  0.
        3    1    3    3  502    0  0.11658904791E+03 -0.75793358235E+03 -0.60065117582E+03  0.97408324417E+03  0.10100000352E+00 0.  1.
       -3    1    3    3    0  502 -0.11658904791E+03  0.75793358235E+03  0.14934784573E+04  0.16788490801E+04  0.10100000352E+00 0. -1.
</event>
<event>
 5   0  0.3522870E-06  0.2628125E+04  0.7818609E-02  0.8358710E-01
       -1   -1    0    0    0  501  0.00000000000E+00  0.00000000000E+00  0.13990585060E+04  0.13990585060E+04  0.50400001928E-02 0. -1.
        1   -1    0    0  501    0  0.00000000000E+00  0.00000000000E+00 -0.12342299672E+04  0.12342299672E+04  0.50400001928E-02 0.  1.
    10030    2    1    2    0    0  0.00000000000E+00  0.00000000000E+00  0.16482853880E+03  0.26332884731E+04  0.26281247565E+04 0.  0.
        2    1    3    3  502    0  0.41991283609E+03  0.17846603697E+03  0.13171435018E+04  0.13939311033E+04  0.25500000920E-02 0. -1.
       -2    1    3    3    0  502 -0.41991283609E+03 -0.17846603697E+03 -0.11523149630E+04  0.12393573699E+04  0.25500000920E-02 0.  1.
</event>
<event>
 5   0  0.8407986E-06  0.2503113E+04  0.7818609E-02  0.8401877E-01
       -2   -1    0    0    0  501  0.00000000000E+00  0.00000000000E+00  0.61373938750E+03  0.61373938750E+03  0.25500000920E-02 0. -1.
        2   -1    0    0  501    0  0.00000000000E+00  0.00000000000E+00 -0.25522124632E+04  0.25522124632E+04  0.25500000920E-02 0.  1.
    10030    2    1    2    0    0  0.00000000000E+00  0.00000000000E+00 -0.19384730757E+04  0.31659518507E+04  0.25031127134E+04 0.  0.
        5    1    3    3  502    0  0.90741408776E+02 -0.85689379027E+03  0.17879365687E+03  0.88005126715E+03  0.46999998093E+01 0. -1.
       -5    1    3    3    0  502 -0.90741408776E+02  0.85689379027E+03 -0.21172667326E+04  0.22859005836E+04  0.46999998093E+01 0.  1.
</event>
<event>
 5   0  0.8407986E-06  0.2499548E+04  0.7818609E-02  0.8403147E-01
       -2   -1    0    0    0  501  0.00000000000E+00  0.00000000000E+00  0.60113996548E+03  0.60113996549E+03  0.25500000920E-02 0. -1.
        2   -1    0    0  501    0  0.00000000000E+00  0.00000000000E+00 -0.25982887118E+04  0.25982887118E+04  0.25500000920E-02 0.  1.
    10030    2    1    2    0    0  0.00000000000E+00  0.00000000000E+00 -0.19971487463E+04  0.31994286773E+04  0.24995481084E+04 0.  0.
        5    1    3    3  502    0  0.34222063451E+03  0.10771237539E+04 -0.31571648799E+03  0.11734604956E+04  0.46999998093E+01 0. -1.
       -5    1    3    3    0  502 -0.34222063451E+03 -0.10771237539E+04 -0.16814322583E+04  0.20259681817E+04  0.46999998093E+01 0.  1.
</event>
<event>
 5   0  0.8948286E-06  0.2496017E+04  0.7818609E-02  0.8404406E-01
       -2   -1    0    0    0  501  0.00000000000E+00  0.00000000000E+00  0.92494333051E+03  0.92494333051E+03  0.25500000920E-02 0. -1.
        2   -1    0    0  501    0  0.00000000000E+00  0.00000000000E+00 -0.16839142248E+04  0.16839142248E+04  0.25500000920E-02 0.  1.
    10030    2    1    2    0    0  0.00000000000E+00  0.00000000000E+00 -0.75897089430E+03  0.26088575553E+04  0.24960170123E+04 0.  0.
        4    1    3    3  502    0 -0.26082223751E+03 -0.29904744102E+02  0.89575474378E+03  0.93343489715E+03  0.12699999809E+01 0. -1.
       -4    1    3    3    0  502  0.26082223751E+03  0.29904744102E+02 -0.16547256381E+04  0.16754226582E+04  0.12699999809E+01 0.  1.
</event>
<event>
 5   0  0.8948286E-06  0.2499084E+04  0.7818609E-02  0.8403312E-01
       -2   -1    0    0    0  501  0.00000000000E+00  0.00000000000E+00  0.17173122252E+04  0.17173122252E+04  0.25500000920E-02 0. -1.
        2   -1    0    0  501    0  0.00000000000E+00  0.00000000000E+00 -0.90918518881E+03  0.90918518881E+03  0.25500000920E-02 0.  1.
    10030    2    1    2    0    0  0.00000000000E+00  0.00000000000E+00  0.80812703642E+03  0.26264974140E+04  0.24990837039E+04 0.  0.
        4    1    3    3  502    0 -0.93479461206E+03 -0.82351082677E+03  0.50564633487E+03  0.13445039522E+04  0.12699999809E+01 0.  1.
       -4    1    3    3    0  502  0.93479461206E+03  0.82351082677E+03  0.30248070155E+03  0.12819934619E+04  0.12699999809E+01 0. -1.
</event>
<event>
 5   0  0.3522870E-06  0.2503288E+04  0.7818609E-02  0.8401815E-01
        1   -1    0    0  501    0  0.00000000000E+00  0.00000000000E+00  0.15316033797E+04  0.15316033797E+04  0.50400001928E-02 0. -1.
       -1   -1    0    0    0  501  0.00000000000E+00  0.00000000000E+00 -0.10228582442E+04  0.10228582442E+04  0.50400001928E-02 0.  1.
    10030    2    1    2    0    0  0.00000000000E+00  0.00000000000E+00  0.50874513551E+03  0.25544616238E+04  0.25032883523E+04 0.  0.
        2    1    3    3  502    0  0.97389539749E+03  0.77155503415E+03  0.10014145527E+03  0.12465142306E+04  0.25500000920E-02 0. -1.
       -2    1    3    3    0  502 -0.97389539749E+03 -0.77155503415E+03  0.40860368024E+03  0.13079473932E+04  0.25500000920E-02 0.  1.
</event>
<event>
 5   0  0.8354653E-06  0.2493014E+04  0.7818609E-02  0.8405479E-01
       -2   -1    0    0    0  501  0.00000000000E+00  0.00000000000E+00  0.72457150491E+03  0.72457150491E+03  0.25500000920E-02 0. -1.
        2   -1    0    0  501    0  0.00000000000E+00  0.00000000000E+00 -0.21444114970E+04  0.21444114970E+04  0.25500000920E-02 0.  1.
    10030    2    1    2    0    0  0.00000000000E+00  0.00000000000E+00 -0.14198399920E+04  0.28689830019E+04  0.24930138110E+04 0.  0.
        3    1    3    3  502    0  0.33508827351E+03  0.11227280144E+04 -0.22034963786E+03  0.11922064916E+04  0.10100000352E+00 0. -1.
       -3    1    3    3    0  502 -0.33508827351E+03 -0.11227280144E+04 -0.11994903542E+04  0.16767765103E+04  0.10100000352E+00 0.  1.
</event>
<event>
 5   0  0.3481387E-06  0.2516242E+04  0.7818609E-02  0.8397222E-01
       -1   -1    0    0    0  501  0.00000000000E+00  0.00000000000E+00  0.16945636789E+04  0.16945636789E+04  0.50400001928E-02 0. -1.
        1   -1    0    0  501    0  0.00000000000E+00  0.00000000000E+00 -0.93408639091E+03  0.93408639092E+03  0.50400001928E-02 0.  1.
    10030    2    1    2    0    0  0.00000000000E+00  0.00000000000E+00  0.76047728800E+03  0.26286500698E+04  0.25162423341E+04 0.  0.
        4    1    3    3  502    0  0.21934874380E+02  0.88672750048E+03 -0.55186509140E+03  0.10446642958E+04  0.12699999809E+01 0.  1.
       -4    1    3    3    0  502 -0.21934874380E+02 -0.88672750048E+03  0.13123423794E+04  0.15839857741E+04  0.12699999809E+01 0. -1.
</event>
<event>
 5   0  0.8579923E-06  0.2508095E+04  0.7818609E-02  0.8400107E-01
       -2   -1    0    0    0  501  0.00000000000E+00  0.00000000000E+00  0.81529924541E+03  0.81529924541E+03  0.25500000920E-02 0. -1.
        2   -1    0    0  501    0  0.00000000000E+00  0.00000000000E+00 -0.19289048769E+04  0.19289048769E+04  0.25500000920E-02 0.  1.
    10030    2    1    2    0    0  0.00000000000E+00  0.00000000000E+00 -0.11136056315E+04  0.27442041223E+04  0.25080946478E+04 0.  0.
        1    1    3    3  502    0 -0.62753013466E+03 -0.68466124166E+01  0.63112869442E+03  0.89003616497E+03  0.50400001928E-02 0. -1.
       -1    1    3    3    0  502  0.62753013466E+03  0.68466124166E+01 -0.17447343259E+04  0.18541679574E+04  0.50400001928E-02 0.  1.
</event>
<event>
 5   0  0.8056723E-06  0.2504594E+04  0.7818609E-02  0.8401351E-01
        2   -1    0    0  501    0  0.00000000000E+00  0.00000000000E+00  0.21802467471E+04  0.21802467471E+04  0.25500000920E-02 0. -1.
       -2   -1    0    0    0  501  0.00000000000E+00  0.00000000000E+00 -0.71929812803E+03  0.71929812804E+03  0.25500000920E-02 0.  1.
    10030    2    1    2    0    0  0.00000000000E+00  0.00000000000E+00  0.14609486191E+04  0.28995448751E+04  0.25045937026E+04 0.  0.
        2    1    3    3  502    0 -0.37231831212E+03 -0.99271307973E+03  0.15020100057E+04  0.18385141396E+04  0.25500000920E-02 0.  1.
       -2    1    3    3    0  502  0.37231831212E+03  0.99271307973E+03 -0.41061386681E+02  0.10610307355E+04  0.25500000920E-02 0. -1.
</event>
<event>
 5   0  0.3481387E-06  0.2476495E+04  0.7818609E-02  0.8411407E-01
       -1   -1    0    0    0  501  0.00000000000E+00  0.00000000000E+00  0.27539959158E+04  0.27539959158E+04  0.50400001928E-02 0. -1.
        1   -1    0    0  501    0  0.00000000000E+00  0.00000000000E+00 -0.55673902259E+03  0.55673902262E+03  0.50400001928E-02 0.  1.
    10030    2    1    2    0    0  0.00000000000E+00  0.00000000000E+00  0.21972568932E+04  0.33107349384E+04  0.24764950995E+04 0.  0.
        4    1    3    3  502    0  0.11640706923E+04  0.12736416372E+03  0.16366609169E+04  0.20124469625E+04  0.12699999809E+01 0. -1.
       -4    1    3    3    0  502 -0.11640706923E+04 -0.12736416372E+03  0.56059597631E+03  0.12982879760E+04  0.12699999809E+01 0.  1.
</event>
<event>
 5   0  0.3522870E-06  0.2489124E+04  0.7818609E-02  0.8406871E-01
       -1   -1    0    0    0  501  0.00000000000E+00  0.00000000000E+00  0.10302938615E+04  0.10302938615E+04  0.50400001928E-02 0.  1.
        1   -1    0    0  501    0  0.00000000000E+00  0.00000000000E+00 -0.15033905883E+04  0.15033905883E+04  0.50400001928E-02 0. -1.
    10030    2    1    2    0    0  0.00000000000E+00  0.00000000000E+00 -0.47309672686E+03  0.25336844498E+04  0.24891236165E+04 0.  0.
        2    1    3    3  502    0 -0.11030228570E+04  0.30582358575E+03 -0.73391272599E+03  0.13597115054E+04  0.25500000920E-02 0. -1.
       -2    1    3    3    0  502  0.11030228570E+04 -0.30582358575E+03  0.26081599913E+03  0.11739729443E+04  0.25500000920E-02 0.  1.
</event>
<event>
 5   0  0.8948286E-06  0.2511981E+04  0.7818609E-02  0.8398730E-01
       -2   -1    0    0    0  501  0.00000000000E+00  0.00000000000E+00  0.11809720770E+04  0.11809720770E+04  0.25500000920E-02 0. -1.
        2   -1    0    0  501    0  0.00000000000E+00  0.00000000000E+00 -0.13357744779E+04  0.13357744779E+04  0.25500000920E-02 0.  1.
    10030    2    1    2    0    0  0.00000000000E+00  0.00000000000E+00 -0.15480240091E+03  0.25167465549E+04  0.25119811780E+04 0.  0.
        4    1    3    3  502    0  0.58859610520E+03  0.42266244726E+03 -0.11052234749E+04  0.13215935312E+04  0.12699999809E+01 0.  1.
       -4    1    3    3    0  502 -0.58859610520E+03 -0.42266244726E+03  0.95042107397E+03  0.11951530237E+04  0.12699999809E+01 0. -1.
</event>
<event>
 5   0  0.8948286E-06  0.2500428E+04  0.7818609E-02  0.8402833E-01
       -2   -1    0    0    0  501  0.00000000000E+00  0.00000000000E+00  0.10065267048E+04  0.10065267048E+04  0.25500000920E-02 0. -1.
        2   -1    0    0  501    0  0.00000000000E+00  0.00000000000E+00 -0.15528992646E+04  0.15528992646E+04  0.25500000920E-02 0.  1.
    10030    2    1    2    0    0  0.00000000000E+00  0.00000000000E+00 -0.54637255980E+03  0.25594259694E+04  0.25004276272E+04 0.  0.
        4    1    3    3  502    0 -0.83877015222E+03 -0.92706547051E+03 -0.26615305710E+03  0.12782115700E+04  0.12699999809E+01 0.  1.
       -4    1    3    3    0  502  0.83877015222E+03  0.92706547051E+03 -0.28021950270E+03  0.12812143995E+04  0.12699999809E+01 0. -1.
</event>
<event>
 5   0  0.3481387E-06  0.2501697E+04  0.7818609E-02  0.8402381E-01
        1   -1    0    0  501    0  0.00000000000E+00  0.00000000000E+00  0.12904714993E+04  0.12904714993E+04  0.50400001928E-02 0.  1.
       -1   -1    0    0    0  501  0.00000000000E+00  0.00000000000E+00 -0.12124420851E+04  0.12124420852E+04  0.50400001928E-02 0. -1.
    10030    2    1    2    0    0  0.00000000000E+00  0.00000000000E+00  0.78029414140E+02  0.25029135845E+04  0.25016969884E+04 0.  0.
        4    1    3    3  502    0 -0.64179122163E+02 -0.10134235311E+04 -0.69173362268E+03  0.12286753968E+04  0.12699999809E+01 0. -1.
       -4    1    3    3    0  502  0.64179122163E+02  0.10134235311E+04  0.76976303682E+03  0.12742381876E+04  0.12699999809E+01 0.  1.
</event>
<event>
 5   0  0.3522870E-06  0.2494511E+04  0.7818609E-02  0.8404944E-01
       -1   -1    0    0    0  501  0.00000000000E+00  0.00000000000E+00  0.90643441469E+03  0.90643441471E+03  0.50400001928E-02 0.  1.
        1   -1    0    0  501    0  0.00000000000E+00  0.00000000000E+00 -0.17162252917E+04  0.17162252917E+04  0.50400001928E-02 0. -1.
    10030    2    1    2    0    0  0.00000000000E+00  0.00000000000E+00 -0.80979087698E+03  0.26226597064E+04  0.24945105073E+04 0.  0.
        2    1    3    3  502    0  0.65629204138E+03  0.72032437692E+03 -0.12233868680E+04  0.15640530299E+04  0.25500000920E-02 0. -1.
       -2    1    3    3    0  502 -0.65629204138E+03 -0.72032437692E+03  0.41359599107E+03  0.10586066764E+04  0.25500000920E-02 0.  1.
</event>
<event>
 5   0  0.8407986E-06  0.2473070E+04  0.7818609E-02  0.8412643E-01
       -2   -1    0    0    0  501  0.00000000000E+00  0.00000000000E+00  0.87344790448E+03  0.87344790448E+03  0.25500000920E-02 0. -1.
        2   -1    0    0  501    0  0.00000000000E+00  0.00000000000E+00 -0.17505558872E+04  0.17505558872E+04  0.25500000920E-02 0.  1.
    10030    2    1    2    0    0  0.00000000000E+00  0.00000000000E+00 -0.87710798275E+03  0.26240037917E+04  0.24730704571E+04 0.  0.
        5    1    3    3  502    0  0.56637778211E+03  0.68140481362E+03 -0.13536897616E+04  0.16178981342E+04  0.46999998093E+01 0.  1.
       -5    1    3    3    0  502 -0.56637778211E+03 -0.68140481362E+03  0.47658177885E+03  0.10061056575E+04  0.46999998093E+01 0. -1.
</event>
<event>
 5   0  0.8407986E-06  0.2504295E+04  0.7818609E-02  0.8401457E-01
        2   -1    0    0  501    0  0.00000000000E+00  0.00000000000E+00  0.14481933848E+04  0.14481933848E+04  0.25500000920E-02 0.  1.
       -2   -1    0    0    0  501  0.00000000000E+00  0.00000000000E+00 -0.10826410637E+04  0.10826410637E+04  0.25500000920E-02 0. -1.
    10030    2    1    2    0    0  0.00000000000E+00  0.00000000000E+00  0.36555232112E+03  0.25308344485E+04  0.25042952115E+04 0.  0.
        5    1    3    3  502    0  0.51852952417E+03  0.55433845605E+03  0.11891646100E+04  0.14107794125E+04  0.46999998093E+01 0.  1.
       -5    1    3    3    0  502 -0.51852952417E+03 -0.55433845605E+03 -0.82361228883E+03  0.11200550360E+04  0.46999998093E+01 0. -1.
</event>
<event>
 5   0  0.3642184E-06  0.2494655E+04  0.7818609E-02  0.8404892E-01
       -1   -1    0    0    0  501  0.00000000000E+00  0.00000000000E+00  0.28943176522E+04  0.28943176522E+04  0.50400001928E-02 0. -1.
        1   -1    0    0  501    0  0.00000000000E+00  0.00000000000E+00 -0.53754500232E+03  0.53754500235E+03  0.50400001928E-02 0.  1.
    10030    2    1    2    0    0  0.00000000000E+00  0.00000000000E+00  0.23567726499E+04  0.34318626546E+04  0.24946550777E+04 0.  0.
        5    1    3    3  502    0 -0.91541673091E+03  0.77906059012E+03  0.72029994304E+03  0.14013483836E+04  0.46999998093E+01 0. -1.
       -5    1    3    3    0  502  0.91541673091E+03 -0.77906059012E+03  0.16364727068E+04  0.20305142709E+04  0.46999998093E+01 0.  1.
</event>
<event>
 5   0  0.8056723E-06  0.2499306E+04  0.7818609E-02  0.8403233E-01
        2   -1    0    0  501    0  0.00000000000E+00  0.00000000000E+00  0.16161067303E+04  0.16161067303E+04  0.25500000920E-02 0. -1.
       -2   -1    0    0    0  501  0.00000000000E+00  0.00000000000E+00 -0.96629304641E+03  0.96629304641E+03  0.25500000920E-02 0.  1.
    10030    2    1    2    0    0  0.00000000000E+00  0.00000000000E+00  0.64981368390E+03  0.25823997767E+04  0.24993060603E+04 0.  0.
        2    1    3    3  502    0 -0.48937016077E+03 -0.15293140574E+03  0.15024280578E+04  0.15875015710E+04  0.25500000920E-02 0. -1.
       -2    1    3    3    0  502  0.48937016077E+03  0.15293140574E+03 -0.85261437390E+03  0.99489820570E+03  0.25500000920E-02 0.  1.
</event>
<event>
 5   0  0.3481387E-06  0.2486645E+04  0.7818609E-02  0.8407759E-01
        1   -1    0    0  501    0  0.00000000000E+00  0.00000000000E+00  0.13233895662E+04  0.13233895662E+04  0.50400001928E-02 0. -1.
       -1   -1    0    0    0  501  0.00000000000E+00  0.00000000000E+00 -0.11680995707E+04  0.11680995707E+04  0.50400001928E-02 0.  1.
    10030    2    1    2    0    0  0.00000000000E+00  0.00000000000E+00  0.15528999551E+03  0.24914891369E+04  0.24866449559E+04 0.  0.
        4    1    3    3  502    0  0.90174589320E+03 -0.68114723280E+03  0.59705817017E+03  0.12781186487E+04  0.12699999809E+01 0. -1.
       -4    1    3    3    0  502 -0.90174589320E+03  0.68114723280E+03 -0.44176817466E+03  0.12133704882E+04  0.12699999809E+01 0.  1.
</event>
<event>
 5   0  0.8354653E-06  0.2489964E+04  0.7818609E-02  0.8406570E-01
       -2   -1    0    0    0  501  0.00000000000E+00  0.00000000000E+00  0.83027472410E+03  0.83027472410E+03  0.25500000920E-02 0. -1.
        2   -1    0    0  501    0  0.00000000000E+00  0.00000000000E+00 -0.18668283566E+04  0.18668283566E+04  0.25500000920E-02 0.  1.
    10030    2    1    2    0    0  0.00000000000E+00  0.00000000000E+00 -0.10365536325E+04  0.26971030807E+04  0.24899641754E+04 0.  0.
        3    1    3    3  502    0 -0.11126626998E+04  0.54018967253E+03 -0.67206387594E+03  0.14076551529E+04  0.10100000352E+00 0.  1.
       -3    1    3    3    0  502  0.11126626998E+04 -0.54018967253E+03 -0.36448975660E+03  0.12894479279E+04  0.10100000352E+00 0. -1.
</event>
<event>
 5   0  0.8407986E-06  0.2494477E+04  0.7818609E-02  0.8404956E-01
       -2   -1    0    0    0  501  0.00000000000E+00  0.00000000000E+00  0.10222002176E+04  0.10222002176E+04  0.25500000920E-02 0.  1.
        2   -1    0    0  501    0  0.00000000000E+00  0.00000000000E+00 -0.15218197375E+04  0.15218197375E+04  0.25500000920E-02 0. -1.
    10030    2    1    2    0    0  0.00000000000E+00  0.00000000000E+00 -0.49961951985E+03  0.25440199551E+04  0.24944774738E+04 0.  0.
        5    1    3    3  502    0 -0.40295671844E+03 -0.35313285979E+03 -0.13984581142E+04  0.14975927754E+04  0.46999998093E+01 0. -1.
       -5    1    3    3    0  502  0.40295671844E+03  0.35313285979E+03  0.89883859440E+03  0.10464271797E+04  0.46999998093E+01 0.  1.
</event>
<event>
 5   0  0.8056723E-06  0.2492317E+04  0.7818609E-02  0.8405728E-01
       -2   -1    0    0    0  501  0.00000000000E+00  0.00000000000E+00  0.85901166417E+03  0.85901166417E+03  0.25500000920E-02 0.  1.
        2   -1    0    0  501    0  0.00000000000E+00  0.00000000000E+00 -0.18077875376E+04  0.18077875376E+04  0.25500000920E-02 0. -1.
    10030    2    1    2    0    0  0.00000000000E+00  0.00000000000E+00 -0.94877587342E+03  0.26667992018E+04  0.24923166582E+04 0.  0.
        2    1    3    3  502    0 -0.50015377962E+03 -0.86868283949E+03  0.31781341351E+03  0.10515555357E+04  0.25500000920E-02 0.  1.
       -2    1    3    3    0  502  0.50015377962E+03  0.86868283949E+03 -0.12665892869E+04  0.16152436660E+04  0.25500000920E-02 0. -1.
</event>
<event>
 5   0  0.3484857E-06  0.2497493E+04  0.7818609E-02  0.8403879E-01
       -1   -1    0    0    0  501  0.00000000000E+00  0.00000000000E+00  0.58933981243E+03  0.58933981245E+03  0.50400001928E-02 0. -1.
        1   -1    0    0  501    0  0.00000000000E+00  0.00000000000E+00 -0.26459567793E+04  0.26459567793E+04  0.50400001928E-02 0.  1.
    10030    2    1    2    0    0  0.00000000000E+00  0.00000000000E+00 -0.20566169668E+04  0.32352965917E+04  0.24974928805E+04 0.  0.
        3    1    3    3  502    0 -0.35580474919E+03 -0.64915382793E+02  0.52000384804E+03  0.63341537608E+03  0.10100000352E+00 0. -1.
       -3    1    3    3    0  502  0.35580474919E+03  0.64915382793E+02 -0.25766208149E+04  0.26018812156E+04  0.10100000352E+00 0.  1.
</event>
<event>
 5   0  0.8056723E-06  0.2500192E+04  0.7818609E-02  0.8402917E-01
        2   -1    0    0  501    0  0.00000000000E+00  0.00000000000E+00  0.96877570057E+03  0.96877570057E+03  0.25500000920E-02 0.  1.
       -2   -1    0    0    0  501  0.00000000000E+00  0.00000000000E+00 -0.16131086911E+04  0.16131086911E+04  0.25500000920E-02 0. -1.
    10030    2    1    2    0    0  0.00000000000E+00  0.00000000000E+00 -0.64433299054E+03  0.25818843917E+04  0.25001923945E+04 0.  0.
        2    1    3    3  502    0  0.66615050778E+03 -0.99747812420E+03 -0.68584000552E+03  0.13817002643E+04  0.25500000920E-02 0. -1.
       -2    1    3    3    0  502 -0.66615050778E+03  0.99747812420E+03  0.41507014978E+02  0.12001841274E+04  0.25500000920E-02 0.  1.
</event>
<event>
 5   0  0.3642184E-06  0.2475663E+04  0.7818609E-02  0.8411707E-01
       -1   -1    0    0    0  501  0.00000000000E+00  0.00000000000E+00  0.11029478037E+04  0.11029478037E+04  0.50400001928E-02 0. -1.
        1   -1    0    0  501    0  0.00000000000E+00  0.00000000000E+00 -0.13892108190E+04  0.13892108190E+04  0.50400001928E-02 0.  1.
    10030    2    1    2    0    0  0.00000000000E+00  0.00000000000E+00 -0.28626301527E+03  0.24921586227E+04  0.24756631610E+04 0.  0.
        5    1    3    3  502    0  0.84808716982E+03 -0.59919975273E+03 -0.82135107154E+03  0.13239833322E+04  0.46999998093E+01 0.  1.
       -5    1    3    3    0  502 -0.84808716982E+03  0.59919975273E+03  0.53508805627E+03  0.11681752905E+04  0.46999998093E+01 0. -1.
</event>
<event>
 5   0  0.3481387E-06  0.2501939E+04  0.7818609E-02  0.8402295E-01
       -1   -1    0    0    0  501  0.00000000000E+00  0.00000000000E+00  0.95957778001E+03  0.95957778003E+03  0.50400001928E-02 0.  1.
        1   -1    0    0  501    0  0.00000000000E+00  0.00000000000E+00 -0.16308475369E+04  0.16308475370E+04  0.50400001928E-02 0. -1.
    10030    2    1    2    0    0  0.00000000000E+00  0.00000000000E+00 -0.67126975694E+03  0.25904253170E+04  0.25019392951E+04 0.  0.
        4    1    3    3  502    0  0.43117032594E+02  0.12309752270E+04 -0.10935482066E+03  0.12365755851E+04  0.12699999809E+01 0.  1.
       -4    1    3    3    0  502 -0.43117032594E+02 -0.12309752270E+04 -0.56191493627E+03  0.13538497319E+04  0.12699999809E+01 0. -1.
</event>
<event>
 5   0  0.8354653E-06  0.2495041E+04  0.7818609E-02  0.8404754E-01
       -2   -1    0    0    0  501  0.00000000000E+00  0.00000000000E+00  0.11291528065E+04  0.11291528065E+04  0.25500000920E-02 0.  1.
        2   -1    0    0  501    0  0.00000000000E+00  0.00000000000E+00 -0.13782961823E+04  0.13782961823E+04  0.25500000920E-02 0. -1.
    10030    2    1    2    0    0  0.00000000000E+00  0.00000000000E+00 -0.24914337585E+03  0.25074489888E+04  0.24950406830E+04 0.  0.
        3    1    3    3  502    0 -0.55028572322E+03  0.31110251372E+03 -0.12054238980E+04  0.13611193685E+04  0.10100000352E+00 0. -1.
       -3    1    3    3    0  502  0.55028572322E+03 -0.31110251372E+03  0.95628052214E+03  0.11463296203E+04  0.10100000352E+00 0.  1.
</event>
<event>
 5   0  0.3484857E-06  0.2506653E+04  0.7818609E-02  0.8400619E-01
       -1   -1    0    0    0  501  0.00000000000E+00  0.00000000000E+00  0.99142943176E+03  0.99142943177E+03  0.50400001928E-02 0.  1.
        1   -1    0    0  501    0  0.00000000000E+00  0.00000000000E+00 -0.15844064829E+04  0.15844064829E+04  0.50400001928E-02 0. -1.
    10030    2    1    2    0    0  0.00000000000E+00  0.00000000000E+00 -0.59297705117E+03  0.25758359147E+04  0.25066529230E+04 0.  0.
        3    1    3    3  502    0  0.82171073493E+02 -0.12340851461E+04 -0.50483795575E+03  0.13358815835E+04  0.10100000352E+00 0. -1.
       -3    1    3    3    0  502 -0.82171073493E+02  0.12340851461E+04 -0.88139095419E+02  0.12399543313E+04  0.10100000352E+00 0.  1.
</event>
<event>
 5   0  0.3522870E-06  0.2507240E+04  0.7818609E-02  0.8400411E-01
        1   -1    0    0  501    0  0.00000000000E+00  0.00000000000E+00  0.11343039031E+04  0.11343039031E+04  0.50400001928E-02 0. -1.
       -1   -1    0    0    0  501  0.00000000000E+00  0.00000000000E+00 -0.13854864210E+04  0.13854864210E+04  0.50400001928E-02 0.  1.
    10030    2    1    2    0    0  0.00000000000E+00  0.00000000000E+00 -0.25118251795E+03  0.25197903241E+04  0.25072396415E+04 0.  0.
        2    1    3    3  502    0  0.12207128469E+03  0.11915722517E+04  0.24614790076E+03  0.12228387541E+04  0.25500000920E-02 0.  1.
       -2    1    3    3    0  502 -0.12207128469E+03 -0.11915722517E+04 -0.49733041870E+03  0.12969515700E+04  0.25500000920E-02 0. -1.
</event>
<event>
 5   0  0.3522870E-06  0.2373420E+04  0.7818609E-02  0.8449522E-01
        1   -1    0    0  501    0  0.00000000000E+00  0.00000000000E+00  0.17532987207E+04  0.17532987207E+04  0.50400001928E-02 0.  1.
       -1   -1    0    0    0  501  0.00000000000E+00  0.00000000000E+00 -0.80321759437E+03  0.80321759438E+03  0.50400001928E-02 0. -1.
    10030    2    1    2    0    0  0.00000000000E+00  0.00000000000E+00  0.95008112630E+03  0.25565163151E+04  0.23734197949E+04 0.  0.
        2    1    3    3  502    0  0.51241669409E+03 -0.91660954990E+03  0.10704360239E+04  0.14995256639E+04  0.25500000920E-02 0.  1.
       -2    1    3    3    0  502 -0.51241669409E+03  0.91660954990E+03 -0.12035489757E+03  0.10569906512E+04  0.25500000920E-02 0. -1.
</event>
<event>
 5   0  0.8948286E-06  0.2511985E+04  0.7818609E-02  0.8398728E-01
        2   -1    0    0  501    0  0.00000000000E+00  0.00000000000E+00  0.11883682396E+04  0.11883682396E+04  0.25500000920E-02 0.  1.
       -2   -1    0    0    0  501  0.00000000000E+00  0.00000000000E+00 -0.13274647969E+04  0.13274647969E+04  0.25500000920E-02 0. -1.
    10030    2    1    2    0    0  0.00000000000E+00  0.00000000000E+00 -0.13909655724E+03  0.25158330365E+04  0.25119848756E+04 0.  0.
        4    1    3    3  502    0  0.10821093731E+04  0.62678188916E+03  0.47674428817E+02  0.12514354542E+04  0.12699999809E+01 0.  1.
       -4    1    3    3    0  502 -0.10821093731E+04 -0.62678188916E+03 -0.18677098606E+03  0.12643975823E+04  0.12699999809E+01 0. -1.
</event>
<event>
 5   0  0.3424193E-06  0.2498210E+04  0.7818609E-02  0.8403624E-01
       -1   -1    0    0    0  501  0.00000000000E+00  0.00000000000E+00  0.17461943465E+04  0.17461943465E+04  0.50400001928E-02 0. -1.
        1   -1    0    0  501    0  0.00000000000E+00  0.00000000000E+00 -0.89352207959E+03  0.89352207960E+03  0.50400001928E-02 0.  1.
    10030    2    1    2    0    0  0.00000000000E+00  0.00000000000E+00  0.85267226690E+03  0.26397164261E+04  0.24982099222E+04 0.  0.
        1    1    3    3  502    0  0.80503429134E+03  0.74264970021E+03  0.10608980049E+04  0.15248322413E+04  0.50400001928E-02 0. -1.
       -1    1    3    3    0  502 -0.80503429134E+03 -0.74264970021E+03 -0.20822573798E+03  0.11148841848E+04  0.50400001928E-02 0.  1.
</event>
<event>
 5   0  0.3424193E-06  0.2345992E+04  0.7818609E-02  0.8460005E-01
        1   -1    0    0  501    0  0.00000000000E+00  0.00000000000E+00  0.26810139681E+04  0.26810139681E+04  0.50400001928E-02 0.  1.
       -1   -1    0    0    0  501  0.00000000000E+00  0.00000000000E+00 -0.51320852544E+03  0.51320852547E+03  0.50400001928E-02 0. -1.
    10030    2    1    2    0    0  0.00000000000E+00  0.00000000000E+00  0.21678054427E+04  0.31942224936E+04  0.23459916669E+04 0.  0.
        1    1    3    3  502    0  0.89850126817E+03 -0.44844032376E+03  0.25847926211E+03  0.10369256395E+04  0.50400001928E-02 0. -1.
       -1    1    3    3    0  502 -0.89850126817E+03  0.44844032376E+03  0.19093261806E+04  0.21572968541E+04  0.50400001928E-02 0.  1.
</event>
<event>
 5   0  0.8407986E-06  0.2504175E+04  0.7818609E-02  0.8401500E-01
       -2   -1    0    0    0  501  0.00000000000E+00  0.00000000000E+00  0.86356663266E+03  0.86356663266E+03  0.25500000920E-02 0.  1.
        2   -1    0    0  501    0  0.00000000000E+00  0.00000000000E+00 -0.18154044208E+04  0.18154044208E+04  0.25500000920E-02 0. -1.
    10030    2    1    2    0    0  0.00000000000E+00  0.00000000000E+00 -0.95183778817E+03  0.26789710535E+04  0.25041746605E+04 0.  0.
        5    1    3    3  502    0  0.37558558073E+03 -0.72544852967E+03 -0.14910254206E+04  0.17001526380E+04  0.46999998093E+01 0. -1.
       -5    1    3    3    0  502 -0.37558558073E+03  0.72544852967E+03  0.53918763238E+03  0.97881841552E+03  0.46999998093E+01 0.  1.
</event>
<event>
 5   0  0.8579923E-06  0.2503690E+04  0.7818609E-02  0.8401672E-01
       -2   -1    0    0    0  501  0.00000000000E+00  0.00000000000E+00  0.10369152841E+04  0.10369152841E+04  0.25500000920E-02 0. -1.
        2   -1    0    0  501    0  0.00000000000E+00  0.00000000000E+00 -0.15113246535E+04  0.15113246535E+04  0.25500000920E-02 0.  1.
    10030    2    1    2    0    0  0.00000000000E+00  0.00000000000E+00 -0.47440936939E+03  0.25482399376E+04  0.25036897831E+04 0.  0.
        1    1    3    3  502    0  0.27604879168E+03  0.54906846899E+02 -0.14787036771E+04  0.15052515610E+04  0.50400001928E-02 0.  1.
       -1    1    3    3    0  502 -0.27604879168E+03 -0.54906846899E+02  0.10042943077E+04  0.10429883766E+04  0.50400001928E-02 0. -1.
</event>
<event>
 5   0  0.8579923E-06  0.2500940E+04  0.7818609E-02  0.8402651E-01
       -2   -1    0    0    0  501  0.00000000000E+00  0.00000000000E+00  0.11308109477E+04  0.11308109477E+04  0.25500000920E-02 0. -1.
        2   -1    0    0  501    0  0.00000000000E+00  0.00000000000E+00 -0.13827910439E+04  0.13827910439E+04  0.25500000920E-02 0.  1.
    10030    2    1    2    0    0  0.00000000000E+00  0.00000000000E+00 -0.25198009624E+03  0.25136019916E+04  0.25009400239E+04 0.  0.
        1    1    3    3  502    0  0.35297951436E+02  0.40225326228E+03  0.10634803752E+04  0.11375606098E+04  0.50400001928E-02 0. -1.
       -1    1    3    3    0  502 -0.35297951436E+02 -0.40225326228E+03 -0.13154604715E+04  0.13760413818E+04  0.50400001928E-02 0.  1.
</event>
<event>
 5   0  0.3484857E-06  0.2495642E+04  0.7818609E-02  0.8404540E-01
        1   -1    0    0  501    0  0.00000000000E+00  0.00000000000E+00  0.12782443806E+04  0.12782443806E+04  0.50400001928E-02 0. -1.
       -1   -1    0    0    0  501  0.00000000000E+00  0.00000000000E+00 -0.12181215710E+04  0.12181215710E+04  0.50400001928E-02 0.  1.
    10030    2    1    2    0    0  0.00000000000E+00  0.00000000000E+00  0.60122809553E+02  0.24963659516E+04  0.24956418437E+04 0.  0.
        3    1    3    3  502    0  0.48503262769E+03 -0.27849326206E+02 -0.11196305136E+04  0.12204936428E+04  0.10100000352E+00 0.  1.
       -3    1    3    3    0  502 -0.48503262769E+03  0.27849326206E+02  0.11797533231E+04  0.12758723089E+04  0.10100000352E+00 0. -1.
</event>
<event>
 5   0  0.8407986E-06  0.2500283E+04  0.7818609E-02  0.8402885E-01
        2   -1    0    0  501    0  0.00000000000E+00  0.00000000000E+00  0.11809018098E+04  0.11809018098E+04  0.25500000920E-02 0.  1.
       -2   -1    0    0    0  501  0.00000000000E+00  0.00000000000E+00 -0.13234409276E+04  0.13234409276E+04  0.25500000920E-02 0. -1.
    10030    2    1    2    0    0  0.00000000000E+00  0.00000000000E+00 -0.14253911778E+03  0.25043427374E+04  0.25002830132E+04 0.  0.
        5    1    3    3  502    0  0.11037404900E+03 -0.97851109369E+03  0.70015323126E+03  0.12082644696E+04  0.46999998093E+01 0.  1.
       -5    1    3    3    0  502 -0.11037404900E+03  0.97851109369E+03 -0.84269234904E+03  0.12960782678E+04  0.46999998093E+01 0. -1.
</event>
<event>
 5   0  0.8056723E-06  0.2503356E+04  0.7818609E-02  0.8401791E-01
        2   -1    0    0  501    0  0.00000000000E+00  0.00000000000E+00  0.11809790295E+04  0.11809790295E+04  0.25500000920E-02 0. -1.
       -2   -1    0    0    0  501  0.00000000000E+00  0.00000000000E+00 -0.13266095551E+04  0.13266095551E+04  0.25500000920E-02 0.  1.
    10030    2    1    2    0    0  0.00000000000E+00  0.00000000000E+00 -0.14563052561E+03  0.25075885847E+04  0.25033561992E+04 0.  0.
        2    1    3    3  502    0  0.17811929615E+03  0.59625400990E+03  0.10150469864E+04  0.11906156864E+04  0.25500000920E-02 0. -1.
       -2    1    3    3    0  502 -0.17811929615E+03 -0.59625400990E+03 -0.11606775120E+04  0.13169728983E+04  0.25500000920E-02 0.  1.
</event>
<event>
 5   0  0.3642184E-06  0.2512519E+04  0.7818609E-02  0.8398539E-01
        1   -1    0    0  501    0  0.00000000000E+00  0.00000000000E+00  0.20009783107E+04  0.20009783107E+04  0.50400001928E-02 0. -1.
       -1   -1    0    0    0  501  0.00000000000E+00  0.00000000000E+00 -0.78870837817E+03  0.78870837818E+03  0.50400001928E-02 0.  1.
    10030    2    1    2    0    0  0.00000000000E+00  0.00000000000E+00  0.12122699326E+04  0.27896866889E+04  0.25125193398E+04 0.  0.
        5    1    3    3  502    0  0.53809857628E+03 -0.17265288151E+03 -0.63959990405E+03  0.85350408466E+03  0.46999998093E+01 0.  1.
       -5    1    3    3    0  502 -0.53809857628E+03  0.17265288151E+03  0.18518698366E+04  0.19361826043E+04  0.46999998093E+01 0. -1.
</event>
<event>
 5   0  0.8579923E-06  0.2504676E+04  0.7818609E-02  0.8401322E-01
        2   -1    0    0  501    0  0.00000000000E+00  0.00000000000E+00  0.15377730333E+04  0.15377730333E+04  0.25500000920E-02 0. -1.
       -2   -1    0    0    0  501  0.00000000000E+00  0.00000000000E+00 -0.10198842447E+04  0.10198842447E+04  0.25500000920E-02 0.  1.
    10030    2    1    2    0    0  0.00000000000E+00  0.00000000000E+00  0.51788878863E+03  0.25576572781E+04  0.25046760179E+04 0.  0.
        1    1    3    3  502    0 -0.10234015980E+04 -0.55299321160E+03  0.73265169106E+03  0.13747475490E+04  0.50400001928E-02 0. -1.
       -1    1    3    3    0  502  0.10234015980E+04  0.55299321160E+03 -0.21476290243E+03  0.11829097291E+04  0.50400001928E-02 0.  1.
</event>
<event>
 5   0  0.8948286E-06  0.2501407E+04  0.7818609E-02  0.8402485E-01
        2   -1    0    0  501    0  0.00000000000E+00  0.00000000000E+00  0.14035640540E+04  0.14035640540E+04  0.25500000920E-02 0. -1.
       -2   -1    0    0    0  501  0.00000000000E+00  0.00000000000E+00 -0.11144904405E+04  0.11144904405E+04  0.25500000920E-02 0.  1.
    10030    2    1    2    0    0  0.00000000000E+00  0.00000000000E+00  0.28907361350E+03  0.25180544946E+04  0.25014065810E+04 0.  0.
        4    1    3    3  502    0  0.31532636768E+03 -0.88564153814E+03  0.97493018626E+03  0.13543567230E+04  0.12699999809E+01 0. -1.
       -4    1    3    3    0  502 -0.31532636768E+03  0.88564153814E+03 -0.68585657275E+03  0.11636977716E+04  0.12699999809E+01 0.  1.
</event>
<event>
 5   0  0.8579923E-06  0.2473666E+04  0.7818609E-02  0.8412428E-01
       -2   -1    0    0    0  501  0.00000000000E+00  0.00000000000E+00  0.10149244691E+04  0.10149244691E+04  0.25500000920E-02 0.  1.
        2   -1    0    0  501    0  0.00000000000E+00  0.00000000000E+00 -0.15072606263E+04  0.15072606263E+04  0.25500000920E-02 0. -1.
    10030    2    1    2    0    0  0.00000000000E+00  0.00000000000E+00 -0.49233615726E+03  0.25221850954E+04  0.24736658553E+04 0.  0.
        1    1    3    3  502    0 -0.35561288070E+03 -0.10581819657E+04  0.29676681968E+03  0.11551104444E+04  0.50400001928E-02 0.  1.
       -1    1    3    3    0  502  0.35561288070E+03  0.10581819657E+04 -0.78910297694E+03  0.13670746511E+04  0.50400001928E-02 0. -1.
</event>
<event>
 5   0  0.8056723E-06  0.2504734E+04  0.7818609E-02  0.8401301E-01
       -2   -1    0    0    0  501  0.00000000000E+00  0.00000000000E+00  0.76871012927E+03  0.76871012928E+03  0.25500000920E-02 0. -1.
        2   -1    0    0  501    0  0.00000000000E+00  0.00000000000E+00 -0.20403310979E+04  0.20403310979E+04  0.25500000920E-02 0.  1.
    10030    2    1    2    0    0  0.00000000000E+00  0.00000000000E+00 -0.12716209686E+04  0.28090412272E+04  0.25047340634E+04 0.  0.
        2    1    3    3  502    0  0.58492812385E+03 -0.10726154385E+04 -0.94453362736E+03  0.15442760641E+04  0.25500000920E-02 0.  1.
       -2    1    3    3    0  502 -0.58492812385E+03  0.10726154385E+04 -0.32708734127E+03  0.12647651631E+04  0.25500000920E-02 0. -1.
</event>
<event>
 5   0  0.3522870E-06  0.2503137E+04  0.7818609E-02  0.8401869E-01
       -1   -1    0    0    0  501  0.00000000000E+00  0.00000000000E+00  0.80930088352E+03  0.80930088354E+03  0.50400001928E-02 0.  1.
        1   -1    0    0  501    0  0.00000000000E+00  0.00000000000E+00 -0.19355274257E+04  0.19355274258E+04  0.50400001928E-02 0. -1.
    10030    2    1    2    0    0  0.00000000000E+00  0.00000000000E+00 -0.11262265422E+04  0.27448283093E+04  0.25031372761E+04 0.  0.
        2    1    3    3  502    0  0.50474800698E+02 -0.10283087648E+04 -0.13434858345E+04  0.16926076949E+04  0.25500000920E-02 0. -1.
       -2    1    3    3    0  502 -0.50474800698E+02  0.10283087648E+04  0.21725929225E+03  0.10522206144E+04  0.25500000920E-02 0.  1.
</event>
<event>
 5   0  0.3522870E-06  0.2521742E+04  0.7818609E-02  0.8395281E-01
       -1   -1    0    0    0  501  0.00000000000E+00  0.00000000000E+00  0.82155886630E+03  0.82155886631E+03  0.50400001928E-02 0. -1.
        1   -1    0    0  501    0  0.00000000000E+00  0.00000000000E+00 -0.19350957537E+04  0.19350957537E+04  0.50400001928E-02 0.  1.
    10030    2    1    2    0    0  0.00000000000E+00  0.00000000000E+00 -0.11135368874E+04  0.27566546200E+04  0.25217415201E+04 0.  0.
        2    1    3    3  502    0 -0.87168739225E+03 -0.55013655114E+03  0.23703525692E+03  0.10576742635E+04  0.25500000920E-02 0.  1.
       -2    1    3    3    0  502  0.87168739225E+03  0.55013655114E+03 -0.13505721443E+04  0.16989803565E+04  0.25500000920E-02 0. -1.
</event>
<event>
 5   0  0.8579923E-06  0.2513635E+04  0.7818609E-02  0.8398144E-01
        2   -1    0    0  501    0  0.00000000000E+00  0.00000000000E+00  0.14399785601E+04  0.14399785601E+04  0.25500000920E-02 0.  1.
       -2   -1    0    0    0  501  0.00000000000E+00  0.00000000000E+00 -0.10969541005E+04  0.10969541005E+04  0.25500000920E-02 0. -1.
    10030    2    1    2    0    0  0.00000000000E+00  0.00000000000E+00  0.34302445953E+03  0.25369326606E+04  0.25136351256E+04 0.  0.
        1    1    3    3  502    0 -0.10126535345E+04  0.35316191960E+03  0.83287181799E+03  0.13578902708E+04  0.50400001928E-02 0.  1.
       -1    1    3    3    0  502  0.10126535345E+04 -0.35316191960E+03 -0.48984735846E+03  0.11790423898E+04  0.50400001928E-02 0. -1.
</event>
<event>
 5   0  0.3424193E-06  0.2497272E+04  0.7818609E-02  0.8403958E-01
        1   -1    0    0  501    0  0.00000000000E+00  0.00000000000E+00  0.16382771110E+04  0.16382771111E+04  0.50400001928E-02 0. -1.
       -1   -1    0    0    0  501  0.00000000000E+00  0.00000000000E+00 -0.95166525286E+03  0.95166525287E+03  0.50400001928E-02 0.  1.
    10030    2    1    2    0    0  0.00000000000E+00  0.00000000000E+00  0.68661185819E+03  0.25899423639E+04  0.24972716321E+04 0.  0.
        1    1    3    3  502    0 -0.52261042788E+03  0.45462924215E+02 -0.83183620935E+03  0.98343277148E+03  0.50400001928E-02 0.  1.
       -1    1    3    3    0  502  0.52261042788E+03 -0.45462924215E+02  0.15184480675E+04  0.16065095924E+04  0.50400001928E-02 0. -1.
</event>
<event>
 5   0  0.3642184E-06  0.2547564E+04  0.7818609E-02  0.8386234E-01
        1   -1    0    0  501    0  0.00000000000E+00  0.00000000000E+00  0.11671005732E+04  0.11671005732E+04  0.50400001928E-02 0. -1.
       -1   -1    0    0    0  501  0.00000000000E+00  0.00000000000E+00 -0.13902153582E+04  0.13902153582E+04  0.50400001928E-02 0.  1.
    10030    2    1    2    0    0  0.00000000000E+00  0.00000000000E+00 -0.22311478503E+03  0.25573159314E+04  0.25475644380E+04 0.  0.
        5    1    3    3  502    0  0.75254392649E+03  0.37090458049E+03  0.85055090292E+03  0.11947181666E+04  0.46999998093E+01 0. -1.
       -5    1    3    3    0  502 -0.75254392649E+03 -0.37090458049E+03 -0.10736656880E+04  0.13625977648E+04  0.46999998093E+01 0.  1.
</event>
<event>
 5   0  0.8579923E-06  0.2499763E+04  0.7818609E-02  0.8403070E-01
        2   -1    0    0  501    0  0.00000000000E+00  0.00000000000E+00  0.15203550639E+04  0.15203550639E+04  0.25500000920E-02 0.  1.
       -2   -1    0    0    0  501  0.00000000000E+00  0.00000000000E+00 -0.10275252191E+04  0.10275252191E+04  0.25500000920E-02 0. -1.
    10030    2    1    2    0    0  0.00000000000E+00  0.00000000000E+00  0.49282984480E+03  0.25478802831E+04  0.24997625249E+04 0.  0.
        1    1    3    3  502    0  0.11877484859E+04 -0.28796834838E+03  0.51323812513E+03  0.13255510585E+04  0.50400001928E-02 0.  1.
       -1    1    3    3    0  502 -0.11877484859E+04  0.28796834838E+03 -0.20408280334E+02  0.12223292246E+04  0.50400001928E-02 0. -1.
</event>
<event>
 5   0  0.3481387E-06  0.2553839E+04  0.7818609E-02  0.8384052E-01
        1   -1    0    0  501    0  0.00000000000E+00  0.00000000000E+00  0.12235442746E+04  0.12235442746E+04  0.50400001928E-02 0.  1.
       -1   -1    0    0    0  501  0.00000000000E+00  0.00000000000E+00 -0.13326235642E+04  0.13326235642E+04  0.50400001928E-02 0. -1.
    10030    2    1    2    0    0  0.00000000000E+00  0.00000000000E+00 -0.10907928955E+03  0.25561678388E+04  0.25538394093E+04 0.  0.
        4    1    3    3  502    0 -0.11617551945E+02 -0.32150196386E+03 -0.12913943639E+04  0.13308641915E+04  0.12699999809E+01 0. -1.
       -4    1    3    3    0  502  0.11617551945E+02  0.32150196386E+03  0.11823150743E+04  0.12253036473E+04  0.12699999809E+01 0.  1.
</event>
<event>
 5   0  0.8056723E-06  0.2501146E+04  0.7818609E-02  0.8402577E-01
        2   -1    0    0  501    0  0.00000000000E+00  0.00000000000E+00  0.16738134880E+04  0.16738134880E+04  0.25500000920E-02 0. -1.
       -2   -1    0    0    0  501  0.00000000000E+00  0.00000000000E+00 -0.93435288932E+03  0.93435288932E+03  0.25500000920E-02 0.  1.
    10030    2    1    2    0    0  0.00000000000E+00  0.00000000000E+00  0.73946059870E+03  0.26081663773E+04  0.25011457124E+04 0.  0.
        2    1    3    3  502    0 -0.12451373796E+04  0.56829008297E+02  0.47574574818E+03  0.13341404151E+04  0.25500000920E-02 0. -1.
       -2    1    3    3    0  502  0.12451373796E+04 -0.56829008297E+02  0.26371485052E+03  0.12740259623E+04  0.25500000920E-02 0.  1.
</event>
<event>
 5   0  0.3481387E-06  0.2499914E+04  0.7818609E-02  0.8403016E-01
        1   -1    0    0  501    0  0.00000000000E+00  0.00000000000E+00  0.10043319078E+04  0.10043319079E+04  0.50400001928E-02 0. -1.
       -1   -1    0    0    0  501  0.00000000000E+00  0.00000000000E+00 -0.15556539813E+04  0.15556539813E+04  0.50400001928E-02 0.  1.
    10030    2    1    2    0    0  0.00000000000E+00  0.00000000000E+00 -0.55132207349E+03  0.25599858892E+04  0.24999143434E+04 0.  0.
        4    1    3    3  502    0 -0.72611720500E+03 -0.55738122006E+03 -0.11472727047E+04  0.14677044293E+04  0.12699999809E+01 0.  1.
       -4    1    3    3    0  502  0.72611720500E+03  0.55738122006E+03  0.59595063123E+03  0.10922814599E+04  0.12699999809E+01 0. -1.
</event>
<event>
 5   0  0.3424193E-06  0.2500256E+04  0.7818609E-02  0.8402894E-01
       -1   -1    0    0    0  501  0.00000000000E+00  0.00000000000E+00  0.13757045118E+04  0.13757045118E+04  0.50400001928E-02 0. -1.
        1   -1    0    0  501    0  0.00000000000E+00  0.00000000000E+00 -0.11360143303E+04  0.11360143303E+04  0.50400001928E-02 0.  1.
    10030    2    1    2    0    0  0.00000000000E+00  0.00000000000E+00  0.23969018150E+03  0.25117188421E+04  0.25002560186E+04 0.  0.
        1    1    3    3  502    0  0.64877194179E+03  0.59802447102E+03  0.10095020776E+04  0.13407582724E+04  0.50400001928E-02 0. -1.
       -1    1    3    3    0  502 -0.64877194179E+03 -0.59802447102E+03 -0.76981189607E+03  0.11709605697E+04  0.50400001928E-02 0.  1.
</event>
<event>
 5   0  0.8407986E-06  0.2484455E+04  0.7818609E-02  0.8408545E-01
        2   -1    0    0  501    0  0.00000000000E+00  0.00000000000E+00  0.97061289825E+03  0.97061289826E+03  0.25500000920E-02 0.  1.
       -2   -1    0    0    0  501  0.00000000000E+00  0.00000000000E+00 -0.15898502454E+04  0.15898502454E+04  0.25500000920E-02 0. -1.
    10030    2    1    2    0    0  0.00000000000E+00  0.00000000000E+00 -0.61923734710E+03  0.25604631436E+04  0.24844549941E+04 0.  0.
        5    1    3    3  502    0  0.98627272365E+03  0.21464331174E+03 -0.10558576265E+04  0.14607063545E+04  0.46999998093E+01 0. -1.
       -5    1    3    3    0  502 -0.98627272365E+03 -0.21464331174E+03  0.43662027943E+03  0.10997567891E+04  0.46999998093E+01 0.  1.
</event>
<event>
 5   0  0.3484857E-06  0.2510546E+04  0.7818609E-02  0.8399238E-01
        1   -1    0    0  501    0  0.00000000000E+00  0.00000000000E+00  0.28959068309E+04  0.28959068309E+04  0.50400001928E-02 0. -1.
       -1   -1    0    0    0  501  0.00000000000E+00  0.00000000000E+00 -0.54411631352E+03  0.54411631355E+03  0.50400001928E-02 0.  1.
    10030    2    1    2    0    0  0.00000000000E+00  0.00000000000E+00  0.23517905174E+04  0.34400231445E+04  0.25105458763E+04 0.  0.
        3    1    3    3  502    0 -0.38694396504E+02  0.22706526704E+03 -0.51491101966E+03  0.56408267141E+03  0.10100000352E+00 0.  1.
       -3    1    3    3    0  502  0.38694396504E+02 -0.22706526704E+03  0.28667015371E+04  0.28759404731E+04  0.10100000352E+00 0. -1.
</event>
<event>
 5   0  0.3484857E-06  0.2517550E+04  0.7818609E-02  0.8396760E-01
       -1   -1    0    0    0  501  0.00000000000E+00  0.00000000000E+00  0.11021707682E+04  0.11021707682E+04  0.50400001928E-02 0. -1.
        1   -1    0    0  501    0  0.00000000000E+00  0.00000000000E+00 -0.14376307959E+04  0.14376307959E+04  0.50400001928E-02 0.  1.
    10030    2    1    2    0    0  0.00000000000E+00  0.00000000000E+00 -0.33546002770E+03  0.25398015642E+04  0.25175501098E+04 0.  0.
        3    1    3    3  502    0  0.26376194960E+02 -0.45750687941E+03  0.10150256673E+04  0.11136809974E+04  0.10100000352E+00 0. -1.
       -3    1    3    3    0  502 -0.26376194960E+02  0.45750687941E+03 -0.13504856950E+04  0.14261205668E+04  0.10100000352E+00 0.  1.
</event>
<event>
 5   0  0.8056723E-06  0.2501271E+04  0.7818609E-02  0.8402533E-01
        2   -1    0    0  501    0  0.00000000000E+00  0.00000000000E+00  0.68738772964E+03  0.68738772965E+03  0.25500000920E-02 0.  1.
       -2   -1    0    0    0  501  0.00000000000E+00  0.00000000000E+00 -0.22754096912E+04  0.22754096912E+04  0.25500000920E-02 0. -1.
    10030    2    1    2    0    0  0.00000000000E+00  0.00000000000E+00 -0.15880219616E+04  0.29627974209E+04  0.25012706384E+04 0.  0.
        2    1    3    3  502    0 -0.16378926746E+03  0.12389823588E+04 -0.84937358438E+03  0.15110723661E+04  0.25500000920E-02 0. -1.
       -2    1    3    3    0  502  0.16378926746E+03 -0.12389823588E+04 -0.73864837718E+03  0.14517250548E+04  0.25500000920E-02 0.  1.
</event>
<event>
 5   0  0.8948286E-06  0.2488105E+04  0.7818609E-02  0.8407236E-01
        2   -1    0    0  501    0  0.00000000000E+00  0.00000000000E+00  0.13141317017E+04  0.13141317017E+04  0.25500000920E-02 0.  1.
       -2   -1    0    0    0  501  0.00000000000E+00  0.00000000000E+00 -0.11777102776E+04  0.11777102776E+04  0.25500000920E-02 0. -1.
    10030    2    1    2    0    0  0.00000000000E+00  0.00000000000E+00  0.13642142409E+03  0.24918419793E+04  0.24881048299E+04 0.  0.
        4    1    3    3  502    0 -0.17400293423E+03  0.12001811566E+04  0.34603135531E+03  0.12611308978E+04  0.12699999809E+01 0.  1.
       -4    1    3    3    0  502  0.17400293423E+03 -0.12001811566E+04 -0.20960993122E+03  0.12307110814E+04  0.12699999809E+01 0. -1.
</event>
<event>
 5   0  0.3484857E-06  0.2503230E+04  0.7818609E-02  0.8401836E-01
        1   -1    0    0  501    0  0.00000000000E+00  0.00000000000E+00  0.26748695313E+04  0.26748695313E+04  0.50400001928E-02 0. -1.
       -1   -1    0    0    0  501  0.00000000000E+00  0.00000000000E+00 -0.58565109985E+03  0.58565109987E+03  0.50400001928E-02 0.  1.
    10030    2    1    2    0    0  0.00000000000E+00  0.00000000000E+00  0.20892184314E+04  0.32605206311E+04  0.25032301396E+04 0.  0.
        3    1    3    3  502    0 -0.74459706897E+03 -0.97628905768E+03  0.13609248904E+04  0.18329434489E+04  0.10100000352E+00 0. -1.
       -3    1    3    3    0  502  0.74459706897E+03  0.97628905768E+03  0.72829354103E+03  0.14275771823E+04  0.10100000352E+00 0.  1.
</event>
<event>
 5   0  0.8056723E-06  0.2490495E+04  0.7818609E-02  0.8406380E-01
        2   -1    0    0  501    0  0.00000000000E+00  0.00000000000E+00  0.20948622845E+04  0.20948622845E+04  0.25500000920E-02 0.  1.
       -2   -1    0    0    0  501  0.00000000000E+00  0.00000000000E+00 -0.74021154435E+03  0.74021154435E+03  0.25500000920E-02 0. -1.
    10030    2    1    2    0    0  0.00000000000E+00  0.00000000000E+00  0.13546507401E+04  0.28350738288E+04  0.24904949281E+04 0.  0.
        2    1    3    3  502    0  0.17395982227E+03 -0.11915574845E+03 -0.71974188336E+03  0.74999232718E+03  0.25500000920E-02 0. -1.
       -2    1    3    3    0  502 -0.17395982227E+03  0.11915574845E+03  0.20743926235E+04  0.20850815016E+04  0.25500000920E-02 0.  1.
</event>
<event>
 5   0  0.8948286E-06  0.2498743E+04  0.7818609E-02  0.8403434E-01
        2   -1    0    0  501    0  0.00000000000E+00  0.00000000000E+00  0.15996610286E+04  0.15996610286E+04  0.25500000920E-02 0.  1.
       -2   -1    0    0    0  501  0.00000000000E+00  0.00000000000E+00 -0.97578722356E+03  0.97578722356E+03  0.25500000920E-02 0. -1.
    10030    2    1    2    0    0  0.00000000000E+00  0.00000000000E+00  0.62387380508E+03  0.25754482522E+04  0.24987427189E+04 0.  0.
        4    1    3    3  502    0 -0.87154068460E+03 -0.89512616790E+03  0.30198869386E+03  0.12853142828E+04  0.12699999809E+01 0. -1.
       -4    1    3    3    0  502  0.87154068460E+03  0.89512616790E+03  0.32188511122E+03  0.12901339694E+04  0.12699999809E+01 0.  1.
</event>
<event>
 5   0  0.8354653E-06  0.2488673E+04  0.7818609E-02  0.8407032E-01
        2   -1    0    0  501    0  0.00000000000E+00  0.00000000000E+00  0.24613059317E+04  0.24613059317E+04  0.25500000920E-02 0.  1.
       -2   -1    0    0    0  501  0.00000000000E+00  0.00000000000E+00 -0.62908589124E+03  0.62908589124E+03  0.25500000920E-02 0. -1.
    10030    2    1    2    0    0  0.00000000000E+00  0.00000000000E+00  0.18322200404E+04  0.30903918229E+04  0.24886726065E+04 0.  0.
        3    1    3    3  502    0 -0.42342232128E+03  0.24864764626E+02 -0.53654710528E+03  0.68394994339E+03  0.10100000352E+00 0. -1.
       -3    1    3    3    0  502  0.42342232128E+03 -0.24864764626E+02  0.23687671457E+04  0.24064418795E+04  0.10100000352E+00 0.  1.
</event>
<event>
 5   0  0.3484857E-06  0.2417929E+04  0.7818609E-02  0.8432822E-01
        1   -1    0    0  501    0  0.00000000000E+00  0.00000000000E+00  0.11167625045E+04  0.11167625046E+04  0.50400001928E-02 0.  1.
       -1   -1    0    0    0  501  0.00000000000E+00  0.00000000000E+00 -0.13087786506E+04  0.13087786506E+04  0.50400001928E-02 0. -1.
    10030    2    1    2    0    0  0.00000000000E+00  0.00000000000E+00 -0.19201614601E+03  0.24255411551E+04  0.24179288027E+04 0.  0.
        3    1    3    3  502    0 -0.44376596746E+03 -0.11101099671E+04  0.84342648672E+02  0.11984932480E+04  0.10100000352E+00 0.  1.
       -3    1    3    3    0  502  0.44376596746E+03  0.11101099671E+04 -0.27635879469E+03  0.12270479072E+04  0.10100000352E+00 0. -1.
</event>
<event>
 5   0  0.8056723E-06  0.2500290E+04  0.7818609E-02  0.8402882E-01
        2   -1    0    0  501    0  0.00000000000E+00  0.00000000000E+00  0.17947889886E+04  0.17947889886E+04  0.25500000920E-02 0.  1.
       -2   -1    0    0    0  501  0.00000000000E+00  0.00000000000E+00 -0.87077802799E+03  0.87077802799E+03  0.25500000920E-02 0. -1.
    10030    2    1    2    0    0  0.00000000000E+00  0.00000000000E+00  0.92401096063E+03  0.26655670166E+04  0.25002902361E+04 0.  0.
        2    1    3    3  502    0 -0.53863888690E+03  0.43736630336E+03  0.15706714912E+04  0.17170993178E+04  0.25500000920E-02 0.  1.
       -2    1    3    3    0  502  0.53863888690E+03 -0.43736630336E+03 -0.64666053062E+03  0.94846769880E+03  0.25500000920E-02 0. -1.
</event>
<event>
 5   0  0.2901250E-06  0.2500349E+04  0.7818609E-02  0.8402861E-01
       -3   -1    0    0    0  501  0.00000000000E+00  0.00000000000E+00  0.10929965295E+04  0.10929965342E+04  0.10100000352E+00 0. -1.
        3   -1    0    0  501    0  0.00000000000E+00  0.00000000000E+00 -0.14299558868E+04  0.14299558904E+04  0.10100000352E+00 0.  1.
    10030    2    1    2    0    0  0.00000000000E+00  0.00000000000E+00 -0.33695935733E+03  0.25229524245E+04  0.25003494412E+04 0.  0.
        4    1    3    3  502    0  0.56214312258E+03  0.10429561415E+04 -0.57105097116E+03  0.13152426498E+04  0.12699999809E+01 0.  1.
       -4    1    3    3    0  502 -0.56214312258E+03 -0.10429561415E+04  0.23409161383E+03  0.12077097747E+04  0.12699999809E+01 0. -1.
</event>
<event>
 5   0  0.3481387E-06  0.2494288E+04  0.7818609E-02  0.8405023E-01
        1   -1    0    0  501    0  0.00000000000E+00  0.00000000000E+00  0.14806507661E+04  0.14806507661E+04  0.50400001928E-02 0.  1.
       -1   -1    0    0    0  501  0.00000000000E+00  0.00000000000E+00 -0.10504628217E+04  0.10504628217E+04  0.50400001928E-02 0. -1.
    10030    2    1    2    0    0  0.00000000000E+00  0.00000000000E+00  0.43018794440E+03  0.25311135879E+04  0.24942883409E+04 0.  0.
        4    1    3    3  502    0  0.81351236972E+03 -0.76007707458E+03  0.78539434440E+03  0.13624850179E+04  0.12699999809E+01 0. -1.
       -4    1    3    3    0  502 -0.81351236972E+03  0.76007707458E+03 -0.35520640000E+03  0.11686285699E+04  0.12699999809E+01 0.  1.
</event>
<event>
 5   0  0.8056723E-06  0.2512062E+04  0.7818609E-02  0.8398701E-01
       -2   -1    0    0    0  501  0.00000000000E+00  0.00000000000E+00  0.11733733858E+04  0.11733733858E+04  0.25500000920E-02 0.  1.
        2   -1    0    0  501    0  0.00000000000E+00  0.00000000000E+00 -0.13445114238E+04  0.13445114238E+04  0.25500000920E-02 0. -1.
    10030    2    1    2    0    0  0.00000000000E+00  0.00000000000E+00 -0.17113803803E+03  0.25178848096E+04  0.25120620387E+04 0.  0.
        2    1    3    3  502    0  0.53971437044E+03  0.90766908683E+03 -0.76718879896E+03  0.13052713994E+04  0.25500000920E-02 0. -1.
       -2    1    3    3    0  502 -0.53971437044E+03 -0.90766908683E+03  0.59605076093E+03  0.12126134101E+04  0.25500000920E-02 0.  1.
</event>
<event>
 5   0  0.3642184E-06  0.2498156E+04  0.7818609E-02  0.8403643E-01
        1   -1    0    0  501    0  0.00000000000E+00  0.00000000000E+00  0.30813082984E+04  0.30813082984E+04  0.50400001928E-02 0. -1.
       -1   -1    0    0    0  501  0.00000000000E+00  0.00000000000E+00 -0.50634213012E+03  0.50634213015E+03  0.50400001928E-02 0.  1.
    10030    2    1    2    0    0  0.00000000000E+00  0.00000000000E+00  0.25749661683E+04  0.35876504286E+04  0.24981562861E+04 0.  0.
        5    1    3    3  502    0 -0.82961703029E+03 -0.87383586731E+02  0.26225904487E+04  0.27520725026E+04  0.46999998093E+01 0. -1.
       -5    1    3    3    0  502  0.82961703029E+03  0.87383586731E+02 -0.47624280423E+02  0.83557792591E+03  0.46999998093E+01 0.  1.
</event>
<event>
 5   0  0.3484857E-06  0.2495807E+04  0.7818609E-02  0.8404481E-01
        1   -1    0    0  501    0  0.00000000000E+00  0.00000000000E+00  0.17024427419E+04  0.17024427419E+04  0.50400001928E-02 0. -1.
       -1   -1    0    0    0  501  0.00000000000E+00  0.00000000000E+00 -0.91472286946E+03  0.91472286948E+03  0.50400001928E-02 0.  1.
    10030    2    1    2    0    0  0.00000000000E+00  0.00000000000E+00  0.78771987240E+03  0.26171656113E+04  0.24958071319E+04 0.  0.
        3    1    3    3  502    0 -0.53712518756E+03  0.95269267178E+03  0.10240272596E+04  0.14982518589E+04  0.10100000352E+00 0. -1.
       -3    1    3    3    0  502  0.53712518756E+03 -0.95269267178E+03 -0.23630738725E+03  0.11189137525E+04  0.10100000352E+00 0.  1.
</event>
<event>
 5   0  0.3484857E-06  0.2501724E+04  0.7818609E-02  0.8402372E-01
       -1   -1    0    0    0  501  0.00000000000E+00  0.00000000000E+00  0.12517733529E+04  0.12517733529E+04  0.50400001928E-02 0. -1.
        1   -1    0    0  501    0  0.00000000000E+00  0.00000000000E+00 -0.12499515745E+04  0.12499515745E+04  0.50400001928E-02 0.  1.
    10030    2    1    2    0    0  0.00000000000E+00  0.00000000000E+00  0.18217783908E+01  0.25017249274E+04  0.25017242641E+04 0.  0.
        3    1    3    3  502    0  0.60378198857E+03 -0.55372887149E+03 -0.94433415000E+03  0.12501741278E+04  0.10100000352E+00 0.  1.
       -3    1    3    3    0  502 -0.60378198857E+03  0.55372887149E+03  0.94615592839E+03  0.12515507996E+04  0.10100000352E+00 0. -1.
</event>
<event>
 5   0  0.3522870E-06  0.2501978E+04  0.7818609E-02  0.8402281E-01
       -1   -1    0    0    0  501  0.00000000000E+00  0.00000000000E+00  0.89732755981E+03  0.89732755983E+03  0.50400001928E-02 0. -1.
        1   -1    0    0  501    0  0.00000000000E+00  0.00000000000E+00 -0.17440384971E+04  0.17440384971E+04  0.50400001928E-02 0.  1.
    10030    2    1    2    0    0  0.00000000000E+00  0.00000000000E+00 -0.84671093729E+03  0.26413660569E+04  0.25019782644E+04 0.  0.
        2    1    3    3  502    0  0.10757183355E+03  0.51769483605E+03  0.77355929072E+03  0.93700246473E+03  0.25500000920E-02 0. -1.
       -2    1    3    3    0  502 -0.10757183355E+03 -0.51769483605E+03 -0.16202702280E+04  0.17043635922E+04  0.25500000920E-02 0.  1.
</event>
<event>
 5   0  0.8407986E-06  0.2508255E+04  0.7818609E-02  0.8400051E-01
        2   -1    0    0  501    0  0.00000000000E+00  0.00000000000E+00  0.11299020778E+04  0.11299020778E+04  0.25500000920E-02 0. -1.
       -2   -1    0    0    0  501  0.00000000000E+00  0.00000000000E+00 -0.13920105626E+04  0.13920105626E+04  0.25500000920E-02 0.  1.
    10030    2    1    2    0    0  0.00000000000E+00  0.00000000000E+00 -0.26210848478E+03  0.25219126405E+04  0.25082548731E+04 0.  0.
        5    1    3    3  502    0 -0.25946090123E+03  0.31615535500E+02 -0.13643112985E+04  0.13891317111E+04  0.46999998093E+01 0.  1.
       -5    1    3    3    0  502  0.25946090123E+03 -0.31615535500E+02  0.11022028138E+04  0.11327809294E+04  0.46999998093E+01 0. -1.
</event>
<event>
 5   0  0.3481387E-06  0.2496194E+04  0.7818609E-02  0.8404343E-01
       -1   -1    0    0    0  501  0.00000000000E+00  0.00000000000E+00  0.11912916451E+04  0.11912916451E+04  0.50400001928E-02 0. -1.
        1   -1    0    0  501    0  0.00000000000E+00  0.00000000000E+00 -0.13076105819E+04  0.13076105819E+04  0.50400001928E-02 0.  1.
    10030    2    1    2    0    0  0.00000000000E+00  0.00000000000E+00 -0.11631893681E+03  0.24989022269E+04  0.24961935511E+04 0.  0.
        4    1    3    3  502    0 -0.23909676426E+03  0.54848466676E+03  0.10383561043E+04  0.11984104908E+04  0.12699999809E+01 0. -1.
       -4    1    3    3    0  502  0.23909676426E+03 -0.54848466676E+03 -0.11546750411E+04  0.13004917361E+04  0.12699999809E+01 0.  1.
</event>
<event>
 5   0  0.3484857E-06  0.2500721E+04  0.7818609E-02  0.8402729E-01
        1   -1    0    0  501    0  0.00000000000E+00  0.00000000000E+00  0.15720666945E+04  0.15720666945E+04  0.50400001928E-02 0.  1.
       -1   -1    0    0    0  501  0.00000000000E+00  0.00000000000E+00 -0.99448819718E+03  0.99448819719E+03  0.50400001928E-02 0. -1.
    10030    2    1    2    0    0  0.00000000000E+00  0.00000000000E+00  0.57757849730E+03  0.25665548917E+04  0.25007213142E+04 0.  0.
        3    1    3    3  502    0  0.91570773358E+03 -0.19808126437E+03  0.11386247966E+04  0.14745247635E+04  0.10100000352E+00 0.  1.
       -3    1    3    3    0  502 -0.91570773358E+03  0.19808126437E+03 -0.56104629930E+03  0.10920301282E+04  0.10100000352E+00 0. -1.
</event>
<event>
 5   0  0.8056723E-06  0.2508905E+04  0.7818609E-02  0.8399820E-01
        2   -1    0    0  501    0  0.00000000000E+00  0.00000000000E+00  0.16102291445E+04  0.16102291445E+04  0.25500000920E-02 0. -1.
       -2   -1    0    0    0  501  0.00000000000E+00  0.00000000000E+00 -0.97728355422E+03  0.97728355422E+03  0.25500000920E-02 0.  1.
    10030    2    1    2    0    0  0.00000000000E+00  0.00000000000E+00  0.63294559028E+03  0.25875126987E+04  0.25089045111E+04 0.  0.
        2    1    3    3  502    0  0.28589496224E+03 -0.47607083953E+03 -0.84361310836E+03  0.10099814109E+04  0.25500000920E-02 0.  1.
       -2    1    3    3    0  502 -0.28589496224E+03  0.47607083953E+03  0.14765586986E+04  0.15775312879E+04  0.25500000920E-02 0. -1.
</event>
<event>
 5   0  0.3522870E-06  0.2479871E+04  0.7818609E-02  0.8410192E-01
       -1   -1    0    0    0  501  0.00000000000E+00  0.00000000000E+00  0.99492808916E+03  0.99492808917E+03  0.50400001928E-02 0.  1.
        1   -1    0    0  501    0  0.00000000000E+00  0.00000000000E+00 -0.15452772466E+04  0.15452772466E+04  0.50400001928E-02 0. -1.
    10030    2    1    2    0    0  0.00000000000E+00  0.00000000000E+00 -0.55034915745E+03  0.25402053358E+04  0.24798707533E+04 0.  0.
        2    1    3    3  502    0 -0.53585922709E+02 -0.11947975875E+04 -0.61028387632E+03  0.13427059008E+04  0.25500000920E-02 0. -1.
       -2    1    3    3    0  502  0.53585922709E+02  0.11947975875E+04  0.59934718864E+02  0.11974994350E+04  0.25500000920E-02 0.  1.
</event>
<event>
 5   0  0.8407986E-06  0.2480654E+04  0.7818609E-02  0.8409910E-01
       -2   -1    0    0    0  501  0.00000000000E+00  0.00000000000E+00  0.75351592853E+03  0.75351592853E+03  0.25500000920E-02 0. -1.
        2   -1    0    0  501    0  0.00000000000E+00  0.00000000000E+00 -0.20416439676E+04  0.20416439676E+04  0.25500000920E-02 0.  1.
    10030    2    1    2    0    0  0.00000000000E+00  0.00000000000E+00 -0.12881280391E+04  0.27951598961E+04  0.24806541476E+04 0.  0.
        5    1    3    3  502    0  0.10408284026E+04 -0.28603857516E+02  0.11536392606E+03  0.10476033933E+04  0.46999998093E+01 0. -1.
       -5    1    3    3    0  502 -0.10408284026E+04  0.28603857516E+02 -0.14034919651E+04  0.17475565028E+04  0.46999998093E+01 0.  1.
</event>
<event>
 5   0  0.3424193E-06  0.2502058E+04  0.7818609E-02  0.8402253E-01
       -1   -1    0    0    0  501  0.00000000000E+00  0.00000000000E+00  0.11015104065E+04  0.11015104066E+04  0.50400001928E-02 0.  1.
        1   -1    0    0  501    0  0.00000000000E+00  0.00000000000E+00 -0.14208435269E+04  0.14208435269E+04  0.50400001928E-02 0. -1.
    10030    2    1    2    0    0  0.00000000000E+00  0.00000000000E+00 -0.31933312039E+03  0.25223539335E+04  0.25020582975E+04 0.  0.
        1    1    3    3  502    0 -0.13163046370E+03  0.73915866434E+03 -0.11684794476E+04  0.13888939231E+04  0.50400001928E-02 0. -1.
       -1    1    3    3    0  502  0.13163046370E+03 -0.73915866434E+03  0.84914632726E+03  0.11334600104E+04  0.50400001928E-02 0.  1.
</event>
<event>
 5   0  0.8354653E-06  0.2508577E+04  0.7818609E-02  0.8399936E-01
        2   -1    0    0  501    0  0.00000000000E+00  0.00000000000E+00  0.16352399166E+04  0.16352399166E+04  0.25500000920E-02 0. -1.
       -2   -1    0    0    0  501  0.00000000000E+00  0.00000000000E+00 -0.96208527227E+03  0.96208527227E+03  0.25500000920E-02 0.  1.
    10030    2    1    2    0    0  0.00000000000E+00  0.00000000000E+00  0.67315464436E+03  0.25973251889E+04  0.25085774777E+04 0.  0.
        3    1    3    3  502    0  0.11144995663E+04  0.21577926779E+03  0.88890087039E+03  0.14418095378E+04  0.10100000352E+00 0. -1.
       -3    1    3    3    0  502 -0.11144995663E+04 -0.21577926779E+03 -0.21574622603E+03  0.11555156511E+04  0.10100000352E+00 0.  1.
</event>
<event>
 5   0  0.8407986E-06  0.2508912E+04  0.7818609E-02  0.8399817E-01
       -2   -1    0    0    0  501  0.00000000000E+00  0.00000000000E+00  0.53381960838E+03  0.53381960839E+03  0.25500000920E-02 0. -1.
        2   -1    0    0  501    0  0.00000000000E+00  0.00000000000E+00 -0.29479254238E+04  0.29479254238E+04  0.25500000920E-02 0.  1.
    10030    2    1    2    0    0  0.00000000000E+00  0.00000000000E+00 -0.24141058154E+04  0.34817450322E+04  0.25089124299E+04 0.  0.
        5    1    3    3  502    0 -0.11684750746E+04 -0.30171186916E+02 -0.57506384797E+03  0.13026760226E+04  0.46999998093E+01 0. -1.
       -5    1    3    3    0  502  0.11684750746E+04  0.30171186916E+02 -0.18390419674E+04  0.21790690096E+04  0.46999998093E+01 0.  1.
</event>
<event>
 5   0  0.3424193E-06  0.2499879E+04  0.7818609E-02  0.8403029E-01
        1   -1    0    0  501    0  0.00000000000E+00  0.00000000000E+00  0.19504079727E+04  0.19504079727E+04  0.50400001928E-02 0.  1.
       -1   -1    0    0    0  501  0.00000000000E+00  0.00000000000E+00 -0.80103659295E+03  0.80103659297E+03  0.50400001928E-02 0. -1.
    10030    2    1    2    0    0  0.00000000000E+00  0.00000000000E+00  0.11493713798E+04  0.27514445657E+04  0.24998785230E+04 0.  0.
        1    1    3    3  502    0 -0.64811788982E+03  0.19034647840E+02  0.17508321905E+04  0.18670384239E+04  0.50400001928E-02 0.  1.
       -1    1    3    3    0  502  0.64811788982E+03 -0.19034647840E+02 -0.60146081070E+03  0.88440614186E+03  0.50400001928E-02 0. -1.
</event>
<event>
 5   0  0.8056723E-06  0.2447133E+04  0.7818609E-02  0.8422066E-01
       -2   -1    0    0    0  501  0.00000000000E+00  0.00000000000E+00  0.68835871114E+03  0.68835871115E+03  0.25500000920E-02 0.  1.
        2   -1    0    0  501    0  0.00000000000E+00  0.00000000000E+00 -0.21749049684E+04  0.21749049684E+04  0.25500000920E-02 0. -1.
    10030    2    1    2    0    0  0.00000000000E+00  0.00000000000E+00 -0.14865462573E+04  0.28632636796E+04  0.24471328374E+04 0.  0.
        2    1    3    3  502    0 -0.60887672244E+03  0.97115515639E+03 -0.24241374643E+03  0.11715961870E+04  0.25500000920E-02 0. -1.
       -2    1    3    3    0  502  0.60887672244E+03 -0.97115515639E+03 -0.12441325109E+04  0.16916674926E+04  0.25500000920E-02 0.  1.
</event>
<event>
 5   0  0.8407986E-06  0.2493707E+04  0.7818609E-02  0.8405231E-01
       -2   -1    0    0    0  501  0.00000000000E+00  0.00000000000E+00  0.77867787428E+03  0.77867787428E+03  0.25500000920E-02 0.  1.
        2   -1    0    0  501    0  0.00000000000E+00  0.00000000000E+00 -0.19965177069E+04  0.19965177069E+04  0.25500000920E-02 0. -1.
    10030    2    1    2    0    0  0.00000000000E+00  0.00000000000E+00 -0.12178398326E+04  0.27751955812E+04  0.24937074119E+04 0.  0.
        5    1    3    3  502    0 -0.10872886451E+04  0.60389839742E+03 -0.70677867166E+03  0.14305411749E+04  0.46999998093E+01 0.  1.
       -5    1    3    3    0  502  0.10872886451E+04 -0.60389839742E+03 -0.51106116099E+03  0.13446544063E+04  0.46999998093E+01 0. -1.
</event>
<event>
 5   0  0.3522870E-06  0.2497879E+04  0.7818609E-02  0.8403742E-01
       -1   -1    0    0    0  501  0.00000000000E+00  0.00000000000E+00  0.12124877946E+04  0.12124877946E+04  0.50400001928E-02 0. -1.
        1   -1    0    0  501    0  0.00000000000E+00  0.00000000000E+00 -0.12864865608E+04  0.12864865608E+04  0.50400001928E-02 0.  1.
    10030    2    1    2    0    0  0.00000000000E+00  0.00000000000E+00 -0.73998766214E+02  0.24989743554E+04  0.24978785022E+04 0.  0.
        2    1    3    3  502    0  0.48061061012E+02  0.48439306941E+03 -0.11876790723E+04  0.12835607076E+04  0.25500000920E-02 0.  1.
       -2    1    3    3    0  502 -0.48061061012E+02 -0.48439306941E+03  0.11136803060E+04  0.12154136478E+04  0.25500000920E-02 0. -1.
</event>
<event>
 5   0  0.8407986E-06  0.2501975E+04  0.7818609E-02  0.8402282E-01
       -2   -1    0    0    0  501  0.00000000000E+00  0.00000000000E+00  0.90027812362E+03  0.90027812363E+03  0.25500000920E-02 0. -1.
        2   -1    0    0  501    0  0.00000000000E+00  0.00000000000E+00 -0.17383187415E+04  0.17383187415E+04  0.25500000920E-02 0.  1.
    10030    2    1    2    0    0  0.00000000000E+00  0.00000000000E+00 -0.83804061785E+03  0.26385968651E+04  0.25019754874E+04 0.  0.
        5    1    3    3  502    0 -0.10341958088E+04 -0.70375705701E+03 -0.43024472658E+03  0.13228634023E+04  0.46999998093E+01 0.  1.
       -5    1    3    3    0  502  0.10341958088E+04  0.70375705701E+03 -0.40779589127E+03  0.13157334628E+04  0.46999998093E+01 0. -1.
</event>
<event>
 5   0  0.3481387E-06  0.2372306E+04  0.7818609E-02  0.8449945E-01
       -1   -1    0    0    0  501  0.00000000000E+00  0.00000000000E+00  0.13844299091E+04  0.13844299091E+04  0.50400001928E-02 0. -1.
        1   -1    0    0  501    0  0.00000000000E+00  0.00000000000E+00 -0.10162732131E+04  0.10162732131E+04  0.50400001928E-02 0.  1.
    10030    2    1    2    0    0  0.00000000000E+00  0.00000000000E+00  0.36815669596E+03  0.24007031222E+04  0.23723060781E+04 0.  0.
        4    1    3    3  502    0  0.72720903981E+03  0.60625424192E+03 -0.53902393256E+03  0.10894611541E+04  0.12699999809E+01 0.  1.
       -4    1    3    3    0  502 -0.72720903981E+03 -0.60625424192E+03  0.90718062851E+03  0.13112419682E+04  0.12699999809E+01 0. -1.
</event>
<event>
 5   0  0.3642184E-06  0.2524595E+04  0.7818609E-02  0.8394275E-01
       -1   -1    0    0    0  501  0.00000000000E+00  0.00000000000E+00  0.71824744413E+03  0.71824744415E+03  0.50400001928E-02 0.  1.
        1   -1    0    0  501    0  0.00000000000E+00  0.00000000000E+00 -0.22184491369E+04  0.22184491369E+04  0.50400001928E-02 0. -1.
    10030    2    1    2    0    0  0.00000000000E+00  0.00000000000E+00 -0.15002016928E+04  0.29366965810E+04  0.25245953518E+04 0.  0.
        5    1    3    3  502    0  0.95250319711E+02  0.29489362689E+03 -0.21735019197E+04  0.21954880003E+04  0.46999998093E+01 0. -1.
       -5    1    3    3    0  502 -0.95250319711E+02 -0.29489362689E+03  0.67330022693E+03  0.74120858074E+03  0.46999998093E+01 0.  1.
</event>
<event>
 5   0  0.3642184E-06  0.2502715E+04  0.7818609E-02  0.8402019E-01
       -1   -1    0    0    0  501  0.00000000000E+00  0.00000000000E+00  0.11371297585E+04  0.11371297585E+04  0.50400001928E-02 0. -1.
        1   -1    0    0  501    0  0.00000000000E+00  0.00000000000E+00 -0.13770599709E+04  0.13770599709E+04  0.50400001928E-02 0.  1.
    10030    2    1    2    0    0  0.00000000000E+00  0.00000000000E+00 -0.23993021242E+03  0.25141897293E+04  0.25027152232E+04 0.  0.
        5    1    3    3  502    0  0.28301771165E+03 -0.17826015349E+03 -0.13313119954E+04  0.13726942218E+04  0.46999998093E+01 0.  1.
       -5    1    3    3    0  502 -0.28301771165E+03  0.17826015349E+03  0.10913817830E+04  0.11414955075E+04  0.46999998093E+01 0. -1.
</event>
<event>
 5   0  0.2901250E-06  0.2505381E+04  0.7818609E-02  0.8401071E-01
       -3   -1    0    0    0  501  0.00000000000E+00  0.00000000000E+00  0.96978592503E+03  0.96978593029E+03  0.10100000352E+00 0.  1.
        3   -1    0    0  501    0  0.00000000000E+00  0.00000000000E+00 -0.16181236918E+04  0.16181236949E+04  0.10100000352E+00 0. -1.
    10030    2    1    2    0    0  0.00000000000E+00  0.00000000000E+00 -0.64833776675E+03  0.25879096252E+04  0.25053810825E+04 0.  0.
        4    1    3    3  502    0 -0.11260211609E+04  0.14388279115E+03  0.22300308490E+03  0.11568741942E+04  0.12699999809E+01 0.  1.
       -4    1    3    3    0  502  0.11260211609E+04 -0.14388279115E+03 -0.87134085165E+03  0.14310354311E+04  0.12699999809E+01 0. -1.
</event>
<event>
 5   0  0.8354653E-06  0.2503578E+04  0.7818609E-02  0.8401712E-01
        2   -1    0    0  501    0  0.00000000000E+00  0.00000000000E+00  0.16836483131E+04  0.16836483131E+04  0.25500000920E-02 0. -1.
       -2   -1    0    0    0  501  0.00000000000E+00  0.00000000000E+00 -0.93070263374E+03  0.93070263374E+03  0.25500000920E-02 0.  1.
    10030    2    1    2    0    0  0.00000000000E+00  0.00000000000E+00  0.75294567935E+03  0.26143509468E+04  0.25035781748E+04 0.  0.
        3    1    3    3  502    0  0.22786404304E+03 -0.12151569068E+04  0.58122911816E+03  0.13661462690E+04  0.10100000352E+00 0. -1.
       -3    1    3    3    0  502 -0.22786404304E+03  0.12151569068E+04  0.17171656119E+03  0.12482046779E+04  0.10100000352E+00 0.  1.
</event>
<event>
 5   0  0.3642184E-06  0.2504708E+04  0.7818609E-02  0.8401310E-01
        1   -1    0    0  501    0  0.00000000000E+00  0.00000000000E+00  0.13496246655E+04  0.13496246655E+04  0.50400001928E-02 0. -1.
       -1   -1    0    0    0  501  0.00000000000E+00  0.00000000000E+00 -0.11620940294E+04  0.11620940294E+04  0.50400001928E-02 0.  1.
    10030    2    1    2    0    0  0.00000000000E+00  0.00000000000E+00  0.18753063611E+03  0.25117186949E+04  0.25047081792E+04 0.  0.
        5    1    3    3  502    0  0.56741208135E+03  0.11131735831E+04  0.83401524440E+01  0.12494813101E+04  0.46999998093E+01 0. -1.
       -5    1    3    3    0  502 -0.56741208135E+03 -0.11131735831E+04  0.17919048366E+03  0.12622373848E+04  0.46999998093E+01 0.  1.
</event>
<event>
 5   0  0.3642184E-06  0.2500497E+04  0.7818609E-02  0.8402809E-01
        1   -1    0    0  501    0  0.00000000000E+00  0.00000000000E+00  0.17221026310E+04  0.17221026310E+04  0.50400001928E-02 0.  1.
       -1   -1    0    0    0  501  0.00000000000E+00  0.00000000000E+00 -0.90768163711E+03  0.90768163712E+03  0.50400001928E-02 0. -1.
    10030    2    1    2    0    0  0.00000000000E+00  0.00000000000E+00  0.81442099389E+03  0.26297842681E+04  0.25004966990E+04 0.  0.
        5    1    3    3  502    0 -0.12207573356E+04  0.26471889636E+03  0.35181570981E+03  0.12977368571E+04  0.46999998093E+01 0. -1.
       -5    1    3    3    0  502  0.12207573356E+04 -0.26471889636E+03  0.46260528408E+03  0.13320474111E+04  0.46999998093E+01 0.  1.
</event>
<event>
 5   0  0.8354653E-06  0.2495524E+04  0.7818609E-02  0.8404582E-01
        2   -1    0    0  501    0  0.00000000000E+00  0.00000000000E+00  0.18169066094E+04  0.18169066094E+04  0.25500000920E-02 0.  1.
       -2   -1    0    0    0  501  0.00000000000E+00  0.00000000000E+00 -0.85690181273E+03  0.85690181273E+03  0.25500000920E-02 0. -1.
    10030    2    1    2    0    0  0.00000000000E+00  0.00000000000E+00  0.96000479664E+03  0.26738084221E+04  0.24955244476E+04 0.  0.
        3    1    3    3  502    0  0.11360305090E+04  0.13456774930E+03  0.10138305903E+04  0.15285700090E+04  0.10100000352E+00 0. -1.
       -3    1    3    3    0  502 -0.11360305090E+04 -0.13456774930E+03 -0.53825793685E+02  0.11452384131E+04  0.10100000352E+00 0.  1.
</event>
<event>
 5   0  0.8579923E-06  0.2503015E+04  0.7818609E-02  0.8401912E-01
        2   -1    0    0  501    0  0.00000000000E+00  0.00000000000E+00  0.49537783656E+03  0.49537783657E+03  0.25500000920E-02 0.  1.
       -2   -1    0    0    0  501  0.00000000000E+00  0.00000000000E+00 -0.31617717124E+04  0.31617717124E+04  0.25500000920E-02 0. -1.
    10030    2    1    2    0    0  0.00000000000E+00  0.00000000000E+00 -0.26663938759E+04  0.36571495490E+04  0.25030154859E+04 0.  0.
        1    1    3    3  502    0  0.37355756675E+02 -0.12458816204E+04 -0.14975633611E+04  0.19484128118E+04  0.50400001928E-02 0.  1.
       -1    1    3    3    0  502 -0.37355756675E+02  0.12458816204E+04 -0.11688305148E+04  0.17087367372E+04  0.50400001928E-02 0. -1.
</event>
<event>
 5   0  0.8948286E-06  0.2507484E+04  0.7818609E-02  0.8400324E-01
        2   -1    0    0  501    0  0.00000000000E+00  0.00000000000E+00  0.19392922053E+04  0.19392922053E+04  0.25500000920E-02 0.  1.
       -2   -1    0    0    0  501  0.00000000000E+00  0.00000000000E+00 -0.81053769581E+03  0.81053769582E+03  0.25500000920E-02 0. -1.
    10030    2    1    2    0    0  0.00000000000E+00  0.00000000000E+00  0.11287545094E+04  0.27498299011E+04  0.25074843454E+04 0.  0.
        4    1    3    3  502    0 -0.20054036089E+03 -0.12357199421E+04  0.63913952559E+03  0.14056034853E+04  0.12699999809E+01 0. -1.
       -4    1    3    3    0  502  0.20054036089E+03  0.12357199421E+04  0.48961498385E+03  0.13442264158E+04  0.12699999809E+01 0.  1.
</event>
<event>
 5   0  0.3522870E-06  0.2499747E+04  0.7818609E-02  0.8403076E-01
       -1   -1    0    0    0  501  0.00000000000E+00  0.00000000000E+00  0.11631733040E+04  0.11631733040E+04  0.50400001928E-02 0. -1.
        1   -1    0    0  501    0  0.00000000000E+00  0.00000000000E+00 -0.13430365817E+04  0.13430365817E+04  0.50400001928E-02 0.  1.
    10030    2    1    2    0    0  0.00000000000E+00  0.00000000000E+00 -0.17986327771E+03  0.25062098857E+04  0.24997474258E+04 0.  0.
        2    1    3    3  502    0  0.92306564049E+03 -0.66605327304E+03  0.42764629041E+03  0.12159599043E+04  0.25500000920E-02 0. -1.
       -2    1    3    3    0  502 -0.92306564049E+03  0.66605327304E+03 -0.60750956812E+03  0.12902499814E+04  0.25500000920E-02 0.  1.
</event>
<event>
 5   0  0.8407986E-06  0.2502134E+04  0.7818609E-02  0.8402226E-01
       -2   -1    0    0    0  501  0.00000000000E+00  0.00000000000E+00  0.90793547068E+03  0.90793547069E+03  0.25500000920E-02 0.  1.
        2   -1    0    0  501    0  0.00000000000E+00  0.00000000000E+00 -0.17238766690E+04  0.17238766690E+04  0.25500000920E-02 0. -1.
    10030    2    1    2    0    0  0.00000000000E+00  0.00000000000E+00 -0.81594119835E+03  0.26318121397E+04  0.25021341090E+04 0.  0.
        5    1    3    3  502    0 -0.54019568405E+03 -0.34515150291E+03 -0.15379900500E+04  0.16662462066E+04  0.46999998093E+01 0. -1.
       -5    1    3    3    0  502  0.54019568405E+03  0.34515150291E+03  0.72204885167E+03  0.96556593313E+03  0.46999998093E+01 0.  1.
</event>
<event>
 5   0  0.3481387E-06  0.2499882E+04  0.7818609E-02  0.8403028E-01
       -1   -1    0    0    0  501  0.00000000000E+00  0.00000000000E+00  0.10364284930E+04  0.10364284930E+04  0.50400001928E-02 0.  1.
        1   -1    0    0  501    0  0.00000000000E+00  0.00000000000E+00 -0.15074383725E+04  0.15074383725E+04  0.50400001928E-02 0. -1.
    10030    2    1    2    0    0  0.00000000000E+00  0.00000000000E+00 -0.47100987956E+03  0.25438668655E+04  0.24998816618E+04 0.  0.
        4    1    3    3  502    0 -0.98164920996E+02 -0.91835273974E+03  0.62153858107E+03  0.11132474689E+04  0.12699999809E+01 0.  1.
       -4    1    3    3    0  502  0.98164920996E+02  0.91835273974E+03 -0.10925484606E+04  0.14306193966E+04  0.12699999809E+01 0. -1.
</event>
<event>
 5   0  0.8579923E-06  0.2488086E+04  0.7818609E-02  0.8407242E-01
       -2   -1    0    0    0  501  0.00000000000E+00  0.00000000000E+00  0.59395589559E+03  0.59395589559E+03  0.25500000920E-02 0.  1.
        2   -1    0    0  501    0  0.00000000000E+00  0.00000000000E+00 -0.26056521937E+04  0.26056521937E+04  0.25500000920E-02 0. -1.
    10030    2    1    2    0    0  0.00000000000E+00  0.00000000000E+00 -0.20116962981E+04  0.31996080893E+04  0.24880855952E+04 0.  0.
        1    1    3    3  502    0 -0.42713508346E+02 -0.90240465934E+03  0.94002830540E+02  0.90829243373E+03  0.50400001928E-02 0.  1.
       -1    1    3    3    0  502  0.42713508346E+02  0.90240465934E+03 -0.21056991287E+04  0.22913156556E+04  0.50400001928E-02 0. -1.
</event>
<event>
 5   0  0.8407986E-06  0.2498153E+04  0.7818609E-02  0.8403644E-01
       -2   -1    0    0    0  501  0.00000000000E+00  0.00000000000E+00  0.18746936395E+04  0.18746936395E+04  0.25500000920E-02 0.  1.
        2   -1    0    0  501    0  0.00000000000E+00  0.00000000000E+00 -0.83223859115E+03  0.83223859115E+03  0.25500000920E-02 0. -1.
    10030    2    1    2    0    0  0.00000000000E+00  0.00000000000E+00  0.10424550483E+04  0.27069322306E+04  0.24981532326E+04 0.  0.
        5    1    3    3  502    0  0.53925767127E+03 -0.91324482540E+03 -0.19373002364E+03  0.10781318840E+04  0.46999998093E+01 0. -1.
       -5    1    3    3    0  502 -0.53925767127E+03  0.91324482540E+03  0.12361850720E+04  0.16288003467E+04  0.46999998093E+01 0.  1.
</event>
<event>
 5   0  0.8056723E-06  0.2474108E+04  0.7818609E-02  0.8412268E-01
       -2   -1    0    0    0  501  0.00000000000E+00  0.00000000000E+00  0.23521531133E+04  0.23521531133E+04  0.25500000920E-02 0. -1.
        2   -1    0    0  501    0  0.00000000000E+00  0.00000000000E+00 -0.65059637664E+03  0.65059637664E+03  0.25500000920E-02 0.  1.
    10030    2    1    2    0    0  0.00000000000E+00  0.00000000000E+00  0.17015567367E+04  0.30027494899E+04  0.24741077526E+04 0.  0.
        2    1    3    3  502    0  0.31224920170E+03  0.11965448161E+04  0.89072325474E+03  0.15240101632E+04  0.25500000920E-02 0. -1.
       -2    1    3    3    0  502 -0.31224920170E+03 -0.11965448161E+04  0.81083348191E+03  0.14787393267E+04  0.25500000920E-02 0.  1.
</event>
<event>
 5   0  0.3424193E-06  0.2490816E+04  0.7818609E-02  0.8406265E-01
       -1   -1    0    0    0  501  0.00000000000E+00  0.00000000000E+00  0.15309312722E+04  0.15309312722E+04  0.50400001928E-02 0.  1.
        1   -1    0    0  501    0  0.00000000000E+00  0.00000000000E+00 -0.10131353450E+04  0.10131353450E+04  0.50400001928E-02 0. -1.
    10030    2    1    2    0    0  0.00000000000E+00  0.00000000000E+00  0.51779592728E+03  0.25440666172E+04  0.24908155954E+04 0.  0.
        1    1    3    3  502    0  0.73900521033E+03  0.12070492323E+03 -0.75753688482E+03  0.10651575054E+04  0.50400001928E-02 0. -1.
       -1    1    3    3    0  502 -0.73900521033E+03 -0.12070492323E+03  0.12753328121E+04  0.14789091118E+04  0.50400001928E-02 0.  1.
</event>
<event>
 5   0  0.3481387E-06  0.2500696E+04  0.7818609E-02  0.8402738E-01
        1   -1    0    0  501    0  0.00000000000E+00  0.00000000000E+00  0.22622791697E+04  0.22622791697E+04  0.50400001928E-02 0.  1.
       -1   -1    0    0    0  501  0.00000000000E+00  0.00000000000E+00 -0.69105964025E+03  0.69105964027E+03  0.50400001928E-02 0. -1.
    10030    2    1    2    0    0  0.00000000000E+00  0.00000000000E+00  0.15712195295E+04  0.29533388100E+04  0.25006957665E+04 0.  0.
        4    1    3    3  502    0 -0.10423359489E+04  0.21251270395E+03  0.15616151451E+04  0.18895156401E+04  0.12699999809E+01 0.  1.
       -4    1    3    3    0  502  0.10423359489E+04 -0.21251270395E+03  0.96043843912E+01  0.10638231699E+04  0.12699999809E+01 0. -1.
</event>
<event>
 5   0  0.8056723E-06  0.2496543E+04  0.7818609E-02  0.8404218E-01
       -2   -1    0    0    0  501  0.00000000000E+00  0.00000000000E+00  0.98744609775E+03  0.98744609776E+03  0.25500000920E-02 0. -1.
        2   -1    0    0  501    0  0.00000000000E+00  0.00000000000E+00 -0.15779917400E+04  0.15779917400E+04  0.25500000920E-02 0.  1.
    10030    2    1    2    0    0  0.00000000000E+00  0.00000000000E+00 -0.59054564223E+03  0.25654378377E+04  0.24965430386E+04 0.  0.
        2    1    3    3  502    0  0.75441886828E+03  0.66938025842E+03 -0.10510723756E+04  0.14566986298E+04  0.25500000920E-02 0. -1.
       -2    1    3    3    0  502 -0.75441886828E+03 -0.66938025842E+03  0.46052673337E+03  0.11087392080E+04  0.25500000920E-02 0.  1.
</event>
<event>
 5   0  0.8407986E-06  0.2499692E+04  0.7818609E-02  0.8403095E-01
        2   -1    0    0  501    0  0.00000000000E+00  0.00000000000E+00  0.12577123635E+04  0.12577123635E+04  0.25500000920E-02 0.  1.
       -2   -1    0    0    0  501  0.00000000000E+00  0.00000000000E+00 -0.12420286557E+04  0.12420286557E+04  0.25500000920E-02 0. -1.
    10030    2    1    2    0    0  0.00000000000E+00  0.00000000000E+00  0.15683707740E+02  0.24997410192E+04  0.24996918179E+04 0.  0.
        5    1    3    3  502    0 -0.48857688813E+03 -0.51493138810E+03 -0.10208819451E+04  0.12434161596E+04  0.46999998093E+01 0. -1.
       -5    1    3    3    0  502  0.48857688813E+03  0.51493138810E+03  0.10365656529E+04  0.12563248596E+04  0.46999998093E+01 0.  1.
</event>
<event>
 5   0  0.3481387E-06  0.2485301E+04  0.7818609E-02  0.8408241E-01
       -1   -1    0    0    0  501  0.00000000000E+00  0.00000000000E+00  0.13461328322E+04  0.13461328322E+04  0.50400001928E-02 0.  1.
        1   -1    0    0  501    0  0.00000000000E+00  0.00000000000E+00 -0.11471232801E+04  0.11471232801E+04  0.50400001928E-02 0. -1.
    10030    2    1    2    0    0  0.00000000000E+00  0.00000000000E+00  0.19900955218E+03  0.24932561123E+04  0.24853010360E+04 0.  0.
        4    1    3    3  502    0 -0.21867009064E+03 -0.11844063051E+04  0.40633305152E+03  0.12711188244E+04  0.12699999809E+01 0.  1.
       -4    1    3    3    0  502  0.21867009064E+03  0.11844063051E+04 -0.20732349933E+03  0.12221372879E+04  0.12699999809E+01 0. -1.
</event>
<event>
 5   0  0.3522870E-06  0.2538525E+04  0.7818609E-02  0.8389388E-01
        1   -1    0    0  501    0  0.00000000000E+00  0.00000000000E+00  0.17911658812E+04  0.17911658812E+04  0.50400001928E-02 0.  1.
       -1   -1    0    0    0  501  0.00000000000E+00  0.00000000000E+00 -0.89942960512E+03  0.89942960513E+03  0.50400001928E-02 0. -1.
    10030    2    1    2    0    0  0.00000000000E+00  0.00000000000E+00  0.89173627604E+03  0.26905954863E+04  0.25385252579E+04 0.  0.
        2    1    3    3  502    0  0.11202860171E+04 -0.46417155287E+03  0.84320052211E+03  0.14769844654E+04  0.25500000920E-02 0.  1.
       -2    1    3    3    0  502 -0.11202860171E+04  0.46417155287E+03  0.48535753934E+02  0.12136110209E+04  0.25500000920E-02 0. -1.
</event>
<event>
 5   0  0.8948286E-06  0.2498596E+04  0.7818609E-02  0.8403486E-01
       -2   -1    0    0    0  501  0.00000000000E+00  0.00000000000E+00  0.88877403251E+03  0.88877403252E+03  0.25500000920E-02 0. -1.
        2   -1    0    0  501    0  0.00000000000E+00  0.00000000000E+00 -0.17560649907E+04  0.17560649907E+04  0.25500000920E-02 0.  1.
    10030    2    1    2    0    0  0.00000000000E+00  0.00000000000E+00 -0.86729095814E+03  0.26448390232E+04  0.24985955760E+04 0.  0.
        4    1    3    3  502    0 -0.58780816786E+03  0.85391748251E+02 -0.15970338778E+04  0.17039157880E+04  0.12699999809E+01 0.  1.
       -4    1    3    3    0  502  0.58780816786E+03 -0.85391748251E+02  0.72974291963E+03  0.94092323519E+03  0.12699999809E+01 0. -1.
</event>
<event>
 5   0  0.3642184E-06  0.2493708E+04  0.7818609E-02  0.8405231E-01
        1   -1    0    0  501    0  0.00000000000E+00  0.00000000000E+00  0.22043316575E+04  0.22043316575E+04  0.50400001928E-02 0.  1.
       -1   -1    0    0    0  501  0.00000000000E+00  0.00000000000E+00 -0.70526797517E+03  0.70526797519E+03  0.50400001928E-02 0. -1.
    10030    2    1    2    0    0  0.00000000000E+00  0.00000000000E+00  0.14990636824E+04  0.29095996327E+04  0.24937077012E+04 0.  0.
        5    1    3    3  502    0  0.10827994703E+04  0.47484087736E+03  0.28766827101E+03  0.12168416807E+04  0.46999998093E+01 0. -1.
       -5    1    3    3    0  502 -0.10827994703E+04 -0.47484087736E+03  0.12113954113E+04  0.16927579521E+04  0.46999998093E+01 0.  1.
</event>
<event>
 5   0  0.8948286E-06  0.2506262E+04  0.7818609E-02  0.8400758E-01
       -2   -1    0    0    0  501  0.00000000000E+00  0.00000000000E+00  0.98049033721E+03  0.98049033721E+03  0.25500000920E-02 0. -1.
        2   -1    0    0  501    0  0.00000000000E+00  0.00000000000E+00 -0.16015838511E+04  0.16015838511E+04  0.25500000920E-02 0.  1.
    10030    2    1    2    0    0  0.00000000000E+00  0.00000000000E+00 -0.62109351392E+03  0.25820741883E+04  0.25062621493E+04 0.  0.
        4    1    3    3  502    0  0.52120803464E+03 -0.10958789980E+04 -0.63261665432E+03  0.13685079605E+04  0.12699999809E+01 0.  1.
       -4    1    3    3    0  502 -0.52120803464E+03  0.10958789980E+04  0.11523140402E+02  0.12135662279E+04  0.12699999809E+01 0. -1.
</event>
<event>
 5   0  0.8948286E-06  0.2495590E+04  0.7818609E-02  0.8404558E-01
       -2   -1    0    0    0  501  0.00000000000E+00  0.00000000000E+00  0.63638931966E+03  0.63638931966E+03  0.25500000920E-02 0. -1.
        2   -1    0    0  501    0  0.00000000000E+00  0.00000000000E+00 -0.24466026155E+04  0.24466026155E+04  0.25500000920E-02 0.  1.
    10030    2    1    2    0    0  0.00000000000E+00  0.00000000000E+00 -0.18102132958E+04  0.30829919351E+04  0.24955895287E+04 0.  0.
        4    1    3    3  502    0 -0.54157074101E+03  0.85890471925E+03 -0.18010516737E+04  0.20675601390E+04  0.12699999809E+01 0.  1.
       -4    1    3    3    0  502  0.54157074101E+03 -0.85890471925E+03 -0.91616220841E+01  0.10154317961E+04  0.12699999809E+01 0. -1.
</event>
<event>
 5   0  0.8354653E-06  0.2497558E+04  0.7818609E-02  0.8403856E-01
        2   -1    0    0  501    0  0.00000000000E+00  0.00000000000E+00  0.20301298138E+04  0.20301298138E+04  0.25500000920E-02 0.  1.
       -2   -1    0    0    0  501  0.00000000000E+00  0.00000000000E+00 -0.76815238637E+03  0.76815238638E+03  0.25500000920E-02 0. -1.
    10030    2    1    2    0    0  0.00000000000E+00  0.00000000000E+00  0.12619774274E+04  0.27982822001E+04  0.24975580563E+04 0.  0.
        3    1    3    3  502    0 -0.10741980903E+04 -0.60399052212E+03  0.85714164502E+03  0.15011322053E+04  0.10100000352E+00 0.  1.
       -3    1    3    3    0  502  0.10741980903E+04  0.60399052212E+03  0.40483578238E+03  0.12971499948E+04  0.10100000352E+00 0. -1.
</event>
<event>
 5   0  0.3522870E-06  0.2516933E+04  0.7818609E-02  0.8396978E-01
       -1   -1    0    0    0  501  0.00000000000E+00  0.00000000000E+00  0.14782567943E+04  0.14782567943E+04  0.50400001928E-02 0.  1.
        1   -1    0    0  501    0  0.00000000000E+00  0.00000000000E+00 -0.10713547110E+04  0.10713547110E+04  0.50400001928E-02 0. -1.
    10030    2    1    2    0    0  0.00000000000E+00  0.00000000000E+00  0.40690208328E+03  0.25496115054E+04  0.25169325623E+04 0.  0.
        2    1    3    3  502    0 -0.45633344433E+03 -0.10987411421E+03 -0.97936725288E+03  0.10860353352E+04  0.25500000920E-02 0. -1.
       -2    1    3    3    0  502  0.45633344433E+03  0.10987411421E+03  0.13862693362E+04  0.14635761701E+04  0.25500000920E-02 0.  1.
</event>
<event>
 5   0  0.3424193E-06  0.2502743E+04  0.7818609E-02  0.8402009E-01
       -1   -1    0    0    0  501  0.00000000000E+00  0.00000000000E+00  0.25226527975E+04  0.25226527975E+04  0.50400001928E-02 0.  1.
        1   -1    0    0  501    0  0.00000000000E+00  0.00000000000E+00 -0.62074771259E+03  0.62074771261E+03  0.50400001928E-02 0. -1.
    10030    2    1    2    0    0  0.00000000000E+00  0.00000000000E+00  0.19019050849E+04  0.31434005101E+04  0.25027432579E+04 0.  0.
        1    1    3    3  502    0  0.39259718996E+03  0.91005065653E+03  0.19104489846E+04  0.21522407100E+04  0.50400001928E-02 0.  1.
       -1    1    3    3    0  502 -0.39259718996E+03 -0.91005065653E+03 -0.85438997362E+01  0.99115980006E+03  0.50400001928E-02 0. -1.
</event>
<event>
 5   0  0.3642184E-06  0.2501104E+04  0.7818609E-02  0.8402592E-01
        1   -1    0    0  501    0  0.00000000000E+00  0.00000000000E+00  0.12767560395E+04  0.12767560395E+04  0.50400001928E-02 0.  1.
       -1   -1    0    0    0  501  0.00000000000E+00  0.00000000000E+00 -0.12248853190E+04  0.12248853190E+04  0.50400001928E-02 0. -1.
    10030    2    1    2    0    0  0.00000000000E+00  0.00000000000E+00  0.51870720558E+02  0.25016413585E+04  0.25011035395E+04 0.  0.
        5    1    3    3  502    0  0.44044976524E+03 -0.10992872751E+03 -0.11395522260E+04  0.12266546729E+04  0.46999998093E+01 0. -1.
       -5    1    3    3    0  502 -0.44044976524E+03  0.10992872751E+03  0.11914229466E+04  0.12749866856E+04  0.46999998093E+01 0.  1.
</event>
<event>
 5   0  0.8579923E-06  0.2496159E+04  0.7818609E-02  0.8404355E-01
        2   -1    0    0  501    0  0.00000000000E+00  0.00000000000E+00  0.13561165711E+04  0.13561165711E+04  0.25500000920E-02 0. -1.
       -2   -1    0    0    0  501  0.00000000000E+00  0.00000000000E+00 -0.11486490883E+04  0.11486490883E+04  0.25500000920E-02 0.  1.
    10030    2    1    2    0    0  0.00000000000E+00  0.00000000000E+00  0.20746748276E+03  0.25047656594E+04  0.24961586993E+04 0.  0.
        1    1    3    3  502    0 -0.81716194280E+03 -0.77947372174E+02  0.10471204430E+04  0.13305227002E+04  0.50400001928E-02 0. -1.
       -1    1    3    3    0  502  0.81716194280E+03  0.77947372174E+02 -0.83965296023E+03  0.11742429592E+04  0.50400001928E-02 0.  1.
</event>
<event>
 5   0  0.8407986E-06  0.2474342E+04  0.7818609E-02  0.8412184E-01
       -2   -1    0    0    0  501  0.00000000000E+00  0.00000000000E+00  0.86560851466E+03  0.86560851467E+03  0.25500000920E-02 0.  1.
        2   -1    0    0  501    0  0.00000000000E+00  0.00000000000E+00 -0.17682272582E+04  0.17682272582E+04  0.25500000920E-02 0. -1.
    10030    2    1    2    0    0  0.00000000000E+00  0.00000000000E+00 -0.90261874352E+03  0.26338357729E+04  0.24743423939E+04 0.  0.
        5    1    3    3  502    0 -0.24597351180E+03 -0.76927957284E+03 -0.14488819785E+04  0.16587872399E+04  0.46999998093E+01 0. -1.
       -5    1    3    3    0  502  0.24597351180E+03  0.76927957284E+03  0.54626323497E+03  0.97504853294E+03  0.46999998093E+01 0.  1.
</event>
<event>
 5   0  0.8948286E-06  0.2497868E+04  0.7818609E-02  0.8403746E-01
       -2   -1    0    0    0  501  0.00000000000E+00  0.00000000000E+00  0.14648007674E+04  0.14648007674E+04  0.25500000920E-02 0.  1.
        2   -1    0    0  501    0  0.00000000000E+00  0.00000000000E+00 -0.10648791972E+04  0.10648791972E+04  0.25500000920E-02 0. -1.
    10030    2    1    2    0    0  0.00000000000E+00  0.00000000000E+00  0.39992157028E+03  0.25296799646E+04  0.24978677829E+04 0.  0.
        4    1    3    3  502    0  0.23399780011E+03  0.24499400375E+03 -0.10174542377E+04  0.10723766927E+04  0.12699999809E+01 0. -1.
       -4    1    3    3    0  502 -0.23399780011E+03 -0.24499400375E+03  0.14173758080E+04  0.14573032719E+04  0.12699999809E+01 0.  1.
</event>
<event>
 5   0  0.3642184E-06  0.2429350E+04  0.7818609E-02  0.8428596E-01
       -1   -1    0    0    0  501  0.00000000000E+00  0.00000000000E+00  0.94995425009E+03  0.94995425011E+03  0.50400001928E-02 0. -1.
        1   -1    0    0  501    0  0.00000000000E+00  0.00000000000E+00 -0.15531648089E+04  0.15531648089E+04  0.50400001928E-02 0.  1.
    10030    2    1    2    0    0  0.00000000000E+00  0.00000000000E+00 -0.60321055877E+03  0.25031190590E+04  0.24293501282E+04 0.  0.
        5    1    3    3  502    0 -0.47099246964E+03  0.30968603206E+03  0.80701941832E+03  0.98439919568E+03  0.46999998093E+01 0. -1.
       -5    1    3    3    0  502  0.47099246964E+03 -0.30968603206E+03 -0.14102299771E+04  0.15187198633E+04  0.46999998093E+01 0.  1.
</event>
<event>
 5   0  0.3424193E-06  0.2497020E+04  0.7818609E-02  0.8404048E-01
        1   -1    0    0  501    0  0.00000000000E+00  0.00000000000E+00  0.17547635740E+04  0.17547635740E+04  0.50400001928E-02 0. -1.
       -1   -1    0    0    0  501  0.00000000000E+00  0.00000000000E+00 -0.88831168856E+03  0.88831168858E+03  0.50400001928E-02 0.  1.
    10030    2    1    2    0    0  0.00000000000E+00  0.00000000000E+00  0.86645188540E+03  0.26430752625E+04  0.24970198185E+04 0.  0.
        1    1    3    3  502    0  0.11224127342E+01  0.61137764316E+03 -0.71902070559E+03  0.94380859154E+03  0.50400001928E-02 0.  1.
       -1    1    3    3    0  502 -0.11224127342E+01 -0.61137764316E+03  0.15854725910E+04  0.16992666710E+04  0.50400001928E-02 0. -1.
</event>
<event>
 5   0  0.3522870E-06  0.2490684E+04  0.7818609E-02  0.8406312E-01
       -1   -1    0    0    0  501  0.00000000000E+00  0.00000000000E+00  0.17586192165E+04  0.17586192165E+04  0.50400001928E-02 0.  1.
        1   -1    0    0  501    0  0.00000000000E+00  0.00000000000E+00 -0.88187176874E+03  0.88187176876E+03  0.50400001928E-02 0. -1.
    10030    2    1    2    0    0  0.00000000000E+00  0.00000000000E+00  0.87674744774E+03  0.26404909852E+04  0.24906839535E+04 0.  0.
        2    1    3    3  502    0 -0.85753435206E+03  0.51619538982E+03  0.12239231481E+04  0.15810789727E+04  0.25500000920E-02 0.  1.
       -2    1    3    3    0  502  0.85753435206E+03 -0.51619538982E+03 -0.34717570036E+03  0.10594120126E+04  0.25500000920E-02 0. -1.
</event>
<event>
 5   0  0.3522870E-06  0.2500664E+04  0.7818609E-02  0.8402749E-01
        1   -1    0    0  501    0  0.00000000000E+00  0.00000000000E+00  0.15095407071E+04  0.15095407071E+04  0.50400001928E-02 0.  1.
       -1   -1    0    0    0  501  0.00000000000E+00  0.00000000000E+00 -0.10356331667E+04  0.10356331667E+04  0.50400001928E-02 0. -1.
    10030    2    1    2    0    0  0.00000000000E+00  0.00000000000E+00  0.47390754042E+03  0.25451738738E+04  0.25006642500E+04 0.  0.
        2    1    3    3  502    0  0.48600873486E+03 -0.32033209411E+03 -0.88931961435E+03  0.10628765297E+04  0.25500000920E-02 0. -1.
       -2    1    3    3    0  502 -0.48600873486E+03  0.32033209411E+03  0.13632271548E+04  0.14822973441E+04  0.25500000920E-02 0.  1.
</event>
<event>
 5   0  0.3642184E-06  0.2513594E+04  0.7818609E-02  0.8398159E-01
        1   -1    0    0  501    0  0.00000000000E+00  0.00000000000E+00  0.14722706742E+04  0.14722706742E+04  0.50400001928E-02 0.  1.
       -1   -1    0    0    0  501  0.00000000000E+00  0.00000000000E+00 -0.10728587319E+04  0.10728587319E+04  0.50400001928E-02 0. -1.
    10030    2    1    2    0    0  0.00000000000E+00  0.00000000000E+00  0.39941194231E+03  0.25451294061E+04  0.25135938005E+04 0.  0.
        5    1    3    3  502    0  0.65101045126E+03 -0.55522665047E+03  0.11318122604E+04  0.14188418953E+04  0.46999998093E+01 0.  1.
       -5    1    3    3    0  502 -0.65101045126E+03  0.55522665047E+03 -0.73240031808E+03  0.11262875108E+04  0.46999998093E+01 0. -1.
</event>
<event>
 5   0  0.8579923E-06  0.2496981E+04  0.7818609E-02  0.8404062E-01
        2   -1    0    0  501    0  0.00000000000E+00  0.00000000000E+00  0.90128689434E+03  0.90128689435E+03  0.25500000920E-02 0.  1.
       -2   -1    0    0    0  501  0.00000000000E+00  0.00000000000E+00 -0.17294469895E+04  0.17294469895E+04  0.25500000920E-02 0. -1.
    10030    2    1    2    0    0  0.00000000000E+00  0.00000000000E+00 -0.82816009519E+03  0.26307338839E+04  0.24969805014E+04 0.  0.
        1    1    3    3  502    0  0.21378790822E+03 -0.73406736683E+03  0.62578896988E+03  0.98801417176E+03  0.50400001928E-02 0.  1.
       -1    1    3    3    0  502 -0.21378790822E+03  0.73406736683E+03 -0.14539490651E+04  0.16427197121E+04  0.50400001928E-02 0. -1.
</event>
<event>
 5   0  0.3522870E-06  0.2496460E+04  0.7818609E-02  0.8404248E-01
        1   -1    0    0  501    0  0.00000000000E+00  0.00000000000E+00  0.17030140481E+04  0.17030140481E+04  0.50400001928E-02 0. -1.
       -1   -1    0    0    0  501  0.00000000000E+00  0.00000000000E+00 -0.91489415521E+03  0.91489415523E+03  0.50400001928E-02 0.  1.
    10030    2    1    2    0    0  0.00000000000E+00  0.00000000000E+00  0.78811989285E+03  0.26179082033E+04  0.24964595721E+04 0.  0.
        2    1    3    3  502    0  0.68496273342E+02  0.12433270562E+04  0.30310101588E+03  0.12815709633E+04  0.25500000920E-02 0.  1.
       -2    1    3    3    0  502 -0.68496273342E+02 -0.12433270562E+04  0.48501887697E+03  0.13363372400E+04  0.25500000920E-02 0. -1.
</event>
<event>
 5   0  0.3424193E-06  0.2512944E+04  0.7818609E-02  0.8398389E-01
        1   -1    0    0  501    0  0.00000000000E+00  0.00000000000E+00  0.14940412361E+04  0.14940412361E+04  0.50400001928E-02 0. -1.
       -1   -1    0    0    0  501  0.00000000000E+00  0.00000000000E+00 -0.10566788199E+04  0.10566788199E+04  0.50400001928E-02 0.  1.
    10030    2    1    2    0    0  0.00000000000E+00  0.00000000000E+00  0.43736241622E+03  0.25507200560E+04  0.25129438754E+04 0.  0.
        1    1    3    3  502    0  0.10813477747E+02 -0.60284626297E+03  0.13376050445E+04  0.14672177082E+04  0.50400001928E-02 0. -1.
       -1    1    3    3    0  502 -0.10813477747E+02  0.60284626297E+03 -0.90024262825E+03  0.10835023479E+04  0.50400001928E-02 0.  1.
</event>
<event>
 5   0  0.8948286E-06  0.2499471E+04  0.7818609E-02  0.8403174E-01
        2   -1    0    0  501    0  0.00000000000E+00  0.00000000000E+00  0.10988632185E+04  0.10988632185E+04  0.25500000920E-02 0. -1.
       -2   -1    0    0    0  501  0.00000000000E+00  0.00000000000E+00 -0.14213228528E+04  0.14213228528E+04  0.25500000920E-02 0.  1.
    10030    2    1    2    0    0  0.00000000000E+00  0.00000000000E+00 -0.32245963426E+03  0.25201860713E+04  0.24994714678E+04 0.  0.
        4    1    3    3  502    0  0.11453451555E+04 -0.54638531536E+02 -0.66237704865E+03  0.13242151871E+04  0.12699999809E+01 0.  1.
       -4    1    3    3    0  502 -0.11453451555E+04  0.54638531536E+02  0.33991741439E+03  0.11959708842E+04  0.12699999809E+01 0. -1.
</event>
<event>
 5   0  0.3642184E-06  0.2500264E+04  0.7818609E-02  0.8402891E-01
       -1   -1    0    0    0  501  0.00000000000E+00  0.00000000000E+00  0.14580915181E+04  0.14580915181E+04  0.50400001928E-02 0. -1.
        1   -1    0    0  501    0  0.00000000000E+00  0.00000000000E+00 -0.10718326223E+04  0.10718326223E+04  0.50400001928E-02 0.  1.
    10030    2    1    2    0    0  0.00000000000E+00  0.00000000000E+00  0.38625889577E+03  0.25299241404E+04  0.25002640303E+04 0.  0.
        5    1    3    3  502    0 -0.44595977095E+03  0.78432459643E+03 -0.68244635043E+03  0.11312825912E+04  0.46999998093E+01 0.  1.
       -5    1    3    3    0  502  0.44595977095E+03 -0.78432459643E+03  0.10687052462E+04  0.13986415492E+04  0.46999998093E+01 0. -1.
</event>
<event>
 5   0  0.3642184E-06  0.2500611E+04  0.7818609E-02  0.8402768E-01
        1   -1    0    0  501    0  0.00000000000E+00  0.00000000000E+00  0.20307505590E+04  0.20307505590E+04  0.50400001928E-02 0.  1.
       -1   -1    0    0    0  501  0.00000000000E+00  0.00000000000E+00 -0.76979602011E+03  0.76979602013E+03  0.50400001928E-02 0. -1.
    10030    2    1    2    0    0  0.00000000000E+00  0.00000000000E+00  0.12609545389E+04  0.28005465792E+04  0.25006108839E+04 0.  0.
        5    1    3    3  502    0 -0.10389588681E+04 -0.53554996350E+03  0.11275515875E+04  0.16240824996E+04  0.46999998093E+01 0. -1.
       -5    1    3    3    0  502  0.10389588681E+04  0.53554996350E+03  0.13340295147E+03  0.11764640796E+04  0.46999998093E+01 0.  1.
</event>
<event>
 5   0  0.3522870E-06  0.2493848E+04  0.7818609E-02  0.8405180E-01
       -1   -1    0    0    0  501  0.00000000000E+00  0.00000000000E+00  0.13840001551E+04  0.13840001551E+04  0.50400001928E-02 0.  1.
        1   -1    0    0  501    0  0.00000000000E+00  0.00000000000E+00 -0.11234245556E+04  0.11234245556E+04  0.50400001928E-02 0. -1.
    10030    2    1    2    0    0  0.00000000000E+00  0.00000000000E+00  0.26057559953E+03  0.25074247107E+04  0.24938482386E+04 0.  0.
        2    1    3    3  502    0  0.70157366230E+03  0.10304745309E+04  0.15757216138E+03  0.12565477900E+04  0.25500000920E-02 0. -1.
       -2    1    3    3    0  502 -0.70157366230E+03 -0.10304745309E+04  0.10300343815E+03  0.12508769207E+04  0.25500000920E-02 0.  1.
</event>
<event>
 5   0  0.8579923E-06  0.2502535E+04  0.7818609E-02  0.8402083E-01
        2   -1    0    0  501    0  0.00000000000E+00  0.00000000000E+00  0.91009345252E+03  0.91009345252E+03  0.25500000920E-02 0.  1.
       -2   -1    0    0    0  501  0.00000000000E+00  0.00000000000E+00 -0.17203400491E+04  0.17203400491E+04  0.25500000920E-02 0. -1.
    10030    2    1    2    0    0  0.00000000000E+00  0.00000000000E+00 -0.81024659657E+03  0.26304335016E+04  0.25025348867E+04 0.  0.
        1    1    3    3  502    0 -0.81922023353E+03  0.69130912458E+03 -0.10835887370E+04  0.15242029549E+04  0.50400001928E-02 0. -1.
       -1    1    3    3    0  502  0.81922023353E+03 -0.69130912458E+03  0.27334214041E+03  0.11062305467E+04  0.50400001928E-02 0.  1.
</event>
<event>
 5   0  0.3481387E-06  0.2514490E+04  0.7818609E-02  0.8397842E-01
        1   -1    0    0  501    0  0.00000000000E+00  0.00000000000E+00  0.21334379701E+04  0.21334379701E+04  0.50400001928E-02 0. -1.
       -1   -1    0    0    0  501  0.00000000000E+00  0.00000000000E+00 -0.74090028393E+03  0.74090028395E+03  0.50400001928E-02 0.  1.
    10030    2    1    2    0    0  0.00000000000E+00  0.00000000000E+00  0.13925376862E+04  0.28743382541E+04  0.25144898471E+04 0.  0.
        4    1    3    3  502    0  0.12263843958E+04  0.20195811171E+03  0.47980891708E+03  0.13323002571E+04  0.12699999809E+01 0.  1.
       -4    1    3    3    0  502 -0.12263843958E+04 -0.20195811171E+03  0.91272876909E+03  0.15420379970E+04  0.12699999809E+01 0. -1.
</event>
<event>
 5   0  0.8579923E-06  0.2503286E+04  0.7818609E-02  0.8401816E-01
        2   -1    0    0  501    0  0.00000000000E+00  0.00000000000E+00  0.23713103235E+04  0.23713103235E+04  0.25500000920E-02 0.  1.
       -2   -1    0    0    0  501  0.00000000000E+00  0.00000000000E+00 -0.66065191541E+03  0.66065191541E+03  0.25500000920E-02 0. -1.
    10030    2    1    2    0    0  0.00000000000E+00  0.00000000000E+00  0.17106584081E+04  0.30319622389E+04  0.25032864057E+04 0.  0.
        1    1    3    3  502    0 -0.90234534038E+03 -0.40568438457E+03 -0.73272405996E+02  0.99205633847E+03  0.50400001928E-02 0. -1.
       -1    1    3    3    0  502  0.90234534038E+03  0.40568438457E+03  0.17839308141E+04  0.20399059005E+04  0.50400001928E-02 0.  1.
</event>
<event>
 5   0  0.8354653E-06  0.2498310E+04  0.7818609E-02  0.8403588E-01
       -2   -1    0    0    0  501  0.00000000000E+00  0.00000000000E+00  0.13004538048E+04  0.13004538048E+04  0.25500000920E-02 0.  1.
        2   -1    0    0  501    0  0.00000000000E+00  0.00000000000E+00 -0.11998801830E+04  0.11998801830E+04  0.25500000920E-02 0. -1.
    10030    2    1    2    0    0  0.00000000000E+00  0.00000000000E+00  0.10057362186E+03  0.25003339878E+04  0.24983104285E+04 0.  0.
        3    1    3    3  502    0 -0.41619761314E+03  0.92108076652E+03  0.78489667402E+03  0.12797159961E+04  0.10100000352E+00 0.  1.
       -3    1    3    3    0  502  0.41619761314E+03 -0.92108076652E+03 -0.68432305216E+03  0.12206179917E+04  0.10100000352E+00 0. -1.
</event>
<event>
 5   0  0.8354653E-06  0.2500089E+04  0.7818609E-02  0.8402954E-01
       -2   -1    0    0    0  501  0.00000000000E+00  0.00000000000E+00  0.70053094074E+03  0.70053094075E+03  0.25500000920E-02 0.  1.
        2   -1    0    0  501    0  0.00000000000E+00  0.00000000000E+00 -0.22306098713E+04  0.22306098713E+04  0.25500000920E-02 0. -1.
    10030    2    1    2    0    0  0.00000000000E+00  0.00000000000E+00 -0.15300789306E+04  0.29311408121E+04  0.25000889837E+04 0.  0.
        3    1    3    3  502    0  0.48609774949E+03  0.27937410584E+03  0.54485267483E+03  0.78179623978E+03  0.10100000352E+00 0.  1.
       -3    1    3    3    0  502 -0.48609774949E+03 -0.27937410584E+03 -0.20749316054E+04  0.21493445723E+04  0.10100000352E+00 0. -1.
</event>
<event>
 5   0  0.3424193E-06  0.2498300E+04  0.7818609E-02  0.8403591E-01
       -1   -1    0    0    0  501  0.00000000000E+00  0.00000000000E+00  0.10208515780E+04  0.10208515780E+04  0.50400001928E-02 0.  1.
        1   -1    0    0  501    0  0.00000000000E+00  0.00000000000E+00 -0.15285045709E+04  0.15285045710E+04  0.50400001928E-02 0. -1.
    10030    2    1    2    0    0  0.00000000000E+00  0.00000000000E+00 -0.50765299299E+03  0.25493561489E+04  0.24983004649E+04 0.  0.
        1    1    3    3  502    0 -0.10569190257E+04  0.55498039687E+03  0.12151544308E+03  0.11999362778E+04  0.50400001928E-02 0.  1.
       -1    1    3    3    0  502  0.10569190257E+04 -0.55498039687E+03 -0.62916843606E+03  0.13494198712E+04  0.50400001928E-02 0. -1.
</event>
<event>
 5   0  0.3642184E-06  0.2495503E+04  0.7818609E-02  0.8404589E-01
        1   -1    0    0  501    0  0.00000000000E+00  0.00000000000E+00  0.16510310089E+04  0.16510310089E+04  0.50400001928E-02 0. -1.
       -1   -1    0    0    0  501  0.00000000000E+00  0.00000000000E+00 -0.94297703818E+03  0.94297703819E+03  0.50400001928E-02 0.  1.
    10030    2    1    2    0    0  0.00000000000E+00  0.00000000000E+00  0.70805397076E+03  0.25940080471E+04  0.24955034208E+04 0.  0.
        5    1    3    3  502    0 -0.65778475208E+03  0.18281361434E+03 -0.73159312354E+03  0.10006758646E+04  0.46999998093E+01 0.  1.
       -5    1    3    3    0  502  0.65778475208E+03 -0.18281361434E+03  0.14396470943E+04  0.15933321825E+04  0.46999998093E+01 0. -1.
</event>
<event>
 5   0  0.8354653E-06  0.2500979E+04  0.7818609E-02  0.8402637E-01
        2   -1    0    0  501    0  0.00000000000E+00  0.00000000000E+00  0.17693969856E+04  0.17693969856E+04  0.25500000920E-02 0. -1.
       -2   -1    0    0    0  501  0.00000000000E+00  0.00000000000E+00 -0.88376102153E+03  0.88376102154E+03  0.25500000920E-02 0.  1.
    10030    2    1    2    0    0  0.00000000000E+00  0.00000000000E+00  0.88563596403E+03  0.26531580071E+04  0.25009790783E+04 0.  0.
        3    1    3    3  502    0  0.10389660781E+04  0.66783601681E+03  0.65034491107E+03  0.13958524171E+04  0.10100000352E+00 0. -1.
       -3    1    3    3    0  502 -0.10389660781E+04 -0.66783601681E+03  0.23529105296E+03  0.12573055900E+04  0.10100000352E+00 0.  1.
</event>
<event>
 5   0  0.3642184E-06  0.2508679E+04  0.7818609E-02  0.8399900E-01
        1   -1    0    0  501    0  0.00000000000E+00  0.00000000000E+00  0.13620884007E+04  0.13620884007E+04  0.50400001928E-02 0.  1.
       -1   -1    0    0    0  501  0.00000000000E+00  0.00000000000E+00 -0.11551141289E+04  0.11551141289E+04  0.50400001928E-02 0. -1.
    10030    2    1    2    0    0  0.00000000000E+00  0.00000000000E+00  0.20697427178E+03  0.25172025297E+04  0.25086789803E+04 0.  0.
        5    1    3    3  502    0  0.54732561810E+03 -0.99371884667E+03 -0.43340372200E+03  0.12144559913E+04  0.46999998093E+01 0. -1.
       -5    1    3    3    0  502 -0.54732561810E+03  0.99371884667E+03  0.64037799378E+03  0.13027465384E+04  0.46999998093E+01 0.  1.
</event>
<event>
 5   0  0.8056723E-06  0.2500846E+04  0.7818609E-02  0.8402684E-01
       -2   -1    0    0    0  501  0.00000000000E+00  0.00000000000E+00  0.76148582110E+03  0.76148582111E+03  0.25500000920E-02 0. -1.
        2   -1    0    0  501    0  0.00000000000E+00  0.00000000000E+00 -0.20532980911E+04  0.20532980911E+04  0.25500000920E-02 0.  1.
    10030    2    1    2    0    0  0.00000000000E+00  0.00000000000E+00 -0.12918122700E+04  0.28147839122E+04  0.25008457633E+04 0.  0.
        2    1    3    3  502    0 -0.29062728607E+03 -0.11052393403E+04 -0.74717190407E+02  0.11452514472E+04  0.25500000920E-02 0. -1.
       -2    1    3    3    0  502  0.29062728607E+03  0.11052393403E+04 -0.12170950796E+04  0.16695324650E+04  0.25500000920E-02 0.  1.
</event>
<event>
 5   0  0.3424193E-06  0.2542598E+04  0.7818609E-02  0.8387965E-01
        1   -1    0    0  501    0  0.00000000000E+00  0.00000000000E+00  0.15371039246E+04  0.15371039246E+04  0.50400001928E-02 0. -1.
       -1   -1    0    0    0  501  0.00000000000E+00  0.00000000000E+00 -0.10514582410E+04  0.10514582410E+04  0.50400001928E-02 0.  1.
    10030    2    1    2    0    0  0.00000000000E+00  0.00000000000E+00  0.48564568366E+03  0.25885621656E+04  0.25425975606E+04 0.  0.
        1    1    3    3  502    0 -0.18417216531E+03 -0.10844710984E+04 -0.40603996099E+03  0.11725465447E+04  0.50400001928E-02 0.  1.
       -1    1    3    3    0  502  0.18417216531E+03  0.10844710984E+04  0.89168564465E+03  0.14160156209E+04  0.50400001928E-02 0. -1.
</event>
<event>
 5   0  0.3424193E-06  0.2503226E+04  0.7818609E-02  0.8401837E-01
        1   -1    0    0  501    0  0.00000000000E+00  0.00000000000E+00  0.21931995563E+04  0.21931995563E+04  0.50400001928E-02 0.  1.
       -1   -1    0    0    0  501  0.00000000000E+00  0.00000000000E+00 -0.71426918395E+03  0.71426918397E+03  0.50400001928E-02 0. -1.
    10030    2    1    2    0    0  0.00000000000E+00  0.00000000000E+00  0.14789303724E+04  0.29074687403E+04  0.25032258047E+04 0.  0.
        1    1    3    3  502    0 -0.61152372422E+03 -0.36648397148E+03 -0.45538058726E+03  0.84595700004E+03  0.50400001928E-02 0. -1.
       -1    1    3    3    0  502  0.61152372422E+03  0.36648397148E+03  0.19343109596E+04  0.20615117403E+04  0.50400001928E-02 0.  1.
</event>
<event>
 5   0  0.3481387E-06  0.2500861E+04  0.7818609E-02  0.8402679E-01
        1   -1    0    0  501    0  0.00000000000E+00  0.00000000000E+00  0.20271831776E+04  0.20271831776E+04  0.50400001928E-02 0.  1.
       -1   -1    0    0    0  501  0.00000000000E+00  0.00000000000E+00 -0.77130505506E+03  0.77130505508E+03  0.50400001928E-02 0. -1.
    10030    2    1    2    0    0  0.00000000000E+00  0.00000000000E+00  0.12558781225E+04  0.27984882327E+04  0.25008611576E+04 0.  0.
        4    1    3    3  502    0 -0.38756337001E+03 -0.10730194615E+04  0.55164622312E+02  0.11422000171E+04  0.12699999809E+01 0. -1.
       -4    1    3    3    0  502  0.38756337001E+03  0.10730194615E+04  0.12007135002E+04  0.16562882156E+04  0.12699999809E+01 0.  1.
</event>
<event>
 5   0  0.8948286E-06  0.2494386E+04  0.7818609E-02  0.8404988E-01
        2   -1    0    0  501    0  0.00000000000E+00  0.00000000000E+00  0.16328564567E+04  0.16328564567E+04  0.25500000920E-02 0. -1.
       -2   -1    0    0    0  501  0.00000000000E+00  0.00000000000E+00 -0.95261881202E+03  0.95261881203E+03  0.25500000920E-02 0.  1.
    10030    2    1    2    0    0  0.00000000000E+00  0.00000000000E+00  0.68023764469E+03  0.25854752687E+04  0.24943855179E+04 0.  0.
        4    1    3    3  502    0 -0.38464721432E+02 -0.10232138591E+04  0.10781909267E+04  0.14869241485E+04  0.12699999809E+01 0. -1.
       -4    1    3    3    0  502  0.38464721432E+02  0.10232138591E+04 -0.39795328198E+03  0.10985511202E+04  0.12699999809E+01 0.  1.
</event>
<event>
 5   0  0.3484857E-06  0.2500939E+04  0.7818609E-02  0.8402651E-01
        1   -1    0    0  501    0  0.00000000000E+00  0.00000000000E+00  0.11278739077E+04  0.11278739078E+04  0.50400001928E-02 0. -1.
       -1   -1    0    0    0  501  0.00000000000E+00  0.00000000000E+00 -0.13863905300E+04  0.13863905300E+04  0.50400001928E-02 0.  1.
    10030    2    1    2    0    0  0.00000000000E+00  0.00000000000E+00 -0.25851662227E+03  0.25142644378E+04  0.25009387876E+04 0.  0.
        3    1    3    3  502    0 -0.10734966146E+04 -0.19814271563E+03  0.48392449814E+03  0.11940847740E+04  0.10100000352E+00 0. -1.
       -3    1    3    3    0  502  0.10734966146E+04  0.19814271563E+03 -0.74244112042E+03  0.13201796638E+04  0.10100000352E+00 0.  1.
</event>
<event>
 5   0  0.3642184E-06  0.2499576E+04  0.7818609E-02  0.8403137E-01
        1   -1    0    0  501    0  0.00000000000E+00  0.00000000000E+00  0.20899270758E+04  0.20899270758E+04  0.50400001928E-02 0.  1.
       -1   -1    0    0    0  501  0.00000000000E+00  0.00000000000E+00 -0.74738027552E+03  0.74738027553E+03  0.50400001928E-02 0. -1.
    10030    2    1    2    0    0  0.00000000000E+00  0.00000000000E+00  0.13425468003E+04  0.28373073513E+04  0.24995761831E+04 0.  0.
        5    1    3    3  502    0 -0.15216115813E+03  0.62042508658E+03  0.18905943817E+04  0.19956075547E+04  0.46999998093E+01 0.  1.
       -5    1    3    3    0  502  0.15216115813E+03 -0.62042508658E+03 -0.54804758147E+03  0.84169979663E+03  0.46999998093E+01 0. -1.
</event>
<event>
 5   0  0.3481387E-06  0.2497263E+04  0.7818609E-02  0.8403961E-01
       -1   -1    0    0    0  501  0.00000000000E+00  0.00000000000E+00  0.11262674514E+04  0.11262674515E+04  0.50400001928E-02 0.  1.
        1   -1    0    0  501    0  0.00000000000E+00  0.00000000000E+00 -0.13842894242E+04  0.13842894243E+04  0.50400001928E-02 0. -1.
    10030    2    1    2    0    0  0.00000000000E+00  0.00000000000E+00 -0.25802197280E+03  0.25105568757E+04  0.24972625989E+04 0.  0.
        4    1    3    3  502    0 -0.60646736558E+03  0.10501538406E+04  0.16998236625E+03  0.12245494568E+04  0.12699999809E+01 0.  1.
       -4    1    3    3    0  502  0.60646736558E+03 -0.10501538406E+04 -0.42800433906E+03  0.12860074189E+04  0.12699999809E+01 0. -1.
</event>
<event>
 5   0  0.8056723E-06  0.2505332E+04  0.7818609E-02  0.8401088E-01
        2   -1    0    0  501    0  0.00000000000E+00  0.00000000000E+00  0.18619261395E+04  0.18619261395E+04  0.25500000920E-02 0. -1.
       -2   -1    0    0    0  501  0.00000000000E+00  0.00000000000E+00 -0.84276839359E+03  0.84276839359E+03  0.25500000920E-02 0.  1.
    10030    2    1    2    0    0  0.00000000000E+00  0.00000000000E+00  0.10191577459E+04  0.27046945331E+04  0.25053323145E+04 0.  0.
        2    1    3    3  502    0  0.94987645987E+03 -0.46834202985E+03  0.12318162325E+04  0.16244940063E+04  0.25500000920E-02 0. -1.
       -2    1    3    3    0  502 -0.94987645987E+03  0.46834202985E+03 -0.21265848665E+03  0.10802005267E+04  0.25500000920E-02 0.  1.
</event>
<event>
 5   0  0.8948286E-06  0.2488461E+04  0.7818609E-02  0.8407108E-01
        2   -1    0    0  501    0  0.00000000000E+00  0.00000000000E+00  0.16029695476E+04  0.16029695476E+04  0.25500000920E-02 0.  1.
       -2   -1    0    0    0  501  0.00000000000E+00  0.00000000000E+00 -0.96577623920E+03  0.96577623921E+03  0.25500000920E-02 0. -1.
    10030    2    1    2    0    0  0.00000000000E+00  0.00000000000E+00  0.63719330843E+03  0.25687457868E+04  0.24884612927E+04 0.  0.
        4    1    3    3  502    0 -0.95167774151E+03 -0.34178797872E+03 -0.42977511414E+03  0.10987346394E+04  0.12699999809E+01 0. -1.
       -4    1    3    3    0  502  0.95167774151E+03  0.34178797872E+03  0.10669684226E+04  0.14700111475E+04  0.12699999809E+01 0.  1.
</event>
<event>
 5   0  0.8948286E-06  0.2505519E+04  0.7818609E-02  0.8401022E-01
       -2   -1    0    0    0  501  0.00000000000E+00  0.00000000000E+00  0.16159381752E+04  0.16159381752E+04  0.25500000920E-02 0.  1.
        2   -1    0    0  501    0  0.00000000000E+00  0.00000000000E+00 -0.97120451711E+03  0.97120451711E+03  0.25500000920E-02 0. -1.
    10030    2    1    2    0    0  0.00000000000E+00  0.00000000000E+00  0.64473365810E+03  0.25871426923E+04  0.25055190721E+04 0.  0.
        4    1    3    3  502    0 -0.46968441005E+03  0.81777016724E+03 -0.52915181654E+03  0.10813670743E+04  0.12699999809E+01 0. -1.
       -4    1    3    3    0  502  0.46968441005E+03 -0.81777016724E+03  0.11738854746E+04  0.15057756181E+04  0.12699999809E+01 0.  1.
</event>
<event>
 5   0  0.3481387E-06  0.2514509E+04  0.7818609E-02  0.8397835E-01
        1   -1    0    0  501    0  0.00000000000E+00  0.00000000000E+00  0.13853597444E+04  0.13853597444E+04  0.50400001928E-02 0. -1.
       -1   -1    0    0    0  501  0.00000000000E+00  0.00000000000E+00 -0.11409949005E+04  0.11409949005E+04  0.50400001928E-02 0.  1.
    10030    2    1    2    0    0  0.00000000000E+00  0.00000000000E+00  0.24436484386E+03  0.25263546449E+04  0.25145086229E+04 0.  0.
        4    1    3    3  502    0 -0.85691710030E+03 -0.25431100009E+03 -0.76612410023E+03  0.11772547521E+04  0.12699999809E+01 0.  1.
       -4    1    3    3    0  502  0.85691710030E+03  0.25431100009E+03  0.10104889441E+04  0.13490998927E+04  0.12699999809E+01 0. -1.
</event>
<event>
 5   0  0.8056723E-06  0.2506306E+04  0.7818609E-02  0.8400743E-01
        2   -1    0    0  501    0  0.00000000000E+00  0.00000000000E+00  0.33332255200E+04  0.33332255200E+04  0.25500000920E-02 0. -1.
       -2   -1    0    0    0  501  0.00000000000E+00  0.00000000000E+00 -0.47113287579E+03  0.47113287580E+03  0.25500000920E-02 0.  1.
    10030    2    1    2    0    0  0.00000000000E+00  0.00000000000E+00  0.28620926442E+04  0.38043583958E+04  0.25063057474E+04 0.  0.
        2    1    3    3  502    0  0.46473192235E+03  0.10846418151E+04  0.20713985743E+04  0.23839286232E+04  0.25500000920E-02 0. -1.
       -2    1    3    3    0  502 -0.46473192235E+03 -0.10846418151E+04  0.79069406988E+03  0.14204297726E+04  0.25500000920E-02 0.  1.
</event>
<event>
 5   0  0.8948286E-06  0.2518266E+04  0.7818609E-02  0.8396507E-01
       -2   -1    0    0    0  501  0.00000000000E+00  0.00000000000E+00  0.14405359328E+04  0.14405359328E+04  0.25500000920E-02 0. -1.
        2   -1    0    0  501    0  0.00000000000E+00  0.00000000000E+00 -0.11005739090E+04  0.11005739090E+04  0.25500000920E-02 0.  1.
    10030    2    1    2    0    0  0.00000000000E+00  0.00000000000E+00  0.33996202383E+03  0.25411098419E+04  0.25182662788E+04 0.  0.
        4    1    3    3  502    0  0.47772853088E+03 -0.59654514702E+03 -0.83975791305E+03  0.11354671405E+04  0.12699999809E+01 0.  1.
       -4    1    3    3    0  502 -0.47772853088E+03  0.59654514702E+03  0.11797199369E+04  0.14056427014E+04  0.12699999809E+01 0. -1.
</event>
<event>
 5   0  0.8407986E-06  0.2490696E+04  0.7818609E-02  0.8406308E-01
       -2   -1    0    0    0  501  0.00000000000E+00  0.00000000000E+00  0.19785476196E+04  0.19785476196E+04  0.25500000920E-02 0. -1.
        2   -1    0    0  501    0  0.00000000000E+00  0.00000000000E+00 -0.78385352883E+03  0.78385352884E+03  0.25500000920E-02 0.  1.
    10030    2    1    2    0    0  0.00000000000E+00  0.00000000000E+00  0.11946940908E+04  0.27624011485E+04  0.24906959137E+04 0.  0.
        5    1    3    3  502    0 -0.44074518654E+03  0.21377932469E+03  0.18671979375E+04  0.19303906720E+04  0.46999998093E+01 0. -1.
       -5    1    3    3    0  502  0.44074518654E+03 -0.21377932469E+03 -0.67250384665E+03  0.83201047642E+03  0.46999998093E+01 0.  1.
</event>
<event>
 5   0  0.2901250E-06  0.2495636E+04  0.7818609E-02  0.8404542E-01
       -4   -1    0    0    0  501  0.00000000000E+00  0.00000000000E+00  0.14284277533E+04  0.14284283178E+04  0.12699999809E+01 0.  1.
        4   -1    0    0  501    0  0.00000000000E+00  0.00000000000E+00 -0.10900430119E+04  0.10900437517E+04  0.12699999809E+01 0. -1.
    10030    2    1    2    0    0  0.00000000000E+00  0.00000000000E+00  0.33838474141E+03  0.25184720695E+04  0.24956356569E+04 0.  0.
        1    1    3    3  502    0 -0.12217150773E+04 -0.18298206535E+03 -0.84272023824E+01  0.12353708690E+04  0.50400001928E-02 0. -1.
       -1    1    3    3    0  502  0.12217150773E+04  0.18298206535E+03  0.34681194379E+03  0.12831012005E+04  0.50400001928E-02 0.  1.
</event>
<event>
 5   0  0.8407986E-06  0.2504719E+04  0.7818609E-02  0.8401306E-01
       -2   -1    0    0    0  501  0.00000000000E+00  0.00000000000E+00  0.96576955934E+03  0.96576955934E+03  0.25500000920E-02 0. -1.
        2   -1    0    0  501    0  0.00000000000E+00  0.00000000000E+00 -0.16239943928E+04  0.16239943928E+04  0.25500000920E-02 0.  1.
    10030    2    1    2    0    0  0.00000000000E+00  0.00000000000E+00 -0.65822483351E+03  0.25897639522E+04  0.25047190255E+04 0.  0.
        5    1    3    3  502    0  0.75140574479E+03 -0.53173318001E+02 -0.13635543433E+04  0.15577999012E+04  0.46999998093E+01 0.  1.
       -5    1    3    3    0  502 -0.75140574479E+03  0.53173318001E+02  0.70532950982E+03  0.10319640510E+04  0.46999998093E+01 0. -1.
</event>
<event>
 5   0  0.3642184E-06  0.2499127E+04  0.7818609E-02  0.8403297E-01
       -1   -1    0    0    0  501  0.00000000000E+00  0.00000000000E+00  0.13036949084E+04  0.13036949084E+04  0.50400001928E-02 0. -1.
        1   -1    0    0  501    0  0.00000000000E+00  0.00000000000E+00 -0.11976796028E+04  0.11976796028E+04  0.50400001928E-02 0.  1.
    10030    2    1    2    0    0  0.00000000000E+00  0.00000000000E+00  0.10601530559E+03  0.25013745112E+04  0.24991268876E+04 0.  0.
        5    1    3    3  502    0  0.76634244562E+02  0.31023299395E+03  0.12620963178E+04  0.13019318428E+04  0.46999998093E+01 0. -1.
       -5    1    3    3    0  502 -0.76634244562E+02 -0.31023299395E+03 -0.11560810122E+04  0.11994426684E+04  0.46999998093E+01 0.  1.
</event>
<event>
 5   0  0.3522870E-06  0.2489976E+04  0.7818609E-02  0.8406565E-01
        1   -1    0    0  501    0  0.00000000000E+00  0.00000000000E+00  0.24040975387E+04  0.24040975387E+04  0.50400001928E-02 0.  1.
       -1   -1    0    0    0  501  0.00000000000E+00  0.00000000000E+00 -0.64473051735E+03  0.64473051737E+03  0.50400001928E-02 0. -1.
    10030    2    1    2    0    0  0.00000000000E+00  0.00000000000E+00  0.17593670214E+04  0.30488280561E+04  0.24899759436E+04 0.  0.
        2    1    3    3  502    0  0.58877240157E+03  0.73807866671E+03 -0.11398769764E+03  0.95100276252E+03  0.25500000920E-02 0. -1.
       -2    1    3    3    0  502 -0.58877240157E+03 -0.73807866671E+03  0.18733547190E+04  0.20978252936E+04  0.25500000920E-02 0.  1.
</event>
<event>
 5   0  0.8579923E-06  0.2444020E+04  0.7818609E-02  0.8423205E-01
        2   -1    0    0  501    0  0.00000000000E+00  0.00000000000E+00  0.11526431300E+04  0.11526431300E+04  0.25500000920E-02 0.  1.
       -2   -1    0    0    0  501  0.00000000000E+00  0.00000000000E+00 -0.12955515814E+04  0.12955515814E+04  0.25500000920E-02 0. -1.
    10030    2    1    2    0    0  0.00000000000E+00  0.00000000000E+00 -0.14290845145E+03  0.24481947114E+04  0.24440201553E+04 0.  0.
        1    1    3    3  502    0  0.37000923959E+03 -0.56289749858E+03 -0.10927781080E+04  0.12837150870E+04  0.50400001928E-02 0.  1.
       -1    1    3    3    0  502 -0.37000923959E+03  0.56289749858E+03  0.94986965651E+03  0.11644796244E+04  0.50400001928E-02 0. -1.
</event>
<event>
 5   0  0.3481387E-06  0.2499948E+04  0.7818609E-02  0.8403004E-01
        1   -1    0    0  501    0  0.00000000000E+00  0.00000000000E+00  0.21385655566E+04  0.21385655566E+04  0.50400001928E-02 0.  1.
       -1   -1    0    0    0  501  0.00000000000E+00  0.00000000000E+00 -0.73059956855E+03  0.73059956857E+03  0.50400001928E-02 0. -1.
    10030    2    1    2    0    0  0.00000000000E+00  0.00000000000E+00  0.14079659881E+04  0.28691651252E+04  0.24999480579E+04 0.  0.
        4    1    3    3  502    0  0.23463323281E+03  0.11233140101E+04  0.13527243553E+03  0.11555030783E+04  0.12699999809E+01 0. -1.
       -4    1    3    3    0  502 -0.23463323281E+03 -0.11233140101E+04  0.12726935525E+04  0.17136620469E+04  0.12699999809E+01 0.  1.
</event>
<event>
 5   0  0.8354653E-06  0.2497445E+04  0.7818609E-02  0.8403896E-01
       -2   -1    0    0    0  501  0.00000000000E+00  0.00000000000E+00  0.18716097052E+04  0.18716097052E+04  0.25500000920E-02 0.  1.
        2   -1    0    0  501    0  0.00000000000E+00  0.00000000000E+00 -0.83313750410E+03  0.83313750410E+03  0.25500000920E-02 0. -1.
    10030    2    1    2    0    0  0.00000000000E+00  0.00000000000E+00  0.10384722011E+04  0.27047472093E+04  0.24974452854E+04 0.  0.
        3    1    3    3  502    0 -0.10516953695E+04 -0.61949773897E+03  0.80468077071E+03  0.14619684510E+04  0.10100000352E+00 0. -1.
       -3    1    3    3    0  502  0.10516953695E+04  0.61949773897E+03  0.23379143038E+03  0.12427787583E+04  0.10100000352E+00 0.  1.
</event>
<event>
 5   0  0.3642184E-06  0.2492269E+04  0.7818609E-02  0.8405745E-01
       -1   -1    0    0    0  501  0.00000000000E+00  0.00000000000E+00  0.86561927767E+03  0.86561927768E+03  0.50400001928E-02 0. -1.
        1   -1    0    0  501    0  0.00000000000E+00  0.00000000000E+00 -0.17939192005E+04  0.17939192005E+04  0.50400001928E-02 0.  1.
    10030    2    1    2    0    0  0.00000000000E+00  0.00000000000E+00 -0.92829992284E+03  0.26595384782E+04  0.24922688800E+04 0.  0.
        5    1    3    3  502    0  0.83291682101E+03 -0.82933696428E+03 -0.90578456012E+03  0.14839198059E+04  0.46999998093E+01 0.  1.
       -5    1    3    3    0  502 -0.83291682101E+03  0.82933696428E+03 -0.22515362720E+02  0.11756186723E+04  0.46999998093E+01 0. -1.
</event>
<event>
 5   0  0.3484857E-06  0.2510762E+04  0.7818609E-02  0.8399162E-01
        1   -1    0    0  501    0  0.00000000000E+00  0.00000000000E+00  0.17187712675E+04  0.17187712675E+04  0.50400001928E-02 0.  1.
       -1   -1    0    0    0  501  0.00000000000E+00  0.00000000000E+00 -0.91692332635E+03  0.91692332636E+03  0.50400001928E-02 0. -1.
    10030    2    1    2    0    0  0.00000000000E+00  0.00000000000E+00  0.80184794111E+03  0.26356945938E+04  0.25107620101E+04 0.  0.
        3    1    3    3  502    0 -0.17719611776E+03  0.81160927676E+02 -0.90094454900E+03  0.92178449266E+03  0.10100000352E+00 0. -1.
       -3    1    3    3    0  502  0.17719611776E+03 -0.81160927676E+02  0.17027924901E+04  0.17139101012E+04  0.10100000352E+00 0.  1.
</event>
<event>
 5   0  0.2901250E-06  0.2498300E+04  0.7818609E-02  0.8403592E-01
       -3   -1    0    0    0  501  0.00000000000E+00  0.00000000000E+00  0.12671785144E+04  0.12671785184E+04  0.10100000352E+00 0.  1.
        3   -1    0    0  501    0  0.00000000000E+00  0.00000000000E+00 -0.12313777130E+04  0.12313777172E+04  0.10100000352E+00 0. -1.
    10030    2    1    2    0    0  0.00000000000E+00  0.00000000000E+00  0.35800801345E+02  0.24985562355E+04  0.24982997348E+04 0.  0.
        1    1    3    3  502    0 -0.29043601673E+01  0.94112951645E+03  0.83935078105E+03  0.12610483479E+04  0.50400001928E-02 0.  1.
       -1    1    3    3    0  502  0.29043601673E+01 -0.94112951645E+03 -0.80354997971E+03  0.12375078876E+04  0.50400001928E-02 0. -1.
</event>
<event>
 5   0  0.8056723E-06  0.2506575E+04  0.7818609E-02  0.8400647E-01
       -2   -1    0    0    0  501  0.00000000000E+00  0.00000000000E+00  0.11515698930E+04  0.11515698930E+04  0.25500000920E-02 0.  1.
        2   -1    0    0  501    0  0.00000000000E+00  0.00000000000E+00 -0.13639902144E+04  0.13639902144E+04  0.25500000920E-02 0. -1.
    10030    2    1    2    0    0  0.00000000000E+00  0.00000000000E+00 -0.21242032143E+03  0.25155601073E+04  0.25065754050E+04 0.  0.
        2    1    3    3  502    0 -0.54759330910E+03 -0.80898189684E+03  0.68172822543E+03  0.11912445236E+04  0.25500000920E-02 0.  1.
       -2    1    3    3    0  502  0.54759330910E+03  0.80898189684E+03 -0.89414854685E+03  0.13243155838E+04  0.25500000920E-02 0. -1.
</event>
<event>
 5   0  0.8407986E-06  0.2494666E+04  0.7818609E-02  0.8404888E-01
       -2   -1    0    0    0  501  0.00000000000E+00  0.00000000000E+00  0.16166016014E+04  0.16166016014E+04  0.25500000920E-02 0.  1.
        2   -1    0    0  501    0  0.00000000000E+00  0.00000000000E+00 -0.96241397754E+03  0.96241397754E+03  0.25500000920E-02 0. -1.
    10030    2    1    2    0    0  0.00000000000E+00  0.00000000000E+00  0.65418762387E+03  0.25790155789E+04  0.24946662922E+04 0.  0.
        5    1    3    3  502    0  0.16076801486E+03 -0.11573150251E+04  0.77842517093E+03  0.14039915451E+04  0.46999998093E+01 0.  1.
       -5    1    3    3    0  502 -0.16076801486E+03  0.11573150251E+04 -0.12423754706E+03  0.11750240338E+04  0.46999998093E+01 0. -1.
</event>
<event>
 5   0  0.3481387E-06  0.2507298E+04  0.7818609E-02  0.8400390E-01
        1   -1    0    0  501    0  0.00000000000E+00  0.00000000000E+00  0.14794253061E+04  0.14794253061E+04  0.50400001928E-02 0.  1.
       -1   -1    0    0    0  501  0.00000000000E+00  0.00000000000E+00 -0.10623282641E+04  0.10623282642E+04  0.50400001928E-02 0. -1.
    10030    2    1    2    0    0  0.00000000000E+00  0.00000000000E+00  0.41709704196E+03  0.25417535703E+04  0.25072976029E+04 0.  0.
        4    1    3    3  502    0  0.12429584895E+04  0.14739630512E+03  0.13713739556E+03  0.12591583520E+04  0.12699999809E+01 0. -1.
       -4    1    3    3    0  502 -0.12429584895E+04 -0.14739630512E+03  0.27995964639E+03  0.12825952182E+04  0.12699999809E+01 0.  1.
</event>
<event>
 5   0  0.8948286E-06  0.2497458E+04  0.7818609E-02  0.8403892E-01
       -2   -1    0    0    0  501  0.00000000000E+00  0.00000000000E+00  0.12692130892E+04  0.12692130892E+04  0.25500000920E-02 0. -1.
        2   -1    0    0  501    0  0.00000000000E+00  0.00000000000E+00 -0.12285759085E+04  0.12285759085E+04  0.25500000920E-02 0.  1.
    10030    2    1    2    0    0  0.00000000000E+00  0.00000000000E+00  0.40637180751E+02  0.24977889977E+04  0.24974584074E+04 0.  0.
        4    1    3    3  502    0 -0.36561557275E+03 -0.58521204936E+03 -0.10205761698E+04  0.12319599105E+04  0.12699999809E+01 0.  1.
       -4    1    3    3    0  502  0.36561557275E+03  0.58521204936E+03  0.10612133506E+04  0.12658290872E+04  0.12699999809E+01 0. -1.
</event>
<event>
 5   0  0.3642184E-06  0.2498034E+04  0.7818609E-02  0.8403686E-01
       -1   -1    0    0    0  501  0.00000000000E+00  0.00000000000E+00  0.14863529158E+04  0.14863529158E+04  0.50400001928E-02 0.  1.
        1   -1    0    0  501    0  0.00000000000E+00  0.00000000000E+00 -0.10495778248E+04  0.10495778248E+04  0.50400001928E-02 0. -1.
    10030    2    1    2    0    0  0.00000000000E+00  0.00000000000E+00  0.43677509107E+03  0.25359307406E+04  0.24980336749E+04 0.  0.
        5    1    3    3  502    0 -0.86669434268E+03 -0.26639839471E+03 -0.65365168890E+03  0.11177700160E+04  0.46999998093E+01 0. -1.
       -5    1    3    3    0  502  0.86669434268E+03  0.26639839471E+03  0.10904267800E+04  0.14181607246E+04  0.46999998093E+01 0.  1.
</event>
<event>
 5   0  0.8056723E-06  0.2483262E+04  0.7818609E-02  0.8408973E-01
        2   -1    0    0  501    0  0.00000000000E+00  0.00000000000E+00  0.92940193824E+03  0.92940193825E+03  0.25500000920E-02 0.  1.
       -2   -1    0    0    0  501  0.00000000000E+00  0.00000000000E+00 -0.16587527720E+04  0.16587527720E+04  0.25500000920E-02 0. -1.
    10030    2    1    2    0    0  0.00000000000E+00  0.00000000000E+00 -0.72935083376E+03  0.25881547103E+04  0.24832624037E+04 0.  0.
        2    1    3    3  502    0  0.95964866121E+03 -0.11335983354E+03  0.44791875388E+03  0.10650855435E+04  0.25500000920E-02 0.  1.
       -2    1    3    3    0  502 -0.95964866121E+03  0.11335983354E+03 -0.11772695876E+04  0.15230691668E+04  0.25500000920E-02 0. -1.
</event>
<event>
 5   0  0.8354653E-06  0.2520329E+04  0.7818609E-02  0.8395779E-01
       -2   -1    0    0    0  501  0.00000000000E+00  0.00000000000E+00  0.75058373033E+03  0.75058373034E+03  0.25500000920E-02 0.  1.
        2   -1    0    0  501    0  0.00000000000E+00  0.00000000000E+00 -0.21157058352E+04  0.21157058352E+04  0.25500000920E-02 0. -1.
    10030    2    1    2    0    0  0.00000000000E+00  0.00000000000E+00 -0.13651221049E+04  0.28662895656E+04  0.25203288500E+04 0.  0.
        3    1    3    3  502    0  0.10582616753E+04 -0.50975997634E+03 -0.16358615869E+03  0.11859736289E+04  0.10100000352E+00 0. -1.
       -3    1    3    3    0  502 -0.10582616753E+04  0.50975997634E+03 -0.12015359462E+04  0.16803159367E+04  0.10100000352E+00 0.  1.
</event>
<event>
 5   0  0.3522870E-06  0.2510829E+04  0.7818609E-02  0.8399138E-01
        1   -1    0    0  501    0  0.00000000000E+00  0.00000000000E+00  0.17819620899E+04  0.17819620899E+04  0.50400001928E-02 0. -1.
       -1   -1    0    0    0  501  0.00000000000E+00  0.00000000000E+00 -0.88445522147E+03  0.88445522148E+03  0.50400001928E-02 0.  1.
    10030    2    1    2    0    0  0.00000000000E+00  0.00000000000E+00  0.89750686840E+03  0.26664173114E+04  0.25108290861E+04 0.  0.
        2    1    3    3  502    0 -0.66009822734E+03 -0.10543755980E+04  0.62843654520E+03  0.13936893710E+04  0.25500000920E-02 0.  1.
       -2    1    3    3    0  502  0.66009822734E+03  0.10543755980E+04  0.26907032320E+03  0.12727279404E+04  0.25500000920E-02 0. -1.
</event>
<event>
 5   0  0.3642184E-06  0.2504311E+04  0.7818609E-02  0.8401451E-01
        1   -1    0    0  501    0  0.00000000000E+00  0.00000000000E+00  0.16667416010E+04  0.16667416010E+04  0.50400001928E-02 0. -1.
       -1   -1    0    0    0  501  0.00000000000E+00  0.00000000000E+00 -0.94069411248E+03  0.94069411250E+03  0.50400001928E-02 0.  1.
    10030    2    1    2    0    0  0.00000000000E+00  0.00000000000E+00  0.72604748854E+03  0.26074357135E+04  0.25043114911E+04 0.  0.
        5    1    3    3  502    0  0.15367569529E+03  0.12426425311E+04  0.37318480532E+03  0.13065472315E+04  0.46999998093E+01 0.  1.
       -5    1    3    3    0  502 -0.15367569529E+03 -0.12426425311E+04  0.35286268322E+03  0.13008884820E+04  0.46999998093E+01 0. -1.
</event>
<event>
 5   0  0.8354653E-06  0.2494729E+04  0.7818609E-02  0.8404866E-01
       -2   -1    0    0    0  501  0.00000000000E+00  0.00000000000E+00  0.11303011770E+04  0.11303011770E+04  0.25500000920E-02 0.  1.
        2   -1    0    0  501    0  0.00000000000E+00  0.00000000000E+00 -0.13765523488E+04  0.13765523488E+04  0.25500000920E-02 0. -1.
    10030    2    1    2    0    0  0.00000000000E+00  0.00000000000E+00 -0.24625117182E+03  0.25068535258E+04  0.24947294362E+04 0.  0.
        3    1    3    3  502    0  0.44529105448E+02 -0.99792041960E+03  0.62755971138E+03  0.11796860627E+04  0.10100000352E+00 0.  1.
       -3    1    3    3    0  502 -0.44529105448E+02  0.99792041960E+03 -0.87381088320E+03  0.13271674630E+04  0.10100000352E+00 0. -1.
</event>
<event>
 5   0  0.8354653E-06  0.2448443E+04  0.7818609E-02  0.8421587E-01
        2   -1    0    0  501    0  0.00000000000E+00  0.00000000000E+00  0.16946753313E+04  0.16946753313E+04  0.25500000920E-02 0. -1.
       -2   -1    0    0    0  501  0.00000000000E+00  0.00000000000E+00 -0.88436883536E+03  0.88436883537E+03  0.25500000920E-02 0.  1.
    10030    2    1    2    0    0  0.00000000000E+00  0.00000000000E+00  0.81030649593E+03  0.25790441667E+04  0.24484428105E+04 0.  0.
        3    1    3    3  502    0  0.11658630820E+04  0.11399874724E+01  0.79854459687E+03  0.14131211940E+04  0.10100000352E+00 0. -1.
       -3    1    3    3    0  502 -0.11658630820E+04 -0.11399874724E+01  0.11761899058E+02  0.11659229726E+04  0.10100000352E+00 0.  1.
</event>
<event>
 5   0  0.8056723E-06  0.2473644E+04  0.7818609E-02  0.8412436E-01
       -2   -1    0    0    0  501  0.00000000000E+00  0.00000000000E+00  0.91535723265E+03  0.91535723265E+03  0.25500000920E-02 0. -1.
        2   -1    0    0  501    0  0.00000000000E+00  0.00000000000E+00 -0.16711818524E+04  0.16711818524E+04  0.25500000920E-02 0.  1.
    10030    2    1    2    0    0  0.00000000000E+00  0.00000000000E+00 -0.75582461978E+03  0.25865390851E+04  0.24736437866E+04 0.  0.
        2    1    3    3  502    0 -0.98228765942E+03 -0.20577556680E+03  0.37791620659E+03  0.10724053753E+04  0.25500000920E-02 0. -1.
       -2    1    3    3    0  502  0.98228765942E+03  0.20577556680E+03 -0.11337408264E+04  0.15141337098E+04  0.25500000920E-02 0.  1.
</event>
<event>
 5   0  0.3424193E-06  0.2503001E+04  0.7818609E-02  0.8401917E-01
       -1   -1    0    0    0  501  0.00000000000E+00  0.00000000000E+00  0.14654375387E+04  0.14654375387E+04  0.50400001928E-02 0.  1.
        1   -1    0    0  501    0  0.00000000000E+00  0.00000000000E+00 -0.10687958888E+04  0.10687958888E+04  0.50400001928E-02 0. -1.
    10030    2    1    2    0    0  0.00000000000E+00  0.00000000000E+00  0.39664164989E+03  0.25342334276E+04  0.25030010921E+04 0.  0.
        1    1    3    3  502    0 -0.80240506446E+03 -0.90800219966E+03 -0.11852449719E+03  0.12175261552E+04  0.50400001928E-02 0.  1.
       -1    1    3    3    0  502  0.80240506446E+03  0.90800219966E+03  0.51516614707E+03  0.13167072724E+04  0.50400001928E-02 0. -1.
</event>
<event>
 5   0  0.8948286E-06  0.2491954E+04  0.7818609E-02  0.8405858E-01
        2   -1    0    0  501    0  0.00000000000E+00  0.00000000000E+00  0.10757977373E+04  0.10757977373E+04  0.25500000920E-02 0. -1.
       -2   -1    0    0    0  501  0.00000000000E+00  0.00000000000E+00 -0.14430767820E+04  0.14430767820E+04  0.25500000920E-02 0.  1.
    10030    2    1    2    0    0  0.00000000000E+00  0.00000000000E+00 -0.36727904471E+03  0.25188745193E+04  0.24919540420E+04 0.  0.
        4    1    3    3  502    0 -0.60293362167E+03  0.36073144795E+03  0.85645707315E+03  0.11077799695E+04  0.12699999809E+01 0. -1.
       -4    1    3    3    0  502  0.60293362167E+03 -0.36073144795E+03 -0.12237361179E+04  0.14110945499E+04  0.12699999809E+01 0.  1.
</event>
<event>
 5   0  0.8354653E-06  0.2504989E+04  0.7818609E-02  0.8401210E-01
       -2   -1    0    0    0  501  0.00000000000E+00  0.00000000000E+00  0.99409381188E+03  0.99409381188E+03  0.25500000920E-02 0. -1.
        2   -1    0    0  501    0  0.00000000000E+00  0.00000000000E+00 -0.15780631534E+04  0.15780631534E+04  0.25500000920E-02 0.  1.
    10030    2    1    2    0    0  0.00000000000E+00  0.00000000000E+00 -0.58396934154E+03  0.25721569653E+04  0.25049892739E+04 0.  0.
        3    1    3    3  502    0 -0.10672558318E+04 -0.30955710881E+03  0.30133428637E+03  0.11513743859E+04  0.10100000352E+00 0. -1.
       -3    1    3    3    0  502  0.10672558318E+04  0.30955710881E+03 -0.88530362791E+03  0.14207825794E+04  0.10100000352E+00 0.  1.
</event>
<event>
 5   0  0.3522870E-06  0.2495014E+04  0.7818609E-02  0.8404764E-01
        1   -1    0    0  501    0  0.00000000000E+00  0.00000000000E+00  0.14154936462E+04  0.14154936463E+04  0.50400001928E-02 0. -1.
       -1   -1    0    0    0  501  0.00000000000E+00  0.00000000000E+00 -0.10994565688E+04  0.10994565688E+04  0.50400001928E-02 0.  1.
    10030    2    1    2    0    0  0.00000000000E+00  0.00000000000E+00  0.31603707741E+03  0.25149502151E+04  0.24950140581E+04 0.  0.
        2    1    3    3  502    0 -0.10991018374E+04  0.19518947472E+03 -0.40334253394E+03  0.11869325928E+04  0.25500000920E-02 0. -1.
       -2    1    3    3    0  502  0.10991018374E+04 -0.19518947472E+03  0.71937961135E+03  0.13280176224E+04  0.25500000920E-02 0.  1.
</event>
<event>
 5   0  0.3424193E-06  0.2495883E+04  0.7818609E-02  0.8404454E-01
        1   -1    0    0  501    0  0.00000000000E+00  0.00000000000E+00  0.14201720141E+04  0.14201720142E+04  0.50400001928E-02 0.  1.
       -1   -1    0    0    0  501  0.00000000000E+00  0.00000000000E+00 -0.10965980703E+04  0.10965980703E+04  0.50400001928E-02 0. -1.
    10030    2    1    2    0    0  0.00000000000E+00  0.00000000000E+00  0.32357394385E+03  0.25167700845E+04  0.24958829221E+04 0.  0.
        1    1    3    3  502    0 -0.40025268154E+03  0.52699104315E+03 -0.90510142487E+03  0.11212182472E+04  0.50400001928E-02 0. -1.
       -1    1    3    3    0  502  0.40025268154E+03 -0.52699104315E+03  0.12286753687E+04  0.13955518372E+04  0.50400001928E-02 0.  1.
</event>
<event>
 5   0  0.8579923E-06  0.2505834E+04  0.7818609E-02  0.8400910E-01
       -2   -1    0    0    0  501  0.00000000000E+00  0.00000000000E+00  0.27741830453E+04  0.27741830453E+04  0.25500000920E-02 0.  1.
        2   -1    0    0  501    0  0.00000000000E+00  0.00000000000E+00 -0.56586061940E+03  0.56586061941E+03  0.25500000920E-02 0. -1.
    10030    2    1    2    0    0  0.00000000000E+00  0.00000000000E+00  0.22083224259E+04  0.33400436647E+04  0.25058339421E+04 0.  0.
        1    1    3    3  502    0  0.10487807346E+04 -0.68532436805E+03  0.11225542510E+04  0.16821826789E+04  0.50400001928E-02 0.  1.
       -1    1    3    3    0  502 -0.10487807346E+04  0.68532436805E+03  0.10857681750E+04  0.16578609859E+04  0.50400001928E-02 0. -1.
</event>
<event>
 5   0  0.3642184E-06  0.2503235E+04  0.7818609E-02  0.8401834E-01
       -1   -1    0    0    0  501  0.00000000000E+00  0.00000000000E+00  0.14612592431E+04  0.14612592431E+04  0.50400001928E-02 0.  1.
        1   -1    0    0  501    0  0.00000000000E+00  0.00000000000E+00 -0.10720526589E+04  0.10720526589E+04  0.50400001928E-02 0. -1.
    10030    2    1    2    0    0  0.00000000000E+00  0.00000000000E+00  0.38920658425E+03  0.25333119020E+04  0.25032353920E+04 0.  0.
        5    1    3    3  502    0 -0.89503329267E+03 -0.65636515713E+02 -0.68830779260E+03  0.11310094847E+04  0.46999998093E+01 0. -1.
       -5    1    3    3    0  502  0.89503329267E+03  0.65636515713E+02  0.10775143768E+04  0.14023024173E+04  0.46999998093E+01 0.  1.
</event>
<event>
 5   0  0.3424193E-06  0.2484018E+04  0.7818609E-02  0.8408702E-01
        1   -1    0    0  501    0  0.00000000000E+00  0.00000000000E+00  0.12714904780E+04  0.12714904780E+04  0.50400001928E-02 0.  1.
       -1   -1    0    0    0  501  0.00000000000E+00  0.00000000000E+00 -0.12132106680E+04  0.12132106681E+04  0.50400001928E-02 0. -1.
    10030    2    1    2    0    0  0.00000000000E+00  0.00000000000E+00  0.58279809988E+02  0.24847011461E+04  0.24840175622E+04 0.  0.
        1    1    3    3  502    0 -0.44244046959E+03 -0.66451571412E+03 -0.92256877663E+03  0.12200278075E+04  0.50400001928E-02 0. -1.
       -1    1    3    3    0  502  0.44244046959E+03  0.66451571412E+03  0.98084858662E+03  0.12646733386E+04  0.50400001928E-02 0.  1.
</event>
<event>
 5   0  0.8354653E-06  0.2515149E+04  0.7818609E-02  0.8397609E-01
        2   -1    0    0  501    0  0.00000000000E+00  0.00000000000E+00  0.19224862165E+04  0.19224862165E+04  0.25500000920E-02 0. -1.
       -2   -1    0    0    0  501  0.00000000000E+00  0.00000000000E+00 -0.82262924642E+03  0.82262924643E+03  0.25500000920E-02 0.  1.
    10030    2    1    2    0    0  0.00000000000E+00  0.00000000000E+00  0.10998569701E+04  0.27451154629E+04  0.25151488127E+04 0.  0.
        3    1    3    3  502    0  0.72969360061E+03 -0.38711493815E+03 -0.48502513940E+03  0.95789358603E+03  0.10100000352E+00 0.  1.
       -3    1    3    3    0  502 -0.72969360061E+03  0.38711493815E+03  0.15848821095E+04  0.17872218769E+04  0.10100000352E+00 0. -1.
</event>
<event>
 5   0  0.3424193E-06  0.2503023E+04  0.7818609E-02  0.8401909E-01
        1   -1    0    0  501    0  0.00000000000E+00  0.00000000000E+00  0.15699538411E+04  0.15699538411E+04  0.50400001928E-02 0. -1.
       -1   -1    0    0    0  501  0.00000000000E+00  0.00000000000E+00 -0.99766042021E+03  0.99766042022E+03  0.50400001928E-02 0.  1.
    10030    2    1    2    0    0  0.00000000000E+00  0.00000000000E+00  0.57229342088E+03  0.25676142613E+04  0.25030228196E+04 0.  0.
        1    1    3    3  502    0 -0.12095517794E+04  0.32128132134E+03  0.29292125043E+03  0.12853171023E+04  0.50400001928E-02 0. -1.
       -1    1    3    3    0  502  0.12095517794E+04 -0.32128132134E+03  0.27937217045E+03  0.12822971590E+04  0.50400001928E-02 0.  1.
</event>
<event>
 5   0  0.3424193E-06  0.2499961E+04  0.7818609E-02  0.8402999E-01
       -1   -1    0    0    0  501  0.00000000000E+00  0.00000000000E+00  0.14545581143E+04  0.14545581143E+04  0.50400001928E-02 0. -1.
        1   -1    0    0  501    0  0.00000000000E+00  0.00000000000E+00 -0.10741760815E+04  0.10741760815E+04  0.50400001928E-02 0.  1.
    10030    2    1    2    0    0  0.00000000000E+00  0.00000000000E+00  0.38038203275E+03  0.25287341958E+04  0.24999612281E+04 0.  0.
        1    1    3    3  502    0 -0.10703471683E+04 -0.17369248109E+03 -0.43876888814E+03  0.11697565029E+04  0.50400001928E-02 0.  1.
       -1    1    3    3    0  502  0.10703471683E+04  0.17369248109E+03  0.81915092089E+03  0.13589776930E+04  0.50400001928E-02 0. -1.
</event>
<event>
 5   0  0.3522870E-06  0.2532850E+04  0.7818609E-02  0.8391375E-01
        1   -1    0    0  501    0  0.00000000000E+00  0.00000000000E+00  0.25021121937E+04  0.25021121937E+04  0.50400001928E-02 0.  1.
       -1   -1    0    0    0  501  0.00000000000E+00  0.00000000000E+00 -0.64099143021E+03  0.64099143023E+03  0.50400001928E-02 0. -1.
    10030    2    1    2    0    0  0.00000000000E+00  0.00000000000E+00  0.18611207635E+04  0.31431036239E+04  0.25328501524E+04 0.  0.
        2    1    3    3  502    0 -0.40551095729E+03 -0.67128090165E+03  0.21645116376E+04  0.23022093333E+04  0.25500000920E-02 0.  1.
       -2    1    3    3    0  502  0.40551095729E+03  0.67128090165E+03 -0.30339087410E+03  0.84089429056E+03  0.25500000920E-02 0. -1.
</event>
<event>
 5   0  0.8579923E-06  0.2498265E+04  0.7818609E-02  0.8403604E-01
        2   -1    0    0  501    0  0.00000000000E+00  0.00000000000E+00  0.18174336567E+04  0.18174336567E+04  0.25500000920E-02 0.  1.
       -2   -1    0    0    0  501  0.00000000000E+00  0.00000000000E+00 -0.85853592720E+03  0.85853592721E+03  0.25500000920E-02 0. -1.
    10030    2    1    2    0    0  0.00000000000E+00  0.00000000000E+00  0.95889772946E+03  0.26759695839E+04  0.24982650697E+04 0.  0.
        1    1    3    3  502    0 -0.17892044991E+03 -0.34684628638E+03  0.17504520515E+04  0.17934316988E+04  0.50400001928E-02 0.  1.
       -1    1    3    3    0  502  0.17892044991E+03  0.34684628638E+03 -0.79155432204E+03  0.88253788504E+03  0.50400001928E-02 0. -1.
</event>
<event>
 5   0  0.2901250E-06  0.2486749E+04  0.7818609E-02  0.8407722E-01
        3   -1    0    0  501    0  0.00000000000E+00  0.00000000000E+00  0.94191151804E+03  0.94191152346E+03  0.10100000352E+00 0. -1.
       -3   -1    0    0    0  501  0.00000000000E+00  0.00000000000E+00 -0.16413218531E+04  0.16413218562E+04  0.10100000352E+00 0.  1.
    10030    2    1    2    0    0  0.00000000000E+00  0.00000000000E+00 -0.69941033501E+03  0.25832333796E+04  0.24867488568E+04 0.  0.
        4    1    3    3  502    0 -0.20729363903E+03  0.55961609145E+03  0.78341390409E+03  0.98482474615E+03  0.12699999809E+01 0. -1.
       -4    1    3    3    0  502  0.20729363903E+03 -0.55961609145E+03 -0.14828242391E+04  0.15984086335E+04  0.12699999809E+01 0.  1.
</event>
<event>
 5   0  0.8354653E-06  0.2505116E+04  0.7818609E-02  0.8401165E-01
        2   -1    0    0  501    0  0.00000000000E+00  0.00000000000E+00  0.12842150095E+04  0.12842150095E+04  0.25500000920E-02 0. -1.
       -2   -1    0    0    0  501  0.00000000000E+00  0.00000000000E+00 -0.12216811307E+04  0.12216811307E+04  0.25500000920E-02 0.  1.
    10030    2    1    2    0    0  0.00000000000E+00  0.00000000000E+00  0.62533878841E+02  0.25058961402E+04  0.25051157616E+04 0.  0.
        3    1    3    3  502    0  0.32257538073E+03  0.89545190301E+03 -0.78324235287E+03  0.12326222375E+04  0.10100000352E+00 0.  1.
       -3    1    3    3    0  502 -0.32257538073E+03 -0.89545190301E+03  0.84577623171E+03  0.12732739027E+04  0.10100000352E+00 0. -1.
</event>
<event>
 5   0  0.8056723E-06  0.2489461E+04  0.7818609E-02  0.8406750E-01
        2   -1    0    0  501    0  0.00000000000E+00  0.00000000000E+00  0.20187131648E+04  0.20187131648E+04  0.25500000920E-02 0. -1.
       -2   -1    0    0    0  501  0.00000000000E+00  0.00000000000E+00 -0.76749560467E+03  0.76749560467E+03  0.25500000920E-02 0.  1.
    10030    2    1    2    0    0  0.00000000000E+00  0.00000000000E+00  0.12512175601E+04  0.27862087695E+04  0.24894605689E+04 0.  0.
        2    1    3    3  502    0  0.11249695032E+03 -0.30637194370E+03  0.19699719603E+04  0.19968246934E+04  0.25500000920E-02 0. -1.
       -2    1    3    3    0  502 -0.11249695032E+03  0.30637194370E+03 -0.71875440020E+03  0.78938407606E+03  0.25500000920E-02 0.  1.
</event>
<event>
 5   0  0.8948286E-06  0.2511467E+04  0.7818609E-02  0.8398912E-01
        2   -1    0    0  501    0  0.00000000000E+00  0.00000000000E+00  0.11724312370E+04  0.11724312370E+04  0.25500000920E-02 0.  1.
       -2   -1    0    0    0  501  0.00000000000E+00  0.00000000000E+00 -0.13449547666E+04  0.13449547666E+04  0.25500000920E-02 0. -1.
    10030    2    1    2    0    0  0.00000000000E+00  0.00000000000E+00 -0.17252352961E+03  0.25173860036E+04  0.25114672848E+04 0.  0.
        4    1    3    3  502    0 -0.92481774791E+03 -0.26986180155E+03 -0.89361144819E+03  0.13140229420E+04  0.12699999809E+01 0.  1.
       -4    1    3    3    0  502  0.92481774791E+03  0.26986180155E+03  0.72108791858E+03  0.12033630616E+04  0.12699999809E+01 0. -1.
</event>
<event>
 5   0  0.8354653E-06  0.2501151E+04  0.7818609E-02  0.8402575E-01
        2   -1    0    0  501    0  0.00000000000E+00  0.00000000000E+00  0.11227679552E+04  0.11227679552E+04  0.25500000920E-02 0.  1.
       -2   -1    0    0    0  501  0.00000000000E+00  0.00000000000E+00 -0.13929322418E+04  0.13929322418E+04  0.25500000920E-02 0. -1.
    10030    2    1    2    0    0  0.00000000000E+00  0.00000000000E+00 -0.27016428663E+03  0.25157001971E+04  0.25011514828E+04 0.  0.
        3    1    3    3  502    0  0.52108520618E+03  0.11368361972E+04 -0.13140803755E+03  0.12574555316E+04  0.10100000352E+00 0.  1.
       -3    1    3    3    0  502 -0.52108520618E+03 -0.11368361972E+04 -0.13875624908E+03  0.12582446655E+04  0.10100000352E+00 0. -1.
</event>
<event>
 5   0  0.3424193E-06  0.2505910E+04  0.7818609E-02  0.8400883E-01
       -1   -1    0    0    0  501  0.00000000000E+00  0.00000000000E+00  0.10307792651E+04  0.10307792651E+04  0.50400001928E-02 0. -1.
        1   -1    0    0  501    0  0.00000000000E+00  0.00000000000E+00 -0.15230190355E+04  0.15230190355E+04  0.50400001928E-02 0.  1.
    10030    2    1    2    0    0  0.00000000000E+00  0.00000000000E+00 -0.49223977047E+03  0.25537983006E+04  0.25059101677E+04 0.  0.
        1    1    3    3  502    0 -0.22721162231E+03  0.13088950434E+02 -0.15017776469E+04  0.15189247982E+04  0.50400001928E-02 0.  1.
       -1    1    3    3    0  502  0.22721162231E+03 -0.13088950434E+02  0.10095378764E+04  0.10348735024E+04  0.50400001928E-02 0. -1.
</event>
<event>
 5   0  0.2901250E-06  0.2497814E+04  0.7818609E-02  0.8403765E-01
        3   -1    0    0  501    0  0.00000000000E+00  0.00000000000E+00  0.15946466490E+04  0.15946466522E+04  0.10100000352E+00 0. -1.
       -3   -1    0    0    0  501  0.00000000000E+00  0.00000000000E+00 -0.97812777931E+03  0.97812778452E+03  0.10100000352E+00 0.  1.
    10030    2    1    2    0    0  0.00000000000E+00  0.00000000000E+00  0.61651886973E+03  0.25727744368E+04  0.24978136011E+04 0.  0.
        4    1    3    3  502    0  0.80811638359E+03  0.40686298698E+02  0.12881558303E+04  0.15212016699E+04  0.12699999809E+01 0. -1.
       -4    1    3    3    0  502 -0.80811638359E+03 -0.40686298698E+02 -0.67163696059E+03  0.10515727669E+04  0.12699999809E+01 0.  1.
</event>
<event>
 5   0  0.8948286E-06  0.2493815E+04  0.7818609E-02  0.8405192E-01
       -2   -1    0    0    0  501  0.00000000000E+00  0.00000000000E+00  0.14102734504E+04  0.14102734504E+04  0.25500000920E-02 0.  1.
        2   -1    0    0  501    0  0.00000000000E+00  0.00000000000E+00 -0.11024659019E+04  0.11024659019E+04  0.25500000920E-02 0. -1.
    10030    2    1    2    0    0  0.00000000000E+00  0.00000000000E+00  0.30780754852E+03  0.25127393523E+04  0.24938150625E+04 0.  0.
        4    1    3    3  502    0  0.10190551440E+04  0.49020237602E+03 -0.37544472987E+03  0.11915251211E+04  0.12699999809E+01 0. -1.
       -4    1    3    3    0  502 -0.10190551440E+04 -0.49020237602E+03  0.68325227838E+03  0.13212142313E+04  0.12699999809E+01 0.  1.
</event>
<event>
 5   0  0.8056723E-06  0.2500969E+04  0.7818609E-02  0.8402640E-01
       -2   -1    0    0    0  501  0.00000000000E+00  0.00000000000E+00  0.12502118357E+04  0.12502118357E+04  0.25500000920E-02 0. -1.
        2   -1    0    0  501    0  0.00000000000E+00  0.00000000000E+00 -0.12507570336E+04  0.12507570336E+04  0.25500000920E-02 0.  1.
    10030    2    1    2    0    0  0.00000000000E+00  0.00000000000E+00 -0.54519785497E+00  0.25009688693E+04  0.25009688099E+04 0.  0.
        2    1    3    3  502    0 -0.48038366028E+03  0.55462940744E+03 -0.10128579312E+04  0.12507051729E+04  0.25500000920E-02 0.  1.
       -2    1    3    3    0  502  0.48038366028E+03 -0.55462940744E+03  0.10123127333E+04  0.12502636965E+04  0.25500000920E-02 0. -1.
</event>
<event>
 5   0  0.3522870E-06  0.2490508E+04  0.7818609E-02  0.8406375E-01
       -1   -1    0    0    0  501  0.00000000000E+00  0.00000000000E+00  0.80751986755E+03  0.80751986756E+03  0.50400001928E-02 0. -1.
        1   -1    0    0  501    0  0.00000000000E+00  0.00000000000E+00 -0.19202710024E+04  0.19202710024E+04  0.50400001928E-02 0.  1.
    10030    2    1    2    0    0  0.00000000000E+00  0.00000000000E+00 -0.11127511348E+04  0.27277908699E+04  0.24905075672E+04 0.  0.
        2    1    3    3  502    0 -0.28987695946E+03  0.99612089918E+03 -0.13107422426E+04  0.16716251745E+04  0.25500000920E-02 0.  1.
       -2    1    3    3    0  502  0.28987695946E+03 -0.99612089918E+03  0.19799110783E+03  0.10561656954E+04  0.25500000920E-02 0. -1.
</event>
<event>
 5   0  0.2901250E-06  0.2500422E+04  0.7818609E-02  0.8402835E-01
       -4   -1    0    0    0  501  0.00000000000E+00  0.00000000000E+00  0.11908815991E+04  0.11908822763E+04  0.12699999809E+01 0.  1.
        4   -1    0    0  501    0  0.00000000000E+00  0.00000000000E+00 -0.13124953158E+04  0.13124959302E+04  0.12699999809E+01 0. -1.
    10030    2    1    2    0    0  0.00000000000E+00  0.00000000000E+00 -0.12161371674E+03  0.25033782065E+04  0.25004224741E+04 0.  0.
        5    1    3    3  502    0 -0.44614145015E+02  0.89644453745E+03 -0.93212454805E+03  0.12940175786E+04  0.46999998093E+01 0. -1.
       -5    1    3    3    0  502  0.44614145015E+02 -0.89644453745E+03  0.81051083131E+03  0.12093606279E+04  0.46999998093E+01 0.  1.
</event>
<event>
 5   0  0.8579923E-06  0.2503293E+04  0.7818609E-02  0.8401813E-01
        2   -1    0    0  501    0  0.00000000000E+00  0.00000000000E+00  0.23546384223E+04  0.23546384223E+04  0.25500000920E-02 0. -1.
       -2   -1    0    0    0  501  0.00000000000E+00  0.00000000000E+00 -0.66533326192E+03  0.66533326192E+03  0.25500000920E-02 0.  1.
    10030    2    1    2    0    0  0.00000000000E+00  0.00000000000E+00  0.16893051604E+04  0.30199716842E+04  0.25032932406E+04 0.  0.
        1    1    3    3  502    0  0.27927687765E+03  0.89023870228E+03  0.18511822200E+04  0.20730161922E+04  0.50400001928E-02 0. -1.
       -1    1    3    3    0  502 -0.27927687765E+03 -0.89023870228E+03 -0.16187705961E+03  0.94695549203E+03  0.50400001928E-02 0.  1.
</event>
<event>
 5   0  0.3424193E-06  0.2492126E+04  0.7818609E-02  0.8405796E-01
       -1   -1    0    0    0  501  0.00000000000E+00  0.00000000000E+00  0.10179972230E+04  0.10179972230E+04  0.50400001928E-02 0.  1.
        1   -1    0    0  501    0  0.00000000000E+00  0.00000000000E+00 -0.15252235053E+04  0.15252235053E+04  0.50400001928E-02 0. -1.
    10030    2    1    2    0    0  0.00000000000E+00  0.00000000000E+00 -0.50722628229E+03  0.25432207284E+04  0.24921262351E+04 0.  0.
        1    1    3    3  502    0 -0.29289765442E+03  0.11044098191E+04 -0.76096111414E+03  0.13727971087E+04  0.50400001928E-02 0. -1.
       -1    1    3    3    0  502  0.29289765442E+03 -0.11044098191E+04  0.25373483184E+03  0.11704236196E+04  0.50400001928E-02 0.  1.
</event>
<event>
 5   0  0.3642184E-06  0.2497298E+04  0.7818609E-02  0.8403949E-01
        1   -1    0    0  501    0  0.00000000000E+00  0.00000000000E+00  0.11145629804E+04  0.11145629804E+04  0.50400001928E-02 0.  1.
       -1   -1    0    0    0  501  0.00000000000E+00  0.00000000000E+00 -0.13988664119E+04  0.13988664119E+04  0.50400001928E-02 0. -1.
    10030    2    1    2    0    0  0.00000000000E+00  0.00000000000E+00 -0.28430343152E+03  0.25134293924E+04  0.24972983140E+04 0.  0.
        5    1    3    3  502    0 -0.10637896977E+04  0.25271903456E+03  0.46472511293E+03  0.11880685805E+04  0.46999998093E+01 0.  1.
       -5    1    3    3    0  502  0.10637896977E+04 -0.25271903456E+03 -0.74902854444E+03  0.13253608119E+04  0.46999998093E+01 0. -1.
</event>
<event>
 5   0  0.3424193E-06  0.2504395E+04  0.7818609E-02  0.8401422E-01
       -1   -1    0    0    0  501  0.00000000000E+00  0.00000000000E+00  0.95579793079E+03  0.95579793080E+03  0.50400001928E-02 0.  1.
        1   -1    0    0  501    0  0.00000000000E+00  0.00000000000E+00 -0.16405123779E+04  0.16405123779E+04  0.50400001928E-02 0. -1.
    10030    2    1    2    0    0  0.00000000000E+00  0.00000000000E+00 -0.68471444713E+03  0.25963103087E+04  0.25043948062E+04 0.  0.
        1    1    3    3  502    0 -0.12200640924E+03 -0.92232396280E+03 -0.12112290690E+04  0.15272992221E+04  0.50400001928E-02 0. -1.
       -1    1    3    3    0  502  0.12200640924E+03  0.92232396280E+03  0.52651462187E+03  0.10690110866E+04  0.50400001928E-02 0.  1.
</event>
<event>
 5   0  0.3484857E-06  0.2593666E+04  0.7818609E-02  0.8370356E-01
       -1   -1    0    0    0  501  0.00000000000E+00  0.00000000000E+00  0.11667744333E+04  0.11667744333E+04  0.50400001928E-02 0. -1.
        1   -1    0    0  501    0  0.00000000000E+00  0.00000000000E+00 -0.14413885947E+04  0.14413885947E+04  0.50400001928E-02 0.  1.
    10030    2    1    2    0    0  0.00000000000E+00  0.00000000000E+00 -0.27461416143E+03  0.26081630280E+04  0.25936656382E+04 0.  0.
        3    1    3    3  502    0 -0.94846378163E+03 -0.68713114060E+03 -0.69723410884E+03  0.13630363760E+04  0.10100000352E+00 0.  1.
       -3    1    3    3    0  502  0.94846378163E+03  0.68713114060E+03  0.42261994740E+03  0.12451266520E+04  0.10100000352E+00 0. -1.
</event>
<event>
 5   0  0.8354653E-06  0.2475623E+04  0.7818609E-02  0.8411722E-01
        2   -1    0    0  501    0  0.00000000000E+00  0.00000000000E+00  0.10076126542E+04  0.10076126542E+04  0.25500000920E-02 0.  1.
       -2   -1    0    0    0  501  0.00000000000E+00  0.00000000000E+00 -0.15206012096E+04  0.15206012096E+04  0.25500000920E-02 0. -1.
    10030    2    1    2    0    0  0.00000000000E+00  0.00000000000E+00 -0.51298855545E+03  0.25282138638E+04  0.24756227667E+04 0.  0.
        3    1    3    3  502    0 -0.18013534122E+03  0.24557261005E+03  0.96875220172E+03  0.10154976546E+04  0.10100000352E+00 0.  1.
       -3    1    3    3    0  502  0.18013534122E+03 -0.24557261005E+03 -0.14817407572E+04  0.15127162092E+04  0.10100000352E+00 0. -1.
</event>
<event>
 5   0  0.8579923E-06  0.2515666E+04  0.7818609E-02  0.8397426E-01
       -2   -1    0    0    0  501  0.00000000000E+00  0.00000000000E+00  0.13214730857E+04  0.13214730857E+04  0.25500000920E-02 0.  1.
        2   -1    0    0  501    0  0.00000000000E+00  0.00000000000E+00 -0.11972577068E+04  0.11972577068E+04  0.25500000920E-02 0. -1.
    10030    2    1    2    0    0  0.00000000000E+00  0.00000000000E+00  0.12421537889E+03  0.25187307925E+04  0.25156659843E+04 0.  0.
        1    1    3    3  502    0  0.95753911629E+03 -0.24019956034E+03 -0.71830767040E+03  0.12208779208E+04  0.50400001928E-02 0. -1.
       -1    1    3    3    0  502 -0.95753911629E+03  0.24019956034E+03  0.84252304930E+03  0.12978528717E+04  0.50400001928E-02 0.  1.
</event>
<event>
 5   0  0.2901250E-06  0.2516518E+04  0.7818609E-02  0.8397124E-01
       -3   -1    0    0    0  501  0.00000000000E+00  0.00000000000E+00  0.11904768244E+04  0.11904768287E+04  0.10100000352E+00 0. -1.
        3   -1    0    0  501    0  0.00000000000E+00  0.00000000000E+00 -0.13299005256E+04  0.13299005294E+04  0.10100000352E+00 0.  1.
    10030    2    1    2    0    0  0.00000000000E+00  0.00000000000E+00 -0.13942370122E+03  0.25203773581E+04  0.25165180426E+04 0.  0.
        3    1    3    3  502    0  0.72169129606E+03  0.60316664742E+03  0.76737339167E+03  0.12138823105E+04  0.10100000352E+00 0.  1.
       -3    1    3    3    0  502 -0.72169129606E+03 -0.60316664742E+03 -0.90679709288E+03  0.13064950475E+04  0.10100000352E+00 0. -1.
</event>
<event>
 5   0  0.8948286E-06  0.2498202E+04  0.7818609E-02  0.8403626E-01
        2   -1    0    0  501    0  0.00000000000E+00  0.00000000000E+00  0.17054205798E+04  0.17054205798E+04  0.25500000920E-02 0.  1.
       -2   -1    0    0    0  501  0.00000000000E+00  0.00000000000E+00 -0.91487908857E+03  0.91487908858E+03  0.25500000920E-02 0. -1.
    10030    2    1    2    0    0  0.00000000000E+00  0.00000000000E+00  0.79054149120E+03  0.26202996684E+04  0.24982022542E+04 0.  0.
        4    1    3    3  502    0  0.56812147010E+03 -0.14778361124E+03  0.15517228357E+04  0.16590501416E+04  0.12699999809E+01 0.  1.
       -4    1    3    3    0  502 -0.56812147010E+03  0.14778361124E+03 -0.76118134452E+03  0.96124952675E+03  0.12699999809E+01 0. -1.
</event>
<event>
 5   0  0.3522870E-06  0.2507587E+04  0.7818609E-02  0.8400287E-01
        1   -1    0    0  501    0  0.00000000000E+00  0.00000000000E+00  0.13864610932E+04  0.13864610932E+04  0.50400001928E-02 0.  1.
       -1   -1    0    0    0  501  0.00000000000E+00  0.00000000000E+00 -0.11338209433E+04  0.11338209433E+04  0.50400001928E-02 0. -1.
    10030    2    1    2    0    0  0.00000000000E+00  0.00000000000E+00  0.25264014990E+03  0.25202820366E+04  0.25075873860E+04 0.  0.
        2    1    3    3  502    0 -0.58320622661E+03  0.29509296601E+03  0.12016849361E+04  0.13679386123E+04  0.25500000920E-02 0.  1.
       -2    1    3    3    0  502  0.58320622661E+03 -0.29509296601E+03 -0.94904478620E+03  0.11523434243E+04  0.25500000920E-02 0. -1.
</event>
<event>
 5   0  0.8407986E-06  0.2487028E+04  0.7818609E-02  0.8407621E-01
       -2   -1    0    0    0  501  0.00000000000E+00  0.00000000000E+00  0.88837211937E+03  0.88837211938E+03  0.25500000920E-02 0. -1.
        2   -1    0    0  501    0  0.00000000000E+00  0.00000000000E+00 -0.17406298423E+04  0.17406298423E+04  0.25500000920E-02 0.  1.
    10030    2    1    2    0    0  0.00000000000E+00  0.00000000000E+00 -0.85225772290E+03  0.26290019616E+04  0.24870279629E+04 0.  0.
        5    1    3    3  502    0  0.62912224914E+03  0.83386253304E+03 -0.11393159158E+04  0.15456986687E+04  0.46999998093E+01 0.  1.
       -5    1    3    3    0  502 -0.62912224914E+03 -0.83386253304E+03  0.28705819293E+03  0.10833032929E+04  0.46999998093E+01 0. -1.
</event>
<event>
 5   0  0.8407986E-06  0.2538275E+04  0.7818609E-02  0.8389475E-01
        2   -1    0    0  501    0  0.00000000000E+00  0.00000000000E+00  0.10975929524E+04  0.10975929524E+04  0.25500000920E-02 0.  1.
       -2   -1    0    0    0  501  0.00000000000E+00  0.00000000000E+00 -0.14674928949E+04  0.14674928949E+04  0.25500000920E-02 0. -1.
    10030    2    1    2    0    0  0.00000000000E+00  0.00000000000E+00 -0.36989994257E+03  0.25650858473E+04  0.25382748938E+04 0.  0.
        5    1    3    3  502    0 -0.94308593213E+03 -0.75547282502E+03  0.20713988456E+03  0.12260013403E+04  0.46999998093E+01 0. -1.
       -5    1    3    3    0  502  0.94308593213E+03  0.75547282502E+03 -0.57703982713E+03  0.13390845070E+04  0.46999998093E+01 0.  1.
</event>
<event>
 5   0  0.8354653E-06  0.2678452E+04  0.7818609E-02  0.8342030E-01
       -2   -1    0    0    0  501  0.00000000000E+00  0.00000000000E+00  0.18260448354E+04  0.18260448354E+04  0.25500000920E-02 0. -1.
        2   -1    0    0  501    0  0.00000000000E+00  0.00000000000E+00 -0.98219201271E+03  0.98219201272E+03  0.25500000920E-02 0.  1.
    10030    2    1    2    0    0  0.00000000000E+00  0.00000000000E+00  0.84385282272E+03  0.28082368482E+04  0.26784522786E+04 0.  0.
        3    1    3    3  502    0  0.28264510018E+02  0.13335116427E+04  0.29578694731E+03  0.13662145190E+04  0.10100000352E+00 0.  1.
       -3    1    3    3    0  502 -0.28264510018E+02 -0.13335116427E+04  0.54806587542E+03  0.14420223291E+04  0.10100000352E+00 0. -1.
</event>
<event>
 5   0  0.8407986E-06  0.2501938E+04  0.7818609E-02  0.8402295E-01
        2   -1    0    0  501    0  0.00000000000E+00  0.00000000000E+00  0.17952107228E+04  0.17952107228E+04  0.25500000920E-02 0. -1.
       -2   -1    0    0    0  501  0.00000000000E+00  0.00000000000E+00 -0.87172130810E+03  0.87172130811E+03  0.25500000920E-02 0.  1.
    10030    2    1    2    0    0  0.00000000000E+00  0.00000000000E+00  0.92348941468E+03  0.26669320309E+04  0.25019380005E+04 0.  0.
        5    1    3    3  502    0  0.90061807785E+03 -0.73331809714E+03  0.95718970537E+03  0.15050257725E+04  0.46999998093E+01 0. -1.
       -5    1    3    3    0  502 -0.90061807785E+03  0.73331809714E+03 -0.33700290697E+02  0.11619062584E+04  0.46999998093E+01 0.  1.
</event>
<event>
 5   0  0.8056723E-06  0.2516943E+04  0.7818609E-02  0.8396974E-01
       -2   -1    0    0    0  501  0.00000000000E+00  0.00000000000E+00  0.84324754398E+03  0.84324754399E+03  0.25500000920E-02 0. -1.
        2   -1    0    0  501    0  0.00000000000E+00  0.00000000000E+00 -0.18781565644E+04  0.18781565644E+04  0.25500000920E-02 0.  1.
    10030    2    1    2    0    0  0.00000000000E+00  0.00000000000E+00 -0.10349090204E+04  0.27214041084E+04  0.25169433129E+04 0.  0.
        2    1    3    3  502    0 -0.17092800653E+03 -0.93438603323E+03 -0.14100175835E+04  0.17001303563E+04  0.25500000920E-02 0.  1.
       -2    1    3    3    0  502  0.17092800653E+03  0.93438603323E+03  0.37510856315E+03  0.10212737521E+04  0.25500000920E-02 0. -1.
</event>
<event>
 5   0  0.8407986E-06  0.2486538E+04  0.7818609E-02  0.8407797E-01
        2   -1    0    0  501    0  0.00000000000E+00  0.00000000000E+00  0.16665220050E+04  0.16665220050E+04  0.25500000920E-02 0.  1.
       -2   -1    0    0    0  501  0.00000000000E+00  0.00000000000E+00 -0.92751110897E+03  0.92751110897E+03  0.25500000920E-02 0. -1.
    10030    2    1    2    0    0  0.00000000000E+00  0.00000000000E+00  0.73901089608E+03  0.25940331140E+04  0.24865378928E+04 0.  0.
        5    1    3    3  502    0 -0.23584048192E+03 -0.34817211532E+02  0.16424448977E+04  0.16596627076E+04  0.46999998093E+01 0.  1.
       -5    1    3    3    0  502  0.23584048192E+03  0.34817211532E+02 -0.90343400160E+03  0.93437040641E+03  0.46999998093E+01 0. -1.
</event>
<event>
 5   0  0.8056723E-06  0.2509778E+04  0.7818609E-02  0.8399510E-01
       -2   -1    0    0    0  501  0.00000000000E+00  0.00000000000E+00  0.10122306449E+04  0.10122306449E+04  0.25500000920E-02 0. -1.
        2   -1    0    0  501    0  0.00000000000E+00  0.00000000000E+00 -0.15557188796E+04  0.15557188796E+04  0.25500000920E-02 0.  1.
    10030    2    1    2    0    0  0.00000000000E+00  0.00000000000E+00 -0.54348823468E+03  0.25679495245E+04  0.25097779382E+04 0.  0.
        2    1    3    3  502    0  0.57671029679E+02 -0.12390881553E+04 -0.77391680403E+02  0.12428414527E+04  0.25500000920E-02 0. -1.
       -2    1    3    3    0  502 -0.57671029679E+02  0.12390881553E+04 -0.46609655427E+03  0.13251080719E+04  0.25500000920E-02 0.  1.
</event>
<event>
 5   0  0.8948286E-06  0.2444521E+04  0.7818609E-02  0.8423021E-01
       -2   -1    0    0    0  501  0.00000000000E+00  0.00000000000E+00  0.95628060046E+03  0.95628060046E+03  0.25500000920E-02 0. -1.
        2   -1    0    0  501    0  0.00000000000E+00  0.00000000000E+00 -0.15622201622E+04  0.15622201622E+04  0.25500000920E-02 0.  1.
    10030    2    1    2    0    0  0.00000000000E+00  0.00000000000E+00 -0.60593956171E+03  0.25185007626E+04  0.24445210858E+04 0.  0.
        4    1    3    3  502    0 -0.13800452865E+03  0.49149650702E+03 -0.14471213814E+04  0.15345279312E+04  0.12699999809E+01 0.  1.
       -4    1    3    3    0  502  0.13800452865E+03 -0.49149650702E+03  0.84118181966E+03  0.98397283142E+03  0.12699999809E+01 0. -1.
</event>
<event>
 5   0  0.8579923E-06  0.2503870E+04  0.7818609E-02  0.8401608E-01
        2   -1    0    0  501    0  0.00000000000E+00  0.00000000000E+00  0.12311082637E+04  0.12311082637E+04  0.25500000920E-02 0. -1.
       -2   -1    0    0    0  501  0.00000000000E+00  0.00000000000E+00 -0.12731142623E+04  0.12731142623E+04  0.25500000920E-02 0.  1.
    10030    2    1    2    0    0  0.00000000000E+00  0.00000000000E+00 -0.42005998632E+02  0.25042225260E+04  0.25038701955E+04 0.  0.
        1    1    3    3  502    0 -0.32521601497E+02  0.44340979096E+03  0.11494913765E+04  0.12324773109E+04  0.50400001928E-02 0. -1.
       -1    1    3    3    0  502  0.32521601497E+02 -0.44340979096E+03 -0.11914973751E+04  0.12717452151E+04  0.50400001928E-02 0.  1.
</event>
<event>
 5   0  0.3424193E-06  0.2502269E+04  0.7818609E-02  0.8402178E-01
        1   -1    0    0  501    0  0.00000000000E+00  0.00000000000E+00  0.14051265989E+04  0.14051265989E+04  0.50400001928E-02 0.  1.
       -1   -1    0    0    0  501  0.00000000000E+00  0.00000000000E+00 -0.11140186976E+04  0.11140186976E+04  0.50400001928E-02 0. -1.
    10030    2    1    2    0    0  0.00000000000E+00  0.00000000000E+00  0.29110790135E+03  0.25191452965E+04  0.25022688135E+04 0.  0.
        1    1    3    3  502    0  0.28222329644E+02 -0.26032762959E+03 -0.10861230632E+04  0.11172422670E+04  0.50400001928E-02 0. -1.
       -1    1    3    3    0  502 -0.28222329644E+02  0.26032762959E+03  0.13772309646E+04  0.14019030296E+04  0.50400001928E-02 0.  1.
</event>
<event>
 5   0  0.3642184E-06  0.2494292E+04  0.7818609E-02  0.8405022E-01
       -1   -1    0    0    0  501  0.00000000000E+00  0.00000000000E+00  0.12976064115E+04  0.12976064115E+04  0.50400001928E-02 0. -1.
        1   -1    0    0  501    0  0.00000000000E+00  0.00000000000E+00 -0.11986476117E+04  0.11986476117E+04  0.50400001928E-02 0.  1.
    10030    2    1    2    0    0  0.00000000000E+00  0.00000000000E+00  0.98958799845E+02  0.24962540232E+04  0.24942917440E+04 0.  0.
        5    1    3    3  502    0  0.20137169503E+03  0.30779192084E+03 -0.11431226044E+04  0.12008487851E+04  0.46999998093E+01 0.  1.
       -5    1    3    3    0  502 -0.20137169503E+03 -0.30779192084E+03  0.12420814042E+04  0.12954052381E+04  0.46999998093E+01 0. -1.
</event>
<event>
 5   0  0.3522870E-06  0.2499324E+04  0.7818609E-02  0.8403226E-01
        1   -1    0    0  501    0  0.00000000000E+00  0.00000000000E+00  0.13146374041E+04  0.13146374041E+04  0.50400001928E-02 0.  1.
       -1   -1    0    0    0  501  0.00000000000E+00  0.00000000000E+00 -0.11878983393E+04  0.11878983393E+04  0.50400001928E-02 0. -1.
    10030    2    1    2    0    0  0.00000000000E+00  0.00000000000E+00  0.12673906478E+03  0.25025357434E+04  0.24993243800E+04 0.  0.
        2    1    3    3  502    0  0.34819693915E+03  0.89391390710E+03  0.86523083752E+03  0.12918775422E+04  0.25500000920E-02 0.  1.
       -2    1    3    3    0  502 -0.34819693915E+03 -0.89391390710E+03 -0.73849177275E+03  0.12106582012E+04  0.25500000920E-02 0. -1.
</event>
<event>
 5   0  0.3642184E-06  0.2512955E+04  0.7818609E-02  0.8398385E-01
       -1   -1    0    0    0  501  0.00000000000E+00  0.00000000000E+00  0.10581729782E+04  0.10581729782E+04  0.50400001928E-02 0.  1.
        1   -1    0    0  501    0  0.00000000000E+00  0.00000000000E+00 -0.14919453638E+04  0.14919453638E+04  0.50400001928E-02 0. -1.
    10030    2    1    2    0    0  0.00000000000E+00  0.00000000000E+00 -0.43377238563E+03  0.25501183420E+04  0.25129554464E+04 0.  0.
        5    1    3    3  502    0 -0.30310338178E+03  0.11962255395E+04 -0.45678652940E+03  0.13158659601E+04  0.46999998093E+01 0. -1.
       -5    1    3    3    0  502  0.30310338178E+03 -0.11962255395E+04  0.23014143771E+02  0.12342523819E+04  0.46999998093E+01 0.  1.
</event>
<event>
 5   0  0.8579923E-06  0.2534587E+04  0.7818609E-02  0.8390766E-01
       -2   -1    0    0    0  501  0.00000000000E+00  0.00000000000E+00  0.98664073034E+03  0.98664073034E+03  0.25500000920E-02 0. -1.
        2   -1    0    0  501    0  0.00000000000E+00  0.00000000000E+00 -0.16277787248E+04  0.16277787248E+04  0.25500000920E-02 0.  1.
    10030    2    1    2    0    0  0.00000000000E+00  0.00000000000E+00 -0.64113799447E+03  0.26144194552E+04  0.25345869801E+04 0.  0.
        1    1    3    3  502    0 -0.66914686779E+03  0.31152549095E+03 -0.13831749356E+04  0.15677941716E+04  0.50400001928E-02 0.  1.
       -1    1    3    3    0  502  0.66914686779E+03 -0.31152549095E+03  0.74203694108E+03  0.10466252835E+04  0.50400001928E-02 0. -1.
</event>
<event>
 5   0  0.8948286E-06  0.2497656E+04  0.7818609E-02  0.8403821E-01
        2   -1    0    0  501    0  0.00000000000E+00  0.00000000000E+00  0.14894878200E+04  0.14894878200E+04  0.25500000920E-02 0. -1.
       -2   -1    0    0    0  501  0.00000000000E+00  0.00000000000E+00 -0.10470519311E+04  0.10470519311E+04  0.25500000920E-02 0.  1.
    10030    2    1    2    0    0  0.00000000000E+00  0.00000000000E+00  0.44243588884E+03  0.25365397511E+04  0.24976557796E+04 0.  0.
        4    1    3    3  502    0 -0.10260020824E+04  0.59559228667E+03  0.61736640097E+03  0.13373680612E+04  0.12699999809E+01 0. -1.
       -4    1    3    3    0  502  0.10260020824E+04 -0.59559228667E+03 -0.17493051213E+03  0.11991716900E+04  0.12699999809E+01 0.  1.
</event>
<event>
 5   0  0.3481387E-06  0.2496148E+04  0.7818609E-02  0.8404359E-01
       -1   -1    0    0    0  501  0.00000000000E+00  0.00000000000E+00  0.59536102647E+03  0.59536102649E+03  0.50400001928E-02 0. -1.
        1   -1    0    0  501    0  0.00000000000E+00  0.00000000000E+00 -0.26163763135E+04  0.26163763135E+04  0.50400001928E-02 0.  1.
    10030    2    1    2    0    0  0.00000000000E+00  0.00000000000E+00 -0.20210152870E+04  0.32117373400E+04  0.24961478223E+04 0.  0.
        4    1    3    3  502    0 -0.67370697971E+03  0.10503199616E+04 -0.10428991870E+04  0.16262513469E+04  0.12699999809E+01 0.  1.
       -4    1    3    3    0  502  0.67370697971E+03 -0.10503199616E+04 -0.97811610001E+03  0.15854859931E+04  0.12699999809E+01 0. -1.
</event>
<event>
 5   0  0.3522870E-06  0.2493914E+04  0.7818609E-02  0.8405157E-01
        1   -1    0    0  501    0  0.00000000000E+00  0.00000000000E+00  0.28058410661E+04  0.28058410661E+04  0.50400001928E-02 0.  1.
       -1   -1    0    0    0  501  0.00000000000E+00  0.00000000000E+00 -0.55416589843E+03  0.55416589845E+03  0.50400001928E-02 0. -1.
    10030    2    1    2    0    0  0.00000000000E+00  0.00000000000E+00  0.22516751677E+04  0.33600069645E+04  0.24939137397E+04 0.  0.
        2    1    3    3  502    0 -0.95186096163E+03  0.28772158085E+03  0.21395086625E+04  0.23593050493E+04  0.25500000920E-02 0.  1.
       -2    1    3    3    0  502  0.95186096163E+03 -0.28772158085E+03  0.11216650510E+03  0.10007019153E+04  0.25500000920E-02 0. -1.
</event>
<event>
 5   0  0.3522870E-06  0.2486637E+04  0.7818609E-02  0.8407762E-01
       -1   -1    0    0    0  501  0.00000000000E+00  0.00000000000E+00  0.87208461843E+03  0.87208461844E+03  0.50400001928E-02 0.  1.
        1   -1    0    0  501    0  0.00000000000E+00  0.00000000000E+00 -0.17725807253E+04  0.17725807253E+04  0.50400001928E-02 0. -1.
    10030    2    1    2    0    0  0.00000000000E+00  0.00000000000E+00 -0.90049610691E+03  0.26446653438E+04  0.24866365923E+04 0.  0.
        2    1    3    3  502    0  0.10269676381E+04 -0.47580185257E+03 -0.99752803807E+03  0.15086789318E+04  0.25500000920E-02 0.  1.
       -2    1    3    3    0  502 -0.10269676381E+04  0.47580185257E+03  0.97031931165E+02  0.11359864120E+04  0.25500000920E-02 0. -1.
</event>
<event>
 5   0  0.8056723E-06  0.2521183E+04  0.7818609E-02  0.8395478E-01
       -2   -1    0    0    0  501  0.00000000000E+00  0.00000000000E+00  0.99262060500E+03  0.99262060500E+03  0.25500000920E-02 0. -1.
        2   -1    0    0  501    0  0.00000000000E+00  0.00000000000E+00 -0.16009045448E+04  0.16009045448E+04  0.25500000920E-02 0.  1.
    10030    2    1    2    0    0  0.00000000000E+00  0.00000000000E+00 -0.60828393983E+03  0.25935251498E+04  0.25211829270E+04 0.  0.
        2    1    3    3  502    0  0.21712169483E+03 -0.12176621756E+04 -0.53748877483E+02  0.12380355189E+04  0.25500000920E-02 0. -1.
       -2    1    3    3    0  502 -0.21712169483E+03  0.12176621756E+04 -0.55453506235E+03  0.13554896309E+04  0.25500000920E-02 0.  1.
</event>
<event>
 5   0  0.3424193E-06  0.2489306E+04  0.7818609E-02  0.8406805E-01
        1   -1    0    0  501    0  0.00000000000E+00  0.00000000000E+00  0.21901989701E+04  0.21901989701E+04  0.50400001928E-02 0.  1.
       -1   -1    0    0    0  501  0.00000000000E+00  0.00000000000E+00 -0.70731542664E+03  0.70731542666E+03  0.50400001928E-02 0. -1.
    10030    2    1    2    0    0  0.00000000000E+00  0.00000000000E+00  0.14828835434E+04  0.28975143968E+04  0.24893063443E+04 0.  0.
        1    1    3    3  502    0 -0.10287061819E+04  0.65550522944E+03  0.10294850677E+04  0.15961713627E+04  0.50400001928E-02 0.  1.
       -1    1    3    3    0  502  0.10287061819E+04 -0.65550522944E+03  0.45339847579E+03  0.13013430341E+04  0.50400001928E-02 0. -1.
</event>
<event>
 5   0  0.3522870E-06  0.2497664E+04  0.7818609E-02  0.8403818E-01
       -1   -1    0    0    0  501  0.00000000000E+00  0.00000000000E+00  0.13042470462E+04  0.13042470462E+04  0.50400001928E-02 0. -1.
        1   -1    0    0  501    0  0.00000000000E+00  0.00000000000E+00 -0.11957711987E+04  0.11957711987E+04  0.50400001928E-02 0.  1.
    10030    2    1    2    0    0  0.00000000000E+00  0.00000000000E+00  0.10847584750E+03  0.25000182450E+04  0.24976637516E+04 0.  0.
        2    1    3    3  502    0  0.88081879247E+03 -0.61838535132E+03  0.68834823716E+03  0.12775231832E+04  0.25500000920E-02 0. -1.
       -2    1    3    3    0  502 -0.88081879247E+03  0.61838535132E+03 -0.57987238966E+03  0.12224950618E+04  0.25500000920E-02 0.  1.
</event>
<event>
 5   0  0.3484857E-06  0.2428528E+04  0.7818609E-02  0.8428900E-01
       -1   -1    0    0    0  501  0.00000000000E+00  0.00000000000E+00  0.52986588659E+03  0.52986588661E+03  0.50400001928E-02 0. -1.
        1   -1    0    0  501    0  0.00000000000E+00  0.00000000000E+00 -0.27826618074E+04  0.27826618074E+04  0.50400001928E-02 0.  1.
    10030    2    1    2    0    0  0.00000000000E+00  0.00000000000E+00 -0.22527959208E+04  0.33125276940E+04  0.24285284151E+04 0.  0.
        3    1    3    3  502    0 -0.71099227174E+03 -0.49050959608E+03  0.37673914220E+02  0.86459759908E+03  0.10100000352E+00 0. -1.
       -3    1    3    3    0  502  0.71099227174E+03  0.49050959608E+03 -0.22904698350E+04  0.24479300949E+04  0.10100000352E+00 0.  1.
</event>
<event>
 5   0  0.3481387E-06  0.2496615E+04  0.7818609E-02  0.8404192E-01
        1   -1    0    0  501    0  0.00000000000E+00  0.00000000000E+00  0.16531911199E+04  0.16531911199E+04  0.50400001928E-02 0.  1.
       -1   -1    0    0    0  501  0.00000000000E+00  0.00000000000E+00 -0.94258402935E+03  0.94258402936E+03  0.50400001928E-02 0. -1.
    10030    2    1    2    0    0  0.00000000000E+00  0.00000000000E+00  0.71060709054E+03  0.25957751493E+04  0.24966149460E+04 0.  0.
        4    1    3    3  502    0  0.22017765568E+03  0.96036973705E+03 -0.44161269364E+03  0.10797275656E+04  0.12699999809E+01 0. -1.
       -4    1    3    3    0  502 -0.22017765568E+03 -0.96036973705E+03  0.11522197842E+04  0.15160475836E+04  0.12699999809E+01 0.  1.
</event>
<event>
 5   0  0.8948286E-06  0.2502695E+04  0.7818609E-02  0.8402026E-01
        2   -1    0    0  501    0  0.00000000000E+00  0.00000000000E+00  0.10871799235E+04  0.10871799236E+04  0.25500000920E-02 0. -1.
       -2   -1    0    0    0  501  0.00000000000E+00  0.00000000000E+00 -0.14403046786E+04  0.14403046786E+04  0.25500000920E-02 0.  1.
    10030    2    1    2    0    0  0.00000000000E+00  0.00000000000E+00 -0.35312475505E+03  0.25274846022E+04  0.25026948119E+04 0.  0.
        4    1    3    3  502    0  0.25599925006E+03 -0.93460043868E+03  0.62302184204E+03  0.11520292638E+04  0.12699999809E+01 0. -1.
       -4    1    3    3    0  502 -0.25599925006E+03  0.93460043868E+03 -0.97614659709E+03  0.13754553384E+04  0.12699999809E+01 0.  1.
</event>
<event>
 5   0  0.8056723E-06  0.2526240E+04  0.7818609E-02  0.8393697E-01
        2   -1    0    0  501    0  0.00000000000E+00  0.00000000000E+00  0.14534830923E+04  0.14534830923E+04  0.25500000920E-02 0.  1.
       -2   -1    0    0    0  501  0.00000000000E+00  0.00000000000E+00 -0.10976888338E+04  0.10976888338E+04  0.25500000920E-02 0. -1.
    10030    2    1    2    0    0  0.00000000000E+00  0.00000000000E+00  0.35579425849E+03  0.25511719260E+04  0.25262400206E+04 0.  0.
        2    1    3    3  502    0 -0.10259261678E+04 -0.20970886401E+03 -0.53545221912E+03  0.11761000758E+04  0.25500000920E-02 0. -1.
       -2    1    3    3    0  502  0.10259261678E+04  0.20970886401E+03  0.89124647761E+03  0.13750718502E+04  0.25500000920E-02 0.  1.
</event>
<event>
 5   0  0.8407986E-06  0.2466478E+04  0.7818609E-02  0.8415026E-01
       -2   -1    0    0    0  501  0.00000000000E+00  0.00000000000E+00  0.10735979978E+04  0.10735979978E+04  0.25500000920E-02 0.  1.
        2   -1    0    0  501    0  0.00000000000E+00  0.00000000000E+00 -0.14166183609E+04  0.14166183609E+04  0.25500000920E-02 0. -1.
    10030    2    1    2    0    0  0.00000000000E+00  0.00000000000E+00 -0.34302036311E+03  0.24902163586E+04  0.24664781660E+04 0.  0.
        5    1    3    3  502    0  0.88132008279E+03  0.13579015512E+03 -0.10315847797E+04  0.13635810582E+04  0.46999998093E+01 0. -1.
       -5    1    3    3    0  502 -0.88132008279E+03 -0.13579015512E+03  0.68856441655E+03  0.11266353005E+04  0.46999998093E+01 0.  1.
</event>
<event>
 5   0  0.8354653E-06  0.2491005E+04  0.7818609E-02  0.8406197E-01
        2   -1    0    0  501    0  0.00000000000E+00  0.00000000000E+00  0.13857195513E+04  0.13857195513E+04  0.25500000920E-02 0.  1.
       -2   -1    0    0    0  501  0.00000000000E+00  0.00000000000E+00 -0.11194735185E+04  0.11194735185E+04  0.25500000920E-02 0. -1.
    10030    2    1    2    0    0  0.00000000000E+00  0.00000000000E+00  0.26624603277E+03  0.25051930698E+04  0.24910048910E+04 0.  0.
        3    1    3    3  502    0  0.50938833365E+03  0.10422643458E+04  0.58900934450E+03  0.13010470626E+04  0.10100000352E+00 0. -1.
       -3    1    3    3    0  502 -0.50938833365E+03 -0.10422643458E+04 -0.32276331172E+03  0.12041460072E+04  0.10100000352E+00 0.  1.
</event>
<event>
 5   0  0.8579923E-06  0.2505522E+04  0.7818609E-02  0.8401021E-01
       -2   -1    0    0    0  501  0.00000000000E+00  0.00000000000E+00  0.77946194744E+03  0.77946194745E+03  0.25500000920E-02 0. -1.
        2   -1    0    0  501    0  0.00000000000E+00  0.00000000000E+00 -0.20134537608E+04  0.20134537608E+04  0.25500000920E-02 0.  1.
    10030    2    1    2    0    0  0.00000000000E+00  0.00000000000E+00 -0.12339918134E+04  0.27929157083E+04  0.25055223723E+04 0.  0.
        1    1    3    3  502    0 -0.10751061620E+04  0.55981385340E+03 -0.26420349823E+03  0.12405838539E+04  0.50400001928E-02 0.  1.
       -1    1    3    3    0  502  0.10751061620E+04 -0.55981385340E+03 -0.96978831516E+03  0.15523318544E+04  0.50400001928E-02 0. -1.
</event>
<event>
 5   0  0.3484857E-06  0.2506958E+04  0.7818609E-02  0.8400511E-01
       -1   -1    0    0    0  501  0.00000000000E+00  0.00000000000E+00  0.21249662334E+04  0.21249662334E+04  0.50400001928E-02 0. -1.
        1   -1    0    0  501    0  0.00000000000E+00  0.00000000000E+00 -0.73940476195E+03  0.73940476197E+03  0.50400001928E-02 0.  1.
    10030    2    1    2    0    0  0.00000000000E+00  0.00000000000E+00  0.13855614714E+04  0.28643709954E+04  0.25069584376E+04 0.  0.
        3    1    3    3  502    0 -0.59431670876E+03 -0.10553235844E+04  0.10617611451E+04  0.16106697233E+04  0.10100000352E+00 0. -1.
       -3    1    3    3    0  502  0.59431670876E+03  0.10553235844E+04  0.32380032630E+03  0.12537012721E+04  0.10100000352E+00 0.  1.
</event>
<event>
 5   0  0.3484857E-06  0.2496752E+04  0.7818609E-02  0.8404143E-01
       -1   -1    0    0    0  501  0.00000000000E+00  0.00000000000E+00  0.98808348853E+03  0.98808348854E+03  0.50400001928E-02 0.  1.
        1   -1    0    0  501    0  0.00000000000E+00  0.00000000000E+00 -0.15772380627E+04  0.15772380627E+04  0.50400001928E-02 0. -1.
    10030    2    1    2    0    0  0.00000000000E+00  0.00000000000E+00 -0.58915457418E+03  0.25653215513E+04  0.24967522002E+04 0.  0.
        3    1    3    3  502    0  0.11290230829E+04  0.29676826015E+03  0.15992676870E+03  0.11782788734E+04  0.10100000352E+00 0.  1.
       -3    1    3    3    0  502 -0.11290230829E+04 -0.29676826015E+03 -0.74908134288E+03  0.13870426779E+04  0.10100000352E+00 0. -1.
</event>
<event>
 5   0  0.8407986E-06  0.2489983E+04  0.7818609E-02  0.8406563E-01
       -2   -1    0    0    0  501  0.00000000000E+00  0.00000000000E+00  0.48986602014E+03  0.48986602014E+03  0.25500000920E-02 0. -1.
        2   -1    0    0  501    0  0.00000000000E+00  0.00000000000E+00 -0.31641378368E+04  0.31641378368E+04  0.25500000920E-02 0.  1.
    10030    2    1    2    0    0  0.00000000000E+00  0.00000000000E+00 -0.26742718166E+04  0.36540038569E+04  0.24899828186E+04 0.  0.
        5    1    3    3  502    0 -0.35017824915E+03  0.11873753559E+04 -0.11430258858E+04  0.16849377756E+04  0.46999998093E+01 0. -1.
       -5    1    3    3    0  502  0.35017824915E+03 -0.11873753559E+04 -0.15312459308E+04  0.19690660813E+04  0.46999998093E+01 0.  1.
</event>
<event>
 5   0  0.3481387E-06  0.2520324E+04  0.7818609E-02  0.8395781E-01
        1   -1    0    0  501    0  0.00000000000E+00  0.00000000000E+00  0.15996360002E+04  0.15996360003E+04  0.50400001928E-02 0.  1.
       -1   -1    0    0    0  501  0.00000000000E+00  0.00000000000E+00 -0.99273089553E+03  0.99273089554E+03  0.50400001928E-02 0. -1.
    10030    2    1    2    0    0  0.00000000000E+00  0.00000000000E+00  0.60690510472E+03  0.25923668958E+04  0.25203238515E+04 0.  0.
        4    1    3    3  502    0  0.65384106945E+03 -0.44779933645E+03  0.13112421473E+04  0.15321194378E+04  0.12699999809E+01 0.  1.
       -4    1    3    3    0  502 -0.65384106945E+03  0.44779933645E+03 -0.70433704257E+03  0.10602474580E+04  0.12699999809E+01 0. -1.
</event>
<event>
 5   0  0.8579923E-06  0.2501929E+04  0.7818609E-02  0.8402299E-01
        2   -1    0    0  501    0  0.00000000000E+00  0.00000000000E+00  0.13703846166E+04  0.13703846166E+04  0.25500000920E-02 0.  1.
       -2   -1    0    0    0  501  0.00000000000E+00  0.00000000000E+00 -0.11419513466E+04  0.11419513466E+04  0.25500000920E-02 0. -1.
    10030    2    1    2    0    0  0.00000000000E+00  0.00000000000E+00  0.22843327006E+03  0.25123359632E+04  0.25019293022E+04 0.  0.
        1    1    3    3  502    0 -0.11332625236E+04 -0.52974029326E+03  0.11618246133E+03  0.12563467237E+04  0.50400001928E-02 0. -1.
       -1    1    3    3    0  502  0.11332625236E+04  0.52974029326E+03  0.11225080873E+03  0.12559892395E+04  0.50400001928E-02 0.  1.
</event>
<event>
 5   0  0.8354653E-06  0.2512142E+04  0.7818609E-02  0.8398672E-01
        2   -1    0    0  501    0  0.00000000000E+00  0.00000000000E+00  0.92707523183E+03  0.92707523183E+03  0.25500000920E-02 0. -1.
       -2   -1    0    0    0  501  0.00000000000E+00  0.00000000000E+00 -0.17018196219E+04  0.17018196219E+04  0.25500000920E-02 0.  1.
    10030    2    1    2    0    0  0.00000000000E+00  0.00000000000E+00 -0.77474439009E+03  0.26288948538E+04  0.25121423690E+04 0.  0.
        3    1    3    3  502    0  0.12311352084E+04 -0.18392941412E+02 -0.12746976868E+03  0.12378532845E+04  0.10100000352E+00 0.  1.
       -3    1    3    3    0  502 -0.12311352084E+04  0.18392941412E+02 -0.64727462141E+03  0.13910415693E+04  0.10100000352E+00 0. -1.
</event>
<event>
 5   0  0.3424193E-06  0.2506817E+04  0.7818609E-02  0.8400561E-01
       -1   -1    0    0    0  501  0.00000000000E+00  0.00000000000E+00  0.86109534456E+03  0.86109534458E+03  0.50400001928E-02 0.  1.
        1   -1    0    0  501    0  0.00000000000E+00  0.00000000000E+00 -0.18244586289E+04  0.18244586290E+04  0.50400001928E-02 0. -1.
    10030    2    1    2    0    0  0.00000000000E+00  0.00000000000E+00 -0.96336328439E+03  0.26855539735E+04  0.25068169712E+04 0.  0.
        1    1    3    3  502    0  0.10766657046E+04  0.81155207772E+01  0.20575431579E+03  0.10961796110E+04  0.50400001928E-02 0.  1.
       -1    1    3    3    0  502 -0.10766657046E+04 -0.81155207772E+01 -0.11691176002E+04  0.15893743625E+04  0.50400001928E-02 0. -1.
</event>
<event>
 5   0  0.8354653E-06  0.2501967E+04  0.7818609E-02  0.8402285E-01
        2   -1    0    0  501    0  0.00000000000E+00  0.00000000000E+00  0.87988137362E+03  0.87988137363E+03  0.25500000920E-02 0. -1.
       -2   -1    0    0    0  501  0.00000000000E+00  0.00000000000E+00 -0.17786030685E+04  0.17786030685E+04  0.25500000920E-02 0.  1.
    10030    2    1    2    0    0  0.00000000000E+00  0.00000000000E+00 -0.89872169488E+03  0.26584844421E+04  0.25019669950E+04 0.  0.
        3    1    3    3  502    0  0.44232094954E+03 -0.67559775128E+03  0.56585710173E+03  0.98603976274E+03  0.10100000352E+00 0. -1.
       -3    1    3    3    0  502 -0.44232094954E+03  0.67559775128E+03 -0.14645787966E+04  0.16724446794E+04  0.10100000352E+00 0.  1.
</event>
<event>
 5   0  0.8579923E-06  0.2508644E+04  0.7818609E-02  0.8399913E-01
       -2   -1    0    0    0  501  0.00000000000E+00  0.00000000000E+00  0.71299699232E+03  0.71299699232E+03  0.25500000920E-02 0.  1.
        2   -1    0    0  501    0  0.00000000000E+00  0.00000000000E+00 -0.22066345338E+04  0.22066345338E+04  0.25500000920E-02 0. -1.
    10030    2    1    2    0    0  0.00000000000E+00  0.00000000000E+00 -0.14936375415E+04  0.29196315261E+04  0.25086440845E+04 0.  0.
        1    1    3    3  502    0  0.15254470600E+03 -0.23643648636E+02 -0.21955374736E+04  0.22009574524E+04  0.50400001928E-02 0. -1.
       -1    1    3    3    0  502 -0.15254470600E+03  0.23643648636E+02  0.70189993212E+03  0.71867407368E+03  0.50400001928E-02 0.  1.
</event>
<event>
 5   0  0.3522870E-06  0.2485759E+04  0.7818609E-02  0.8408077E-01
       -1   -1    0    0    0  501  0.00000000000E+00  0.00000000000E+00  0.13031530222E+04  0.13031530222E+04  0.50400001928E-02 0. -1.
        1   -1    0    0  501    0  0.00000000000E+00  0.00000000000E+00 -0.11853938418E+04  0.11853938418E+04  0.50400001928E-02 0.  1.
    10030    2    1    2    0    0  0.00000000000E+00  0.00000000000E+00  0.11775918044E+03  0.24885468640E+04  0.24857590933E+04 0.  0.
        2    1    3    3  502    0 -0.10393395744E+04 -0.58732812596E+03  0.40505415706E+03  0.12606545715E+04  0.25500000920E-02 0. -1.
       -2    1    3    3    0  502  0.10393395744E+04  0.58732812596E+03 -0.28729497662E+03  0.12278922925E+04  0.25500000920E-02 0.  1.
</event>
<event>
 5   0  0.8948286E-06  0.2510116E+04  0.7818609E-02  0.8399390E-01
       -2   -1    0    0    0  501  0.00000000000E+00  0.00000000000E+00  0.12195016224E+04  0.12195016224E+04  0.25500000920E-02 0.  1.
        2   -1    0    0  501    0  0.00000000000E+00  0.00000000000E+00 -0.12916511970E+04  0.12916511970E+04  0.25500000920E-02 0. -1.
    10030    2    1    2    0    0  0.00000000000E+00  0.00000000000E+00 -0.72149574623E+02  0.25111528194E+04  0.25101161171E+04 0.  0.
        4    1    3    3  502    0  0.56934538907E+03  0.58885971135E+03  0.91524339056E+03  0.12282434647E+04  0.12699999809E+01 0.  1.
       -4    1    3    3    0  502 -0.56934538907E+03 -0.58885971135E+03 -0.98739296518E+03  0.12829093547E+04  0.12699999809E+01 0. -1.
</event>
<event>
 5   0  0.8056723E-06  0.2479448E+04  0.7818609E-02  0.8410344E-01
        2   -1    0    0  501    0  0.00000000000E+00  0.00000000000E+00  0.85354650113E+03  0.85354650113E+03  0.25500000920E-02 0. -1.
       -2   -1    0    0    0  501  0.00000000000E+00  0.00000000000E+00 -0.18006226380E+04  0.18006226380E+04  0.25500000920E-02 0.  1.
    10030    2    1    2    0    0  0.00000000000E+00  0.00000000000E+00 -0.94707613683E+03  0.26541691391E+04  0.24794476421E+04 0.  0.
        2    1    3    3  502    0  0.29957480734E+03 -0.35973004534E+03  0.75529399781E+03  0.88860553332E+03  0.25500000920E-02 0. -1.
       -2    1    3    3    0  502 -0.29957480734E+03  0.35973004534E+03 -0.17023701346E+04  0.17655636058E+04  0.25500000920E-02 0.  1.
</event>
<event>
 5   0  0.3484857E-06  0.2508371E+04  0.7818609E-02  0.8400009E-01
        1   -1    0    0  501    0  0.00000000000E+00  0.00000000000E+00  0.57030980252E+03  0.57030980254E+03  0.50400001928E-02 0.  1.
       -1   -1    0    0    0  501  0.00000000000E+00  0.00000000000E+00 -0.27581178618E+04  0.27581178618E+04  0.50400001928E-02 0. -1.
    10030    2    1    2    0    0  0.00000000000E+00  0.00000000000E+00 -0.21878080593E+04  0.33284276643E+04  0.25083713067E+04 0.  0.
        3    1    3    3  502    0 -0.49603142657E+03 -0.10678334032E+04 -0.52060626764E+03  0.12873796058E+04  0.10100000352E+00 0.  1.
       -3    1    3    3    0  502  0.49603142657E+03  0.10678334032E+04 -0.16672017916E+04  0.20410480586E+04  0.10100000352E+00 0. -1.
</event>
<event>
 5   0  0.3481387E-06  0.2488939E+04  0.7818609E-02  0.8406937E-01
       -1   -1    0    0    0  501  0.00000000000E+00  0.00000000000E+00  0.12187382824E+04  0.12187382824E+04  0.50400001928E-02 0.  1.
        1   -1    0    0  501    0  0.00000000000E+00  0.00000000000E+00 -0.12707435418E+04  0.12707435418E+04  0.50400001928E-02 0. -1.
    10030    2    1    2    0    0  0.00000000000E+00  0.00000000000E+00 -0.52005259409E+02  0.24894818242E+04  0.24889385702E+04 0.  0.
        4    1    3    3  502    0 -0.40678077312E+03 -0.28319886317E+03  0.11157499157E+04  0.12208897087E+04  0.12699999809E+01 0.  1.
       -4    1    3    3    0  502  0.40678077312E+03  0.28319886317E+03 -0.11677551751E+04  0.12685921155E+04  0.12699999809E+01 0. -1.
</event>
<event>
 5   0  0.3642184E-06  0.2483602E+04  0.7818609E-02  0.8408851E-01
       -1   -1    0    0    0  501  0.00000000000E+00  0.00000000000E+00  0.13350042523E+04  0.13350042523E+04  0.50400001928E-02 0. -1.
        1   -1    0    0  501    0  0.00000000000E+00  0.00000000000E+00 -0.11551044839E+04  0.11551044839E+04  0.50400001928E-02 0.  1.
    10030    2    1    2    0    0  0.00000000000E+00  0.00000000000E+00  0.17989976841E+03  0.24901087362E+04  0.24836017377E+04 0.  0.
        5    1    3    3  502    0  0.75379576908E+02 -0.58072933349E+03 -0.10079618813E+04  0.11657349113E+04  0.46999998093E+01 0.  1.
       -5    1    3    3    0  502 -0.75379576908E+02  0.58072933349E+03  0.11878616497E+04  0.13243738249E+04  0.46999998093E+01 0. -1.
</event>
<event>
 5   0  0.3481387E-06  0.2511854E+04  0.7818609E-02  0.8398775E-01
        1   -1    0    0  501    0  0.00000000000E+00  0.00000000000E+00  0.19602136288E+04  0.19602136288E+04  0.50400001928E-02 0.  1.
       -1   -1    0    0    0  501  0.00000000000E+00  0.00000000000E+00 -0.80468379273E+03  0.80468379275E+03  0.50400001928E-02 0. -1.
    10030    2    1    2    0    0  0.00000000000E+00  0.00000000000E+00  0.11555298361E+04  0.27648974215E+04  0.25118536083E+04 0.  0.
        4    1    3    3  502    0  0.66211278857E+03 -0.25535587298E+03 -0.56284304636E+03  0.90575596845E+03  0.12699999809E+01 0. -1.
       -4    1    3    3    0  502 -0.66211278857E+03  0.25535587298E+03  0.17183728824E+04  0.18591414531E+04  0.12699999809E+01 0.  1.
</event>
<event>
 5   0  0.3424193E-06  0.2504902E+04  0.7818609E-02  0.8401241E-01
       -1   -1    0    0    0  501  0.00000000000E+00  0.00000000000E+00  0.14212014280E+04  0.14212014280E+04  0.50400001928E-02 0.  1.
        1   -1    0    0  501    0  0.00000000000E+00  0.00000000000E+00 -0.11037380669E+04  0.11037380669E+04  0.50400001928E-02 0. -1.
    10030    2    1    2    0    0  0.00000000000E+00  0.00000000000E+00  0.31746336105E+03  0.25249394949E+04  0.25049024866E+04 0.  0.
        1    1    3    3  502    0 -0.36970638397E+03 -0.61638393221E+03  0.11926175378E+04  0.13924613294E+04  0.50400001928E-02 0.  1.
       -1    1    3    3    0  502  0.36970638397E+03  0.61638393221E+03 -0.87515417679E+03  0.11324781655E+04  0.50400001928E-02 0. -1.
</event>
<event>
 5   0  0.8407986E-06  0.2465109E+04  0.7818609E-02  0.8415522E-01
        2   -1    0    0  501    0  0.00000000000E+00  0.00000000000E+00  0.14065110964E+04  0.14065110964E+04  0.25500000920E-02 0.  1.
       -2   -1    0    0    0  501  0.00000000000E+00  0.00000000000E+00 -0.10801129329E+04  0.10801129329E+04  0.25500000920E-02 0. -1.
    10030    2    1    2    0    0  0.00000000000E+00  0.00000000000E+00  0.32639816347E+03  0.24866240293E+04  0.24651091866E+04 0.  0.
        5    1    3    3  502    0  0.64236767350E+03  0.96942760371E+03 -0.24870613076E+03  0.11892446915E+04  0.46999998093E+01 0. -1.
       -5    1    3    3    0  502 -0.64236767350E+03 -0.96942760371E+03  0.57510429423E+03  0.12973793378E+04  0.46999998093E+01 0.  1.
</event>
<event>
 5   0  0.3481387E-06  0.2497550E+04  0.7818609E-02  0.8403859E-01
       -1   -1    0    0    0  501  0.00000000000E+00  0.00000000000E+00  0.10452288798E+04  0.10452288798E+04  0.50400001928E-02 0.  1.
        1   -1    0    0  501    0  0.00000000000E+00  0.00000000000E+00 -0.14919593184E+04  0.14919593184E+04  0.50400001928E-02 0. -1.
    10030    2    1    2    0    0  0.00000000000E+00  0.00000000000E+00 -0.44673043855E+03  0.25371881982E+04  0.24975499732E+04 0.  0.
        4    1    3    3  502    0  0.37733344239E+03  0.10057058257E+04  0.42361980049E+03  0.11546774800E+04  0.12699999809E+01 0.  1.
       -4    1    3    3    0  502 -0.37733344239E+03 -0.10057058257E+04 -0.87035023904E+03  0.13825107182E+04  0.12699999809E+01 0. -1.
</event>
<event>
 5   0  0.8407986E-06  0.2499255E+04  0.7818609E-02  0.8403251E-01
       -2   -1    0    0    0  501  0.00000000000E+00  0.00000000000E+00  0.12754814255E+04  0.12754814255E+04  0.25500000920E-02 0. -1.
        2   -1    0    0  501    0  0.00000000000E+00  0.00000000000E+00 -0.12242974760E+04  0.12242974760E+04  0.25500000920E-02 0.  1.
    10030    2    1    2    0    0  0.00000000000E+00  0.00000000000E+00  0.51183949480E+02  0.24997789015E+04  0.24992548409E+04 0.  0.
        5    1    3    3  502    0 -0.68529297070E+03  0.83851514155E+03  0.64927103995E+03  0.12626595232E+04  0.46999998093E+01 0. -1.
       -5    1    3    3    0  502  0.68529297070E+03 -0.83851514155E+03 -0.59808709047E+03  0.12371193783E+04  0.46999998093E+01 0.  1.
</event>
<event>
 5   0  0.8354653E-06  0.2503602E+04  0.7818609E-02  0.8401704E-01
        2   -1    0    0  501    0  0.00000000000E+00  0.00000000000E+00  0.18431962761E+04  0.18431962761E+04  0.25500000920E-02 0. -1.
       -2   -1    0    0    0  501  0.00000000000E+00  0.00000000000E+00 -0.85015654166E+03  0.85015654167E+03  0.25500000920E-02 0.  1.
    10030    2    1    2    0    0  0.00000000000E+00  0.00000000000E+00  0.99303973441E+03  0.26933528177E+04  0.25036017029E+04 0.  0.
        3    1    3    3  502    0  0.81396019619E+03 -0.48075873264E+03  0.13792885026E+04  0.16721533852E+04  0.10100000352E+00 0. -1.
       -3    1    3    3    0  502 -0.81396019619E+03  0.48075873264E+03 -0.38624876816E+03  0.10211994326E+04  0.10100000352E+00 0.  1.
</event>
<event>
 5   0  0.8354653E-06  0.2486955E+04  0.7818609E-02  0.8407648E-01
       -2   -1    0    0    0  501  0.00000000000E+00  0.00000000000E+00  0.66400864131E+03  0.66400864131E+03  0.25500000920E-02 0.  1.
        2   -1    0    0  501    0  0.00000000000E+00  0.00000000000E+00 -0.23286393632E+04  0.23286393632E+04  0.25500000920E-02 0. -1.
    10030    2    1    2    0    0  0.00000000000E+00  0.00000000000E+00 -0.16646307219E+04  0.29926480045E+04  0.24869552949E+04 0.  0.
        3    1    3    3  502    0 -0.39560387956E+03  0.32220735177E+03 -0.21968798591E+04  0.22553494480E+04  0.10100000352E+00 0. -1.
       -3    1    3    3    0  502  0.39560387956E+03 -0.32220735177E+03  0.53224913726E+03  0.73729855647E+03  0.10100000352E+00 0.  1.
</event>
<event>
 5   0  0.3642184E-06  0.2532576E+04  0.7818609E-02  0.8391471E-01
       -1   -1    0    0    0  501  0.00000000000E+00  0.00000000000E+00  0.88512708876E+03  0.88512708878E+03  0.50400001928E-02 0.  1.
        1   -1    0    0  501    0  0.00000000000E+00  0.00000000000E+00 -0.18115872768E+04  0.18115872768E+04  0.50400001928E-02 0. -1.
    10030    2    1    2    0    0  0.00000000000E+00  0.00000000000E+00 -0.92646018806E+03  0.26967143656E+04  0.25325757421E+04 0.  0.
        5    1    3    3  502    0 -0.25928446598E+03  0.93009504981E+03  0.40910787767E+03  0.10486641891E+04  0.46999998093E+01 0.  1.
       -5    1    3    3    0  502  0.25928446598E+03 -0.93009504981E+03 -0.13355680657E+04  0.16480501765E+04  0.46999998093E+01 0. -1.
</event>
<event>
 5   0  0.8407986E-06  0.2402908E+04  0.7818609E-02  0.8438416E-01
       -2   -1    0    0    0  501  0.00000000000E+00  0.00000000000E+00  0.71064842264E+03  0.71064842265E+03  0.25500000920E-02 0. -1.
        2   -1    0    0  501    0  0.00000000000E+00  0.00000000000E+00 -0.20312324193E+04  0.20312324193E+04  0.25500000920E-02 0.  1.
    10030    2    1    2    0    0  0.00000000000E+00  0.00000000000E+00 -0.13205839967E+04  0.27418808420E+04  0.24029083335E+04 0.  0.
        5    1    3    3  502    0  0.89840726339E+03 -0.81769226650E+02  0.24514942468E+03  0.93484872988E+03  0.46999998093E+01 0. -1.
       -5    1    3    3    0  502 -0.89840726339E+03  0.81769226650E+02 -0.15657334214E+04  0.18070321121E+04  0.46999998093E+01 0.  1.
</event>
<event>
 5   0  0.8354653E-06  0.2500712E+04  0.7818609E-02  0.8402732E-01
        2   -1    0    0  501    0  0.00000000000E+00  0.00000000000E+00  0.17245436443E+04  0.17245436443E+04  0.25500000920E-02 0. -1.
       -2   -1    0    0    0  501  0.00000000000E+00  0.00000000000E+00 -0.90655289418E+03  0.90655289419E+03  0.25500000920E-02 0.  1.
    10030    2    1    2    0    0  0.00000000000E+00  0.00000000000E+00  0.81799075010E+03  0.26310965385E+04  0.25007119241E+04 0.  0.
        3    1    3    3  502    0 -0.11690729342E+03  0.31915010354E+03  0.16750058261E+04  0.17091426598E+04  0.10100000352E+00 0. -1.
       -3    1    3    3    0  502  0.11690729342E+03 -0.31915010354E+03 -0.85701507597E+03  0.92195387872E+03  0.10100000352E+00 0.  1.
</event>
<event>
 5   0  0.3484857E-06  0.2493700E+04  0.7818609E-02  0.8405233E-01
       -1   -1    0    0    0  501  0.00000000000E+00  0.00000000000E+00  0.19012750965E+04  0.19012750966E+04  0.50400001928E-02 0. -1.
        1   -1    0    0  501    0  0.00000000000E+00  0.00000000000E+00 -0.81768006433E+03  0.81768006435E+03  0.50400001928E-02 0.  1.
    10030    2    1    2    0    0  0.00000000000E+00  0.00000000000E+00  0.10835950322E+04  0.27189551609E+04  0.24936998563E+04 0.  0.
        3    1    3    3  502    0 -0.10640136863E+04  0.64838495684E+03  0.49175439493E+03  0.13395337144E+04  0.10100000352E+00 0. -1.
       -3    1    3    3    0  502  0.10640136863E+04 -0.64838495684E+03  0.59184063728E+03  0.13794214465E+04  0.10100000352E+00 0.  1.
</event>
<event>
 5   0  0.3484857E-06  0.2492107E+04  0.7818609E-02  0.8405803E-01
        1   -1    0    0  501    0  0.00000000000E+00  0.00000000000E+00  0.13801444122E+04  0.13801444122E+04  0.50400001928E-02 0. -1.
       -1   -1    0    0    0  501  0.00000000000E+00  0.00000000000E+00 -0.11249908119E+04  0.11249908120E+04  0.50400001928E-02 0.  1.
    10030    2    1    2    0    0  0.00000000000E+00  0.00000000000E+00  0.25515360021E+03  0.25051352241E+04  0.24921073676E+04 0.  0.
        3    1    3    3  502    0 -0.11653438785E+03  0.69074350024E+03 -0.90831647224E+03  0.11470595759E+04  0.10100000352E+00 0.  1.
       -3    1    3    3    0  502  0.11653438785E+03 -0.69074350024E+03  0.11634700725E+04  0.13580756482E+04  0.10100000352E+00 0. -1.
</event>
<event>
 5   0  0.3481387E-06  0.2489191E+04  0.7818609E-02  0.8406847E-01
       -1   -1    0    0    0  501  0.00000000000E+00  0.00000000000E+00  0.12148481002E+04  0.12148481003E+04  0.50400001928E-02 0. -1.
        1   -1    0    0  501    0  0.00000000000E+00  0.00000000000E+00 -0.12750708383E+04  0.12750708383E+04  0.50400001928E-02 0.  1.
    10030    2    1    2    0    0  0.00000000000E+00  0.00000000000E+00 -0.60222738059E+02  0.24899189386E+04  0.24891905396E+04 0.  0.
        4    1    3    3  502    0 -0.44224651841E+03  0.90791718295E+03 -0.75773070033E+03  0.12625581259E+04  0.12699999809E+01 0.  1.
       -4    1    3    3    0  502  0.44224651841E+03 -0.90791718295E+03  0.69750796227E+03  0.12273608127E+04  0.12699999809E+01 0. -1.
</event>
<event>
 5   0  0.8579923E-06  0.2497750E+04  0.7818609E-02  0.8403787E-01
       -2   -1    0    0    0  501  0.00000000000E+00  0.00000000000E+00  0.18904878174E+04  0.18904878174E+04  0.25500000920E-02 0.  1.
        2   -1    0    0  501    0  0.00000000000E+00  0.00000000000E+00 -0.82501946900E+03  0.82501946900E+03  0.25500000920E-02 0. -1.
    10030    2    1    2    0    0  0.00000000000E+00  0.00000000000E+00  0.10654683484E+04  0.27155072864E+04  0.24977503921E+04 0.  0.
        1    1    3    3  502    0  0.19860293051E+03 -0.10058459451E+04 -0.24254119045E+03  0.10535632010E+04  0.50400001928E-02 0. -1.
       -1    1    3    3    0  502 -0.19860293051E+03  0.10058459451E+04  0.13080095388E+04  0.16619440854E+04  0.50400001928E-02 0.  1.
</event>
<event>
 5   0  0.8407986E-06  0.2410093E+04  0.7818609E-02  0.8435734E-01
       -2   -1    0    0    0  501  0.00000000000E+00  0.00000000000E+00  0.57744605803E+03  0.57744605803E+03  0.25500000920E-02 0.  1.
        2   -1    0    0  501    0  0.00000000000E+00  0.00000000000E+00 -0.25147587574E+04  0.25147587574E+04  0.25500000920E-02 0. -1.
    10030    2    1    2    0    0  0.00000000000E+00  0.00000000000E+00 -0.19373126994E+04  0.30922048154E+04  0.24100933852E+04 0.  0.
        5    1    3    3  502    0  0.62811354425E+03 -0.10188563879E+04 -0.78939791362E+03  0.14337943087E+04  0.46999998093E+01 0.  1.
       -5    1    3    3    0  502 -0.62811354425E+03  0.10188563879E+04 -0.11479147857E+04  0.16584105067E+04  0.46999998093E+01 0. -1.
</event>
<event>
 5   0  0.8056723E-06  0.2479779E+04  0.7818609E-02  0.8410225E-01
       -2   -1    0    0    0  501  0.00000000000E+00  0.00000000000E+00  0.10355073728E+04  0.10355073728E+04  0.25500000920E-02 0.  1.
        2   -1    0    0  501    0  0.00000000000E+00  0.00000000000E+00 -0.14846118052E+04  0.14846118052E+04  0.25500000920E-02 0. -1.
    10030    2    1    2    0    0  0.00000000000E+00  0.00000000000E+00 -0.44910443245E+03  0.25201191781E+04  0.24797794015E+04 0.  0.
        2    1    3    3  502    0 -0.34172709043E+01  0.62868064165E+03  0.86151180778E+03  0.10665147078E+04  0.25500000920E-02 0.  1.
       -2    1    3    3    0  502  0.34172709043E+01 -0.62868064165E+03 -0.13106162402E+04  0.14536044703E+04  0.25500000920E-02 0. -1.
</event>
<event>
 5   0  0.8354653E-06  0.2563284E+04  0.7818609E-02  0.8380781E-01
        2   -1    0    0  501    0  0.00000000000E+00  0.00000000000E+00  0.25356669956E+04  0.25356669956E+04  0.25500000920E-02 0.  1.
       -2   -1    0    0    0  501  0.00000000000E+00  0.00000000000E+00 -0.64780035530E+03  0.64780035530E+03  0.25500000920E-02 0. -1.
    10030    2    1    2    0    0  0.00000000000E+00  0.00000000000E+00  0.18878666403E+04  0.31834673509E+04  0.25632838163E+04 0.  0.
        3    1    3    3  502    0 -0.55752190993E+03  0.48890768593E+03 -0.35433073258E+03  0.82183434076E+03  0.10100000352E+00 0. -1.
       -3    1    3    3    0  502  0.55752190993E+03 -0.48890768593E+03  0.22421973729E+04  0.23616330101E+04  0.10100000352E+00 0.  1.
</event>
<event>
 5   0  0.3522870E-06  0.2454288E+04  0.7818609E-02  0.8419454E-01
       -1   -1    0    0    0  501  0.00000000000E+00  0.00000000000E+00  0.94576935073E+03  0.94576935074E+03  0.50400001928E-02 0. -1.
        1   -1    0    0  501    0  0.00000000000E+00  0.00000000000E+00 -0.15922299193E+04  0.15922299193E+04  0.50400001928E-02 0.  1.
    10030    2    1    2    0    0  0.00000000000E+00  0.00000000000E+00 -0.64646056861E+03  0.25379992701E+04  0.24542878862E+04 0.  0.
        2    1    3    3  502    0  0.87374559396E+03 -0.79276637776E+03  0.25882512288E+02  0.11800761828E+04  0.25500000920E-02 0. -1.
       -2    1    3    3    0  502 -0.87374559396E+03  0.79276637776E+03 -0.67234308090E+03  0.13579230873E+04  0.25500000920E-02 0.  1.
</event>
<event>
 5   0  0.3424193E-06  0.2478214E+04  0.7818609E-02  0.8410788E-01
       -1   -1    0    0    0  501  0.00000000000E+00  0.00000000000E+00  0.15573056941E+04  0.15573056942E+04  0.50400001928E-02 0.  1.
        1   -1    0    0  501    0  0.00000000000E+00  0.00000000000E+00 -0.98592469596E+03  0.98592469597E+03  0.50400001928E-02 0. -1.
    10030    2    1    2    0    0  0.00000000000E+00  0.00000000000E+00  0.57138099818E+03  0.25432303901E+04  0.24782139884E+04 0.  0.
        1    1    3    3  502    0 -0.32658002227E+03 -0.59068811789E+03 -0.78071510572E+03  0.10320286042E+04  0.50400001928E-02 0. -1.
       -1    1    3    3    0  502  0.32658002227E+03  0.59068811789E+03  0.13520961039E+04  0.15112017859E+04  0.50400001928E-02 0.  1.
</event>
<event>
 5   0  0.8354653E-06  0.2497546E+04  0.7818609E-02  0.8403860E-01
        2   -1    0    0  501    0  0.00000000000E+00  0.00000000000E+00  0.11316367605E+04  0.11316367605E+04  0.25500000920E-02 0.  1.
       -2   -1    0    0    0  501  0.00000000000E+00  0.00000000000E+00 -0.13780345920E+04  0.13780345920E+04  0.25500000920E-02 0. -1.
    10030    2    1    2    0    0  0.00000000000E+00  0.00000000000E+00 -0.24639783150E+03  0.25096713525E+04  0.24975464773E+04 0.  0.
        3    1    3    3  502    0 -0.60653375129E+03 -0.43858928957E+03 -0.11276470014E+04  0.13534517082E+04  0.10100000352E+00 0. -1.
       -3    1    3    3    0  502  0.60653375129E+03  0.43858928957E+03  0.88124916988E+03  0.11562196444E+04  0.10100000352E+00 0.  1.
</event>
<event>
 5   0  0.8407986E-06  0.2495497E+04  0.7818609E-02  0.8404592E-01
        2   -1    0    0  501    0  0.00000000000E+00  0.00000000000E+00  0.14022176031E+04  0.14022176031E+04  0.25500000920E-02 0. -1.
       -2   -1    0    0    0  501  0.00000000000E+00  0.00000000000E+00 -0.11102957075E+04  0.11102957075E+04  0.25500000920E-02 0.  1.
    10030    2    1    2    0    0  0.00000000000E+00  0.00000000000E+00  0.29192189567E+03  0.25125133106E+04  0.24954968929E+04 0.  0.
        5    1    3    3  502    0  0.85184462026E+02 -0.15220386228E+03  0.13898739983E+04  0.14007834342E+04  0.46999998093E+01 0. -1.
       -5    1    3    3    0  502 -0.85184462026E+02  0.15220386228E+03 -0.10979521027E+04  0.11117298764E+04  0.46999998093E+01 0.  1.
</event>
<event>
 5   0  0.3484857E-06  0.2501260E+04  0.7818609E-02  0.8402537E-01
       -1   -1    0    0    0  501  0.00000000000E+00  0.00000000000E+00  0.60290585373E+03  0.60290585375E+03  0.50400001928E-02 0. -1.
        1   -1    0    0  501    0  0.00000000000E+00  0.00000000000E+00 -0.25942290043E+04  0.25942290043E+04  0.50400001928E-02 0.  1.
    10030    2    1    2    0    0  0.00000000000E+00  0.00000000000E+00 -0.19913231505E+04  0.31971348580E+04  0.25012603644E+04 0.  0.
        3    1    3    3  502    0 -0.46804677732E+03  0.31999888458E+03 -0.24205119524E+04  0.24860300066E+04  0.10100000352E+00 0.  1.
       -3    1    3    3    0  502  0.46804677732E+03 -0.31999888458E+03  0.42918880184E+03  0.71110485142E+03  0.10100000352E+00 0. -1.
</event>
<event>
 5   0  0.3522870E-06  0.2505024E+04  0.7818609E-02  0.8401198E-01
        1   -1    0    0  501    0  0.00000000000E+00  0.00000000000E+00  0.89567645619E+03  0.89567645620E+03  0.50400001928E-02 0. -1.
       -1   -1    0    0    0  501  0.00000000000E+00  0.00000000000E+00 -0.17515099870E+04  0.17515099870E+04  0.50400001928E-02 0.  1.
    10030    2    1    2    0    0  0.00000000000E+00  0.00000000000E+00 -0.85583353080E+03  0.26471864432E+04  0.25050239585E+04 0.  0.
        2    1    3    3  502    0 -0.34228689238E+03  0.11380381742E+04 -0.98718395943E+01  0.11884395887E+04  0.25500000920E-02 0. -1.
       -2    1    3    3    0  502  0.34228689238E+03 -0.11380381742E+04 -0.84596169120E+03  0.14587468545E+04  0.25500000920E-02 0.  1.
</event>
<event>
 5   0  0.3522870E-06  0.2508326E+04  0.7818609E-02  0.8400025E-01
       -1   -1    0    0    0  501  0.00000000000E+00  0.00000000000E+00  0.68624325361E+03  0.68624325363E+03  0.50400001928E-02 0. -1.
        1   -1    0    0  501    0  0.00000000000E+00  0.00000000000E+00 -0.22920808841E+04  0.22920808841E+04  0.50400001928E-02 0.  1.
    10030    2    1    2    0    0  0.00000000000E+00  0.00000000000E+00 -0.16058376305E+04  0.29783241377E+04  0.25083261697E+04 0.  0.
        2    1    3    3  502    0  0.46332246212E+03  0.74331936406E+03 -0.18687384242E+04  0.20638252540E+04  0.25500000920E-02 0.  1.
       -2    1    3    3    0  502 -0.46332246212E+03 -0.74331936406E+03  0.26290079378E+03  0.91449888369E+03  0.25500000920E-02 0. -1.
</event>
<event>
 5   0  0.8948286E-06  0.2486100E+04  0.7818609E-02  0.8407954E-01
       -2   -1    0    0    0  501  0.00000000000E+00  0.00000000000E+00  0.69746225347E+03  0.69746225348E+03  0.25500000920E-02 0.  1.
        2   -1    0    0  501    0  0.00000000000E+00  0.00000000000E+00 -0.22154218458E+04  0.22154218458E+04  0.25500000920E-02 0. -1.
    10030    2    1    2    0    0  0.00000000000E+00  0.00000000000E+00 -0.15179595923E+04  0.29128840993E+04  0.24860998475E+04 0.  0.
        4    1    3    3  502    0  0.11985807808E+04  0.32632756009E+03 -0.81249227504E+03  0.14843284254E+04  0.12699999809E+01 0.  1.
       -4    1    3    3    0  502 -0.11985807808E+04 -0.32632756009E+03 -0.70546731726E+03  0.14285556738E+04  0.12699999809E+01 0. -1.
</event>
<event>
 5   0  0.3642184E-06  0.2497661E+04  0.7818609E-02  0.8403819E-01
        1   -1    0    0  501    0  0.00000000000E+00  0.00000000000E+00  0.17041576664E+04  0.17041576664E+04  0.50400001928E-02 0. -1.
       -1   -1    0    0    0  501  0.00000000000E+00  0.00000000000E+00 -0.91516048054E+03  0.91516048055E+03  0.50400001928E-02 0.  1.
    10030    2    1    2    0    0  0.00000000000E+00  0.00000000000E+00  0.78899718584E+03  0.26193181469E+04  0.24976611050E+04 0.  0.
        5    1    3    3  502    0 -0.51300174482E+03  0.10512100853E+04  0.85323177023E+03  0.14478397623E+04  0.46999998093E+01 0. -1.
       -5    1    3    3    0  502  0.51300174482E+03 -0.10512100853E+04 -0.64234584390E+02  0.11714783846E+04  0.46999998093E+01 0.  1.
</event>
<event>
 5   0  0.8407986E-06  0.2496573E+04  0.7818609E-02  0.8404207E-01
        2   -1    0    0  501    0  0.00000000000E+00  0.00000000000E+00  0.16981923242E+04  0.16981923242E+04  0.25500000920E-02 0.  1.
       -2   -1    0    0    0  501  0.00000000000E+00  0.00000000000E+00 -0.91757511670E+03  0.91757511670E+03  0.25500000920E-02 0. -1.
    10030    2    1    2    0    0  0.00000000000E+00  0.00000000000E+00  0.78061720753E+03  0.26157674409E+04  0.24965728670E+04 0.  0.
        5    1    3    3  502    0  0.18902621612E+03 -0.27676818230E+03  0.16501585301E+04  0.16838577142E+04  0.46999998093E+01 0.  1.
       -5    1    3    3    0  502 -0.18902621612E+03  0.27676818230E+03 -0.86954132259E+03  0.93190972674E+03  0.46999998093E+01 0. -1.
</event>
<event>
 5   0  0.3522870E-06  0.2490433E+04  0.7818609E-02  0.8406402E-01
        1   -1    0    0  501    0  0.00000000000E+00  0.00000000000E+00  0.72986768752E+03  0.72986768754E+03  0.50400001928E-02 0.  1.
       -1   -1    0    0    0  501  0.00000000000E+00  0.00000000000E+00 -0.21244448954E+04  0.21244448954E+04  0.50400001928E-02 0. -1.
    10030    2    1    2    0    0  0.00000000000E+00  0.00000000000E+00 -0.13945772079E+04  0.28543125829E+04  0.24904326396E+04 0.  0.
        2    1    3    3  502    0  0.66707817869E+03  0.70829477461E+03  0.19335767045E+03  0.99199897830E+03  0.25500000920E-02 0.  1.
       -2    1    3    3    0  502 -0.66707817869E+03 -0.70829477461E+03 -0.15879348783E+04  0.18623136046E+04  0.25500000920E-02 0. -1.
</event>
<event>
 5   0  0.8579923E-06  0.2504356E+04  0.7818609E-02  0.8401435E-01
       -2   -1    0    0    0  501  0.00000000000E+00  0.00000000000E+00  0.17627414354E+04  0.17627414354E+04  0.25500000920E-02 0. -1.
        2   -1    0    0  501    0  0.00000000000E+00  0.00000000000E+00 -0.88949524972E+03  0.88949524972E+03  0.25500000920E-02 0.  1.
    10030    2    1    2    0    0  0.00000000000E+00  0.00000000000E+00  0.87324618569E+03  0.26522366851E+04  0.25043563111E+04 0.  0.
        1    1    3    3  502    0 -0.41882906319E+02 -0.10567974696E+04  0.11465614539E+04  0.15598648137E+04  0.50400001928E-02 0. -1.
       -1    1    3    3    0  502  0.41882906319E+02  0.10567974696E+04 -0.27331526819E+03  0.10923718714E+04  0.50400001928E-02 0.  1.
</event>
<event>
 5   0  0.3642184E-06  0.2503842E+04  0.7818609E-02  0.8401618E-01
       -1   -1    0    0    0  501  0.00000000000E+00  0.00000000000E+00  0.15556148244E+04  0.15556148244E+04  0.50400001928E-02 0. -1.
        1   -1    0    0  501    0  0.00000000000E+00  0.00000000000E+00 -0.10075152116E+04  0.10075152116E+04  0.50400001928E-02 0.  1.
    10030    2    1    2    0    0  0.00000000000E+00  0.00000000000E+00  0.54809961277E+03  0.25631300360E+04  0.25038415277E+04 0.  0.
        5    1    3    3  502    0  0.80203717339E+01  0.70493205227E+03  0.13330950947E+04  0.15080312153E+04  0.46999998093E+01 0.  1.
       -5    1    3    3    0  502 -0.80203717339E+01 -0.70493205227E+03 -0.78499548198E+03  0.10550988207E+04  0.46999998093E+01 0. -1.
</event>
<event>
 5   0  0.3522870E-06  0.2472584E+04  0.7818609E-02  0.8412818E-01
       -1   -1    0    0    0  501  0.00000000000E+00  0.00000000000E+00  0.12269705530E+04  0.12269705530E+04  0.50400001928E-02 0.  1.
        1   -1    0    0  501    0  0.00000000000E+00  0.00000000000E+00 -0.12456843849E+04  0.12456843849E+04  0.50400001928E-02 0. -1.
    10030    2    1    2    0    0  0.00000000000E+00  0.00000000000E+00 -0.18713831935E+02  0.24726549379E+04  0.24725841208E+04 0.  0.
        2    1    3    3  502    0  0.68450409312E+03 -0.21481102214E+02  0.10199493811E+04  0.12285373545E+04  0.25500000920E-02 0.  1.
       -2    1    3    3    0  502 -0.68450409312E+03  0.21481102214E+02 -0.10386632130E+04  0.12441175834E+04  0.25500000920E-02 0. -1.
</event>
<event>
 5   0  0.8056723E-06  0.2502898E+04  0.7818609E-02  0.8401954E-01
       -2   -1    0    0    0  501  0.00000000000E+00  0.00000000000E+00  0.47915389317E+03  0.47915389318E+03  0.25500000920E-02 0. -1.
        2   -1    0    0  501    0  0.00000000000E+00  0.00000000000E+00 -0.32685223709E+04  0.32685223709E+04  0.25500000920E-02 0.  1.
    10030    2    1    2    0    0  0.00000000000E+00  0.00000000000E+00 -0.27893684777E+04  0.37476762641E+04  0.25028984949E+04 0.  0.
        2    1    3    3  502    0 -0.92641865143E+03 -0.68584676937E+02 -0.13909105484E+03  0.93930915953E+03  0.25500000920E-02 0. -1.
       -2    1    3    3    0  502  0.92641865143E+03  0.68584676937E+02 -0.26502774229E+04  0.28083671046E+04  0.25500000920E-02 0.  1.
</event>
<event>
 5   0  0.8056723E-06  0.2539271E+04  0.7818609E-02  0.8389127E-01
       -2   -1    0    0    0  501  0.00000000000E+00  0.00000000000E+00  0.80624159832E+03  0.80624159832E+03  0.25500000920E-02 0. -1.
        2   -1    0    0  501    0  0.00000000000E+00  0.00000000000E+00 -0.19993689961E+04  0.19993689961E+04  0.25500000920E-02 0.  1.
    10030    2    1    2    0    0  0.00000000000E+00  0.00000000000E+00 -0.11931273978E+04  0.28056105944E+04  0.25392711199E+04 0.  0.
        2    1    3    3  502    0  0.84991338690E+03  0.92839135867E+03 -0.41263657079E+03  0.13245875659E+04  0.25500000920E-02 0. -1.
       -2    1    3    3    0  502 -0.84991338690E+03 -0.92839135867E+03 -0.78049082699E+03  0.14810230286E+04  0.25500000920E-02 0.  1.
</event>
<event>
 5   0  0.8948286E-06  0.2513509E+04  0.7818609E-02  0.8398189E-01
        2   -1    0    0  501    0  0.00000000000E+00  0.00000000000E+00  0.19115383464E+04  0.19115383464E+04  0.25500000920E-02 0. -1.
       -2   -1    0    0    0  501  0.00000000000E+00  0.00000000000E+00 -0.82626204620E+03  0.82626204620E+03  0.25500000920E-02 0.  1.
    10030    2    1    2    0    0  0.00000000000E+00  0.00000000000E+00  0.10852763002E+04  0.27378003926E+04  0.25135087710E+04 0.  0.
        4    1    3    3  502    0  0.53174469433E+03 -0.64278541784E+03 -0.48118689527E+03  0.96305137683E+03  0.12699999809E+01 0.  1.
       -4    1    3    3    0  502 -0.53174469433E+03  0.64278541784E+03  0.15664631955E+04  0.17747490158E+04  0.12699999809E+01 0. -1.
</event>
<event>
 5   0  0.8056723E-06  0.2513017E+04  0.7818609E-02  0.8398363E-01
        2   -1    0    0  501    0  0.00000000000E+00  0.00000000000E+00  0.11193288150E+04  0.11193288150E+04  0.25500000920E-02 0.  1.
       -2   -1    0    0    0  501  0.00000000000E+00  0.00000000000E+00 -0.14105006710E+04  0.14105006710E+04  0.25500000920E-02 0. -1.
    10030    2    1    2    0    0  0.00000000000E+00  0.00000000000E+00 -0.29117185604E+03  0.25298294860E+04  0.25130173455E+04 0.  0.
        2    1    3    3  502    0 -0.70188196834E+03  0.10039289721E+04 -0.42728356694E+03  0.12973368587E+04  0.25500000920E-02 0. -1.
       -2    1    3    3    0  502  0.70188196834E+03 -0.10039289721E+04  0.13611171091E+03  0.12324926273E+04  0.25500000920E-02 0.  1.
</event>
<event>
 5   0  0.8056723E-06  0.2497677E+04  0.7818609E-02  0.8403814E-01
        2   -1    0    0  501    0  0.00000000000E+00  0.00000000000E+00  0.12567826967E+04  0.12567826967E+04  0.25500000920E-02 0. -1.
       -2   -1    0    0    0  501  0.00000000000E+00  0.00000000000E+00 -0.12409445649E+04  0.12409445649E+04  0.25500000920E-02 0.  1.
    10030    2    1    2    0    0  0.00000000000E+00  0.00000000000E+00  0.15838131856E+02  0.24977272616E+04  0.24976770462E+04 0.  0.
        2    1    3    3  502    0  0.13606274188E+03 -0.55771883917E+03 -0.11011723385E+04  0.12418308630E+04  0.25500000920E-02 0.  1.
       -2    1    3    3    0  502 -0.13606274188E+03  0.55771883917E+03  0.11170104703E+04  0.12558963986E+04  0.25500000920E-02 0. -1.
</event>
<event>
 5   0  0.8354653E-06  0.2506404E+04  0.7818609E-02  0.8400708E-01
       -2   -1    0    0    0  501  0.00000000000E+00  0.00000000000E+00  0.94272638610E+03  0.94272638611E+03  0.25500000920E-02 0. -1.
        2   -1    0    0  501    0  0.00000000000E+00  0.00000000000E+00 -0.16659287907E+04  0.16659287907E+04  0.25500000920E-02 0.  1.
    10030    2    1    2    0    0  0.00000000000E+00  0.00000000000E+00 -0.72320240463E+03  0.26086551768E+04  0.25064038209E+04 0.  0.
        3    1    3    3  502    0 -0.81028230300E+03 -0.46454567143E+03 -0.12312452637E+04  0.15454206551E+04  0.10100000352E+00 0.  1.
       -3    1    3    3    0  502  0.81028230300E+03  0.46454567143E+03  0.50804285911E+03  0.10632345218E+04  0.10100000352E+00 0. -1.
</event>
<event>
 5   0  0.3481387E-06  0.2473623E+04  0.7818609E-02  0.8412443E-01
        1   -1    0    0  501    0  0.00000000000E+00  0.00000000000E+00  0.91538054357E+03  0.91538054359E+03  0.50400001928E-02 0. -1.
       -1   -1    0    0    0  501  0.00000000000E+00  0.00000000000E+00 -0.16711114624E+04  0.16711114624E+04  0.50400001928E-02 0.  1.
    10030    2    1    2    0    0  0.00000000000E+00  0.00000000000E+00 -0.75573091881E+03  0.25864920060E+04  0.24736231878E+04 0.  0.
        4    1    3    3  502    0 -0.32548306146E+03  0.86061285422E+03  0.48635024705E+03  0.10407362220E+04  0.12699999809E+01 0. -1.
       -4    1    3    3    0  502  0.32548306146E+03 -0.86061285422E+03 -0.12420811659E+04  0.15457557840E+04  0.12699999809E+01 0.  1.
</event>
<event>
 5   0  0.3424193E-06  0.2505564E+04  0.7818609E-02  0.8401006E-01
        1   -1    0    0  501    0  0.00000000000E+00  0.00000000000E+00  0.22391431083E+04  0.22391431083E+04  0.50400001928E-02 0.  1.
       -1   -1    0    0    0  501  0.00000000000E+00  0.00000000000E+00 -0.70092092914E+03  0.70092092915E+03  0.50400001928E-02 0. -1.
    10030    2    1    2    0    0  0.00000000000E+00  0.00000000000E+00  0.15382221792E+04  0.29400640375E+04  0.25055636236E+04 0.  0.
        1    1    3    3  502    0 -0.67812159056E+03 -0.10506431476E+04  0.85818515479E+03  0.15166349842E+04  0.50400001928E-02 0. -1.
       -1    1    3    3    0  502  0.67812159056E+03  0.10506431476E+04  0.68003702440E+03  0.14234290533E+04  0.50400001928E-02 0.  1.
</event>
<event>
 5   0  0.3484857E-06  0.2453551E+04  0.7818609E-02  0.8419723E-01
       -1   -1    0    0    0  501  0.00000000000E+00  0.00000000000E+00  0.12850003449E+04  0.12850003449E+04  0.50400001928E-02 0.  1.
        1   -1    0    0  501    0  0.00000000000E+00  0.00000000000E+00 -0.11711884193E+04  0.11711884193E+04  0.50400001928E-02 0. -1.
    10030    2    1    2    0    0  0.00000000000E+00  0.00000000000E+00  0.11381192553E+03  0.24561887642E+04  0.24535505071E+04 0.  0.
        3    1    3    3  502    0  0.61047287793E+03  0.17788524083E+03 -0.99334425692E+03  0.11794291486E+04  0.10100000352E+00 0. -1.
       -3    1    3    3    0  502 -0.61047287793E+03 -0.17788524083E+03  0.11071561824E+04  0.12767596156E+04  0.10100000352E+00 0.  1.
</event>
<event>
 5   0  0.3522870E-06  0.2490645E+04  0.7818609E-02  0.8406326E-01
       -1   -1    0    0    0  501  0.00000000000E+00  0.00000000000E+00  0.73014362673E+03  0.73014362675E+03  0.50400001928E-02 0.  1.
        1   -1    0    0  501    0  0.00000000000E+00  0.00000000000E+00 -0.21240044543E+04  0.21240044543E+04  0.50400001928E-02 0. -1.
    10030    2    1    2    0    0  0.00000000000E+00  0.00000000000E+00 -0.13938608275E+04  0.28541480810E+04  0.24906451497E+04 0.  0.
        2    1    3    3  502    0 -0.19610302922E+03 -0.11012252580E+04 -0.13242513652E+04  0.17334344940E+04  0.25500000920E-02 0. -1.
       -2    1    3    3    0  502  0.19610302922E+03  0.11012252580E+04 -0.69609462372E+02  0.11207135870E+04  0.25500000920E-02 0.  1.
</event>
<event>
 5   0  0.3424193E-06  0.2495830E+04  0.7818609E-02  0.8404473E-01
        1   -1    0    0  501    0  0.00000000000E+00  0.00000000000E+00  0.97581679351E+03  0.97581679352E+03  0.50400001928E-02 0.  1.
       -1   -1    0    0    0  501  0.00000000000E+00  0.00000000000E+00 -0.15958854832E+04  0.15958854832E+04  0.50400001928E-02 0. -1.
    10030    2    1    2    0    0  0.00000000000E+00  0.00000000000E+00 -0.62006868968E+03  0.25717022767E+04  0.24958300063E+04 0.  0.
        1    1    3    3  502    0 -0.34768230658E+03 -0.36614545044E+03 -0.14859304201E+04  0.15693739805E+04  0.50400001928E-02 0. -1.
       -1    1    3    3    0  502  0.34768230658E+03  0.36614545044E+03  0.86586173043E+03  0.10023282962E+04  0.50400001928E-02 0.  1.
</event>
<event>
 5   0  0.8948286E-06  0.2476033E+04  0.7818609E-02  0.8411574E-01
       -2   -1    0    0    0  501  0.00000000000E+00  0.00000000000E+00  0.63036217698E+03  0.63036217699E+03  0.25500000920E-02 0.  1.
        2   -1    0    0  501    0  0.00000000000E+00  0.00000000000E+00 -0.24314355850E+04  0.24314355850E+04  0.25500000920E-02 0. -1.
    10030    2    1    2    0    0  0.00000000000E+00  0.00000000000E+00 -0.18010734080E+04  0.30617977620E+04  0.24760331408E+04 0.  0.
        4    1    3    3  502    0 -0.12133950132E+04 -0.24561890694E+03 -0.90699892463E+03  0.15347002208E+04  0.12699999809E+01 0.  1.
       -4    1    3    3    0  502  0.12133950132E+04  0.24561890694E+03 -0.89407448340E+03  0.15270975412E+04  0.12699999809E+01 0. -1.
</event>
<event>
 5   0  0.8948286E-06  0.2492782E+04  0.7818609E-02  0.8405562E-01
       -2   -1    0    0    0  501  0.00000000000E+00  0.00000000000E+00  0.89708944125E+03  0.89708944125E+03  0.25500000920E-02 0.  1.
        2   -1    0    0  501    0  0.00000000000E+00  0.00000000000E+00 -0.17317002843E+04  0.17317002843E+04  0.25500000920E-02 0. -1.
    10030    2    1    2    0    0  0.00000000000E+00  0.00000000000E+00 -0.83461084308E+03  0.26287897256E+04  0.24927816114E+04 0.  0.
        4    1    3    3  502    0 -0.10194273565E+04  0.61988108794E+03 -0.37072670713E+02  0.11936752884E+04  0.12699999809E+01 0.  1.
       -4    1    3    3    0  502  0.10194273565E+04 -0.61988108794E+03 -0.79753817237E+03  0.14351144371E+04  0.12699999809E+01 0. -1.
</event>
<event>
 5   0  0.8056723E-06  0.2498995E+04  0.7818609E-02  0.8403344E-01
        2   -1    0    0  501    0  0.00000000000E+00  0.00000000000E+00  0.12642422732E+04  0.12642422733E+04  0.25500000920E-02 0.  1.
       -2   -1    0    0    0  501  0.00000000000E+00  0.00000000000E+00 -0.12349251067E+04  0.12349251067E+04  0.25500000920E-02 0. -1.
    10030    2    1    2    0    0  0.00000000000E+00  0.00000000000E+00  0.29317166529E+02  0.24991673800E+04  0.24989954175E+04 0.  0.
        2    1    3    3  502    0 -0.10943428229E+03 -0.11642620896E+04 -0.42555626929E+03  0.12444196293E+04  0.25500000920E-02 0. -1.
       -2    1    3    3    0  502  0.10943428229E+03  0.11642620896E+04  0.45487343582E+03  0.12547477507E+04  0.25500000920E-02 0.  1.
</event>
<event>
 5   0  0.2901250E-06  0.2497597E+04  0.7818609E-02  0.8403842E-01
       -3   -1    0    0    0  501  0.00000000000E+00  0.00000000000E+00  0.23983495252E+04  0.23983495274E+04  0.10100000352E+00 0.  1.
        3   -1    0    0  501    0  0.00000000000E+00  0.00000000000E+00 -0.65023800904E+03  0.65023801689E+03  0.10100000352E+00 0. -1.
    10030    2    1    2    0    0  0.00000000000E+00  0.00000000000E+00  0.17481115162E+04  0.30485875442E+04  0.24975972738E+04 0.  0.
        4    1    3    3  502    0  0.89708299293E+03  0.51210267188E+03  0.17306490993E+04  0.20154788415E+04  0.12699999809E+01 0.  1.
       -4    1    3    3    0  502 -0.89708299293E+03 -0.51210267188E+03  0.17462416882E+02  0.10331087027E+04  0.12699999809E+01 0. -1.
</event>
<event>
 5   0  0.3481387E-06  0.2525715E+04  0.7818609E-02  0.8393881E-01
       -1   -1    0    0    0  501  0.00000000000E+00  0.00000000000E+00  0.12089166436E+04  0.12089166436E+04  0.50400001928E-02 0. -1.
        1   -1    0    0  501    0  0.00000000000E+00  0.00000000000E+00 -0.13192051024E+04  0.13192051024E+04  0.50400001928E-02 0.  1.
    10030    2    1    2    0    0  0.00000000000E+00  0.00000000000E+00 -0.11028845881E+03  0.25281217460E+04  0.25257149520E+04 0.  0.
        4    1    3    3  502    0 -0.11587007813E+04  0.41077371254E+03  0.23406855051E+03  0.12514440630E+04  0.12699999809E+01 0.  1.
       -4    1    3    3    0  502  0.11587007813E+04 -0.41077371254E+03 -0.34435700933E+03  0.12766776830E+04  0.12699999809E+01 0. -1.
</event>
<event>
 5   0  0.3484857E-06  0.2503670E+04  0.7818609E-02  0.8401679E-01
       -1   -1    0    0    0  501  0.00000000000E+00  0.00000000000E+00  0.64624850864E+03  0.64624850866E+03  0.50400001928E-02 0. -1.
        1   -1    0    0  501    0  0.00000000000E+00  0.00000000000E+00 -0.24249051146E+04  0.24249051146E+04  0.50400001928E-02 0.  1.
    10030    2    1    2    0    0  0.00000000000E+00  0.00000000000E+00 -0.17786566060E+04  0.30711536233E+04  0.25036703568E+04 0.  0.
        3    1    3    3  502    0  0.22798034589E+03 -0.66174782095E+03  0.38380474894E+03  0.79824263990E+03  0.10100000352E+00 0. -1.
       -3    1    3    3    0  502 -0.22798034589E+03  0.66174782095E+03 -0.21624613549E+04  0.22729109834E+04  0.10100000352E+00 0.  1.
</event>
<event>
 5   0  0.3481387E-06  0.2495598E+04  0.7818609E-02  0.8404555E-01
        1   -1    0    0  501    0  0.00000000000E+00  0.00000000000E+00  0.15354762594E+04  0.15354762594E+04  0.50400001928E-02 0.  1.
       -1   -1    0    0    0  501  0.00000000000E+00  0.00000000000E+00 -0.10140195533E+04  0.10140195533E+04  0.50400001928E-02 0. -1.
    10030    2    1    2    0    0  0.00000000000E+00  0.00000000000E+00  0.52145670614E+03  0.25494958127E+04  0.24955984859E+04 0.  0.
        4    1    3    3  502    0 -0.96637262063E+03  0.55485334440E+03 -0.31288088126E+03  0.11574257360E+04  0.12699999809E+01 0. -1.
       -4    1    3    3    0  502  0.96637262063E+03 -0.55485334440E+03  0.83433758740E+03  0.13920700767E+04  0.12699999809E+01 0.  1.
</event>
<event>
 5   0  0.3481387E-06  0.2494916E+04  0.7818609E-02  0.8404799E-01
       -1   -1    0    0    0  501  0.00000000000E+00  0.00000000000E+00  0.67407133846E+03  0.67407133848E+03  0.50400001928E-02 0.  1.
        1   -1    0    0  501    0  0.00000000000E+00  0.00000000000E+00 -0.23085853720E+04  0.23085853720E+04  0.50400001928E-02 0. -1.
    10030    2    1    2    0    0  0.00000000000E+00  0.00000000000E+00 -0.16345140335E+04  0.29826567105E+04  0.24949158156E+04 0.  0.
        4    1    3    3  502    0 -0.65575318430E+03  0.31295605046E+03 -0.20294877961E+04  0.21556382015E+04  0.12699999809E+01 0. -1.
       -4    1    3    3    0  502  0.65575318430E+03 -0.31295605046E+03  0.39497376256E+03  0.82701850901E+03  0.12699999809E+01 0.  1.
</event>
<event>
 5   0  0.8579923E-06  0.2501481E+04  0.7818609E-02  0.8402458E-01
        2   -1    0    0  501    0  0.00000000000E+00  0.00000000000E+00  0.30284851916E+04  0.30284851916E+04  0.25500000920E-02 0.  1.
       -2   -1    0    0    0  501  0.00000000000E+00  0.00000000000E+00 -0.51654588899E+03  0.51654588899E+03  0.25500000920E-02 0. -1.
    10030    2    1    2    0    0  0.00000000000E+00  0.00000000000E+00  0.25119393026E+04  0.35450310806E+04  0.25014808219E+04 0.  0.
        1    1    3    3  502    0 -0.73326960724E+03  0.72978517019E+03  0.25982619497E+03  0.10666678786E+04  0.50400001928E-02 0. -1.
       -1    1    3    3    0  502  0.73326960724E+03 -0.72978517019E+03  0.22521131077E+04  0.24783632020E+04  0.50400001928E-02 0.  1.
</event>
<event>
 5   0  0.8056723E-06  0.2494826E+04  0.7818609E-02  0.8404831E-01
       -2   -1    0    0    0  501  0.00000000000E+00  0.00000000000E+00  0.13553706351E+04  0.13553706351E+04  0.25500000920E-02 0. -1.
        2   -1    0    0  501    0  0.00000000000E+00  0.00000000000E+00 -0.11480542556E+04  0.11480542556E+04  0.25500000920E-02 0.  1.
    10030    2    1    2    0    0  0.00000000000E+00  0.00000000000E+00  0.20731637952E+03  0.25034248907E+04  0.24948258661E+04 0.  0.
        2    1    3    3  502    0 -0.26401521602E+03 -0.11983748657E+04 -0.12124078224E+03  0.12330878640E+04  0.25500000920E-02 0.  1.
       -2    1    3    3    0  502  0.26401521602E+03  0.11983748657E+04  0.32855716176E+03  0.12703370268E+04  0.25500000920E-02 0. -1.
</event>
<event>
 5   0  0.8354653E-06  0.2504859E+04  0.7818609E-02  0.8401256E-01
       -2   -1    0    0    0  501  0.00000000000E+00  0.00000000000E+00  0.96521279962E+03  0.96521279962E+03  0.25500000920E-02 0. -1.
        2   -1    0    0  501    0  0.00000000000E+00  0.00000000000E+00 -0.16251129511E+04  0.16251129511E+04  0.25500000920E-02 0.  1.
    10030    2    1    2    0    0  0.00000000000E+00  0.00000000000E+00 -0.65990015143E+03  0.25903257507E+04  0.25048591347E+04 0.  0.
        3    1    3    3  502    0 -0.14102778529E+03  0.11665821754E+03 -0.16112088180E+04  0.16215707944E+04  0.10100000352E+00 0.  1.
       -3    1    3    3    0  502  0.14102778529E+03 -0.11665821754E+03  0.95130866657E+03  0.96875495624E+03  0.10100000352E+00 0. -1.
</event>
<event>
 5   0  0.8407986E-06  0.2503089E+04  0.7818609E-02  0.8401886E-01
        2   -1    0    0  501    0  0.00000000000E+00  0.00000000000E+00  0.71114790000E+03  0.71114790001E+03  0.25500000920E-02 0. -1.
       -2   -1    0    0    0  501  0.00000000000E+00  0.00000000000E+00 -0.22025842104E+04  0.22025842104E+04  0.25500000920E-02 0.  1.
    10030    2    1    2    0    0  0.00000000000E+00  0.00000000000E+00 -0.14914363104E+04  0.29137321104E+04  0.25030886008E+04 0.  0.
        5    1    3    3  502    0  0.74610662819E+03 -0.98308218589E+03 -0.98770539737E+03  0.15807307572E+04  0.46999998093E+01 0.  1.
       -5    1    3    3    0  502 -0.74610662819E+03  0.98308218589E+03 -0.50373091303E+03  0.13330013532E+04  0.46999998093E+01 0. -1.
</event>
<event>
 5   0  0.3642184E-06  0.2500518E+04  0.7818609E-02  0.8402801E-01
       -1   -1    0    0    0  501  0.00000000000E+00  0.00000000000E+00  0.10059317390E+04  0.10059317390E+04  0.50400001928E-02 0.  1.
        1   -1    0    0  501    0  0.00000000000E+00  0.00000000000E+00 -0.15539295859E+04  0.15539295859E+04  0.50400001928E-02 0. -1.
    10030    2    1    2    0    0  0.00000000000E+00  0.00000000000E+00 -0.54799784690E+03  0.25598613248E+04  0.25005176188E+04 0.  0.
        5    1    3    3  502    0 -0.85411488294E+03 -0.59018435289E+03  0.43916524780E+03  0.11272612867E+04  0.46999998093E+01 0.  1.
       -5    1    3    3    0  502  0.85411488294E+03  0.59018435289E+03 -0.98716309471E+03  0.14326000381E+04  0.46999998093E+01 0. -1.
</event>
<event>
 5   0  0.3522870E-06  0.2492113E+04  0.7818609E-02  0.8405801E-01
        1   -1    0    0  501    0  0.00000000000E+00  0.00000000000E+00  0.19492163592E+04  0.19492163592E+04  0.50400001928E-02 0. -1.
       -1   -1    0    0    0  501  0.00000000000E+00  0.00000000000E+00 -0.79655455218E+03  0.79655455219E+03  0.50400001928E-02 0.  1.
    10030    2    1    2    0    0  0.00000000000E+00  0.00000000000E+00  0.11526618070E+04  0.27457709114E+04  0.24921132912E+04 0.  0.
        2    1    3    3  502    0  0.13516718596E+03 -0.12304623707E+04  0.73350167724E+03  0.14388650126E+04  0.25500000920E-02 0.  1.
       -2    1    3    3    0  502 -0.13516718596E+03  0.12304623707E+04  0.41916012974E+03  0.13069058988E+04  0.25500000920E-02 0. -1.
</event>
<event>
 5   0  0.3642184E-06  0.2498960E+04  0.7818609E-02  0.8403356E-01
       -1   -1    0    0    0  501  0.00000000000E+00  0.00000000000E+00  0.12296560542E+04  0.12296560542E+04  0.50400001928E-02 0.  1.
        1   -1    0    0  501    0  0.00000000000E+00  0.00000000000E+00 -0.12696236154E+04  0.12696236154E+04  0.50400001928E-02 0. -1.
    10030    2    1    2    0    0  0.00000000000E+00  0.00000000000E+00 -0.39967561189E+02  0.24992796696E+04  0.24989600759E+04 0.  0.
        5    1    3    3  502    0 -0.70118461737E+03  0.31862511915E+03  0.96401014840E+03  0.12339041658E+04  0.46999998093E+01 0.  1.
       -5    1    3    3    0  502  0.70118461737E+03 -0.31862511915E+03 -0.10039777096E+04  0.12653755038E+04  0.46999998093E+01 0. -1.
</event>
<event>
 5   0  0.8056723E-06  0.2504658E+04  0.7818609E-02  0.8401328E-01
       -2   -1    0    0    0  501  0.00000000000E+00  0.00000000000E+00  0.19391827913E+04  0.19391827913E+04  0.25500000920E-02 0. -1.
        2   -1    0    0  501    0  0.00000000000E+00  0.00000000000E+00 -0.80875686433E+03  0.80875686433E+03  0.25500000920E-02 0.  1.
    10030    2    1    2    0    0  0.00000000000E+00  0.00000000000E+00  0.11304259270E+04  0.27479396557E+04  0.25046575763E+04 0.  0.
        2    1    3    3  502    0 -0.36958223831E+03  0.48057955046E+03  0.17674510794E+04  0.18685371426E+04  0.25500000920E-02 0. -1.
       -2    1    3    3    0  502  0.36958223831E+03 -0.48057955046E+03 -0.63702515240E+03  0.87940251307E+03  0.25500000920E-02 0.  1.
</event>
<event>
 5   0  0.8579923E-06  0.2491309E+04  0.7818609E-02  0.8406088E-01
        2   -1    0    0  501    0  0.00000000000E+00  0.00000000000E+00  0.16529669173E+04  0.16529669173E+04  0.25500000920E-02 0. -1.
       -2   -1    0    0    0  501  0.00000000000E+00  0.00000000000E+00 -0.93870899303E+03  0.93870899303E+03  0.25500000920E-02 0.  1.
    10030    2    1    2    0    0  0.00000000000E+00  0.00000000000E+00  0.71425792428E+03  0.25916759103E+04  0.24913088211E+04 0.  0.
        1    1    3    3  502    0  0.10424581589E+04 -0.62724031531E+03  0.78950948311E+02  0.12191729486E+04  0.50400001928E-02 0. -1.
       -1    1    3    3    0  502 -0.10424581589E+04  0.62724031531E+03  0.63530697597E+03  0.13725029618E+04  0.50400001928E-02 0.  1.
</event>
<event>
 5   0  0.8579923E-06  0.2501674E+04  0.7818609E-02  0.8402389E-01
       -2   -1    0    0    0  501  0.00000000000E+00  0.00000000000E+00  0.61959014975E+03  0.61959014976E+03  0.25500000920E-02 0. -1.
        2   -1    0    0  501    0  0.00000000000E+00  0.00000000000E+00 -0.25252071653E+04  0.25252071653E+04  0.25500000920E-02 0.  1.
    10030    2    1    2    0    0  0.00000000000E+00  0.00000000000E+00 -0.19056170156E+04  0.31447973151E+04  0.25016742280E+04 0.  0.
        1    1    3    3  502    0  0.64853338721E+02  0.30300384282E+03 -0.24761951689E+04  0.24955079240E+04  0.50400001928E-02 0.  1.
       -1    1    3    3    0  502 -0.64853338721E+02 -0.30300384282E+03  0.57057815332E+03  0.64928939108E+03  0.50400001928E-02 0. -1.
</event>
<event>
 5   0  0.8354653E-06  0.2502980E+04  0.7818609E-02  0.8401925E-01
       -2   -1    0    0    0  501  0.00000000000E+00  0.00000000000E+00  0.15463695965E+04  0.15463695965E+04  0.25500000920E-02 0. -1.
        2   -1    0    0  501    0  0.00000000000E+00  0.00000000000E+00 -0.10128414019E+04  0.10128414019E+04  0.25500000920E-02 0.  1.
    10030    2    1    2    0    0  0.00000000000E+00  0.00000000000E+00  0.53352819456E+03  0.25592109984E+04  0.25029799440E+04 0.  0.
        3    1    3    3  502    0  0.55653719686E+03 -0.70264929009E+03  0.11597562663E+04  0.14657708838E+04  0.10100000352E+00 0. -1.
       -3    1    3    3    0  502 -0.55653719686E+03  0.70264929009E+03 -0.62622807171E+03  0.10934401147E+04  0.10100000352E+00 0.  1.
</event>
<event>
 5   0  0.3481387E-06  0.2491466E+04  0.7818609E-02  0.8406032E-01
        1   -1    0    0  501    0  0.00000000000E+00  0.00000000000E+00  0.10035082545E+04  0.10035082545E+04  0.50400001928E-02 0. -1.
       -1   -1    0    0    0  501  0.00000000000E+00  0.00000000000E+00 -0.15464248608E+04  0.15464248608E+04  0.50400001928E-02 0.  1.
    10030    2    1    2    0    0  0.00000000000E+00  0.00000000000E+00 -0.54291660636E+03  0.25499331153E+04  0.24914655228E+04 0.  0.
        4    1    3    3  502    0 -0.74490934016E+03  0.80933245465E+02  0.74708866760E+03  0.10581035892E+04  0.12699999809E+01 0. -1.
       -4    1    3    3    0  502  0.74490934016E+03 -0.80933245465E+02 -0.12900052740E+04  0.14918295261E+04  0.12699999809E+01 0.  1.
</event>
<event>
 5   0  0.8354653E-06  0.2499993E+04  0.7818609E-02  0.8402988E-01
        2   -1    0    0  501    0  0.00000000000E+00  0.00000000000E+00  0.21775783641E+04  0.21775783641E+04  0.25500000920E-02 0.  1.
       -2   -1    0    0    0  501  0.00000000000E+00  0.00000000000E+00 -0.71753615780E+03  0.71753615781E+03  0.25500000920E-02 0. -1.
    10030    2    1    2    0    0  0.00000000000E+00  0.00000000000E+00  0.14600422063E+04  0.28951145219E+04  0.24999929702E+04 0.  0.
        3    1    3    3  502    0  0.66308826871E+03  0.49728294424E+02  0.19557668039E+04  0.20657160398E+04  0.10100000352E+00 0.  1.
       -3    1    3    3    0  502 -0.66308826871E+03 -0.49728294424E+02 -0.49572459760E+03  0.82939848218E+03  0.10100000352E+00 0. -1.
</event>
<event>
 5   0  0.3522870E-06  0.2493930E+04  0.7818609E-02  0.8405151E-01
        1   -1    0    0  501    0  0.00000000000E+00  0.00000000000E+00  0.14752877483E+04  0.14752877483E+04  0.50400001928E-02 0.  1.
       -1   -1    0    0    0  501  0.00000000000E+00  0.00000000000E+00 -0.10539790097E+04  0.10539790098E+04  0.50400001928E-02 0. -1.
    10030    2    1    2    0    0  0.00000000000E+00  0.00000000000E+00  0.42130873855E+03  0.25292667581E+04  0.24939304883E+04 0.  0.
        2    1    3    3  502    0 -0.84355536999E+03 -0.53669256384E+03 -0.54508709102E+03  0.11387469021E+04  0.25500000920E-02 0. -1.
       -2    1    3    3    0  502  0.84355536999E+03  0.53669256384E+03  0.96639582957E+03  0.13905198559E+04  0.25500000920E-02 0.  1.
</event>
<event>
 5   0  0.8407986E-06  0.2502482E+04  0.7818609E-02  0.8402102E-01
       -2   -1    0    0    0  501  0.00000000000E+00  0.00000000000E+00  0.16837838271E+04  0.16837838271E+04  0.25500000920E-02 0.  1.
        2   -1    0    0  501    0  0.00000000000E+00  0.00000000000E+00 -0.92981279881E+03  0.92981279881E+03  0.25500000920E-02 0. -1.
    10030    2    1    2    0    0  0.00000000000E+00  0.00000000000E+00  0.75397102826E+03  0.26135966259E+04  0.25024817704E+04 0.  0.
        5    1    3    3  502    0  0.34248268483E+03 -0.65516710056E+03  0.14312849317E+04  0.16109428806E+04  0.46999998093E+01 0.  1.
       -5    1    3    3    0  502 -0.34248268483E+03  0.65516710056E+03 -0.67731390342E+03  0.10026537452E+04  0.46999998093E+01 0. -1.
</event>
<event>
 5   0  0.8354653E-06  0.2504167E+04  0.7818609E-02  0.8401503E-01
       -2   -1    0    0    0  501  0.00000000000E+00  0.00000000000E+00  0.12709728974E+04  0.12709728974E+04  0.25500000920E-02 0. -1.
        2   -1    0    0  501    0  0.00000000000E+00  0.00000000000E+00 -0.12334747960E+04  0.12334747960E+04  0.25500000920E-02 0.  1.
    10030    2    1    2    0    0  0.00000000000E+00  0.00000000000E+00  0.37498101376E+02  0.25044476933E+04  0.25041669555E+04 0.  0.
        3    1    3    3  502    0  0.18902894066E+03 -0.10564343435E+04 -0.62624771327E+03  0.12425665661E+04  0.10100000352E+00 0.  1.
       -3    1    3    3    0  502 -0.18902894066E+03  0.10564343435E+04  0.66374581465E+03  0.12618811272E+04  0.10100000352E+00 0. -1.
</event>
<event>
 5   0  0.3522870E-06  0.2488202E+04  0.7818609E-02  0.8407201E-01
       -1   -1    0    0    0  501  0.00000000000E+00  0.00000000000E+00  0.72083618534E+03  0.72083618536E+03  0.50400001928E-02 0.  1.
        1   -1    0    0  501    0  0.00000000000E+00  0.00000000000E+00 -0.21472107140E+04  0.21472107140E+04  0.50400001928E-02 0. -1.
    10030    2    1    2    0    0  0.00000000000E+00  0.00000000000E+00 -0.14263745287E+04  0.28680468994E+04  0.24882019052E+04 0.  0.
        2    1    3    3  502    0  0.98521893602E+03 -0.69674531882E+03 -0.36418332630E+03  0.12604522547E+04  0.25500000920E-02 0.  1.
       -2    1    3    3    0  502 -0.98521893602E+03  0.69674531882E+03 -0.10621912024E+04  0.16075946447E+04  0.25500000920E-02 0. -1.
</event>
<event>
 5   0  0.3522870E-06  0.2496669E+04  0.7818609E-02  0.8404173E-01
        1   -1    0    0  501    0  0.00000000000E+00  0.00000000000E+00  0.97255229324E+03  0.97255229325E+03  0.50400001928E-02 0. -1.
       -1   -1    0    0    0  501  0.00000000000E+00  0.00000000000E+00 -0.16023193069E+04  0.16023193069E+04  0.50400001928E-02 0.  1.
    10030    2    1    2    0    0  0.00000000000E+00  0.00000000000E+00 -0.62976701362E+03  0.25748716001E+04  0.24966692343E+04 0.  0.
        2    1    3    3  502    0  0.37055543891E+03  0.43533238462E+03 -0.14593792743E+04  0.15673587607E+04  0.25500000920E-02 0.  1.
       -2    1    3    3    0  502 -0.37055543891E+03 -0.43533238462E+03  0.82961226072E+03  0.10075128394E+04  0.25500000920E-02 0. -1.
</event>
<event>
 5   0  0.3642184E-06  0.2493377E+04  0.7818609E-02  0.8405349E-01
        1   -1    0    0  501    0  0.00000000000E+00  0.00000000000E+00  0.88862383317E+03  0.88862383319E+03  0.50400001928E-02 0.  1.
       -1   -1    0    0    0  501  0.00000000000E+00  0.00000000000E+00 -0.17490333693E+04  0.17490333694E+04  0.50400001928E-02 0. -1.
    10030    2    1    2    0    0  0.00000000000E+00  0.00000000000E+00 -0.86040953617E+03  0.26376572025E+04  0.24933774179E+04 0.  0.
        5    1    3    3  502    0  0.10599374393E+04  0.64366777708E+03 -0.29458717298E+03  0.12745898458E+04  0.46999998093E+01 0.  1.
       -5    1    3    3    0  502 -0.10599374393E+04 -0.64366777708E+03 -0.56582236319E+03  0.13630673568E+04  0.46999998093E+01 0. -1.
</event>
<event>
 5   0  0.8056723E-06  0.2492199E+04  0.7818609E-02  0.8405770E-01
       -2   -1    0    0    0  501  0.00000000000E+00  0.00000000000E+00  0.98110559785E+03  0.98110559786E+03  0.25500000920E-02 0.  1.
        2   -1    0    0  501    0  0.00000000000E+00  0.00000000000E+00 -0.15826672481E+04  0.15826672481E+04  0.25500000920E-02 0. -1.
    10030    2    1    2    0    0  0.00000000000E+00  0.00000000000E+00 -0.60156165024E+03  0.25637728460E+04  0.24921987855E+04 0.  0.
        2    1    3    3  502    0  0.11621827830E+04  0.43897496546E+03 -0.40049686428E+03  0.13052837162E+04  0.25500000920E-02 0. -1.
       -2    1    3    3    0  502 -0.11621827830E+04 -0.43897496546E+03 -0.20106478596E+03  0.12584891297E+04  0.25500000920E-02 0.  1.
</event>
<event>
 5   0  0.8056723E-06  0.2499130E+04  0.7818609E-02  0.8403296E-01
        2   -1    0    0  501    0  0.00000000000E+00  0.00000000000E+00  0.13768671733E+04  0.13768671733E+04  0.25500000920E-02 0. -1.
       -2   -1    0    0    0  501  0.00000000000E+00  0.00000000000E+00 -0.11340329529E+04  0.11340329529E+04  0.25500000920E-02 0.  1.
    10030    2    1    2    0    0  0.00000000000E+00  0.00000000000E+00  0.24283422037E+03  0.25109001261E+04  0.24991300456E+04 0.  0.
        2    1    3    3  502    0 -0.57519030500E+02  0.68931316778E+03 -0.92413364292E+03  0.11543327389E+04  0.25500000920E-02 0.  1.
       -2    1    3    3    0  502  0.57519030500E+02 -0.68931316778E+03  0.11669678633E+04  0.13565673872E+04  0.25500000920E-02 0. -1.
</event>
<event>
 5   0  0.3484857E-06  0.2510903E+04  0.7818609E-02  0.8399112E-01
       -1   -1    0    0    0  501  0.00000000000E+00  0.00000000000E+00  0.12920013351E+04  0.12920013352E+04  0.50400001928E-02 0.  1.
        1   -1    0    0  501    0  0.00000000000E+00  0.00000000000E+00 -0.12199352974E+04  0.12199352974E+04  0.50400001928E-02 0. -1.
    10030    2    1    2    0    0  0.00000000000E+00  0.00000000000E+00  0.72066037775E+02  0.25119366325E+04  0.25109026528E+04 0.  0.
        3    1    3    3  502    0 -0.13473016557E+03  0.54650612533E+03  0.11586969284E+04  0.12881769073E+04  0.10100000352E+00 0.  1.
       -3    1    3    3    0  502  0.13473016557E+03 -0.54650612533E+03 -0.10866308906E+04  0.12237597252E+04  0.10100000352E+00 0. -1.
</event>
<event>
 5   0  0.8948286E-06  0.2495828E+04  0.7818609E-02  0.8404473E-01
       -2   -1    0    0    0  501  0.00000000000E+00  0.00000000000E+00  0.75028030717E+03  0.75028030717E+03  0.25500000920E-02 0.  1.
        2   -1    0    0  501    0  0.00000000000E+00  0.00000000000E+00 -0.20756098407E+04  0.20756098407E+04  0.25500000920E-02 0. -1.
    10030    2    1    2    0    0  0.00000000000E+00  0.00000000000E+00 -0.13253295335E+04  0.28258901478E+04  0.24958278697E+04 0.  0.
        4    1    3    3  502    0  0.57394249767E+03 -0.97594513173E+03 -0.68469126100E+02  0.11342700406E+04  0.12699999809E+01 0. -1.
       -4    1    3    3    0  502 -0.57394249767E+03  0.97594513173E+03 -0.12568604074E+04  0.16916201073E+04  0.12699999809E+01 0.  1.
</event>
<event>
 5   0  0.3424193E-06  0.2512737E+04  0.7818609E-02  0.8398462E-01
       -1   -1    0    0    0  501  0.00000000000E+00  0.00000000000E+00  0.87817442481E+03  0.87817442483E+03  0.50400001928E-02 0.  1.
        1   -1    0    0  501    0  0.00000000000E+00  0.00000000000E+00 -0.17974352234E+04  0.17974352234E+04  0.50400001928E-02 0. -1.
    10030    2    1    2    0    0  0.00000000000E+00  0.00000000000E+00 -0.91926079858E+03  0.26756096482E+04  0.25127368692E+04 0.  0.
        1    1    3    3  502    0  0.28009521346E+03 -0.37229942700E+03  0.78279077917E+03  0.91094544070E+03  0.50400001928E-02 0.  1.
       -1    1    3    3    0  502 -0.28009521346E+03  0.37229942700E+03 -0.17020515778E+04  0.17646642075E+04  0.50400001928E-02 0. -1.
</event>
<event>
 5   0  0.8056723E-06  0.2511091E+04  0.7818609E-02  0.8399045E-01
       -2   -1    0    0    0  501  0.00000000000E+00  0.00000000000E+00  0.62277158328E+03  0.62277158329E+03  0.25500000920E-02 0. -1.
        2   -1    0    0  501    0  0.00000000000E+00  0.00000000000E+00 -0.25312554234E+04  0.25312554234E+04  0.25500000920E-02 0.  1.
    10030    2    1    2    0    0  0.00000000000E+00  0.00000000000E+00 -0.19084838401E+04  0.31540270067E+04  0.25110905581E+04 0.  0.
        2    1    3    3  502    0  0.35108616457E+02 -0.81486782747E+03  0.24470067852E+03  0.85154014190E+03  0.25500000920E-02 0. -1.
       -2    1    3    3    0  502 -0.35108616457E+02  0.81486782747E+03 -0.21531845186E+04  0.23024868648E+04  0.25500000920E-02 0.  1.
</event>
<event>
 5   0  0.3484857E-06  0.2513173E+04  0.7818609E-02  0.8398308E-01
       -1   -1    0    0    0  501  0.00000000000E+00  0.00000000000E+00  0.11109890269E+04  0.11109890269E+04  0.50400001928E-02 0. -1.
        1   -1    0    0  501    0  0.00000000000E+00  0.00000000000E+00 -0.14212643253E+04  0.14212643253E+04  0.50400001928E-02 0.  1.
    10030    2    1    2    0    0  0.00000000000E+00  0.00000000000E+00 -0.31027529839E+03  0.25322533522E+04  0.25131725525E+04 0.  0.
        3    1    3    3  502    0  0.80786001786E+03 -0.88739958774E+03 -0.53065099301E+03  0.13121380733E+04  0.10100000352E+00 0. -1.
       -3    1    3    3    0  502 -0.80786001786E+03  0.88739958774E+03  0.22037569462E+03  0.12201152789E+04  0.10100000352E+00 0.  1.
</event>
<event>
 5   0  0.8579923E-06  0.2510139E+04  0.7818609E-02  0.8399382E-01
        2   -1    0    0  501    0  0.00000000000E+00  0.00000000000E+00  0.17483408975E+04  0.17483408975E+04  0.25500000920E-02 0. -1.
       -2   -1    0    0    0  501  0.00000000000E+00  0.00000000000E+00 -0.90096850049E+03  0.90096850049E+03  0.25500000920E-02 0.  1.
    10030    2    1    2    0    0  0.00000000000E+00  0.00000000000E+00  0.84737239702E+03  0.26493093980E+04  0.25101394995E+04 0.  0.
        1    1    3    3  502    0 -0.36938014311E+03 -0.97144422789E+03  0.11662971130E+04  0.15621762173E+04  0.50400001928E-02 0.  1.
       -1    1    3    3    0  502  0.36938014311E+03  0.97144422789E+03 -0.31892471602E+03  0.10871331807E+04  0.50400001928E-02 0. -1.
</event>
<event>
 5   0  0.8407986E-06  0.2504716E+04  0.7818609E-02  0.8401308E-01
        2   -1    0    0  501    0  0.00000000000E+00  0.00000000000E+00  0.19094546272E+04  0.19094546272E+04  0.25500000920E-02 0. -1.
       -2   -1    0    0    0  501  0.00000000000E+00  0.00000000000E+00 -0.82138634534E+03  0.82138634535E+03  0.25500000920E-02 0.  1.
    10030    2    1    2    0    0  0.00000000000E+00  0.00000000000E+00  0.10880682819E+04  0.27308409726E+04  0.25047155191E+04 0.  0.
        5    1    3    3  502    0  0.67440822657E+03 -0.64646025866E+02 -0.60432217426E+03  0.90787275816E+03  0.46999998093E+01 0.  1.
       -5    1    3    3    0  502 -0.67440822657E+03  0.64646025866E+02  0.16923904561E+04  0.18229682144E+04  0.46999998093E+01 0. -1.
</event>
<event>
 5   0  0.3424193E-06  0.2491604E+04  0.7818609E-02  0.8405983E-01
       -1   -1    0    0    0  501  0.00000000000E+00  0.00000000000E+00  0.16315131844E+04  0.16315131844E+04  0.50400001928E-02 0. -1.
        1   -1    0    0  501    0  0.00000000000E+00  0.00000000000E+00 -0.95127824406E+03  0.95127824407E+03  0.50400001928E-02 0.  1.
    10030    2    1    2    0    0  0.00000000000E+00  0.00000000000E+00  0.68023494035E+03  0.25827914285E+04  0.24916043002E+04 0.  0.
        1    1    3    3  502    0 -0.25430252149E+03 -0.93301547485E+03 -0.47401465381E+03  0.10769761097E+04  0.50400001928E-02 0.  1.
       -1    1    3    3    0  502  0.25430252149E+03  0.93301547485E+03  0.11542495942E+04  0.15058153188E+04  0.50400001928E-02 0. -1.
</event>
<event>
 5   0  0.3481387E-06  0.2489823E+04  0.7818609E-02  0.8406620E-01
        1   -1    0    0  501    0  0.00000000000E+00  0.00000000000E+00  0.11992474275E+04  0.11992474275E+04  0.50400001928E-02 0.  1.
       -1   -1    0    0    0  501  0.00000000000E+00  0.00000000000E+00 -0.12923146291E+04  0.12923146291E+04  0.50400001928E-02 0. -1.
    10030    2    1    2    0    0  0.00000000000E+00  0.00000000000E+00 -0.93067201623E+02  0.24915620566E+04  0.24898232825E+04 0.  0.
        4    1    3    3  502    0 -0.77567227429E+02 -0.12165560582E+04 -0.29925315751E+03  0.12552208502E+04  0.12699999809E+01 0. -1.
       -4    1    3    3    0  502  0.77567227429E+02  0.12165560582E+04  0.20618595589E+03  0.12363412065E+04  0.12699999809E+01 0.  1.
</event>
<event>
 5   0  0.3481387E-06  0.2472021E+04  0.7818609E-02  0.8413021E-01
        1   -1    0    0  501    0  0.00000000000E+00  0.00000000000E+00  0.90356760686E+03  0.90356760688E+03  0.50400001928E-02 0. -1.
       -1   -1    0    0    0  501  0.00000000000E+00  0.00000000000E+00 -0.16907670000E+04  0.16907670000E+04  0.50400001928E-02 0.  1.
    10030    2    1    2    0    0  0.00000000000E+00  0.00000000000E+00 -0.78719939315E+03  0.25943346069E+04  0.24720212717E+04 0.  0.
        4    1    3    3  502    0 -0.54661575486E+03  0.19945935541E+03  0.75083684146E+03  0.94991072913E+03  0.12699999809E+01 0. -1.
       -4    1    3    3    0  502  0.54661575486E+03 -0.19945935541E+03 -0.15380362346E+04  0.16444238778E+04  0.12699999809E+01 0.  1.
</event>
<event>
 5   0  0.8056723E-06  0.2483971E+04  0.7818609E-02  0.8408718E-01
       -2   -1    0    0    0  501  0.00000000000E+00  0.00000000000E+00  0.91670173802E+03  0.91670173802E+03  0.25500000920E-02 0.  1.
        2   -1    0    0  501    0  0.00000000000E+00  0.00000000000E+00 -0.16826927753E+04  0.16826927753E+04  0.25500000920E-02 0. -1.
    10030    2    1    2    0    0  0.00000000000E+00  0.00000000000E+00 -0.76599103730E+03  0.25993945133E+04  0.24839705245E+04 0.  0.
        2    1    3    3  502    0  0.11132213252E+04  0.34370924643E+02 -0.95815706935E+03  0.14691861859E+04  0.25500000920E-02 0. -1.
       -2    1    3    3    0  502 -0.11132213252E+04 -0.34370924643E+02  0.19216603206E+03  0.11302083274E+04  0.25500000920E-02 0.  1.
</event>
<event>
 5   0  0.8056723E-06  0.2506382E+04  0.7818609E-02  0.8400716E-01
       -2   -1    0    0    0  501  0.00000000000E+00  0.00000000000E+00  0.13932047202E+04  0.13932047202E+04  0.25500000920E-02 0. -1.
        2   -1    0    0  501    0  0.00000000000E+00  0.00000000000E+00 -0.11272480732E+04  0.11272480732E+04  0.25500000920E-02 0.  1.
    10030    2    1    2    0    0  0.00000000000E+00  0.00000000000E+00  0.26595664699E+03  0.25204527935E+04  0.25063817239E+04 0.  0.
        2    1    3    3  502    0 -0.21538751242E+03  0.12734226365E+03  0.13678296475E+04  0.13905271580E+04  0.25500000920E-02 0. -1.
       -2    1    3    3    0  502  0.21538751242E+03 -0.12734226365E+03 -0.11018730005E+04  0.11299256355E+04  0.25500000920E-02 0.  1.
</event>
<event>
 5   0  0.8948286E-06  0.2494591E+04  0.7818609E-02  0.8404915E-01
        2   -1    0    0  501    0  0.00000000000E+00  0.00000000000E+00  0.18177011023E+04  0.18177011023E+04  0.25500000920E-02 0. -1.
       -2   -1    0    0    0  501  0.00000000000E+00  0.00000000000E+00 -0.85588632449E+03  0.85588632449E+03  0.25500000920E-02 0.  1.
    10030    2    1    2    0    0  0.00000000000E+00  0.00000000000E+00  0.96181477784E+03  0.26735874268E+04  0.24945905600E+04 0.  0.
        4    1    3    3  502    0 -0.11176705000E+03  0.73574893872E+03  0.15536927454E+04  0.17227249154E+04  0.12699999809E+01 0. -1.
       -4    1    3    3    0  502  0.11176705000E+03 -0.73574893872E+03 -0.59187796752E+03  0.95086251142E+03  0.12699999809E+01 0.  1.
</event>
<event>
 5   0  0.8407986E-06  0.2480227E+04  0.7818609E-02  0.8410064E-01
        2   -1    0    0  501    0  0.00000000000E+00  0.00000000000E+00  0.16803446029E+04  0.16803446029E+04  0.25500000920E-02 0.  1.
       -2   -1    0    0    0  501  0.00000000000E+00  0.00000000000E+00 -0.91521787562E+03  0.91521787563E+03  0.25500000920E-02 0. -1.
    10030    2    1    2    0    0  0.00000000000E+00  0.00000000000E+00  0.76512672728E+03  0.25955624785E+04  0.24802269394E+04 0.  0.
        5    1    3    3  502    0  0.70469202817E+02 -0.99842048885E+03 -0.38363760305E+03  0.10719185051E+04  0.46999998093E+01 0. -1.
       -5    1    3    3    0  502 -0.70469202817E+02  0.99842048885E+03  0.11487643303E+04  0.15236439734E+04  0.46999998093E+01 0.  1.
</event>
<event>
 5   0  0.8056723E-06  0.2508793E+04  0.7818609E-02  0.8399860E-01
       -2   -1    0    0    0  501  0.00000000000E+00  0.00000000000E+00  0.15649594501E+04  0.15649594501E+04  0.25500000920E-02 0.  1.
        2   -1    0    0  501    0  0.00000000000E+00  0.00000000000E+00 -0.10054638871E+04  0.10054638871E+04  0.25500000920E-02 0. -1.
    10030    2    1    2    0    0  0.00000000000E+00  0.00000000000E+00  0.55949556304E+03  0.25704233372E+04  0.25087927071E+04 0.  0.
        2    1    3    3  502    0 -0.57139549288E+03  0.11614072641E+03 -0.85817950695E+03  0.10375227919E+04  0.25500000920E-02 0. -1.
       -2    1    3    3    0  502  0.57139549288E+03 -0.11614072641E+03  0.14176750700E+04  0.15329005453E+04  0.25500000920E-02 0.  1.
</event>
<event>
 5   0  0.8579923E-06  0.2499041E+04  0.7818609E-02  0.8403327E-01
        2   -1    0    0  501    0  0.00000000000E+00  0.00000000000E+00  0.97225146599E+03  0.97225146599E+03  0.25500000920E-02 0.  1.
       -2   -1    0    0    0  501  0.00000000000E+00  0.00000000000E+00 -0.16058623884E+04  0.16058623884E+04  0.25500000920E-02 0. -1.
    10030    2    1    2    0    0  0.00000000000E+00  0.00000000000E+00 -0.63361092238E+03  0.25781138544E+04  0.24990414653E+04 0.  0.
        1    1    3    3  502    0 -0.47534183396E+02  0.29237765305E+03  0.93550563510E+03  0.98128231611E+03  0.50400001928E-02 0.  1.
       -1    1    3    3    0  502  0.47534183396E+02 -0.29237765305E+03 -0.15691165575E+04  0.15968315383E+04  0.50400001928E-02 0. -1.
</event>
<event>
 5   0  0.8948286E-06  0.2431761E+04  0.7818609E-02  0.8427708E-01
       -2   -1    0    0    0  501  0.00000000000E+00  0.00000000000E+00  0.59835099094E+03  0.59835099095E+03  0.25500000920E-02 0.  1.
        2   -1    0    0  501    0  0.00000000000E+00  0.00000000000E+00 -0.24707322847E+04  0.24707322847E+04  0.25500000920E-02 0. -1.
    10030    2    1    2    0    0  0.00000000000E+00  0.00000000000E+00 -0.18723812937E+04  0.30690832756E+04  0.24317607702E+04 0.  0.
        4    1    3    3  502    0  0.72489773758E+03 -0.66129328884E+03 -0.29967827110E+02  0.98167470548E+03  0.12699999809E+01 0.  1.
       -4    1    3    3    0  502 -0.72489773758E+03  0.66129328884E+03 -0.18424134666E+04  0.20874085701E+04  0.12699999809E+01 0. -1.
</event>
<event>
 5   0  0.8948286E-06  0.2467327E+04  0.7818609E-02  0.8414719E-01
        2   -1    0    0  501    0  0.00000000000E+00  0.00000000000E+00  0.24273912041E+04  0.24273912041E+04  0.25500000920E-02 0. -1.
       -2   -1    0    0    0  501  0.00000000000E+00  0.00000000000E+00 -0.62698003269E+03  0.62698003269E+03  0.25500000920E-02 0.  1.
    10030    2    1    2    0    0  0.00000000000E+00  0.00000000000E+00  0.18004111714E+04  0.30543712368E+04  0.24673271502E+04 0.  0.
        4    1    3    3  502    0 -0.10131593559E+04 -0.18769129415E+03  0.60416124306E+02  0.10321684084E+04  0.12699999809E+01 0.  1.
       -4    1    3    3    0  502  0.10131593559E+04  0.18769129415E+03  0.17399950471E+04  0.20222028284E+04  0.12699999809E+01 0. -1.
</event>
<event>
 5   0  0.8407986E-06  0.2499394E+04  0.7818609E-02  0.8403201E-01
        2   -1    0    0  501    0  0.00000000000E+00  0.00000000000E+00  0.10073294102E+04  0.10073294102E+04  0.25500000920E-02 0.  1.
       -2   -1    0    0    0  501  0.00000000000E+00  0.00000000000E+00 -0.15503793414E+04  0.15503793414E+04  0.25500000920E-02 0. -1.
    10030    2    1    2    0    0  0.00000000000E+00  0.00000000000E+00 -0.54304993117E+03  0.25577087516E+04  0.24993940926E+04 0.  0.
        5    1    3    3  502    0 -0.21349405843E+03  0.15314253320E+03  0.97873668535E+03  0.10134001864E+04  0.46999998093E+01 0.  1.
       -5    1    3    3    0  502  0.21349405843E+03 -0.15314253320E+03 -0.15217866165E+04  0.15443085652E+04  0.46999998093E+01 0. -1.
</event>
<event>
 5   0  0.3481387E-06  0.2500870E+04  0.7818609E-02  0.8402676E-01
       -1   -1    0    0    0  501  0.00000000000E+00  0.00000000000E+00  0.60804012495E+03  0.60804012498E+03  0.50400001928E-02 0. -1.
        1   -1    0    0  501    0  0.00000000000E+00  0.00000000000E+00 -0.25715210896E+04  0.25715210896E+04  0.50400001928E-02 0.  1.
    10030    2    1    2    0    0  0.00000000000E+00  0.00000000000E+00 -0.19634809647E+04  0.31795612146E+04  0.25008702523E+04 0.  0.
        4    1    3    3  502    0 -0.71542969997E+03 -0.10204245625E+04 -0.85158395160E+03  0.15094047777E+04  0.12699999809E+01 0.  1.
       -4    1    3    3    0  502  0.71542969997E+03  0.10204245625E+04 -0.11118970131E+04  0.16701564369E+04  0.12699999809E+01 0. -1.
</event>
<event>
 5   0  0.8407986E-06  0.2490590E+04  0.7818609E-02  0.8406346E-01
       -2   -1    0    0    0  501  0.00000000000E+00  0.00000000000E+00  0.99546667353E+03  0.99546667353E+03  0.25500000920E-02 0. -1.
        2   -1    0    0  501    0  0.00000000000E+00  0.00000000000E+00 -0.15578214370E+04  0.15578214370E+04  0.25500000920E-02 0.  1.
    10030    2    1    2    0    0  0.00000000000E+00  0.00000000000E+00 -0.56235476345E+03  0.25532881105E+04  0.24905897485E+04 0.  0.
        5    1    3    3  502    0 -0.13020423457E+03 -0.73654150514E+03 -0.13018774484E+04  0.15014504695E+04  0.46999998093E+01 0.  1.
       -5    1    3    3    0  502  0.13020423457E+03  0.73654150514E+03  0.73952268500E+03  0.10518376410E+04  0.46999998093E+01 0. -1.
</event>
<event>
 5   0  0.8354653E-06  0.2500374E+04  0.7818609E-02  0.8402852E-01
        2   -1    0    0  501    0  0.00000000000E+00  0.00000000000E+00  0.80911436907E+03  0.80911436907E+03  0.25500000920E-02 0. -1.
       -2   -1    0    0    0  501  0.00000000000E+00  0.00000000000E+00 -0.19317016628E+04  0.19317016628E+04  0.25500000920E-02 0.  1.
    10030    2    1    2    0    0  0.00000000000E+00  0.00000000000E+00 -0.11225872937E+04  0.27408160319E+04  0.25003740297E+04 0.  0.
        3    1    3    3  502    0  0.11249653278E+04  0.47130700451E+03 -0.26051682583E+03  0.12472154216E+04  0.10100000352E+00 0. -1.
       -3    1    3    3    0  502 -0.11249653278E+04 -0.47130700451E+03 -0.86207046789E+03  0.14936006103E+04  0.10100000352E+00 0.  1.
</event>
<event>
 5   0  0.8407986E-06  0.2498209E+04  0.7818609E-02  0.8403624E-01
        2   -1    0    0  501    0  0.00000000000E+00  0.00000000000E+00  0.22879399341E+04  0.22879399341E+04  0.25500000920E-02 0. -1.
       -2   -1    0    0    0  501  0.00000000000E+00  0.00000000000E+00 -0.68195080909E+03  0.68195080910E+03  0.25500000920E-02 0.  1.
    10030    2    1    2    0    0  0.00000000000E+00  0.00000000000E+00  0.16059891250E+04  0.29698907432E+04  0.24982093501E+04 0.  0.
        5    1    3    3  502    0  0.77102255393E+03  0.17869633495E+03  0.19517989225E+04  0.21061693385E+04  0.46999998093E+01 0. -1.
       -5    1    3    3    0  502 -0.77102255393E+03 -0.17869633495E+03 -0.34580979749E+03  0.86372140464E+03  0.46999998093E+01 0.  1.
</event>
<event>
 5   0  0.3424193E-06  0.2498473E+04  0.7818609E-02  0.8403530E-01
        1   -1    0    0  501    0  0.00000000000E+00  0.00000000000E+00  0.11222271643E+04  0.11222271643E+04  0.50400001928E-02 0.  1.
       -1   -1    0    0    0  501  0.00000000000E+00  0.00000000000E+00 -0.13906204314E+04  0.13906204315E+04  0.50400001928E-02 0. -1.
    10030    2    1    2    0    0  0.00000000000E+00  0.00000000000E+00 -0.26839326716E+03  0.25128475958E+04  0.24984731525E+04 0.  0.
        1    1    3    3  502    0 -0.11403419345E+04  0.50416934930E+03 -0.56125537186E+02  0.12480851479E+04  0.50400001928E-02 0. -1.
       -1    1    3    3    0  502  0.11403419345E+04 -0.50416934930E+03 -0.21226772998E+03  0.12647624479E+04  0.50400001928E-02 0.  1.
</event>
<event>
 5   0  0.3642184E-06  0.2501528E+04  0.7818609E-02  0.8402441E-01
       -1   -1    0    0    0  501  0.00000000000E+00  0.00000000000E+00  0.11121443566E+04  0.11121443566E+04  0.50400001928E-02 0.  1.
        1   -1    0    0  501    0  0.00000000000E+00  0.00000000000E+00 -0.14066611525E+04  0.14066611525E+04  0.50400001928E-02 0. -1.
    10030    2    1    2    0    0  0.00000000000E+00  0.00000000000E+00 -0.29451679584E+03  0.25188055091E+04  0.25015277431E+04 0.  0.
        5    1    3    3  502    0 -0.11826113790E+04  0.16093123094E+03  0.22938351463E+03  0.12153630822E+04  0.46999998093E+01 0.  1.
       -5    1    3    3    0  502  0.11826113790E+04 -0.16093123094E+03 -0.52390031047E+03  0.13034424269E+04  0.46999998093E+01 0. -1.
</event>
<event>
 5   0  0.3642184E-06  0.2494183E+04  0.7818609E-02  0.8405061E-01
        1   -1    0    0  501    0  0.00000000000E+00  0.00000000000E+00  0.19751227754E+04  0.19751227754E+04  0.50400001928E-02 0.  1.
       -1   -1    0    0    0  501  0.00000000000E+00  0.00000000000E+00 -0.78741302619E+03  0.78741302621E+03  0.50400001928E-02 0. -1.
    10030    2    1    2    0    0  0.00000000000E+00  0.00000000000E+00  0.11877097492E+04  0.27625358016E+04  0.24941831542E+04 0.  0.
        5    1    3    3  502    0 -0.63530364372E+03 -0.37742131812E+03  0.17065062299E+04  0.18596352260E+04  0.46999998093E+01 0.  1.
       -5    1    3    3    0  502  0.63530364372E+03  0.37742131812E+03 -0.51879648068E+03  0.90290057562E+03  0.46999998093E+01 0. -1.
</event>
<event>
 5   0  0.8579923E-06  0.2492167E+04  0.7818609E-02  0.8405781E-01
       -2   -1    0    0    0  501  0.00000000000E+00  0.00000000000E+00  0.11217004922E+04  0.11217004922E+04  0.25500000920E-02 0. -1.
        2   -1    0    0  501    0  0.00000000000E+00  0.00000000000E+00 -0.13842594250E+04  0.13842594250E+04  0.25500000920E-02 0.  1.
    10030    2    1    2    0    0  0.00000000000E+00  0.00000000000E+00 -0.26255893282E+03  0.25059599173E+04  0.24921673126E+04 0.  0.
        1    1    3    3  502    0  0.11687015757E+03 -0.11818193367E+04 -0.51068572408E+03  0.12927317924E+04  0.50400001928E-02 0.  1.
       -1    1    3    3    0  502 -0.11687015757E+03  0.11818193367E+04  0.24812679126E+03  0.12132281248E+04  0.50400001928E-02 0. -1.
</event>
<event>
 5   0  0.8579923E-06  0.2505188E+04  0.7818609E-02  0.8401140E-01
        2   -1    0    0  501    0  0.00000000000E+00  0.00000000000E+00  0.16845822355E+04  0.16845822355E+04  0.25500000920E-02 0.  1.
       -2   -1    0    0    0  501  0.00000000000E+00  0.00000000000E+00 -0.93138325657E+03  0.93138325657E+03  0.25500000920E-02 0. -1.
    10030    2    1    2    0    0  0.00000000000E+00  0.00000000000E+00  0.75319897890E+03  0.26159654920E+04  0.25051879677E+04 0.  0.
        1    1    3    3  502    0  0.10413451194E+04 -0.66567717596E+03  0.16396319792E+03  0.12467596763E+04  0.50400001928E-02 0. -1.
       -1    1    3    3    0  502 -0.10413451194E+04  0.66567717596E+03  0.58923578098E+03  0.13692058157E+04  0.50400001928E-02 0.  1.
</event>
<event>
 5   0  0.3481387E-06  0.2500501E+04  0.7818609E-02  0.8402807E-01
       -1   -1    0    0    0  501  0.00000000000E+00  0.00000000000E+00  0.93706330021E+03  0.93706330023E+03  0.50400001928E-02 0.  1.
        1   -1    0    0  501    0  0.00000000000E+00  0.00000000000E+00 -0.16681115186E+04  0.16681115186E+04  0.50400001928E-02 0. -1.
    10030    2    1    2    0    0  0.00000000000E+00  0.00000000000E+00 -0.73104821842E+03  0.26051748189E+04  0.25005008177E+04 0.  0.
        4    1    3    3  502    0 -0.35795930343E+03  0.95626589245E+03 -0.11172146304E+04  0.15135222044E+04  0.12699999809E+01 0. -1.
       -4    1    3    3    0  502  0.35795930343E+03 -0.95626589245E+03  0.38616641199E+03  0.10916526144E+04  0.12699999809E+01 0.  1.
</event>
<event>
 5   0  0.8056723E-06  0.2489208E+04  0.7818609E-02  0.8406840E-01
       -2   -1    0    0    0  501  0.00000000000E+00  0.00000000000E+00  0.28625132823E+04  0.28625132823E+04  0.25500000920E-02 0.  1.
        2   -1    0    0  501    0  0.00000000000E+00  0.00000000000E+00 -0.54114653349E+03  0.54114653350E+03  0.25500000920E-02 0. -1.
    10030    2    1    2    0    0  0.00000000000E+00  0.00000000000E+00  0.23213667489E+04  0.34036598158E+04  0.24892080185E+04 0.  0.
        2    1    3    3  502    0 -0.62693972591E+03  0.79676099332E+03  0.21478023719E+04  0.23750655842E+04  0.25500000920E-02 0. -1.
       -2    1    3    3    0  502  0.62693972591E+03 -0.79676099332E+03  0.17356437691E+03  0.10285942316E+04  0.25500000920E-02 0.  1.
</event>
<event>
 5   0  0.2901250E-06  0.2493173E+04  0.7818609E-02  0.8405422E-01
        3   -1    0    0  501    0  0.00000000000E+00  0.00000000000E+00  0.24462094108E+04  0.24462094129E+04  0.10100000352E+00 0. -1.
       -3   -1    0    0    0  501  0.00000000000E+00  0.00000000000E+00 -0.63525955482E+03  0.63525956285E+03  0.10100000352E+00 0.  1.
    10030    2    1    2    0    0  0.00000000000E+00  0.00000000000E+00  0.18109498560E+04  0.30814689758E+04  0.24931730120E+04 0.  0.
        3    1    3    3  502    0  0.80726261866E+02  0.12296117715E+04  0.67254900452E+03  0.14038461496E+04  0.10100000352E+00 0.  1.
       -3    1    3    3    0  502 -0.80726261866E+02 -0.12296117715E+04  0.11384008515E+04  0.16776228262E+04  0.10100000352E+00 0. -1.
</event>
<event>
 5   0  0.8407986E-06  0.2499413E+04  0.7818609E-02  0.8403195E-01
       -2   -1    0    0    0  501  0.00000000000E+00  0.00000000000E+00  0.11833727009E+04  0.11833727009E+04  0.25500000920E-02 0. -1.
        2   -1    0    0  501    0  0.00000000000E+00  0.00000000000E+00 -0.13197582835E+04  0.13197582835E+04  0.25500000920E-02 0.  1.
    10030    2    1    2    0    0  0.00000000000E+00  0.00000000000E+00 -0.13638558256E+03  0.25031309844E+04  0.24994126706E+04 0.  0.
        5    1    3    3  502    0  0.38131128653E+03 -0.61607069204E+03  0.95155697435E+03  0.11960034115E+04  0.46999998093E+01 0. -1.
       -5    1    3    3    0  502 -0.38131128653E+03  0.61607069204E+03 -0.10879425569E+04  0.13071275729E+04  0.46999998093E+01 0.  1.
</event>
<event>
 5   0  0.8407986E-06  0.2498492E+04  0.7818609E-02  0.8403523E-01
        2   -1    0    0  501    0  0.00000000000E+00  0.00000000000E+00  0.14998454652E+04  0.14998454652E+04  0.25500000920E-02 0. -1.
       -2   -1    0    0    0  501  0.00000000000E+00  0.00000000000E+00 -0.10405173649E+04  0.10405173649E+04  0.25500000920E-02 0.  1.
    10030    2    1    2    0    0  0.00000000000E+00  0.00000000000E+00  0.45932810022E+03  0.25403628301E+04  0.24984917460E+04 0.  0.
        5    1    3    3  502    0 -0.11278122865E+02  0.55498098055E+03 -0.90822553623E+03  0.10644373159E+04  0.46999998093E+01 0.  1.
       -5    1    3    3    0  502  0.11278122865E+02 -0.55498098055E+03  0.13675536365E+04  0.14759255142E+04  0.46999998093E+01 0. -1.
</event>
<event>
 5   0  0.3424193E-06  0.2439713E+04  0.7818609E-02  0.8424783E-01
        1   -1    0    0  501    0  0.00000000000E+00  0.00000000000E+00  0.99479566908E+03  0.99479566909E+03  0.50400001928E-02 0. -1.
       -1   -1    0    0    0  501  0.00000000000E+00  0.00000000000E+00 -0.14958350758E+04  0.14958350758E+04  0.50400001928E-02 0.  1.
    10030    2    1    2    0    0  0.00000000000E+00  0.00000000000E+00 -0.50103940672E+03  0.24906307449E+04  0.24397133070E+04 0.  0.
        1    1    3    3  502    0  0.80135093193E+03  0.90409671250E+03 -0.42285056533E+03  0.12799831180E+04  0.50400001928E-02 0. -1.
       -1    1    3    3    0  502 -0.80135093193E+03 -0.90409671250E+03 -0.78188841391E+02  0.12106476269E+04  0.50400001928E-02 0.  1.
</event>
<event>
 5   0  0.3481387E-06  0.2530729E+04  0.7818609E-02  0.8392119E-01
       -1   -1    0    0    0  501  0.00000000000E+00  0.00000000000E+00  0.12479652689E+04  0.12479652689E+04  0.50400001928E-02 0.  1.
        1   -1    0    0  501    0  0.00000000000E+00  0.00000000000E+00 -0.12830060146E+04  0.12830060146E+04  0.50400001928E-02 0. -1.
    10030    2    1    2    0    0  0.00000000000E+00  0.00000000000E+00 -0.35040745735E+02  0.25309712835E+04  0.25307287061E+04 0.  0.
        4    1    3    3  502    0  0.22699038682E+03  0.12121911482E+04 -0.30076707773E+03  0.12694071306E+04  0.12699999809E+01 0.  1.
       -4    1    3    3    0  502 -0.22699038682E+03 -0.12121911482E+04  0.26572633199E+03  0.12615641529E+04  0.12699999809E+01 0. -1.
</event>
<event>
 5   0  0.8354653E-06  0.2488363E+04  0.7818609E-02  0.8407143E-01
       -2   -1    0    0    0  501  0.00000000000E+00  0.00000000000E+00  0.12992107166E+04  0.12992107166E+04  0.25500000920E-02 0. -1.
        2   -1    0    0  501    0  0.00000000000E+00  0.00000000000E+00 -0.11914829516E+04  0.11914829516E+04  0.25500000920E-02 0.  1.
    10030    2    1    2    0    0  0.00000000000E+00  0.00000000000E+00  0.10772776495E+03  0.24906936682E+04  0.24883628508E+04 0.  0.
        3    1    3    3  502    0 -0.10664905262E+04 -0.60216380445E+03 -0.16539407885E+03  0.12358634639E+04  0.10100000352E+00 0.  1.
       -3    1    3    3    0  502  0.10664905262E+04  0.60216380445E+03  0.27312184380E+03  0.12548302043E+04  0.10100000352E+00 0. -1.
</event>
<event>
 5   0  0.8579923E-06  0.2499523E+04  0.7818609E-02  0.8403155E-01
       -2   -1    0    0    0  501  0.00000000000E+00  0.00000000000E+00  0.14445510532E+04  0.14445510532E+04  0.25500000920E-02 0. -1.
        2   -1    0    0  501    0  0.00000000000E+00  0.00000000000E+00 -0.10812385927E+04  0.10812385927E+04  0.25500000920E-02 0.  1.
    10030    2    1    2    0    0  0.00000000000E+00  0.00000000000E+00  0.36331246052E+03  0.25257896460E+04  0.24995234329E+04 0.  0.
        1    1    3    3  502    0  0.50855564132E+02 -0.11974113612E+04 -0.17636065462E+03  0.12113972663E+04  0.50400001928E-02 0.  1.
       -1    1    3    3    0  502 -0.50855564132E+02  0.11974113612E+04  0.53967311514E+03  0.13143923796E+04  0.50400001928E-02 0. -1.
</event>
<event>
 5   0  0.8407986E-06  0.2501855E+04  0.7818609E-02  0.8402325E-01
       -2   -1    0    0    0  501  0.00000000000E+00  0.00000000000E+00  0.88983393311E+03  0.88983393311E+03  0.25500000920E-02 0.  1.
        2   -1    0    0  501    0  0.00000000000E+00  0.00000000000E+00 -0.17585523916E+04  0.17585523916E+04  0.25500000920E-02 0. -1.
    10030    2    1    2    0    0  0.00000000000E+00  0.00000000000E+00 -0.86871845850E+03  0.26483863247E+04  0.25018549848E+04 0.  0.
        5    1    3    3  502    0  0.43559075678E+03 -0.97867762314E+03  0.24942092767E+03  0.10999009440E+04  0.46999998093E+01 0.  1.
       -5    1    3    3    0  502 -0.43559075678E+03  0.97867762314E+03 -0.11181393862E+04  0.15484853807E+04  0.46999998093E+01 0. -1.
</event>
<event>
 5   0  0.2901250E-06  0.2500649E+04  0.7818609E-02  0.8402754E-01
        4   -1    0    0  501    0  0.00000000000E+00  0.00000000000E+00  0.13460629632E+04  0.13460635623E+04  0.12699999809E+01 0.  1.
       -4   -1    0    0    0  501  0.00000000000E+00  0.00000000000E+00 -0.11613940880E+04  0.11613947824E+04  0.12699999809E+01 0. -1.
    10030    2    1    2    0    0  0.00000000000E+00  0.00000000000E+00  0.18466887511E+03  0.25074583447E+04  0.25006488672E+04 0.  0.
        4    1    3    3  502    0  0.51301627563E+03 -0.15144860407E+03 -0.10408700651E+04  0.11702711156E+04  0.12699999809E+01 0. -1.
       -4    1    3    3    0  502 -0.51301627563E+03  0.15144860407E+03  0.12255389402E+04  0.13371872291E+04  0.12699999809E+01 0.  1.
</event>
<event>
 5   0  0.8354653E-06  0.2501394E+04  0.7818609E-02  0.8402489E-01
       -2   -1    0    0    0  501  0.00000000000E+00  0.00000000000E+00  0.83956209206E+03  0.83956209206E+03  0.25500000920E-02 0.  1.
        2   -1    0    0  501    0  0.00000000000E+00  0.00000000000E+00 -0.18631660031E+04  0.18631660031E+04  0.25500000920E-02 0. -1.
    10030    2    1    2    0    0  0.00000000000E+00  0.00000000000E+00 -0.10236039110E+04  0.27027280952E+04  0.25013944490E+04 0.  0.
        3    1    3    3  502    0 -0.52690915125E+03  0.10588401432E+04 -0.72283651282E+02  0.11849053291E+04  0.10100000352E+00 0. -1.
       -3    1    3    3    0  502  0.52690915125E+03 -0.10588401432E+04 -0.95132025976E+03  0.15178227661E+04  0.10100000352E+00 0.  1.
</event>
<event>
 5   0  0.8948286E-06  0.2482238E+04  0.7818609E-02  0.8409341E-01
        2   -1    0    0  501    0  0.00000000000E+00  0.00000000000E+00  0.14057482288E+04  0.14057482288E+04  0.25500000920E-02 0. -1.
       -2   -1    0    0    0  501  0.00000000000E+00  0.00000000000E+00 -0.10957698019E+04  0.10957698019E+04  0.25500000920E-02 0.  1.
    10030    2    1    2    0    0  0.00000000000E+00  0.00000000000E+00  0.30997842688E+03  0.25015180307E+04  0.24822380693E+04 0.  0.
        4    1    3    3  502    0  0.61277933864E+02 -0.12083705315E+04 -0.12367347670E+03  0.12162282139E+04  0.12699999809E+01 0.  1.
       -4    1    3    3    0  502 -0.61277933864E+02  0.12083705315E+04  0.43365190359E+03  0.12852898167E+04  0.12699999809E+01 0. -1.
</event>
<event>
 5   0  0.2901250E-06  0.2504779E+04  0.7818609E-02  0.8401285E-01
        3   -1    0    0  501    0  0.00000000000E+00  0.00000000000E+00  0.11387566748E+04  0.11387566793E+04  0.10100000352E+00 0. -1.
       -3   -1    0    0    0  501  0.00000000000E+00  0.00000000000E+00 -0.13773616746E+04  0.13773616784E+04  0.10100000352E+00 0.  1.
    10030    2    1    2    0    0  0.00000000000E+00  0.00000000000E+00 -0.23860499982E+03  0.25161183577E+04  0.25047792805E+04 0.  0.
        2    1    3    3  502    0 -0.11184172365E+03 -0.61762568692E+03 -0.12079566125E+04  0.13612968956E+04  0.25500000920E-02 0.  1.
       -2    1    3    3    0  502  0.11184172365E+03  0.61762568692E+03  0.96935161266E+03  0.11548214621E+04  0.25500000920E-02 0. -1.
</event>
<event>
 5   0  0.8354653E-06  0.2494707E+04  0.7818609E-02  0.8404873E-01
        2   -1    0    0  501    0  0.00000000000E+00  0.00000000000E+00  0.13757671016E+04  0.13757671016E+04  0.25500000920E-02 0.  1.
       -2   -1    0    0    0  501  0.00000000000E+00  0.00000000000E+00 -0.11309264287E+04  0.11309264287E+04  0.25500000920E-02 0. -1.
    10030    2    1    2    0    0  0.00000000000E+00  0.00000000000E+00  0.24484067289E+03  0.25066935303E+04  0.24947074978E+04 0.  0.
        3    1    3    3  502    0 -0.12858809800E+03  0.11637907595E+04 -0.30970116858E+03  0.12111394036E+04  0.10100000352E+00 0. -1.
       -3    1    3    3    0  502  0.12858809800E+03 -0.11637907595E+04  0.55454184147E+03  0.12955541267E+04  0.10100000352E+00 0.  1.
</event>
<event>
 5   0  0.8948286E-06  0.2500197E+04  0.7818609E-02  0.8402915E-01
       -2   -1    0    0    0  501  0.00000000000E+00  0.00000000000E+00  0.14426116414E+04  0.14426116414E+04  0.25500000920E-02 0.  1.
        2   -1    0    0  501    0  0.00000000000E+00  0.00000000000E+00 -0.10832759109E+04  0.10832759109E+04  0.25500000920E-02 0. -1.
    10030    2    1    2    0    0  0.00000000000E+00  0.00000000000E+00  0.35933573054E+03  0.25258875523E+04  0.25001971442E+04 0.  0.
        4    1    3    3  502    0  0.57289054174E+03  0.56101154704E+03  0.11485884521E+04  0.14007835571E+04  0.12699999809E+01 0.  1.
       -4    1    3    3    0  502 -0.57289054174E+03 -0.56101154704E+03 -0.78925272151E+03  0.11251039952E+04  0.12699999809E+01 0. -1.
</event>
<event>
 5   0  0.8579923E-06  0.2503930E+04  0.7818609E-02  0.8401587E-01
        2   -1    0    0  501    0  0.00000000000E+00  0.00000000000E+00  0.24646219605E+04  0.24646219605E+04  0.25500000920E-02 0. -1.
       -2   -1    0    0    0  501  0.00000000000E+00  0.00000000000E+00 -0.63596637197E+03  0.63596637198E+03  0.25500000920E-02 0.  1.
    10030    2    1    2    0    0  0.00000000000E+00  0.00000000000E+00  0.18286555885E+04  0.31005883325E+04  0.25039302598E+04 0.  0.
        1    1    3    3  502    0  0.57541969892E+03 -0.11205231988E+03 -0.45550887718E+03  0.74239604627E+03  0.50400001928E-02 0.  1.
       -1    1    3    3    0  502 -0.57541969892E+03  0.11205231988E+03  0.22841644657E+04  0.23581922862E+04  0.50400001928E-02 0. -1.
</event>
<event>
 5   0  0.3481387E-06  0.2503829E+04  0.7818609E-02  0.8401623E-01
        1   -1    0    0  501    0  0.00000000000E+00  0.00000000000E+00  0.11419233689E+04  0.11419233689E+04  0.50400001928E-02 0. -1.
       -1   -1    0    0    0  501  0.00000000000E+00  0.00000000000E+00 -0.13725001829E+04  0.13725001829E+04  0.50400001928E-02 0.  1.
    10030    2    1    2    0    0  0.00000000000E+00  0.00000000000E+00 -0.23057681405E+03  0.25144235518E+04  0.25038290938E+04 0.  0.
        4    1    3    3  502    0  0.85909742706E+03  0.78283946139E+03 -0.58244749217E+03  0.13000510396E+04  0.12699999809E+01 0.  1.
       -4    1    3    3    0  502 -0.85909742706E+03 -0.78283946139E+03  0.35187067812E+03  0.12143725122E+04  0.12699999809E+01 0. -1.
</event>
<event>
 5   0  0.8354653E-06  0.2495319E+04  0.7818609E-02  0.8404655E-01
        2   -1    0    0  501    0  0.00000000000E+00  0.00000000000E+00  0.11897558231E+04  0.11897558231E+04  0.25500000920E-02 0.  1.
       -2   -1    0    0    0  501  0.00000000000E+00  0.00000000000E+00 -0.13083812209E+04  0.13083812209E+04  0.25500000920E-02 0. -1.
    10030    2    1    2    0    0  0.00000000000E+00  0.00000000000E+00 -0.11862539778E+03  0.24981370439E+04  0.24953189586E+04 0.  0.
        3    1    3    3  502    0 -0.10750021410E+04  0.17300128737E+01 -0.69329051226E+03  0.12791733036E+04  0.10100000352E+00 0. -1.
       -3    1    3    3    0  502  0.10750021410E+04 -0.17300128737E+01  0.57466511448E+03  0.12189637403E+04  0.10100000352E+00 0.  1.
</event>
<event>
 5   0  0.8407986E-06  0.2494965E+04  0.7818609E-02  0.8404782E-01
        2   -1    0    0  501    0  0.00000000000E+00  0.00000000000E+00  0.19422376843E+04  0.19422376843E+04  0.25500000920E-02 0.  1.
       -2   -1    0    0    0  501  0.00000000000E+00  0.00000000000E+00 -0.80124693251E+03  0.80124693251E+03  0.25500000920E-02 0. -1.
    10030    2    1    2    0    0  0.00000000000E+00  0.00000000000E+00  0.11409907518E+04  0.27434846168E+04  0.24949645182E+04 0.  0.
        5    1    3    3  502    0  0.71171979521E+03  0.80940762667E+03 -0.12016402767E+03  0.10845032303E+04  0.46999998093E+01 0. -1.
       -5    1    3    3    0  502 -0.71171979521E+03 -0.80940762667E+03  0.12611547795E+04  0.16589813865E+04  0.46999998093E+01 0.  1.
</event>
<event>
 5   0  0.3484857E-06  0.2509354E+04  0.7818609E-02  0.8399661E-01
       -1   -1    0    0    0  501  0.00000000000E+00  0.00000000000E+00  0.76892387971E+03  0.76892387972E+03  0.50400001928E-02 0.  1.
        1   -1    0    0  501    0  0.00000000000E+00  0.00000000000E+00 -0.20472949840E+04  0.20472949840E+04  0.50400001928E-02 0. -1.
    10030    2    1    2    0    0  0.00000000000E+00  0.00000000000E+00 -0.12783711043E+04  0.28162188637E+04  0.25093537033E+04 0.  0.
        3    1    3    3  502    0 -0.61851180983E+03  0.86280704246E+02  0.58210611123E+03  0.85372639279E+03  0.10100000352E+00 0.  1.
       -3    1    3    3    0  502  0.61851180983E+03 -0.86280704246E+02 -0.18604772155E+04  0.19624924709E+04  0.10100000352E+00 0. -1.
</event>
<event>
 5   0  0.3481387E-06  0.2510521E+04  0.7818609E-02  0.8399247E-01
       -1   -1    0    0    0  501  0.00000000000E+00  0.00000000000E+00  0.14615713657E+04  0.14615713657E+04  0.50400001928E-02 0.  1.
        1   -1    0    0  501    0  0.00000000000E+00  0.00000000000E+00 -0.10780722255E+04  0.10780722256E+04  0.50400001928E-02 0. -1.
    10030    2    1    2    0    0  0.00000000000E+00  0.00000000000E+00  0.38349914012E+03  0.25396435912E+04  0.25105214558E+04 0.  0.
        4    1    3    3  502    0  0.40275048053E+03  0.10246562473E+04  0.80169448613E+03  0.13619265900E+04  0.12699999809E+01 0.  1.
       -4    1    3    3    0  502 -0.40275048053E+03 -0.10246562473E+04 -0.41819534600E+03  0.11777170012E+04  0.12699999809E+01 0. -1.
</event>
<event>
 5   0  0.8948286E-06  0.2494209E+04  0.7818609E-02  0.8405051E-01
       -2   -1    0    0    0  501  0.00000000000E+00  0.00000000000E+00  0.78438596668E+03  0.78438596668E+03  0.25500000920E-02 0.  1.
        2   -1    0    0  501    0  0.00000000000E+00  0.00000000000E+00 -0.19827863327E+04  0.19827863327E+04  0.25500000920E-02 0. -1.
    10030    2    1    2    0    0  0.00000000000E+00  0.00000000000E+00 -0.11984003660E+04  0.27671722994E+04  0.24942091126E+04 0.  0.
        4    1    3    3  502    0 -0.54680383677E+03  0.16536742317E+03  0.63069030637E+03  0.85094811593E+03  0.12699999809E+01 0.  1.
       -4    1    3    3    0  502  0.54680383677E+03 -0.16536742317E+03 -0.18290906724E+04  0.19162241835E+04  0.12699999809E+01 0. -1.
</event>
<event>
 5   0  0.3484857E-06  0.2497137E+04  0.7818609E-02  0.8404006E-01
       -1   -1    0    0    0  501  0.00000000000E+00  0.00000000000E+00  0.12683316266E+04  0.12683316266E+04  0.50400001928E-02 0. -1.
        1   -1    0    0  501    0  0.00000000000E+00  0.00000000000E+00 -0.12291130915E+04  0.12291130915E+04  0.50400001928E-02 0.  1.
    10030    2    1    2    0    0  0.00000000000E+00  0.00000000000E+00  0.39218535071E+02  0.24974447181E+04  0.24971367657E+04 0.  0.
        3    1    3    3  502    0 -0.24833490783E+03  0.46832153901E+03  0.11502033235E+04  0.12664766030E+04  0.10100000352E+00 0. -1.
       -3    1    3    3    0  502  0.24833490783E+03 -0.46832153901E+03 -0.11109847884E+04  0.12309681152E+04  0.10100000352E+00 0.  1.
</event>
<event>
 5   0  0.8407986E-06  0.2511841E+04  0.7818609E-02  0.8398779E-01
        2   -1    0    0  501    0  0.00000000000E+00  0.00000000000E+00  0.15097423866E+04  0.15097423866E+04  0.25500000920E-02 0.  1.
       -2   -1    0    0    0  501  0.00000000000E+00  0.00000000000E+00 -0.10447714984E+04  0.10447714984E+04  0.25500000920E-02 0. -1.
    10030    2    1    2    0    0  0.00000000000E+00  0.00000000000E+00  0.46497088824E+03  0.25545138849E+04  0.25118406123E+04 0.  0.
        5    1    3    3  502    0  0.52413260888E+03  0.73520116856E+01  0.13931654536E+04  0.14885231322E+04  0.46999998093E+01 0.  1.
       -5    1    3    3    0  502 -0.52413260888E+03 -0.73520116856E+01 -0.92819456540E+03  0.10659907528E+04  0.46999998093E+01 0. -1.
</event>
<event>
 5   0  0.8056723E-06  0.2498764E+04  0.7818609E-02  0.8403426E-01
        2   -1    0    0  501    0  0.00000000000E+00  0.00000000000E+00  0.20103657861E+04  0.20103657861E+04  0.25500000920E-02 0.  1.
       -2   -1    0    0    0  501  0.00000000000E+00  0.00000000000E+00 -0.77645358727E+03  0.77645358727E+03  0.25500000920E-02 0. -1.
    10030    2    1    2    0    0  0.00000000000E+00  0.00000000000E+00  0.12339121988E+04  0.27868193734E+04  0.24987642757E+04 0.  0.
        2    1    3    3  502    0  0.11205052407E+04  0.47608009084E+03  0.92997317715E+03  0.15320033804E+04  0.25500000920E-02 0.  1.
       -2    1    3    3    0  502 -0.11205052407E+04 -0.47608009084E+03  0.30393902169E+03  0.12548159930E+04  0.25500000920E-02 0. -1.
</event>
<event>
 5   0  0.8407986E-06  0.2515861E+04  0.7818609E-02  0.8397357E-01
        2   -1    0    0  501    0  0.00000000000E+00  0.00000000000E+00  0.10257499688E+04  0.10257499688E+04  0.25500000920E-02 0. -1.
       -2   -1    0    0    0  501  0.00000000000E+00  0.00000000000E+00 -0.15426651001E+04  0.15426651001E+04  0.25500000920E-02 0.  1.
    10030    2    1    2    0    0  0.00000000000E+00  0.00000000000E+00 -0.51691513130E+03  0.25684150689E+04  0.25158606308E+04 0.  0.
        5    1    3    3  502    0  0.10814854698E+04 -0.49658814020E+03  0.15767971624E+03  0.12004564070E+04  0.46999998093E+01 0. -1.
       -5    1    3    3    0  502 -0.10814854698E+04  0.49658814020E+03 -0.67459484754E+03  0.13679586619E+04  0.46999998093E+01 0.  1.
</event>
<event>
 5   0  0.3642184E-06  0.2516461E+04  0.7818609E-02  0.8397145E-01
       -1   -1    0    0    0  501  0.00000000000E+00  0.00000000000E+00  0.11815643597E+04  0.11815643597E+04  0.50400001928E-02 0. -1.
        1   -1    0    0  501    0  0.00000000000E+00  0.00000000000E+00 -0.13398711439E+04  0.13398711439E+04  0.50400001928E-02 0.  1.
    10030    2    1    2    0    0  0.00000000000E+00  0.00000000000E+00 -0.15830678422E+03  0.25214355037E+04  0.25164609994E+04 0.  0.
        5    1    3    3  502    0 -0.14955475789E+03  0.90720411920E+03 -0.93976685678E+03  0.13147508413E+04  0.46999998093E+01 0.  1.
       -5    1    3    3    0  502  0.14955475789E+03 -0.90720411920E+03  0.78146007256E+03  0.12066846624E+04  0.46999998093E+01 0. -1.
</event>
<event>
 5   0  0.3481387E-06  0.2501083E+04  0.7818609E-02  0.8402600E-01
        1   -1    0    0  501    0  0.00000000000E+00  0.00000000000E+00  0.16662265937E+04  0.16662265937E+04  0.50400001928E-02 0. -1.
       -1   -1    0    0    0  501  0.00000000000E+00  0.00000000000E+00 -0.93856042405E+03  0.93856042407E+03  0.50400001928E-02 0.  1.
    10030    2    1    2    0    0  0.00000000000E+00  0.00000000000E+00  0.72766616968E+03  0.26047870178E+04  0.25010832360E+04 0.  0.
        4    1    3    3  502    0  0.83518596324E+03 -0.50696247544E+03 -0.44911322725E+03  0.10752910529E+04  0.12699999809E+01 0.  1.
       -4    1    3    3    0  502 -0.83518596324E+03  0.50696247544E+03  0.11767793969E+04  0.15294959649E+04  0.12699999809E+01 0. -1.
</event>
<event>
 5   0  0.8354653E-06  0.2500428E+04  0.7818609E-02  0.8402833E-01
       -2   -1    0    0    0  501  0.00000000000E+00  0.00000000000E+00  0.91670249044E+03  0.91670249044E+03  0.25500000920E-02 0. -1.
        2   -1    0    0  501    0  0.00000000000E+00  0.00000000000E+00 -0.17050620309E+04  0.17050620309E+04  0.25500000920E-02 0.  1.
    10030    2    1    2    0    0  0.00000000000E+00  0.00000000000E+00 -0.78835954044E+03  0.26217645213E+04  0.25004276515E+04 0.  0.
        3    1    3    3  502    0  0.56893248046E+03  0.51828655295E+03 -0.14272467944E+04  0.16215235245E+04  0.10100000352E+00 0.  1.
       -3    1    3    3    0  502 -0.56893248046E+03 -0.51828655295E+03  0.63888725392E+03  0.10002409968E+04  0.10100000352E+00 0. -1.
</event>
<event>
 5   0  0.3522870E-06  0.2407609E+04  0.7818609E-02  0.8436660E-01
        1   -1    0    0  501    0  0.00000000000E+00  0.00000000000E+00  0.22370893462E+04  0.22370893462E+04  0.50400001928E-02 0.  1.
       -1   -1    0    0    0  501  0.00000000000E+00  0.00000000000E+00 -0.64778151083E+03  0.64778151085E+03  0.50400001928E-02 0. -1.
    10030    2    1    2    0    0  0.00000000000E+00  0.00000000000E+00  0.15893078354E+04  0.28848708571E+04  0.24076088691E+04 0.  0.
        2    1    3    3  502    0 -0.62523845552E+03  0.99972643784E+03  0.50417491855E+03  0.12824072775E+04  0.25500000920E-02 0.  1.
       -2    1    3    3    0  502  0.62523845552E+03 -0.99972643784E+03  0.10851329168E+04  0.16024635796E+04  0.25500000920E-02 0. -1.
</event>
<event>
 5   0  0.8948286E-06  0.2499768E+04  0.7818609E-02  0.8403068E-01
        2   -1    0    0  501    0  0.00000000000E+00  0.00000000000E+00  0.19233663921E+04  0.19233663921E+04  0.25500000920E-02 0.  1.
       -2   -1    0    0    0  501  0.00000000000E+00  0.00000000000E+00 -0.81222713860E+03  0.81222713861E+03  0.25500000920E-02 0. -1.
    10030    2    1    2    0    0  0.00000000000E+00  0.00000000000E+00  0.11111392534E+04  0.27355935307E+04  0.24997682941E+04 0.  0.
        4    1    3    3  502    0  0.73956270368E+03 -0.31562823746E+02  0.16576832439E+04  0.18154516117E+04  0.12699999809E+01 0.  1.
       -4    1    3    3    0  502 -0.73956270368E+03  0.31562823746E+02 -0.54654399047E+03  0.92014191891E+03  0.12699999809E+01 0. -1.
</event>
<event>
 5   0  0.3481387E-06  0.2508185E+04  0.7818609E-02  0.8400075E-01
        1   -1    0    0  501    0  0.00000000000E+00  0.00000000000E+00  0.20469413326E+04  0.20469413326E+04  0.50400001928E-02 0.  1.
       -1   -1    0    0    0  501  0.00000000000E+00  0.00000000000E+00 -0.76834042844E+03  0.76834042846E+03  0.50400001928E-02 0. -1.
    10030    2    1    2    0    0  0.00000000000E+00  0.00000000000E+00  0.12786009041E+04  0.28152817610E+04  0.25081848261E+04 0.  0.
        4    1    3    3  502    0 -0.72675773644E+03 -0.72984022974E+03  0.14423752515E+04  0.17723689084E+04  0.12699999809E+01 0.  1.
       -4    1    3    3    0  502  0.72675773644E+03  0.72984022974E+03 -0.16377434738E+03  0.10429128526E+04  0.12699999809E+01 0. -1.
</event>
<event>
 5   0  0.3424193E-06  0.2501211E+04  0.7818609E-02  0.8402554E-01
       -1   -1    0    0    0  501  0.00000000000E+00  0.00000000000E+00  0.10154208641E+04  0.10154208641E+04  0.50400001928E-02 0. -1.
        1   -1    0    0  501    0  0.00000000000E+00  0.00000000000E+00 -0.15402616049E+04  0.15402616049E+04  0.50400001928E-02 0.  1.
    10030    2    1    2    0    0  0.00000000000E+00  0.00000000000E+00 -0.52484074082E+03  0.25556824691E+04  0.25012107227E+04 0.  0.
        1    1    3    3  502    0 -0.86261745516E+03  0.31713049650E+03  0.60418554212E+03  0.10998730814E+04  0.50400001928E-02 0. -1.
       -1    1    3    3    0  502  0.86261745516E+03 -0.31713049650E+03 -0.11290262829E+04  0.14558093877E+04  0.50400001928E-02 0.  1.
</event>
<event>
 5   0  0.3642184E-06  0.2498992E+04  0.7818609E-02  0.8403345E-01
        1   -1    0    0  501    0  0.00000000000E+00  0.00000000000E+00  0.10542662694E+04  0.10542662694E+04  0.50400001928E-02 0.  1.
       -1   -1    0    0    0  501  0.00000000000E+00  0.00000000000E+00 -0.14808784063E+04  0.14808784063E+04  0.50400001928E-02 0. -1.
    10030    2    1    2    0    0  0.00000000000E+00  0.00000000000E+00 -0.42661213694E+03  0.25351446757E+04  0.24989919191E+04 0.  0.
        5    1    3    3  502    0  0.12330806594E+04 -0.12218320534E+03 -0.37625805387E+03  0.12949937688E+04  0.46999998093E+01 0. -1.
       -5    1    3    3    0  502 -0.12330806594E+04  0.12218320534E+03 -0.50354083077E+02  0.12401509069E+04  0.46999998093E+01 0.  1.
</event>
<event>
 5   0  0.3484857E-06  0.2499955E+04  0.7818609E-02  0.8403001E-01
        1   -1    0    0  501    0  0.00000000000E+00  0.00000000000E+00  0.10265481589E+04  0.10265481589E+04  0.50400001928E-02 0. -1.
       -1   -1    0    0    0  501  0.00000000000E+00  0.00000000000E+00 -0.15220369313E+04  0.15220369313E+04  0.50400001928E-02 0.  1.
    10030    2    1    2    0    0  0.00000000000E+00  0.00000000000E+00 -0.49548877235E+03  0.25485850902E+04  0.24999553673E+04 0.  0.
        3    1    3    3  502    0 -0.61271604353E+02  0.99798077198E+03 -0.10124860371E+04  0.14229714742E+04  0.10100000352E+00 0.  1.
       -3    1    3    3    0  502  0.61271604353E+02 -0.99798077198E+03  0.51699726475E+03  0.11256136161E+04  0.10100000352E+00 0. -1.
</event>
<event>
 5   0  0.8056723E-06  0.2444839E+04  0.7818609E-02  0.8422905E-01
        2   -1    0    0  501    0  0.00000000000E+00  0.00000000000E+00  0.15623905668E+04  0.15623905668E+04  0.25500000920E-02 0.  1.
       -2   -1    0    0    0  501  0.00000000000E+00  0.00000000000E+00 -0.95642519784E+03  0.95642519785E+03  0.25500000920E-02 0. -1.
    10030    2    1    2    0    0  0.00000000000E+00  0.00000000000E+00  0.60596536896E+03  0.25188157647E+04  0.24448392233E+04 0.  0.
        2    1    3    3  502    0  0.61131358894E+03  0.83992769327E+03  0.96678157527E+03  0.14191016342E+04  0.25500000920E-02 0.  1.
       -2    1    3    3    0  502 -0.61131358894E+03 -0.83992769327E+03 -0.36081620630E+03  0.10997141304E+04  0.25500000920E-02 0. -1.
</event>
<event>
 5   0  0.3481387E-06  0.2498901E+04  0.7818609E-02  0.8403377E-01
       -1   -1    0    0    0  501  0.00000000000E+00  0.00000000000E+00  0.13124274978E+04  0.13124274978E+04  0.50400001928E-02 0. -1.
        1   -1    0    0  501    0  0.00000000000E+00  0.00000000000E+00 -0.11894952246E+04  0.11894952247E+04  0.50400001928E-02 0.  1.
    10030    2    1    2    0    0  0.00000000000E+00  0.00000000000E+00  0.12293227316E+03  0.25019227225E+04  0.24989007514E+04 0.  0.
        4    1    3    3  502    0 -0.15549314119E+03 -0.43970644526E+03  0.12220075685E+04  0.13079847037E+04  0.12699999809E+01 0. -1.
       -4    1    3    3    0  502  0.15549314119E+03  0.43970644526E+03 -0.10990752953E+04  0.11939380187E+04  0.12699999809E+01 0.  1.
</event>
<event>
 5   0  0.8354653E-06  0.2493403E+04  0.7818609E-02  0.8405340E-01
       -2   -1    0    0    0  501  0.00000000000E+00  0.00000000000E+00  0.98515647958E+03  0.98515647958E+03  0.25500000920E-02 0.  1.
        2   -1    0    0  501    0  0.00000000000E+00  0.00000000000E+00 -0.15776825486E+04  0.15776825486E+04  0.25500000920E-02 0. -1.
    10030    2    1    2    0    0  0.00000000000E+00  0.00000000000E+00 -0.59252606901E+03  0.25628390282E+04  0.24934026434E+04 0.  0.
        3    1    3    3  502    0  0.10407962649E+04  0.16268495217E+03 -0.98156942833E+03  0.14398617335E+04  0.10100000352E+00 0. -1.
       -3    1    3    3    0  502 -0.10407962649E+04 -0.16268495217E+03  0.38904335932E+03  0.11229772947E+04  0.10100000352E+00 0.  1.
</event>
<event>
 5   0  0.8948286E-06  0.2499060E+04  0.7818609E-02  0.8403320E-01
       -2   -1    0    0    0  501  0.00000000000E+00  0.00000000000E+00  0.16802631058E+04  0.16802631058E+04  0.25500000920E-02 0. -1.
        2   -1    0    0  501    0  0.00000000000E+00  0.00000000000E+00 -0.92921478019E+03  0.92921478020E+03  0.25500000920E-02 0.  1.
    10030    2    1    2    0    0  0.00000000000E+00  0.00000000000E+00  0.75104832562E+03  0.26094778860E+04  0.24990600733E+04 0.  0.
        4    1    3    3  502    0 -0.59357595306E+03  0.10667334111E+04  0.65389484641E+03  0.13848583558E+04  0.12699999809E+01 0.  1.
       -4    1    3    3    0  502  0.59357595306E+03 -0.10667334111E+04  0.97153479212E+02  0.12246195303E+04  0.12699999809E+01 0. -1.
</event>
<event>
 5   0  0.3424193E-06  0.2501654E+04  0.7818609E-02  0.8402397E-01
        1   -1    0    0  501    0  0.00000000000E+00  0.00000000000E+00  0.12146403634E+04  0.12146403634E+04  0.50400001928E-02 0.  1.
       -1   -1    0    0    0  501  0.00000000000E+00  0.00000000000E+00 -0.12880917619E+04  0.12880917619E+04  0.50400001928E-02 0. -1.
    10030    2    1    2    0    0  0.00000000000E+00  0.00000000000E+00 -0.73451398527E+02  0.25027321253E+04  0.25016540495E+04 0.  0.
        1    1    3    3  502    0  0.64082704973E+03 -0.90078074210E+03 -0.62221545704E+03  0.12685493006E+04  0.50400001928E-02 0. -1.
       -1    1    3    3    0  502 -0.64082704973E+03  0.90078074210E+03  0.54876405851E+03  0.12341828248E+04  0.50400001928E-02 0.  1.
</event>
<event>
 5   0  0.8407986E-06  0.2504344E+04  0.7818609E-02  0.8401440E-01
        2   -1    0    0  501    0  0.00000000000E+00  0.00000000000E+00  0.23246004900E+04  0.23246004900E+04  0.25500000920E-02 0.  1.
       -2   -1    0    0    0  501  0.00000000000E+00  0.00000000000E+00 -0.67449618241E+03  0.67449618241E+03  0.25500000920E-02 0. -1.
    10030    2    1    2    0    0  0.00000000000E+00  0.00000000000E+00  0.16501043076E+04  0.29990966724E+04  0.25043435516E+04 0.  0.
        5    1    3    3  502    0  0.92077912953E+02 -0.71383423889E+03  0.20521105531E+04  0.21746764070E+04  0.46999998093E+01 0.  1.
       -5    1    3    3    0  502 -0.92077912953E+02  0.71383423889E+03 -0.40200624553E+03  0.82442026547E+03  0.46999998093E+01 0. -1.
</event>
<event>
 5   0  0.8579923E-06  0.2497797E+04  0.7818609E-02  0.8403771E-01
        2   -1    0    0  501    0  0.00000000000E+00  0.00000000000E+00  0.93453404924E+03  0.93453404924E+03  0.25500000920E-02 0.  1.
       -2   -1    0    0    0  501  0.00000000000E+00  0.00000000000E+00 -0.16690109965E+04  0.16690109965E+04  0.25500000920E-02 0. -1.
    10030    2    1    2    0    0  0.00000000000E+00  0.00000000000E+00 -0.73447694721E+03  0.26035450457E+04  0.24977971133E+04 0.  0.
        1    1    3    3  502    0 -0.82778206360E+03  0.92842032325E+03 -0.48405534729E+03  0.13347273207E+04  0.50400001928E-02 0.  1.
       -1    1    3    3    0  502  0.82778206360E+03 -0.92842032325E+03 -0.25042159993E+03  0.12688177250E+04  0.50400001928E-02 0. -1.
</event>
<event>
 5   0  0.8354653E-06  0.2475389E+04  0.7818609E-02  0.8411806E-01
        2   -1    0    0  501    0  0.00000000000E+00  0.00000000000E+00  0.13846549065E+04  0.13846549065E+04  0.25500000920E-02 0. -1.
       -2   -1    0    0    0  501  0.00000000000E+00  0.00000000000E+00 -0.11063319056E+04  0.11063319056E+04  0.25500000920E-02 0.  1.
    10030    2    1    2    0    0  0.00000000000E+00  0.00000000000E+00  0.27832300092E+03  0.24909868121E+04  0.24753891826E+04 0.  0.
        3    1    3    3  502    0  0.53749714781E+03 -0.69958325785E+03  0.10127142915E+04  0.13430972284E+04  0.10100000352E+00 0. -1.
       -3    1    3    3    0  502 -0.53749714781E+03  0.69958325785E+03 -0.73439129053E+03  0.11478895837E+04  0.10100000352E+00 0.  1.
</event>
<event>
 5   0  0.3424193E-06  0.2485480E+04  0.7818609E-02  0.8408177E-01
        1   -1    0    0  501    0  0.00000000000E+00  0.00000000000E+00  0.20972433335E+04  0.20972433335E+04  0.50400001928E-02 0.  1.
       -1   -1    0    0    0  501  0.00000000000E+00  0.00000000000E+00 -0.73639625194E+03  0.73639625196E+03  0.50400001928E-02 0. -1.
    10030    2    1    2    0    0  0.00000000000E+00  0.00000000000E+00  0.13608470815E+04  0.28336395855E+04  0.24854795354E+04 0.  0.
        1    1    3    3  502    0  0.50785883599E+03  0.90595249039E+03 -0.97617096022E+02  0.10431680639E+04  0.50400001928E-02 0.  1.
       -1    1    3    3    0  502 -0.50785883599E+03 -0.90595249039E+03  0.14584641776E+04  0.17904715215E+04  0.50400001928E-02 0. -1.
</event>
<event>
 5   0  0.3522870E-06  0.2498644E+04  0.7818609E-02  0.8403469E-01
        1   -1    0    0  501    0  0.00000000000E+00  0.00000000000E+00  0.14134716807E+04  0.14134716807E+04  0.50400001928E-02 0.  1.
       -1   -1    0    0    0  501  0.00000000000E+00  0.00000000000E+00 -0.11042353666E+04  0.11042353666E+04  0.50400001928E-02 0. -1.
    10030    2    1    2    0    0  0.00000000000E+00  0.00000000000E+00  0.30923631406E+03  0.25177070473E+04  0.24986439679E+04 0.  0.
        2    1    3    3  502    0 -0.86802171899E+03 -0.17188414995E+03 -0.73403985858E+03  0.11497044749E+04  0.25500000920E-02 0. -1.
       -2    1    3    3    0  502  0.86802171899E+03  0.17188414995E+03  0.10432761726E+04  0.13680025724E+04  0.25500000920E-02 0.  1.
</event>
<event>
 5   0  0.8579923E-06  0.2495072E+04  0.7818609E-02  0.8404743E-01
       -2   -1    0    0    0  501  0.00000000000E+00  0.00000000000E+00  0.77941850653E+03  0.77941850654E+03  0.25500000920E-02 0. -1.
        2   -1    0    0  501    0  0.00000000000E+00  0.00000000000E+00 -0.19968047459E+04  0.19968047459E+04  0.25500000920E-02 0.  1.
    10030    2    1    2    0    0  0.00000000000E+00  0.00000000000E+00 -0.12173862394E+04  0.27762232525E+04  0.24950724021E+04 0.  0.
        1    1    3    3  502    0 -0.12068490102E+01  0.63639350318E+03 -0.18026114515E+04  0.19116501229E+04  0.50400001928E-02 0.  1.
       -1    1    3    3    0  502  0.12068490102E+01 -0.63639350318E+03  0.58522521212E+03  0.86457312953E+03  0.50400001928E-02 0. -1.
</event>
<event>
 5   0  0.8354653E-06  0.2453049E+04  0.7818609E-02  0.8419905E-01
        2   -1    0    0  501    0  0.00000000000E+00  0.00000000000E+00  0.25452861109E+04  0.25452861110E+04  0.25500000920E-02 0.  1.
       -2   -1    0    0    0  501  0.00000000000E+00  0.00000000000E+00 -0.59103880695E+03  0.59103880695E+03  0.25500000920E-02 0. -1.
    10030    2    1    2    0    0  0.00000000000E+00  0.00000000000E+00  0.19542473040E+04  0.31363249179E+04  0.24530494217E+04 0.  0.
        3    1    3    3  502    0 -0.81687442740E+02  0.83099340790E+03  0.21257775182E+04  0.22838898724E+04  0.10100000352E+00 0.  1.
       -3    1    3    3    0  502  0.81687442740E+02 -0.83099340790E+03 -0.17153021415E+03  0.85243504552E+03  0.10100000352E+00 0. -1.
</event>
<event>
 5   0  0.3642184E-06  0.2491183E+04  0.7818609E-02  0.8406133E-01
        1   -1    0    0  501    0  0.00000000000E+00  0.00000000000E+00  0.19518754101E+04  0.19518754101E+04  0.50400001928E-02 0.  1.
       -1   -1    0    0    0  501  0.00000000000E+00  0.00000000000E+00 -0.79487582371E+03  0.79487582372E+03  0.50400001928E-02 0. -1.
    10030    2    1    2    0    0  0.00000000000E+00  0.00000000000E+00  0.11569995864E+04  0.27467512338E+04  0.24911833127E+04 0.  0.
        5    1    3    3  502    0 -0.79416305288E+03  0.68776400988E+03 -0.15929800422E+03  0.10625969283E+04  0.46999998093E+01 0. -1.
       -5    1    3    3    0  502  0.79416305288E+03 -0.68776400988E+03  0.13162975906E+04  0.16841543055E+04  0.46999998093E+01 0.  1.
</event>
<event>
 5   0  0.8354653E-06  0.2504205E+04  0.7818609E-02  0.8401489E-01
       -2   -1    0    0    0  501  0.00000000000E+00  0.00000000000E+00  0.61987397666E+03  0.61987397667E+03  0.25500000920E-02 0. -1.
        2   -1    0    0  501    0  0.00000000000E+00  0.00000000000E+00 -0.25291593943E+04  0.25291593943E+04  0.25500000920E-02 0.  1.
    10030    2    1    2    0    0  0.00000000000E+00  0.00000000000E+00 -0.19092854176E+04  0.31490333710E+04  0.25042045375E+04 0.  0.
        3    1    3    3  502    0 -0.10067942281E+03 -0.11257740815E+04 -0.16321257155E+04  0.19852803304E+04  0.10100000352E+00 0.  1.
       -3    1    3    3    0  502  0.10067942281E+03  0.11257740815E+04 -0.27715970210E+03  0.11637530406E+04  0.10100000352E+00 0. -1.
</event>
<event>
 5   0  0.3481387E-06  0.2489521E+04  0.7818609E-02  0.8406728E-01
        1   -1    0    0  501    0  0.00000000000E+00  0.00000000000E+00  0.11619992300E+04  0.11619992301E+04  0.50400001928E-02 0.  1.
       -1   -1    0    0    0  501  0.00000000000E+00  0.00000000000E+00 -0.13334159983E+04  0.13334159983E+04  0.50400001928E-02 0. -1.
    10030    2    1    2    0    0  0.00000000000E+00  0.00000000000E+00 -0.17141676821E+03  0.24954152283E+04  0.24895207276E+04 0.  0.
        4    1    3    3  502    0  0.68113365540E+03 -0.92984159680E+03 -0.55679807326E+03  0.12800680290E+04  0.12699999809E+01 0.  1.
       -4    1    3    3    0  502 -0.68113365540E+03  0.92984159680E+03  0.38538130504E+03  0.12153471993E+04  0.12699999809E+01 0. -1.
</event>
<event>
 5   0  0.3481387E-06  0.2506630E+04  0.7818609E-02  0.8400627E-01
        1   -1    0    0  501    0  0.00000000000E+00  0.00000000000E+00  0.81665024349E+03  0.81665024350E+03  0.50400001928E-02 0.  1.
       -1   -1    0    0    0  501  0.00000000000E+00  0.00000000000E+00 -0.19234652029E+04  0.19234652029E+04  0.50400001928E-02 0. -1.
    10030    2    1    2    0    0  0.00000000000E+00  0.00000000000E+00 -0.11068149594E+04  0.27401154464E+04  0.25066298700E+04 0.  0.
        4    1    3    3  502    0 -0.40085791839E+03 -0.65954220679E+03  0.52605184898E+03  0.93403166648E+03  0.12699999809E+01 0.  1.
       -4    1    3    3    0  502  0.40085791839E+03  0.65954220679E+03 -0.16328668084E+04  0.18060837799E+04  0.12699999809E+01 0. -1.
</event>
<event>
 5   0  0.8354653E-06  0.2454529E+04  0.7818609E-02  0.8419366E-01
       -2   -1    0    0    0  501  0.00000000000E+00  0.00000000000E+00  0.81754357499E+03  0.81754357499E+03  0.25500000920E-02 0.  1.
        2   -1    0    0  501    0  0.00000000000E+00  0.00000000000E+00 -0.18423221044E+04  0.18423221045E+04  0.25500000920E-02 0. -1.
    10030    2    1    2    0    0  0.00000000000E+00  0.00000000000E+00 -0.10247785295E+04  0.26598656794E+04  0.24545293639E+04 0.  0.
        3    1    3    3  502    0 -0.35139334897E+03 -0.11727827481E+04 -0.60486221378E+03  0.13655603127E+04  0.10100000352E+00 0.  1.
       -3    1    3    3    0  502  0.35139334897E+03  0.11727827481E+04 -0.41991631568E+03  0.12943053667E+04  0.10100000352E+00 0. -1.
</event>
<event>
 5   0  0.3484857E-06  0.2530626E+04  0.7818609E-02  0.8392155E-01
       -1   -1    0    0    0  501  0.00000000000E+00  0.00000000000E+00  0.29754175730E+04  0.29754175730E+04  0.50400001928E-02 0. -1.
        1   -1    0    0  501    0  0.00000000000E+00  0.00000000000E+00 -0.53808148161E+03  0.53808148164E+03  0.50400001928E-02 0.  1.
    10030    2    1    2    0    0  0.00000000000E+00  0.00000000000E+00  0.24373360914E+04  0.35134990547E+04  0.25306260855E+04 0.  0.
        3    1    3    3  502    0 -0.51025842747E+02 -0.10110593486E+04  0.22725406187E+04  0.24878274693E+04  0.10100000352E+00 0. -1.
       -3    1    3    3    0  502  0.51025842747E+02  0.10110593486E+04  0.16479547273E+03  0.10256715854E+04  0.10100000352E+00 0.  1.
</event>
<event>
 5   0  0.3424193E-06  0.2497083E+04  0.7818609E-02  0.8404025E-01
        1   -1    0    0  501    0  0.00000000000E+00  0.00000000000E+00  0.14236694442E+04  0.14236694442E+04  0.50400001928E-02 0. -1.
       -1   -1    0    0    0  501  0.00000000000E+00  0.00000000000E+00 -0.10949565278E+04  0.10949565278E+04  0.50400001928E-02 0.  1.
    10030    2    1    2    0    0  0.00000000000E+00  0.00000000000E+00  0.32871291639E+03  0.25186259720E+04  0.24970832196E+04 0.  0.
        1    1    3    3  502    0 -0.78641306793E+03  0.34375930044E+03  0.10789539570E+04  0.13786796623E+04  0.50400001928E-02 0. -1.
       -1    1    3    3    0  502  0.78641306793E+03 -0.34375930044E+03 -0.75024104056E+03  0.11399463097E+04  0.50400001928E-02 0.  1.
</event>
<event>
 5   0  0.3481387E-06  0.2491070E+04  0.7818609E-02  0.8406174E-01
        1   -1    0    0  501    0  0.00000000000E+00  0.00000000000E+00  0.14898501151E+04  0.14898501151E+04  0.50400001928E-02 0.  1.
       -1   -1    0    0    0  501  0.00000000000E+00  0.00000000000E+00 -0.10412840829E+04  0.10412840829E+04  0.50400001928E-02 0. -1.
    10030    2    1    2    0    0  0.00000000000E+00  0.00000000000E+00  0.44856603225E+03  0.25311341980E+04  0.24910698190E+04 0.  0.
        4    1    3    3  502    0 -0.57508245285E+03  0.11013941012E+04  0.31266943049E+03  0.12812308845E+04  0.12699999809E+01 0. -1.
       -4    1    3    3    0  502  0.57508245285E+03 -0.11013941012E+04  0.13589660176E+03  0.12499033135E+04  0.12699999809E+01 0.  1.
</event>
<event>
 5   0  0.8056723E-06  0.2460902E+04  0.7818609E-02  0.8417048E-01
        2   -1    0    0  501    0  0.00000000000E+00  0.00000000000E+00  0.87261572357E+03  0.87261572358E+03  0.25500000920E-02 0. -1.
       -2   -1    0    0    0  501  0.00000000000E+00  0.00000000000E+00 -0.17350251605E+04  0.17350251605E+04  0.25500000920E-02 0.  1.
    10030    2    1    2    0    0  0.00000000000E+00  0.00000000000E+00 -0.86240943690E+03  0.26076408840E+04  0.24609024652E+04 0.  0.
        2    1    3    3  502    0 -0.59717873284E+03 -0.10598848989E+04 -0.62668179138E+03  0.13684694025E+04  0.25500000920E-02 0.  1.
       -2    1    3    3    0  502  0.59717873284E+03  0.10598848989E+04 -0.23572764551E+03  0.12391714816E+04  0.25500000920E-02 0. -1.
</event>
<event>
 5   0  0.8056723E-06  0.2513422E+04  0.7818609E-02  0.8398219E-01
        2   -1    0    0  501    0  0.00000000000E+00  0.00000000000E+00  0.13495160903E+04  0.13495160903E+04  0.25500000920E-02 0. -1.
       -2   -1    0    0    0  501  0.00000000000E+00  0.00000000000E+00 -0.11702883405E+04  0.11702883406E+04  0.25500000920E-02 0.  1.
    10030    2    1    2    0    0  0.00000000000E+00  0.00000000000E+00  0.17922774972E+03  0.25198044308E+04  0.25134223249E+04 0.  0.
        2    1    3    3  502    0 -0.79346447465E+03 -0.82273910685E+03 -0.43405088177E+03  0.12226551756E+04  0.25500000920E-02 0.  1.
       -2    1    3    3    0  502  0.79346447465E+03  0.82273910685E+03  0.61327863149E+03  0.12971492552E+04  0.25500000920E-02 0. -1.
</event>
<event>
 5   0  0.8056723E-06  0.2500712E+04  0.7818609E-02  0.8402732E-01
        2   -1    0    0  501    0  0.00000000000E+00  0.00000000000E+00  0.17784829505E+04  0.17784829505E+04  0.25500000920E-02 0.  1.
       -2   -1    0    0    0  501  0.00000000000E+00  0.00000000000E+00 -0.87905855200E+03  0.87905855200E+03  0.25500000920E-02 0. -1.
    10030    2    1    2    0    0  0.00000000000E+00  0.00000000000E+00  0.89942439850E+03  0.26575415025E+04  0.25007124163E+04 0.  0.
        2    1    3    3  502    0 -0.10420742943E+04 -0.22442168170E+03  0.11442318018E+04  0.15638255473E+04  0.25500000920E-02 0. -1.
       -2    1    3    3    0  502  0.10420742943E+04  0.22442168170E+03 -0.24480740332E+03  0.10937159552E+04  0.25500000920E-02 0.  1.
</event>
<event>
 5   0  0.3522870E-06  0.2504738E+04  0.7818609E-02  0.8401299E-01
       -1   -1    0    0    0  501  0.00000000000E+00  0.00000000000E+00  0.15118269859E+04  0.15118269859E+04  0.50400001928E-02 0.  1.
        1   -1    0    0  501    0  0.00000000000E+00  0.00000000000E+00 -0.10374392853E+04  0.10374392853E+04  0.50400001928E-02 0. -1.
    10030    2    1    2    0    0  0.00000000000E+00  0.00000000000E+00  0.47438770066E+03  0.25492662712E+04  0.25047384756E+04 0.  0.
        2    1    3    3  502    0  0.52152313333E+03  0.91433679864E+03  0.92780705475E+03  0.14031479219E+04  0.25500000920E-02 0.  1.
       -2    1    3    3    0  502 -0.52152313333E+03 -0.91433679864E+03 -0.45341935409E+03  0.11461183493E+04  0.25500000920E-02 0. -1.
</event>
<event>
 5   0  0.3481387E-06  0.2494188E+04  0.7818609E-02  0.8405059E-01
        1   -1    0    0  501    0  0.00000000000E+00  0.00000000000E+00  0.14905055600E+04  0.14905055600E+04  0.50400001928E-02 0. -1.
       -1   -1    0    0    0  501  0.00000000000E+00  0.00000000000E+00 -0.10434335783E+04  0.10434335783E+04  0.50400001928E-02 0.  1.
    10030    2    1    2    0    0  0.00000000000E+00  0.00000000000E+00  0.44707198170E+03  0.25339391382E+04  0.24941880842E+04 0.  0.
        4    1    3    3  502    0 -0.11168044659E+04 -0.48892633825E+03  0.49028634553E+03  0.13140332921E+04  0.12699999809E+01 0. -1.
       -4    1    3    3    0  502  0.11168044659E+04  0.48892633825E+03 -0.43214363834E+02  0.12199058461E+04  0.12699999809E+01 0.  1.
</event>
<event>
 5   0  0.3484857E-06  0.2498590E+04  0.7818609E-02  0.8403488E-01
        1   -1    0    0  501    0  0.00000000000E+00  0.00000000000E+00  0.93005280025E+03  0.93005280027E+03  0.50400001928E-02 0.  1.
       -1   -1    0    0    0  501  0.00000000000E+00  0.00000000000E+00 -0.16781175873E+04  0.16781175873E+04  0.50400001928E-02 0. -1.
    10030    2    1    2    0    0  0.00000000000E+00  0.00000000000E+00 -0.74806478709E+03  0.26081703876E+04  0.24985899714E+04 0.  0.
        3    1    3    3  502    0 -0.38215282502E+03  0.25537208293E+03  0.83858713643E+03  0.95628660871E+03  0.10100000352E+00 0.  1.
       -3    1    3    3    0  502  0.38215282502E+03 -0.25537208293E+03 -0.15866519235E+04  0.16518837789E+04  0.10100000352E+00 0. -1.
</event>
<event>
 5   0  0.8407986E-06  0.2503309E+04  0.7818609E-02  0.8401808E-01
       -2   -1    0    0    0  501  0.00000000000E+00  0.00000000000E+00  0.11221991826E+04  0.11221991826E+04  0.25500000920E-02 0.  1.
        2   -1    0    0  501    0  0.00000000000E+00  0.00000000000E+00 -0.13960438504E+04  0.13960438504E+04  0.25500000920E-02 0. -1.
    10030    2    1    2    0    0  0.00000000000E+00  0.00000000000E+00 -0.27384466776E+03  0.25182430330E+04  0.25033092241E+04 0.  0.
        5    1    3    3  502    0 -0.65149006185E+03 -0.38469726929E+03 -0.11399592994E+04  0.13681961058E+04  0.46999998093E+01 0. -1.
       -5    1    3    3    0  502  0.65149006185E+03  0.38469726929E+03  0.86611463161E+03  0.11500469272E+04  0.46999998093E+01 0.  1.
</event>
<event>
 5   0  0.3481387E-06  0.2498531E+04  0.7818609E-02  0.8403509E-01
        1   -1    0    0  501    0  0.00000000000E+00  0.00000000000E+00  0.15662215299E+04  0.15662215299E+04  0.50400001928E-02 0. -1.
       -1   -1    0    0    0  501  0.00000000000E+00  0.00000000000E+00 -0.99645193305E+03  0.99645193306E+03  0.50400001928E-02 0.  1.
    10030    2    1    2    0    0  0.00000000000E+00  0.00000000000E+00  0.56976959688E+03  0.25626734630E+04  0.24985311454E+04 0.  0.
        4    1    3    3  502    0  0.81809169749E+03  0.93583938703E+03  0.15680520225E+03  0.12528602748E+04  0.12699999809E+01 0. -1.
       -4    1    3    3    0  502 -0.81809169749E+03 -0.93583938703E+03  0.41296439463E+03  0.13098131882E+04  0.12699999809E+01 0.  1.
</event>
<event>
 5   0  0.8407986E-06  0.2497935E+04  0.7818609E-02  0.8403722E-01
        2   -1    0    0  501    0  0.00000000000E+00  0.00000000000E+00  0.15010298815E+04  0.15010298815E+04  0.25500000920E-02 0.  1.
       -2   -1    0    0    0  501  0.00000000000E+00  0.00000000000E+00 -0.10392326712E+04  0.10392326712E+04  0.25500000920E-02 0. -1.
    10030    2    1    2    0    0  0.00000000000E+00  0.00000000000E+00  0.46179721030E+03  0.25402625527E+04  0.24979345815E+04 0.  0.
        5    1    3    3  502    0  0.50786959380E+03  0.92166472892E+03  0.91497837070E+03  0.13944909127E+04  0.46999998093E+01 0.  1.
       -5    1    3    3    0  502 -0.50786959380E+03 -0.92166472892E+03 -0.45318116039E+03  0.11457716400E+04  0.46999998093E+01 0. -1.
</event>
<event>
 5   0  0.3481387E-06  0.2478039E+04  0.7818609E-02  0.8410851E-01
        1   -1    0    0  501    0  0.00000000000E+00  0.00000000000E+00  0.12716196075E+04  0.12716196075E+04  0.50400001928E-02 0. -1.
       -1   -1    0    0    0  501  0.00000000000E+00  0.00000000000E+00 -0.12072547234E+04  0.12072547234E+04  0.50400001928E-02 0.  1.
    10030    2    1    2    0    0  0.00000000000E+00  0.00000000000E+00  0.64364884120E+02  0.24788743309E+04  0.24780385611E+04 0.  0.
        4    1    3    3  502    0  0.47803778412E+03  0.11416833416E+04  0.88824759353E+02  0.12409079041E+04  0.12699999809E+01 0. -1.
       -4    1    3    3    0  502 -0.47803778412E+03 -0.11416833416E+04 -0.24459875233E+02  0.12379664268E+04  0.12699999809E+01 0.  1.
</event>
<event>
 5   0  0.3642184E-06  0.2497008E+04  0.7818609E-02  0.8404052E-01
       -1   -1    0    0    0  501  0.00000000000E+00  0.00000000000E+00  0.76538893619E+03  0.76538893620E+03  0.50400001928E-02 0. -1.
        1   -1    0    0  501    0  0.00000000000E+00  0.00000000000E+00 -0.20365620842E+04  0.20365620842E+04  0.50400001928E-02 0.  1.
    10030    2    1    2    0    0  0.00000000000E+00  0.00000000000E+00 -0.12711731480E+04  0.28019510204E+04  0.24970078791E+04 0.  0.
        5    1    3    3  502    0  0.10519272423E+04  0.35882327208E+03 -0.12737532013E+04  0.16904953036E+04  0.46999998093E+01 0.  1.
       -5    1    3    3    0  502 -0.10519272423E+04 -0.35882327208E+03  0.25800533348E+01  0.11114557168E+04  0.46999998093E+01 0. -1.
</event>
<event>
 5   0  0.3484857E-06  0.2502781E+04  0.7818609E-02  0.8401995E-01
        1   -1    0    0  501    0  0.00000000000E+00  0.00000000000E+00  0.11153322227E+04  0.11153322228E+04  0.50400001928E-02 0.  1.
       -1   -1    0    0    0  501  0.00000000000E+00  0.00000000000E+00 -0.14040466673E+04  0.14040466673E+04  0.50400001928E-02 0. -1.
    10030    2    1    2    0    0  0.00000000000E+00  0.00000000000E+00 -0.28871444456E+03  0.25193788901E+04  0.25027812452E+04 0.  0.
        3    1    3    3  502    0 -0.38889901507E+03 -0.70729273509E+03  0.81826535494E+03  0.11493753340E+04  0.10100000352E+00 0.  1.
       -3    1    3    3    0  502  0.38889901507E+03  0.70729273509E+03 -0.11069797995E+04  0.13700035561E+04  0.10100000352E+00 0. -1.
</event>
<event>
 5   0  0.3424193E-06  0.2505352E+04  0.7818609E-02  0.8401081E-01
        1   -1    0    0  501    0  0.00000000000E+00  0.00000000000E+00  0.14446038965E+04  0.14446038965E+04  0.50400001928E-02 0. -1.
       -1   -1    0    0    0  501  0.00000000000E+00  0.00000000000E+00 -0.10862473280E+04  0.10862473280E+04  0.50400001928E-02 0.  1.
    10030    2    1    2    0    0  0.00000000000E+00  0.00000000000E+00  0.35835656845E+03  0.25308512245E+04  0.25053519693E+04 0.  0.
        1    1    3    3  502    0 -0.70074124348E+03 -0.75973091753E+03  0.89417288095E+03  0.13666654669E+04  0.50400001928E-02 0. -1.
       -1    1    3    3    0  502  0.70074124348E+03  0.75973091753E+03 -0.53581631250E+03  0.11641857576E+04  0.50400001928E-02 0.  1.
</event>
<event>
 5   0  0.8948286E-06  0.2540372E+04  0.7818609E-02  0.8388742E-01
       -2   -1    0    0    0  501  0.00000000000E+00  0.00000000000E+00  0.97172954382E+03  0.97172954382E+03  0.25500000920E-02 0.  1.
        2   -1    0    0  501    0  0.00000000000E+00  0.00000000000E+00 -0.16603099442E+04  0.16603099442E+04  0.25500000920E-02 0. -1.
    10030    2    1    2    0    0  0.00000000000E+00  0.00000000000E+00 -0.68858040043E+03  0.26320394881E+04  0.25403718033E+04 0.  0.
        4    1    3    3  502    0 -0.82648149143E+03 -0.62048820094E+03 -0.11093761334E+04  0.15161775231E+04  0.12699999809E+01 0. -1.
       -4    1    3    3    0  502  0.82648149143E+03  0.62048820094E+03  0.42079573296E+03  0.11158619650E+04  0.12699999809E+01 0.  1.
</event>
<event>
 5   0  0.8056723E-06  0.2501937E+04  0.7818609E-02  0.8402296E-01
        2   -1    0    0  501    0  0.00000000000E+00  0.00000000000E+00  0.11950268413E+04  0.11950268413E+04  0.25500000920E-02 0.  1.
       -2   -1    0    0    0  501  0.00000000000E+00  0.00000000000E+00 -0.13095289772E+04  0.13095289772E+04  0.25500000920E-02 0. -1.
    10030    2    1    2    0    0  0.00000000000E+00  0.00000000000E+00 -0.11450213593E+03  0.25045558185E+04  0.25019370713E+04 0.  0.
        2    1    3    3  502    0  0.34964696985E+02 -0.90078190747E+03  0.81100428372E+03  0.12125834087E+04  0.25500000920E-02 0.  1.
       -2    1    3    3    0  502 -0.34964696985E+02  0.90078190747E+03 -0.92550641965E+03  0.12919724098E+04  0.25500000920E-02 0. -1.
</event>
<event>
 5   0  0.3484857E-06  0.2468321E+04  0.7818609E-02  0.8414359E-01
        1   -1    0    0  501    0  0.00000000000E+00  0.00000000000E+00  0.16932175387E+04  0.16932175387E+04  0.50400001928E-02 0. -1.
       -1   -1    0    0    0  501  0.00000000000E+00  0.00000000000E+00 -0.89956082186E+03  0.89956082188E+03  0.50400001928E-02 0.  1.
    10030    2    1    2    0    0  0.00000000000E+00  0.00000000000E+00  0.79365671688E+03  0.25927783606E+04  0.24683210170E+04 0.  0.
        3    1    3    3  502    0  0.57645540134E+03  0.97563048490E+03 -0.11669417182E+03  0.11391984958E+04  0.10100000352E+00 0.  1.
       -3    1    3    3    0  502 -0.57645540134E+03 -0.97563048490E+03  0.91035088870E+03  0.14535798649E+04  0.10100000352E+00 0. -1.
</event>
<event>
 5   0  0.8354653E-06  0.2579585E+04  0.7818609E-02  0.8375169E-01
        2   -1    0    0  501    0  0.00000000000E+00  0.00000000000E+00  0.19036441010E+04  0.19036441010E+04  0.25500000920E-02 0.  1.
       -2   -1    0    0    0  501  0.00000000000E+00  0.00000000000E+00 -0.87388404554E+03  0.87388404554E+03  0.25500000920E-02 0. -1.
    10030    2    1    2    0    0  0.00000000000E+00  0.00000000000E+00  0.10297600555E+04  0.27775281466E+04  0.25795846241E+04 0.  0.
        3    1    3    3  502    0 -0.16403359514E+03  0.15813013347E+03  0.18818039056E+04  0.18955469154E+04  0.10100000352E+00 0.  1.
       -3    1    3    3    0  502  0.16403359514E+03 -0.15813013347E+03 -0.85204385006E+03  0.88198123114E+03  0.10100000352E+00 0. -1.
</event>
<event>
 5   0  0.3424193E-06  0.2497625E+04  0.7818609E-02  0.8403832E-01
        1   -1    0    0  501    0  0.00000000000E+00  0.00000000000E+00  0.11358083344E+04  0.11358083344E+04  0.50400001928E-02 0. -1.
       -1   -1    0    0    0  501  0.00000000000E+00  0.00000000000E+00 -0.13730593282E+04  0.13730593282E+04  0.50400001928E-02 0.  1.
    10030    2    1    2    0    0  0.00000000000E+00  0.00000000000E+00 -0.23725099376E+03  0.25088676626E+04  0.24976246544E+04 0.  0.
        1    1    3    3  502    0 -0.25276021843E+03  0.31980864652E+03 -0.13043487327E+04  0.13665617128E+04  0.50400001928E-02 0.  1.
       -1    1    3    3    0  502  0.25276021843E+03 -0.31980864652E+03  0.10670977389E+04  0.11423059498E+04  0.50400001928E-02 0. -1.
</event>
<event>
 5   0  0.3481387E-06  0.2501682E+04  0.7818609E-02  0.8402387E-01
       -1   -1    0    0    0  501  0.00000000000E+00  0.00000000000E+00  0.11305081295E+04  0.11305081295E+04  0.50400001928E-02 0.  1.
        1   -1    0    0  501    0  0.00000000000E+00  0.00000000000E+00 -0.13839823684E+04  0.13839823684E+04  0.50400001928E-02 0. -1.
    10030    2    1    2    0    0  0.00000000000E+00  0.00000000000E+00 -0.25347423897E+03  0.25144904979E+04  0.25016820889E+04 0.  0.
        4    1    3    3  502    0 -0.81057434894E+03 -0.66780641295E+03  0.55615700933E+03  0.11884058281E+04  0.12699999809E+01 0.  1.
       -4    1    3    3    0  502  0.81057434894E+03  0.66780641295E+03 -0.80963124830E+03  0.13260846698E+04  0.12699999809E+01 0. -1.
</event>
<event>
 5   0  0.3642184E-06  0.2503005E+04  0.7818609E-02  0.8401916E-01
        1   -1    0    0  501    0  0.00000000000E+00  0.00000000000E+00  0.20688283793E+04  0.20688283793E+04  0.50400001928E-02 0.  1.
       -1   -1    0    0    0  501  0.00000000000E+00  0.00000000000E+00 -0.75707482903E+03  0.75707482904E+03  0.50400001928E-02 0. -1.
    10030    2    1    2    0    0  0.00000000000E+00  0.00000000000E+00  0.13117535503E+04  0.28259032084E+04  0.25030045079E+04 0.  0.
        5    1    3    3  502    0  0.67022592466E+03 -0.79646830885E+03  0.14402474778E+04  0.17770479579E+04  0.46999998093E+01 0.  1.
       -5    1    3    3    0  502 -0.67022592466E+03  0.79646830885E+03 -0.12849392756E+03  0.10488552505E+04  0.46999998093E+01 0. -1.
</event>
<event>
 5   0  0.8354653E-06  0.2509690E+04  0.7818609E-02  0.8399542E-01
       -2   -1    0    0    0  501  0.00000000000E+00  0.00000000000E+00  0.71431273891E+03  0.71431273891E+03  0.25500000920E-02 0. -1.
        2   -1    0    0  501    0  0.00000000000E+00  0.00000000000E+00 -0.22044062399E+04  0.22044062399E+04  0.25500000920E-02 0.  1.
    10030    2    1    2    0    0  0.00000000000E+00  0.00000000000E+00 -0.14900935010E+04  0.29187189789E+04  0.25096895895E+04 0.  0.
        3    1    3    3  502    0 -0.36150052913E+03  0.14197626144E+03  0.64265485156E+03  0.75089623771E+03  0.10100000352E+00 0. -1.
       -3    1    3    3    0  502  0.36150052913E+03 -0.14197626144E+03 -0.21327483526E+04  0.21678227412E+04  0.10100000352E+00 0.  1.
</event>
<event>
 5   0  0.3424193E-06  0.2504452E+04  0.7818609E-02  0.8401401E-01
        1   -1    0    0  501    0  0.00000000000E+00  0.00000000000E+00  0.16150546955E+04  0.16150546955E+04  0.50400001928E-02 0. -1.
       -1   -1    0    0    0  501  0.00000000000E+00  0.00000000000E+00 -0.97090834379E+03  0.97090834381E+03  0.50400001928E-02 0.  1.
    10030    2    1    2    0    0  0.00000000000E+00  0.00000000000E+00  0.64414635173E+03  0.25859630393E+04  0.25044520994E+04 0.  0.
        1    1    3    3  502    0 -0.11296210627E+04  0.43992888361E+03  0.64611662984E+03  0.13736986086E+04  0.50400001928E-02 0. -1.
       -1    1    3    3    0  502  0.11296210627E+04 -0.43992888361E+03 -0.19702781178E+01  0.12122644307E+04  0.50400001928E-02 0.  1.
</event>
<event>
 5   0  0.8579923E-06  0.2500675E+04  0.7818609E-02  0.8402745E-01
       -2   -1    0    0    0  501  0.00000000000E+00  0.00000000000E+00  0.19229570912E+04  0.19229570912E+04  0.25500000920E-02 0.  1.
        2   -1    0    0  501    0  0.00000000000E+00  0.00000000000E+00 -0.81298959930E+03  0.81298959930E+03  0.25500000920E-02 0. -1.
    10030    2    1    2    0    0  0.00000000000E+00  0.00000000000E+00  0.11099674919E+04  0.27359466905E+04  0.25006752009E+04 0.  0.
        1    1    3    3  502    0  0.54233426508E+03 -0.11067443644E+04  0.78535145507E+03  0.14614330129E+04  0.50400001928E-02 0.  1.
       -1    1    3    3    0  502 -0.54233426508E+03  0.11067443644E+04  0.32461603688E+03  0.12745136777E+04  0.50400001928E-02 0. -1.
</event>
<event>
 5   0  0.3481387E-06  0.2421831E+04  0.7818609E-02  0.8431375E-01
       -1   -1    0    0    0  501  0.00000000000E+00  0.00000000000E+00  0.10172629162E+04  0.10172629162E+04  0.50400001928E-02 0. -1.
        1   -1    0    0  501    0  0.00000000000E+00  0.00000000000E+00 -0.14414331607E+04  0.14414331607E+04  0.50400001928E-02 0.  1.
    10030    2    1    2    0    0  0.00000000000E+00  0.00000000000E+00 -0.42417024448E+03  0.24586960770E+04  0.24218311259E+04 0.  0.
        4    1    3    3  502    0  0.54821928112E+03 -0.43785836888E+03  0.78987800854E+03  0.10564909903E+04  0.12699999809E+01 0. -1.
       -4    1    3    3    0  502 -0.54821928112E+03  0.43785836888E+03 -0.12140482530E+04  0.14022050866E+04  0.12699999809E+01 0.  1.
</event>
<event>
 5   0  0.3642184E-06  0.2495896E+04  0.7818609E-02  0.8404449E-01
       -1   -1    0    0    0  501  0.00000000000E+00  0.00000000000E+00  0.19426337818E+04  0.19426337818E+04  0.50400001928E-02 0.  1.
        1   -1    0    0  501    0  0.00000000000E+00  0.00000000000E+00 -0.80168160043E+03  0.80168160045E+03  0.50400001928E-02 0. -1.
    10030    2    1    2    0    0  0.00000000000E+00  0.00000000000E+00  0.11409521814E+04  0.27443153823E+04  0.24958956383E+04 0.  0.
        5    1    3    3  502    0 -0.63734347765E+03 -0.10151757897E+04  0.95225748460E+03  0.15308837315E+04  0.46999998093E+01 0.  1.
       -5    1    3    3    0  502  0.63734347765E+03  0.10151757897E+04  0.18869469677E+03  0.12134316507E+04  0.46999998093E+01 0. -1.
</event>
<event>
 5   0  0.3522870E-06  0.2507650E+04  0.7818609E-02  0.8400265E-01
        1   -1    0    0  501    0  0.00000000000E+00  0.00000000000E+00  0.14529306326E+04  0.14529306326E+04  0.50400001928E-02 0. -1.
       -1   -1    0    0    0  501  0.00000000000E+00  0.00000000000E+00 -0.10820041182E+04  0.10820041182E+04  0.50400001928E-02 0.  1.
    10030    2    1    2    0    0  0.00000000000E+00  0.00000000000E+00  0.37092651439E+03  0.25349347509E+04  0.25076498384E+04 0.  0.
        2    1    3    3  502    0 -0.65441517559E+03  0.99366238629E+03 -0.21438160330E+03  0.12089597313E+04  0.25500000920E-02 0.  1.
       -2    1    3    3    0  502  0.65441517559E+03 -0.99366238629E+03  0.58530811769E+03  0.13259750196E+04  0.25500000920E-02 0. -1.
</event>
<event>
 5   0  0.3481387E-06  0.2497381E+04  0.7818609E-02  0.8403919E-01
        1   -1    0    0  501    0  0.00000000000E+00  0.00000000000E+00  0.72682167375E+03  0.72682167377E+03  0.50400001928E-02 0.  1.
       -1   -1    0    0    0  501  0.00000000000E+00  0.00000000000E+00 -0.21452691163E+04  0.21452691163E+04  0.50400001928E-02 0. -1.
    10030    2    1    2    0    0  0.00000000000E+00  0.00000000000E+00 -0.14184474425E+04  0.28720907901E+04  0.24973811001E+04 0.  0.
        4    1    3    3  502    0  0.85702438777E+03  0.23941931186E+03  0.29823722977E+03  0.93848786154E+03  0.12699999809E+01 0.  1.
       -4    1    3    3    0  502 -0.85702438777E+03 -0.23941931186E+03 -0.17166846723E+04  0.19336029285E+04  0.12699999809E+01 0. -1.
</event>
<event>
 5   0  0.3642184E-06  0.2505508E+04  0.7818609E-02  0.8401026E-01
        1   -1    0    0  501    0  0.00000000000E+00  0.00000000000E+00  0.16318331976E+04  0.16318331976E+04  0.50400001928E-02 0. -1.
       -1   -1    0    0    0  501  0.00000000000E+00  0.00000000000E+00 -0.96173601810E+03  0.96173601811E+03  0.50400001928E-02 0.  1.
    10030    2    1    2    0    0  0.00000000000E+00  0.00000000000E+00  0.67009717946E+03  0.25935692157E+04  0.25055081414E+04 0.  0.
        5    1    3    3  502    0 -0.88799042655E+03 -0.87704936293E+02 -0.57514617020E+03  0.10616187454E+04  0.46999998093E+01 0.  1.
       -5    1    3    3    0  502  0.88799042655E+03  0.87704936293E+02  0.12452433497E+04  0.15319504703E+04  0.46999998093E+01 0. -1.
</event>
<event>
 5   0  0.8056723E-06  0.2485994E+04  0.7818609E-02  0.8407992E-01
       -2   -1    0    0    0  501  0.00000000000E+00  0.00000000000E+00  0.95976758439E+03  0.95976758440E+03  0.25500000920E-02 0. -1.
        2   -1    0    0  501    0  0.00000000000E+00  0.00000000000E+00 -0.16098080210E+04  0.16098080210E+04  0.25500000920E-02 0.  1.
    10030    2    1    2    0    0  0.00000000000E+00  0.00000000000E+00 -0.65004043660E+03  0.25695756054E+04  0.24859940110E+04 0.  0.
        2    1    3    3  502    0  0.12203571452E+04 -0.56657711807E+02 -0.56198760430E+03  0.13447348160E+04  0.25500000920E-02 0.  1.
       -2    1    3    3    0  502 -0.12203571452E+04  0.56657711807E+02 -0.88052832298E+02  0.12248407894E+04  0.25500000920E-02 0. -1.
</event>
<event>
 5   0  0.3424193E-06  0.2503381E+04  0.7818609E-02  0.8401782E-01
        1   -1    0    0  501    0  0.00000000000E+00  0.00000000000E+00  0.13258495836E+04  0.13258495837E+04  0.50400001928E-02 0. -1.
       -1   -1    0    0    0  501  0.00000000000E+00  0.00000000000E+00 -0.11816793907E+04  0.11816793907E+04  0.50400001928E-02 0.  1.
    10030    2    1    2    0    0  0.00000000000E+00  0.00000000000E+00  0.14417019294E+03  0.25075289744E+04  0.25033810163E+04 0.  0.
        1    1    3    3  502    0  0.16207058643E+03  0.11816657393E+04  0.45235651809E+03  0.12756281645E+04  0.50400001928E-02 0. -1.
       -1    1    3    3    0  502 -0.16207058643E+03 -0.11816657393E+04 -0.30818632515E+03  0.12319008099E+04  0.50400001928E-02 0.  1.
</event>
<event>
 5   0  0.3424193E-06  0.2472919E+04  0.7818609E-02  0.8412697E-01
        1   -1    0    0  501    0  0.00000000000E+00  0.00000000000E+00  0.93789930223E+03  0.93789930224E+03  0.50400001928E-02 0.  1.
       -1   -1    0    0    0  501  0.00000000000E+00  0.00000000000E+00 -0.16300593669E+04  0.16300593669E+04  0.50400001928E-02 0. -1.
    10030    2    1    2    0    0  0.00000000000E+00  0.00000000000E+00 -0.69216006467E+03  0.25679586691E+04  0.24729185533E+04 0.  0.
        1    1    3    3  502    0  0.66623144657E+03  0.22643903358E+03  0.70970114058E+03  0.99940716692E+03  0.50400001928E-02 0.  1.
       -1    1    3    3    0  502 -0.66623144657E+03 -0.22643903358E+03 -0.14018612053E+04  0.15685515022E+04  0.50400001928E-02 0. -1.
</event>
<event>
 5   0  0.3424193E-06  0.2491441E+04  0.7818609E-02  0.8406041E-01
        1   -1    0    0  501    0  0.00000000000E+00  0.00000000000E+00  0.10864589474E+04  0.10864589474E+04  0.50400001928E-02 0. -1.
       -1   -1    0    0    0  501  0.00000000000E+00  0.00000000000E+00 -0.14283280040E+04  0.14283280040E+04  0.50400001928E-02 0.  1.
    10030    2    1    2    0    0  0.00000000000E+00  0.00000000000E+00 -0.34186905654E+03  0.25147869514E+04  0.24914411410E+04 0.  0.
        1    1    3    3  502    0 -0.12456365996E+04 -0.12933621166E+01 -0.15639368023E+03  0.12554167412E+04  0.50400001928E-02 0. -1.
       -1    1    3    3    0  502  0.12456365996E+04  0.12933621166E+01 -0.18547537631E+03  0.12593702101E+04  0.50400001928E-02 0.  1.
</event>
<event>
 5   0  0.8948286E-06  0.2502090E+04  0.7818609E-02  0.8402241E-01
        2   -1    0    0  501    0  0.00000000000E+00  0.00000000000E+00  0.12391679237E+04  0.12391679237E+04  0.25500000920E-02 0.  1.
       -2   -1    0    0    0  501  0.00000000000E+00  0.00000000000E+00 -0.12630357052E+04  0.12630357052E+04  0.25500000920E-02 0. -1.
    10030    2    1    2    0    0  0.00000000000E+00  0.00000000000E+00 -0.23867781578E+02  0.25022036289E+04  0.25020897925E+04 0.  0.
        4    1    3    3  502    0 -0.68634810737E+03 -0.52080555200E+03 -0.91905816164E+03  0.12597546050E+04  0.12699999809E+01 0. -1.
       -4    1    3    3    0  502  0.68634810737E+03  0.52080555200E+03  0.89519038007E+03  0.12424490239E+04  0.12699999809E+01 0.  1.
</event>
<event>
 5   0  0.3484857E-06  0.2458028E+04  0.7818609E-02  0.8418093E-01
        1   -1    0    0  501    0  0.00000000000E+00  0.00000000000E+00  0.12845824132E+04  0.12845824132E+04  0.50400001928E-02 0.  1.
       -1   -1    0    0    0  501  0.00000000000E+00  0.00000000000E+00 -0.11758490024E+04  0.11758490024E+04  0.50400001928E-02 0. -1.
    10030    2    1    2    0    0  0.00000000000E+00  0.00000000000E+00  0.10873341084E+03  0.24604314156E+04  0.24580276231E+04 0.  0.
        3    1    3    3  502    0  0.32390328735E+03  0.16707599126E+03  0.12292467121E+04  0.12821369723E+04  0.10100000352E+00 0.  1.
       -3    1    3    3    0  502 -0.32390328735E+03 -0.16707599126E+03 -0.11205133013E+04  0.11782944432E+04  0.10100000352E+00 0. -1.
</event>
<event>
 5   0  0.8948286E-06  0.2509242E+04  0.7818609E-02  0.8399700E-01
       -2   -1    0    0    0  501  0.00000000000E+00  0.00000000000E+00  0.92916605793E+03  0.92916605793E+03  0.25500000920E-02 0.  1.
        2   -1    0    0  501    0  0.00000000000E+00  0.00000000000E+00 -0.16940719185E+04  0.16940719185E+04  0.25500000920E-02 0. -1.
    10030    2    1    2    0    0  0.00000000000E+00  0.00000000000E+00 -0.76490586059E+03  0.26232379765E+04  0.25092422174E+04 0.  0.
        4    1    3    3  502    0  0.86024516189E+03 -0.62325309294E+02  0.57007487696E+03  0.10338728940E+04  0.12699999809E+01 0. -1.
       -4    1    3    3    0  502 -0.86024516189E+03  0.62325309294E+02 -0.13349807376E+04  0.15893650824E+04  0.12699999809E+01 0.  1.
</event>
<event>
 5   0  0.8354653E-06  0.2488368E+04  0.7818609E-02  0.8407141E-01
        2   -1    0    0  501    0  0.00000000000E+00  0.00000000000E+00  0.26539240984E+04  0.26539240984E+04  0.25500000920E-02 0.  1.
       -2   -1    0    0    0  501  0.00000000000E+00  0.00000000000E+00 -0.58328500975E+03  0.58328500976E+03  0.25500000920E-02 0. -1.
    10030    2    1    2    0    0  0.00000000000E+00  0.00000000000E+00  0.20706390886E+04  0.32372091081E+04  0.24883682554E+04 0.  0.
        3    1    3    3  502    0  0.82733312627E+02  0.11165673811E+04  0.17412219060E+04  0.20701259029E+04  0.10100000352E+00 0.  1.
       -3    1    3    3    0  502 -0.82733312627E+02 -0.11165673811E+04  0.32941718262E+03  0.11670832053E+04  0.10100000352E+00 0. -1.
</event>
<event>
 5   0  0.8579923E-06  0.2498488E+04  0.7818609E-02  0.8403524E-01
       -2   -1    0    0    0  501  0.00000000000E+00  0.00000000000E+00  0.70760983673E+03  0.70760983673E+03  0.25500000920E-02 0. -1.
        2   -1    0    0  501    0  0.00000000000E+00  0.00000000000E+00 -0.22054678867E+04  0.22054678867E+04  0.25500000920E-02 0.  1.
    10030    2    1    2    0    0  0.00000000000E+00  0.00000000000E+00 -0.14978580500E+04  0.29130777234E+04  0.24984881599E+04 0.  0.
        1    1    3    3  502    0 -0.95134865969E+03  0.78728391702E+03 -0.52853768609E+03  0.13432171544E+04  0.50400001928E-02 0.  1.
       -1    1    3    3    0  502  0.95134865969E+03 -0.78728391702E+03 -0.96932036389E+03  0.15698605690E+04  0.50400001928E-02 0. -1.
</event>
<event>
 5   0  0.8948286E-06  0.2514219E+04  0.7818609E-02  0.8397937E-01
       -2   -1    0    0    0  501  0.00000000000E+00  0.00000000000E+00  0.12119978340E+04  0.12119978340E+04  0.25500000920E-02 0.  1.
        2   -1    0    0  501    0  0.00000000000E+00  0.00000000000E+00 -0.13039003863E+04  0.13039003863E+04  0.25500000920E-02 0. -1.
    10030    2    1    2    0    0  0.00000000000E+00  0.00000000000E+00 -0.91902552321E+02  0.25158982203E+04  0.25142191185E+04 0.  0.
        4    1    3    3  502    0  0.43930603146E+03  0.72323022537E+03  0.88433140235E+03  0.12239670707E+04  0.12699999809E+01 0.  1.
       -4    1    3    3    0  502 -0.43930603146E+03 -0.72323022537E+03 -0.97623395467E+03  0.12919311496E+04  0.12699999809E+01 0. -1.
</event>
<event>
 5   0  0.3484857E-06  0.2495705E+04  0.7818609E-02  0.8404517E-01
       -1   -1    0    0    0  501  0.00000000000E+00  0.00000000000E+00  0.17491054968E+04  0.17491054968E+04  0.50400001928E-02 0.  1.
        1   -1    0    0  501    0  0.00000000000E+00  0.00000000000E+00 -0.89024726149E+03  0.89024726151E+03  0.50400001928E-02 0. -1.
    10030    2    1    2    0    0  0.00000000000E+00  0.00000000000E+00  0.85885823526E+03  0.26393527583E+04  0.24957054142E+04 0.  0.
        3    1    3    3  502    0  0.81914336012E+03 -0.49962747809E+03  0.12731673429E+04  0.15942329048E+04  0.10100000352E+00 0.  1.
       -3    1    3    3    0  502 -0.81914336012E+03  0.49962747809E+03 -0.41430910768E+03  0.10451198535E+04  0.10100000352E+00 0. -1.
</event>
<event>
 5   0  0.8354653E-06  0.2491554E+04  0.7818609E-02  0.8406001E-01
       -2   -1    0    0    0  501  0.00000000000E+00  0.00000000000E+00  0.11745113020E+04  0.11745113020E+04  0.25500000920E-02 0.  1.
        2   -1    0    0  501    0  0.00000000000E+00  0.00000000000E+00 -0.13213669401E+04  0.13213669401E+04  0.25500000920E-02 0. -1.
    10030    2    1    2    0    0  0.00000000000E+00  0.00000000000E+00 -0.14685563806E+03  0.24958782421E+04  0.24915540574E+04 0.  0.
        3    1    3    3  502    0 -0.47561512804E+03  0.50676811706E+03  0.96226050240E+03  0.11869999828E+04  0.10100000352E+00 0.  1.
       -3    1    3    3    0  502  0.47561512804E+03 -0.50676811706E+03 -0.11091161405E+04  0.13088782593E+04  0.10100000352E+00 0. -1.
</event>
<event>
 5   0  0.3484857E-06  0.2488265E+04  0.7818609E-02  0.8407178E-01
       -1   -1    0    0    0  501  0.00000000000E+00  0.00000000000E+00  0.13905667225E+04  0.13905667225E+04  0.50400001928E-02 0.  1.
        1   -1    0    0  501    0  0.00000000000E+00  0.00000000000E+00 -0.11131188894E+04  0.11131188894E+04  0.50400001928E-02 0. -1.
    10030    2    1    2    0    0  0.00000000000E+00  0.00000000000E+00  0.27744783312E+03  0.25036856118E+04  0.24882653281E+04 0.  0.
        3    1    3    3  502    0  0.10219516754E+04  0.36755517735E+02 -0.57427872438E+03  0.11728308738E+04  0.10100000352E+00 0.  1.
       -3    1    3    3    0  502 -0.10219516754E+04 -0.36755517735E+02  0.85172655749E+03  0.13308547381E+04  0.10100000352E+00 0. -1.
</event>
<event>
 5   0  0.8948286E-06  0.2496895E+04  0.7818609E-02  0.8404092E-01
        2   -1    0    0  501    0  0.00000000000E+00  0.00000000000E+00  0.95184310785E+03  0.95184310786E+03  0.25500000920E-02 0.  1.
       -2   -1    0    0    0  501  0.00000000000E+00  0.00000000000E+00 -0.16374775750E+04  0.16374775750E+04  0.25500000920E-02 0. -1.
    10030    2    1    2    0    0  0.00000000000E+00  0.00000000000E+00 -0.68563446714E+03  0.25893206829E+04  0.24968954676E+04 0.  0.
        4    1    3    3  502    0 -0.75033532732E+03  0.82720705136E+03 -0.92145502062E+03  0.14478796832E+04  0.12699999809E+01 0.  1.
       -4    1    3    3    0  502  0.75033532732E+03 -0.82720705136E+03  0.23582055348E+03  0.11414409996E+04  0.12699999809E+01 0. -1.
</event>
<event>
 5   0  0.8056723E-06  0.2452489E+04  0.7818609E-02  0.8420110E-01
        2   -1    0    0  501    0  0.00000000000E+00  0.00000000000E+00  0.25737121227E+04  0.25737121227E+04  0.25500000920E-02 0. -1.
       -2   -1    0    0    0  501  0.00000000000E+00  0.00000000000E+00 -0.58424378816E+03  0.58424378817E+03  0.25500000920E-02 0.  1.
    10030    2    1    2    0    0  0.00000000000E+00  0.00000000000E+00  0.19894683345E+04  0.31579559109E+04  0.24524887932E+04 0.  0.
        2    1    3    3  502    0 -0.65624601951E+03  0.35914620567E+03 -0.25636587958E+03  0.79080231372E+03  0.25500000920E-02 0.  1.
       -2    1    3    3    0  502  0.65624601951E+03 -0.35914620567E+03  0.22458342141E+04  0.23671535971E+04  0.25500000920E-02 0. -1.
</event>
<event>
 5   0  0.8579923E-06  0.2569895E+04  0.7818609E-02  0.8378500E-01
        2   -1    0    0  501    0  0.00000000000E+00  0.00000000000E+00  0.16611307777E+04  0.16611307777E+04  0.25500000920E-02 0.  1.
       -2   -1    0    0    0  501  0.00000000000E+00  0.00000000000E+00 -0.99395514578E+03  0.99395514578E+03  0.25500000920E-02 0. -1.
    10030    2    1    2    0    0  0.00000000000E+00  0.00000000000E+00  0.66717563192E+03  0.26550859235E+04  0.25698945382E+04 0.  0.
        1    1    3    3  502    0  0.47771517064E+03  0.29409761326E+03 -0.86075488639E+03  0.10274259900E+04  0.50400001928E-02 0. -1.
       -1    1    3    3    0  502 -0.47771517064E+03 -0.29409761326E+03  0.15279305183E+04  0.16276599335E+04  0.50400001928E-02 0.  1.
</event>
<event>
 5   0  0.8354653E-06  0.2493775E+04  0.7818609E-02  0.8405206E-01
        2   -1    0    0  501    0  0.00000000000E+00  0.00000000000E+00  0.53742276256E+03  0.53742276257E+03  0.25500000920E-02 0.  1.
       -2   -1    0    0    0  501  0.00000000000E+00  0.00000000000E+00 -0.28929347751E+04  0.28929347751E+04  0.25500000920E-02 0. -1.
    10030    2    1    2    0    0  0.00000000000E+00  0.00000000000E+00 -0.23555120125E+04  0.34303575376E+04  0.24937754500E+04 0.  0.
        3    1    3    3  502    0  0.79520006475E+01 -0.12432677158E+04 -0.13078991359E+04  0.18045437116E+04  0.10100000352E+00 0.  1.
       -3    1    3    3    0  502 -0.79520006475E+01  0.12432677158E+04 -0.10476128766E+04  0.16258138260E+04  0.10100000352E+00 0. -1.
</event>
<event>
 5   0  0.8056723E-06  0.2500659E+04  0.7818609E-02  0.8402751E-01
       -2   -1    0    0    0  501  0.00000000000E+00  0.00000000000E+00  0.11973320050E+04  0.11973320050E+04  0.25500000920E-02 0.  1.
        2   -1    0    0  501    0  0.00000000000E+00  0.00000000000E+00 -0.13056731279E+04  0.13056731279E+04  0.25500000920E-02 0. -1.
    10030    2    1    2    0    0  0.00000000000E+00  0.00000000000E+00 -0.10834112295E+03  0.25030051329E+04  0.25006592923E+04 0.  0.
        2    1    3    3  502    0 -0.76128143142E+03  0.94581592719E+03  0.24478509553E+03  0.12385624445E+04  0.25500000920E-02 0.  1.
       -2    1    3    3    0  502  0.76128143142E+03 -0.94581592719E+03 -0.35312621848E+03  0.12644426884E+04  0.25500000920E-02 0. -1.
</event>
<event>
 5   0  0.3522870E-06  0.2494757E+04  0.7818609E-02  0.8404856E-01
        1   -1    0    0  501    0  0.00000000000E+00  0.00000000000E+00  0.13037958958E+04  0.13037958958E+04  0.50400001928E-02 0. -1.
       -1   -1    0    0    0  501  0.00000000000E+00  0.00000000000E+00 -0.11934023076E+04  0.11934023076E+04  0.50400001928E-02 0.  1.
    10030    2    1    2    0    0  0.00000000000E+00  0.00000000000E+00  0.11039358824E+03  0.24971982034E+04  0.24947569266E+04 0.  0.
        2    1    3    3  502    0 -0.12190283243E+04  0.25135459135E+03 -0.27004480970E+02  0.12449652317E+04  0.25500000920E-02 0.  1.
       -2    1    3    3    0  502  0.12190283243E+04 -0.25135459135E+03  0.13739806921E+03  0.12522329718E+04  0.25500000920E-02 0. -1.
</event>
<event>
 5   0  0.3522870E-06  0.2503652E+04  0.7818609E-02  0.8401686E-01
        1   -1    0    0  501    0  0.00000000000E+00  0.00000000000E+00  0.18626651619E+04  0.18626651619E+04  0.50400001928E-02 0.  1.
       -1   -1    0    0    0  501  0.00000000000E+00  0.00000000000E+00 -0.84130443450E+03  0.84130443452E+03  0.50400001928E-02 0. -1.
    10030    2    1    2    0    0  0.00000000000E+00  0.00000000000E+00  0.10213607274E+04  0.27039695964E+04  0.25036521010E+04 0.  0.
        2    1    3    3  502    0  0.10205192532E+04 -0.57744388701E+03  0.98412343144E+03  0.15308167484E+04  0.25500000920E-02 0. -1.
       -2    1    3    3    0  502 -0.10205192532E+04  0.57744388701E+03  0.37237295967E+02  0.11731528481E+04  0.25500000920E-02 0.  1.
</event>
<event>
 5   0  0.3481387E-06  0.2530567E+04  0.7818609E-02  0.8392176E-01
       -1   -1    0    0    0  501  0.00000000000E+00  0.00000000000E+00  0.95512903827E+03  0.95512903828E+03  0.50400001928E-02 0.  1.
        1   -1    0    0  501    0  0.00000000000E+00  0.00000000000E+00 -0.16761525059E+04  0.16761525059E+04  0.50400001928E-02 0. -1.
    10030    2    1    2    0    0  0.00000000000E+00  0.00000000000E+00 -0.72102346761E+03  0.26312815442E+04  0.25305666804E+04 0.  0.
        4    1    3    3  502    0  0.22745532385E+03 -0.12034508698E+04 -0.30204950243E+02  0.12251301451E+04  0.12699999809E+01 0.  1.
       -4    1    3    3    0  502 -0.22745532385E+03  0.12034508698E+04 -0.69081851736E+03  0.14061513991E+04  0.12699999809E+01 0. -1.
</event>
<event>
 5   0  0.3642184E-06  0.2495264E+04  0.7818609E-02  0.8404675E-01
        1   -1    0    0  501    0  0.00000000000E+00  0.00000000000E+00  0.16348909356E+04  0.16348909356E+04  0.50400001928E-02 0.  1.
       -1   -1    0    0    0  501  0.00000000000E+00  0.00000000000E+00 -0.95210366137E+03  0.95210366138E+03  0.50400001928E-02 0. -1.
    10030    2    1    2    0    0  0.00000000000E+00  0.00000000000E+00  0.68278727421E+03  0.25869945970E+04  0.24952640307E+04 0.  0.
        5    1    3    3  502    0 -0.79327383085E+03 -0.82288208743E+03 -0.17713786995E+03  0.11566409190E+04  0.46999998093E+01 0. -1.
       -5    1    3    3    0  502  0.79327383085E+03  0.82288208743E+03  0.85992514416E+03  0.14303536780E+04  0.46999998093E+01 0.  1.
</event>
<event>
 5   0  0.3642184E-06  0.2426087E+04  0.7818609E-02  0.8429801E-01
        1   -1    0    0  501    0  0.00000000000E+00  0.00000000000E+00  0.83474310956E+03  0.83474310957E+03  0.50400001928E-02 0. -1.
       -1   -1    0    0    0  501  0.00000000000E+00  0.00000000000E+00 -0.17627869964E+04  0.17627869964E+04  0.50400001928E-02 0.  1.
    10030    2    1    2    0    0  0.00000000000E+00  0.00000000000E+00 -0.92804388684E+03  0.25975301060E+04  0.24260868071E+04 0.  0.
        5    1    3    3  502    0 -0.12148748884E+03  0.11938849824E+04 -0.65353793869E+03  0.13664752060E+04  0.46999998093E+01 0.  1.
       -5    1    3    3    0  502  0.12148748884E+03 -0.11938849824E+04 -0.27450594816E+03  0.12310549000E+04  0.46999998093E+01 0. -1.
</event>
<event>
 5   0  0.8354653E-06  0.2501970E+04  0.7818609E-02  0.8402284E-01
       -2   -1    0    0    0  501  0.00000000000E+00  0.00000000000E+00  0.92257153113E+03  0.92257153113E+03  0.25500000920E-02 0. -1.
        2   -1    0    0  501    0  0.00000000000E+00  0.00000000000E+00 -0.16963060325E+04  0.16963060325E+04  0.25500000920E-02 0.  1.
    10030    2    1    2    0    0  0.00000000000E+00  0.00000000000E+00 -0.77373450139E+03  0.26188775636E+04  0.25019701466E+04 0.  0.
        3    1    3    3  502    0 -0.11730424477E+04  0.93397501066E+02 -0.83121694341E+03  0.14407197140E+04  0.10100000352E+00 0.  1.
       -3    1    3    3    0  502  0.11730424477E+04 -0.93397501066E+02  0.57482442018E+02  0.11781578496E+04  0.10100000352E+00 0. -1.
</event>
<event>
 5   0  0.8354653E-06  0.2506795E+04  0.7818609E-02  0.8400569E-01
       -2   -1    0    0    0  501  0.00000000000E+00  0.00000000000E+00  0.78034592557E+03  0.78034592557E+03  0.25500000920E-02 0. -1.
        2   -1    0    0  501    0  0.00000000000E+00  0.00000000000E+00 -0.20132170995E+04  0.20132170995E+04  0.25500000920E-02 0.  1.
    10030    2    1    2    0    0  0.00000000000E+00  0.00000000000E+00 -0.12328711740E+04  0.27935630251E+04  0.25067953733E+04 0.  0.
        3    1    3    3  502    0  0.69646421802E+02  0.22730625360E+03  0.75499036458E+03  0.79153598642E+03  0.10100000352E+00 0. -1.
       -3    1    3    3    0  502 -0.69646421802E+02 -0.22730625360E+03 -0.19878615385E+04  0.20020270387E+04  0.10100000352E+00 0.  1.
</event>
<event>
 5   0  0.3642184E-06  0.2516547E+04  0.7818609E-02  0.8397114E-01
        1   -1    0    0  501    0  0.00000000000E+00  0.00000000000E+00  0.17082906164E+04  0.17082906164E+04  0.50400001928E-02 0. -1.
       -1   -1    0    0    0  501  0.00000000000E+00  0.00000000000E+00 -0.92680509068E+03  0.92680509070E+03  0.50400001928E-02 0.  1.
    10030    2    1    2    0    0  0.00000000000E+00  0.00000000000E+00  0.78148552576E+03  0.26350957071E+04  0.25165471899E+04 0.  0.
        5    1    3    3  502    0 -0.10520517630E+04 -0.67960702782E+03  0.26442961453E+03  0.12800873936E+04  0.46999998093E+01 0.  1.
       -5    1    3    3    0  502  0.10520517630E+04  0.67960702782E+03  0.51705591122E+03  0.13550083135E+04  0.46999998093E+01 0. -1.
</event>
<event>
 5   0  0.8579923E-06  0.2498558E+04  0.7818609E-02  0.8403500E-01
       -2   -1    0    0    0  501  0.00000000000E+00  0.00000000000E+00  0.66397442277E+03  0.66397442277E+03  0.25500000920E-02 0.  1.
        2   -1    0    0  501    0  0.00000000000E+00  0.00000000000E+00 -0.23505385254E+04  0.23505385254E+04  0.25500000920E-02 0. -1.
    10030    2    1    2    0    0  0.00000000000E+00  0.00000000000E+00 -0.16865641026E+04  0.30145129482E+04  0.24985575523E+04 0.  0.
        1    1    3    3  502    0 -0.65272634660E+03  0.24178841965E+03 -0.20948980021E+04  0.22075123924E+04  0.50400001928E-02 0. -1.
       -1    1    3    3    0  502  0.65272634660E+03 -0.24178841965E+03  0.40833389951E+03  0.80700055572E+03  0.50400001928E-02 0.  1.
</event>
<event>
 5   0  0.3522870E-06  0.2487877E+04  0.7818609E-02  0.8407317E-01
        1   -1    0    0  501    0  0.00000000000E+00  0.00000000000E+00  0.13525693941E+04  0.13525693941E+04  0.50400001928E-02 0.  1.
       -1   -1    0    0    0  501  0.00000000000E+00  0.00000000000E+00 -0.11440321592E+04  0.11440321592E+04  0.50400001928E-02 0. -1.
    10030    2    1    2    0    0  0.00000000000E+00  0.00000000000E+00  0.20853723489E+03  0.24966015533E+04  0.24878769137E+04 0.  0.
        2    1    3    3  502    0 -0.51809692216E+03  0.88835934907E+03  0.80656293462E+03  0.13069623259E+04  0.25500000920E-02 0.  1.
       -2    1    3    3    0  502  0.51809692216E+03 -0.88835934907E+03 -0.59802569973E+03  0.11896392274E+04  0.25500000920E-02 0. -1.
</event>
<event>
 5   0  0.8354653E-06  0.2505816E+04  0.7818609E-02  0.8400917E-01
       -2   -1    0    0    0  501  0.00000000000E+00  0.00000000000E+00  0.11771849436E+04  0.11771849436E+04  0.25500000920E-02 0.  1.
        2   -1    0    0  501    0  0.00000000000E+00  0.00000000000E+00 -0.13335016456E+04  0.13335016456E+04  0.25500000920E-02 0. -1.
    10030    2    1    2    0    0  0.00000000000E+00  0.00000000000E+00 -0.15631670207E+03  0.25106865892E+04  0.25058156831E+04 0.  0.
        3    1    3    3  502    0 -0.76874747796E+03  0.81358491460E+03  0.48586123738E+03  0.12202271306E+04  0.10100000352E+00 0.  1.
       -3    1    3    3    0  502  0.76874747796E+03 -0.81358491460E+03 -0.64217793945E+03  0.12904594586E+04  0.10100000352E+00 0. -1.
</event>
<event>
 5   0  0.8948286E-06  0.2503172E+04  0.7818609E-02  0.8401856E-01
        2   -1    0    0  501    0  0.00000000000E+00  0.00000000000E+00  0.23385428144E+04  0.23385428144E+04  0.25500000920E-02 0. -1.
       -2   -1    0    0    0  501  0.00000000000E+00  0.00000000000E+00 -0.66984754675E+03  0.66984754676E+03  0.25500000920E-02 0.  1.
    10030    2    1    2    0    0  0.00000000000E+00  0.00000000000E+00  0.16686952677E+04  0.30083903612E+04  0.25031717218E+04 0.  0.
        4    1    3    3  502    0 -0.12130867331E+04  0.17689534460E+02  0.46475133310E+03  0.12991873445E+04  0.12699999809E+01 0.  1.
       -4    1    3    3    0  502  0.12130867331E+04 -0.17689534460E+02  0.12039439346E+04  0.17092030167E+04  0.12699999809E+01 0. -1.
</event>
<event>
 5   0  0.8407986E-06  0.2501526E+04  0.7818609E-02  0.8402442E-01
       -2   -1    0    0    0  501  0.00000000000E+00  0.00000000000E+00  0.92381834846E+03  0.92381834846E+03  0.25500000920E-02 0.  1.
        2   -1    0    0  501    0  0.00000000000E+00  0.00000000000E+00 -0.16934156782E+04  0.16934156782E+04  0.25500000920E-02 0. -1.
    10030    2    1    2    0    0  0.00000000000E+00  0.00000000000E+00 -0.76959732972E+03  0.26172340266E+04  0.25015263141E+04 0.  0.
        5    1    3    3  502    0  0.27140934955E+03 -0.39409878253E+03  0.82425259214E+03  0.95309564633E+03  0.46999998093E+01 0.  1.
       -5    1    3    3    0  502 -0.27140934955E+03  0.39409878253E+03 -0.15938499219E+04  0.16641383803E+04  0.46999998093E+01 0. -1.
</event>
<event>
 5   0  0.3424193E-06  0.2513662E+04  0.7818609E-02  0.8398135E-01
        1   -1    0    0  501    0  0.00000000000E+00  0.00000000000E+00  0.13677635626E+04  0.13677635626E+04  0.50400001928E-02 0.  1.
       -1   -1    0    0    0  501  0.00000000000E+00  0.00000000000E+00 -0.11548954566E+04  0.11548954566E+04  0.50400001928E-02 0. -1.
    10030    2    1    2    0    0  0.00000000000E+00  0.00000000000E+00  0.21286810596E+03  0.25226590192E+04  0.25136618103E+04 0.  0.
        1    1    3    3  502    0 -0.10610525307E+04  0.56166720120E+03 -0.26681301331E+03  0.12298340140E+04  0.50400001928E-02 0. -1.
       -1    1    3    3    0  502  0.10610525307E+04 -0.56166720120E+03  0.47968111927E+03  0.12928250052E+04  0.50400001928E-02 0.  1.
</event>
<event>
 5   0  0.3484857E-06  0.2497829E+04  0.7818609E-02  0.8403759E-01
        1   -1    0    0  501    0  0.00000000000E+00  0.00000000000E+00  0.16379916333E+04  0.16379916333E+04  0.50400001928E-02 0.  1.
       -1   -1    0    0    0  501  0.00000000000E+00  0.00000000000E+00 -0.95225586528E+03  0.95225586529E+03  0.50400001928E-02 0. -1.
    10030    2    1    2    0    0  0.00000000000E+00  0.00000000000E+00  0.68573576805E+03  0.25902474986E+04  0.24978287693E+04 0.  0.
        3    1    3    3  502    0 -0.23712188224E+03  0.89115997581E+03 -0.53055070069E+03  0.10638970560E+04  0.10100000352E+00 0. -1.
       -3    1    3    3    0  502  0.23712188224E+03 -0.89115997581E+03  0.12162864687E+04  0.15263504427E+04  0.10100000352E+00 0.  1.
</event>
<event>
 5   0  0.3481387E-06  0.2499861E+04  0.7818609E-02  0.8403035E-01
        1   -1    0    0  501    0  0.00000000000E+00  0.00000000000E+00  0.14349788444E+04  0.14349788445E+04  0.50400001928E-02 0. -1.
       -1   -1    0    0    0  501  0.00000000000E+00  0.00000000000E+00 -0.10887455669E+04  0.10887455669E+04  0.50400001928E-02 0.  1.
    10030    2    1    2    0    0  0.00000000000E+00  0.00000000000E+00  0.34623327758E+03  0.25237244113E+04  0.24998614805E+04 0.  0.
        4    1    3    3  502    0  0.16496801339E+03 -0.21929688154E+03  0.14041911547E+04  0.14307550383E+04  0.12699999809E+01 0. -1.
       -4    1    3    3    0  502 -0.16496801339E+03  0.21929688154E+03 -0.10579578771E+04  0.10929693730E+04  0.12699999809E+01 0.  1.
</event>
<event>
 5   0  0.3642184E-06  0.2485498E+04  0.7818609E-02  0.8408170E-01
        1   -1    0    0  501    0  0.00000000000E+00  0.00000000000E+00  0.89566049832E+03  0.89566049833E+03  0.50400001928E-02 0. -1.
       -1   -1    0    0    0  501  0.00000000000E+00  0.00000000000E+00 -0.17243423700E+04  0.17243423700E+04  0.50400001928E-02 0.  1.
    10030    2    1    2    0    0  0.00000000000E+00  0.00000000000E+00 -0.82868187169E+03  0.26200028683E+04  0.24854982168E+04 0.  0.
        5    1    3    3  502    0  0.63257698416E+03  0.87176105982E+03  0.23911075292E+03  0.11033209091E+04  0.46999998093E+01 0. -1.
       -5    1    3    3    0  502 -0.63257698416E+03 -0.87176105982E+03 -0.10677926246E+04  0.15166819592E+04  0.46999998093E+01 0.  1.
</event>
<event>
 5   0  0.8354653E-06  0.2497210E+04  0.7818609E-02  0.8403980E-01
        2   -1    0    0  501    0  0.00000000000E+00  0.00000000000E+00  0.21888354910E+04  0.21888354910E+04  0.25500000920E-02 0.  1.
       -2   -1    0    0    0  501  0.00000000000E+00  0.00000000000E+00 -0.71225735156E+03  0.71225735156E+03  0.25500000920E-02 0. -1.
    10030    2    1    2    0    0  0.00000000000E+00  0.00000000000E+00  0.14765781394E+04  0.29010928426E+04  0.24972097788E+04 0.  0.
        3    1    3    3  502    0  0.36818860436E+03 -0.45951818446E+03  0.20174071600E+04  0.21015830866E+04  0.10100000352E+00 0.  1.
       -3    1    3    3    0  502 -0.36818860436E+03  0.45951818446E+03 -0.54082902058E+03  0.79950975600E+03  0.10100000352E+00 0. -1.
</event>
<event>
 5   0  0.3522870E-06  0.2489762E+04  0.7818609E-02  0.8406642E-01
        1   -1    0    0  501    0  0.00000000000E+00  0.00000000000E+00  0.23756572398E+04  0.23756572398E+04  0.50400001928E-02 0. -1.
       -1   -1    0    0    0  501  0.00000000000E+00  0.00000000000E+00 -0.65233697231E+03  0.65233697233E+03  0.50400001928E-02 0.  1.
    10030    2    1    2    0    0  0.00000000000E+00  0.00000000000E+00  0.17233202675E+04  0.30279942121E+04  0.24897622787E+04 0.  0.
        2    1    3    3  502    0  0.62514815862E+03  0.39096979282E+03 -0.35819824163E+03  0.81973994623E+03  0.25500000920E-02 0.  1.
       -2    1    3    3    0  502 -0.62514815862E+03 -0.39096979282E+03  0.20815185091E+04  0.22082542659E+04  0.25500000920E-02 0. -1.
</event>
<event>
 5   0  0.3481387E-06  0.2501894E+04  0.7818609E-02  0.8402311E-01
        1   -1    0    0  501    0  0.00000000000E+00  0.00000000000E+00  0.17232323699E+04  0.17232323699E+04  0.50400001928E-02 0.  1.
       -1   -1    0    0    0  501  0.00000000000E+00  0.00000000000E+00 -0.90810063809E+03  0.90810063811E+03  0.50400001928E-02 0. -1.
    10030    2    1    2    0    0  0.00000000000E+00  0.00000000000E+00  0.81513173184E+03  0.26313330080E+04  0.25018940143E+04 0.  0.
        4    1    3    3  502    0  0.19265610269E+02  0.11884346727E+04 -0.26364998281E+01  0.11885944216E+04  0.12699999809E+01 0. -1.
       -4    1    3    3    0  502 -0.19265610269E+02 -0.11884346727E+04  0.81776823166E+03  0.14427385864E+04  0.12699999809E+01 0.  1.
</event>
<event>
 5   0  0.3484857E-06  0.2499081E+04  0.7818609E-02  0.8403313E-01
       -1   -1    0    0    0  501  0.00000000000E+00  0.00000000000E+00  0.71425687557E+03  0.71425687559E+03  0.50400001928E-02 0.  1.
        1   -1    0    0  501    0  0.00000000000E+00  0.00000000000E+00 -0.21859804256E+04  0.21859804256E+04  0.50400001928E-02 0. -1.
    10030    2    1    2    0    0  0.00000000000E+00  0.00000000000E+00 -0.14717235500E+04  0.29002373012E+04  0.24990810702E+04 0.  0.
        3    1    3    3  502    0  0.29893705889E+03  0.96024083599E+03  0.12474587308E+03  0.10134038540E+04  0.10100000352E+00 0.  1.
       -3    1    3    3    0  502 -0.29893705889E+03 -0.96024083599E+03 -0.15964694231E+04  0.18868334472E+04  0.10100000352E+00 0. -1.
</event>
<event>
 5   0  0.3481387E-06  0.2498999E+04  0.7818609E-02  0.8403342E-01
        1   -1    0    0  501    0  0.00000000000E+00  0.00000000000E+00  0.10740865455E+04  0.10740865455E+04  0.50400001928E-02 0. -1.
       -1   -1    0    0    0  501  0.00000000000E+00  0.00000000000E+00 -0.14535598183E+04  0.14535598183E+04  0.50400001928E-02 0.  1.
    10030    2    1    2    0    0  0.00000000000E+00  0.00000000000E+00 -0.37947327277E+03  0.25276463638E+04  0.24989990347E+04 0.  0.
        4    1    3    3  502    0  0.82035405225E+03 -0.27797017907E+03  0.72114185670E+03  0.11270738139E+04  0.12699999809E+01 0. -1.
       -4    1    3    3    0  502 -0.82035405225E+03  0.27797017907E+03 -0.11006151295E+04  0.14005725499E+04  0.12699999809E+01 0.  1.
</event>
<event>
 5   0  0.8056723E-06  0.2482374E+04  0.7818609E-02  0.8409292E-01
        2   -1    0    0  501    0  0.00000000000E+00  0.00000000000E+00  0.14440859146E+04  0.14440859146E+04  0.25500000920E-02 0.  1.
       -2   -1    0    0    0  501  0.00000000000E+00  0.00000000000E+00 -0.10667963720E+04  0.10667963720E+04  0.25500000920E-02 0. -1.
    10030    2    1    2    0    0  0.00000000000E+00  0.00000000000E+00  0.37728954255E+03  0.25108822866E+04  0.24823743590E+04 0.  0.
        2    1    3    3  502    0  0.10621566540E+04  0.50818068493E+03 -0.20844649510E+03  0.11957735185E+04  0.25500000920E-02 0. -1.
       -2    1    3    3    0  502 -0.10621566540E+04 -0.50818068493E+03  0.58573603765E+03  0.13151087681E+04  0.25500000920E-02 0.  1.
</event>
<event>
 5   0  0.8407986E-06  0.2476797E+04  0.7818609E-02  0.8411298E-01
       -2   -1    0    0    0  501  0.00000000000E+00  0.00000000000E+00  0.82789657489E+03  0.82789657489E+03  0.25500000920E-02 0.  1.
        2   -1    0    0  501    0  0.00000000000E+00  0.00000000000E+00 -0.18524431759E+04  0.18524431759E+04  0.25500000920E-02 0. -1.
    10030    2    1    2    0    0  0.00000000000E+00  0.00000000000E+00 -0.10245466010E+04  0.26803397508E+04  0.24767974164E+04 0.  0.
        5    1    3    3  502    0  0.30548861976E+03  0.48948584220E+03  0.67353567380E+03  0.88690026519E+03  0.46999998093E+01 0.  1.
       -5    1    3    3    0  502 -0.30548861976E+03 -0.48948584220E+03 -0.16980822748E+04  0.17934394856E+04  0.46999998093E+01 0. -1.
</event>
<event>
 5   0  0.8354653E-06  0.2500381E+04  0.7818609E-02  0.8402850E-01
       -2   -1    0    0    0  501  0.00000000000E+00  0.00000000000E+00  0.12765877315E+04  0.12765877315E+04  0.25500000920E-02 0.  1.
        2   -1    0    0  501    0  0.00000000000E+00  0.00000000000E+00 -0.12243387777E+04  0.12243387777E+04  0.25500000920E-02 0. -1.
    10030    2    1    2    0    0  0.00000000000E+00  0.00000000000E+00  0.52248953811E+02  0.25009265093E+04  0.25003806613E+04 0.  0.
        3    1    3    3  502    0  0.28877401456E+03  0.84654659249E+03 -0.84753302742E+03  0.12322109428E+04  0.10100000352E+00 0. -1.
       -3    1    3    3    0  502 -0.28877401456E+03 -0.84654659249E+03  0.89978198123E+03  0.12687155665E+04  0.10100000352E+00 0.  1.
</event>
<event>
 5   0  0.8407986E-06  0.2487128E+04  0.7818609E-02  0.8407586E-01
       -2   -1    0    0    0  501  0.00000000000E+00  0.00000000000E+00  0.64617952671E+03  0.64617952671E+03  0.25500000920E-02 0.  1.
        2   -1    0    0  501    0  0.00000000000E+00  0.00000000000E+00 -0.23932228273E+04  0.23932228273E+04  0.25500000920E-02 0. -1.
    10030    2    1    2    0    0  0.00000000000E+00  0.00000000000E+00 -0.17470433006E+04  0.30394023540E+04  0.24871281381E+04 0.  0.
        5    1    3    3  502    0  0.50073430951E+01 -0.39733349261E+03 -0.23135390859E+04  0.23474207483E+04  0.46999998093E+01 0. -1.
       -5    1    3    3    0  502 -0.50073430951E+01  0.39733349261E+03  0.56649578529E+03  0.69198160567E+03  0.46999998093E+01 0.  1.
</event>
<event>
 5   0  0.3481387E-06  0.2530834E+04  0.7818609E-02  0.8392083E-01
       -1   -1    0    0    0  501  0.00000000000E+00  0.00000000000E+00  0.23654693865E+04  0.23654693865E+04  0.50400001928E-02 0.  1.
        1   -1    0    0  501    0  0.00000000000E+00  0.00000000000E+00 -0.67693948442E+03  0.67693948444E+03  0.50400001928E-02 0. -1.
    10030    2    1    2    0    0  0.00000000000E+00  0.00000000000E+00  0.16885299021E+04  0.30424088709E+04  0.25308335599E+04 0.  0.
        4    1    3    3  502    0  0.43085632739E+03 -0.84865621422E+03  0.18467517573E+04  0.20775822994E+04  0.12699999809E+01 0.  1.
       -4    1    3    3    0  502 -0.43085632739E+03  0.84865621422E+03 -0.15822185523E+03  0.96482657154E+03  0.12699999809E+01 0. -1.
</event>
<event>
 5   0  0.3484857E-06  0.2492180E+04  0.7818609E-02  0.8405777E-01
       -1   -1    0    0    0  501  0.00000000000E+00  0.00000000000E+00  0.13969246528E+04  0.13969246528E+04  0.50400001928E-02 0. -1.
        1   -1    0    0  501    0  0.00000000000E+00  0.00000000000E+00 -0.11115418066E+04  0.11115418066E+04  0.50400001928E-02 0.  1.
    10030    2    1    2    0    0  0.00000000000E+00  0.00000000000E+00  0.28538284625E+03  0.25084664594E+04  0.24921798910E+04 0.  0.
        3    1    3    3  502    0 -0.63408689504E+03  0.10671749799E+04  0.25208244796E+03  0.12666784118E+04  0.10100000352E+00 0.  1.
       -3    1    3    3    0  502  0.63408689504E+03 -0.10671749799E+04  0.33300398282E+02  0.12417880475E+04  0.10100000352E+00 0. -1.
</event>
<event>
 5   0  0.3484857E-06  0.2519128E+04  0.7818609E-02  0.8396203E-01
        1   -1    0    0  501    0  0.00000000000E+00  0.00000000000E+00  0.23651311597E+04  0.23651311597E+04  0.50400001928E-02 0.  1.
       -1   -1    0    0    0  501  0.00000000000E+00  0.00000000000E+00 -0.67078799555E+03  0.67078799557E+03  0.50400001928E-02 0. -1.
    10030    2    1    2    0    0  0.00000000000E+00  0.00000000000E+00  0.16943431641E+04  0.30359191553E+04  0.25191280951E+04 0.  0.
        3    1    3    3  502    0 -0.64064587548E+03 -0.28306870669E+03  0.21088092229E+04  0.22220781668E+04  0.10100000352E+00 0.  1.
       -3    1    3    3    0  502  0.64064587548E+03  0.28306870669E+03 -0.41446605876E+03  0.81384098849E+03  0.10100000352E+00 0. -1.
</event>
<event>
 5   0  0.3642184E-06  0.2504124E+04  0.7818609E-02  0.8401518E-01
       -1   -1    0    0    0  501  0.00000000000E+00  0.00000000000E+00  0.11825839497E+04  0.11825839497E+04  0.50400001928E-02 0. -1.
        1   -1    0    0  501    0  0.00000000000E+00  0.00000000000E+00 -0.13256219910E+04  0.13256219910E+04  0.50400001928E-02 0.  1.
    10030    2    1    2    0    0  0.00000000000E+00  0.00000000000E+00 -0.14303804124E+03  0.25082059407E+04  0.25041240305E+04 0.  0.
        5    1    3    3  502    0  0.71796127359E+03  0.10200910750E+04 -0.17931884137E+03  0.12602505817E+04  0.46999998093E+01 0.  1.
       -5    1    3    3    0  502 -0.71796127359E+03 -0.10200910750E+04  0.36280800126E+02  0.12479553591E+04  0.46999998093E+01 0. -1.
</event>
<event>
 5   0  0.8056723E-06  0.2501851E+04  0.7818609E-02  0.8402327E-01
        2   -1    0    0  501    0  0.00000000000E+00  0.00000000000E+00  0.12367614830E+04  0.12367614830E+04  0.25500000920E-02 0.  1.
       -2   -1    0    0    0  501  0.00000000000E+00  0.00000000000E+00 -0.12652512935E+04  0.12652512935E+04  0.25500000920E-02 0. -1.
    10030    2    1    2    0    0  0.00000000000E+00  0.00000000000E+00 -0.28489810527E+02  0.25020127765E+04  0.25018505680E+04 0.  0.
        2    1    3    3  502    0 -0.13913194139E+02  0.63269872126E+03 -0.10933481439E+04  0.12632938742E+04  0.25500000920E-02 0. -1.
       -2    1    3    3    0  502  0.13913194139E+02 -0.63269872126E+03  0.10648583333E+04  0.12387189023E+04  0.25500000920E-02 0.  1.
</event>
<event>
 5   0  0.8354653E-06  0.2501887E+04  0.7818609E-02  0.8402313E-01
        2   -1    0    0  501    0  0.00000000000E+00  0.00000000000E+00  0.10261937518E+04  0.10261937518E+04  0.25500000920E-02 0.  1.
       -2   -1    0    0    0  501  0.00000000000E+00  0.00000000000E+00 -0.15249168759E+04  0.15249168759E+04  0.25500000920E-02 0. -1.
    10030    2    1    2    0    0  0.00000000000E+00  0.00000000000E+00 -0.49872312411E+03  0.25511106277E+04  0.25018874236E+04 0.  0.
        3    1    3    3  502    0 -0.83819203026E+03  0.62788028211E+03 -0.94697138170E+03  0.14119328370E+04  0.10100000352E+00 0. -1.
       -3    1    3    3    0  502  0.83819203026E+03 -0.62788028211E+03  0.44824825759E+03  0.11391777907E+04  0.10100000352E+00 0.  1.
</event>
<event>
 5   0  0.8354653E-06  0.2541017E+04  0.7818609E-02  0.8388517E-01
        2   -1    0    0  501    0  0.00000000000E+00  0.00000000000E+00  0.15901564409E+04  0.15901564409E+04  0.25500000920E-02 0.  1.
       -2   -1    0    0    0  501  0.00000000000E+00  0.00000000000E+00 -0.10151150324E+04  0.10151150324E+04  0.25500000920E-02 0. -1.
    10030    2    1    2    0    0  0.00000000000E+00  0.00000000000E+00  0.57504140851E+03  0.26052714733E+04  0.25410168886E+04 0.  0.
        3    1    3    3  502    0 -0.52166834263E+03 -0.22531625371E+03 -0.87756191895E+03  0.10454760665E+04  0.10100000352E+00 0. -1.
       -3    1    3    3    0  502  0.52166834263E+03  0.22531625371E+03  0.14526033275E+04  0.15597954068E+04  0.10100000352E+00 0.  1.
</event>
<event>
 5   0  0.3522870E-06  0.2501442E+04  0.7818609E-02  0.8402472E-01
        1   -1    0    0  501    0  0.00000000000E+00  0.00000000000E+00  0.12745352089E+04  0.12745352089E+04  0.50400001928E-02 0. -1.
       -1   -1    0    0    0  501  0.00000000000E+00  0.00000000000E+00 -0.12273514941E+04  0.12273514941E+04  0.50400001928E-02 0.  1.
    10030    2    1    2    0    0  0.00000000000E+00  0.00000000000E+00  0.47183714730E+02  0.25018867030E+04  0.25014417386E+04 0.  0.
        2    1    3    3  502    0  0.30059541740E+03 -0.10364437554E+04 -0.60876219916E+03  0.12390176263E+04  0.25500000920E-02 0.  1.
       -2    1    3    3    0  502 -0.30059541740E+03  0.10364437554E+04  0.65594591389E+03  0.12628690767E+04  0.25500000920E-02 0. -1.
</event>
<event>
 5   0  0.8948286E-06  0.2501680E+04  0.7818609E-02  0.8402387E-01
        2   -1    0    0  501    0  0.00000000000E+00  0.00000000000E+00  0.18391812253E+04  0.18391812253E+04  0.25500000920E-02 0. -1.
       -2   -1    0    0    0  501  0.00000000000E+00  0.00000000000E+00 -0.85070531648E+03  0.85070531648E+03  0.25500000920E-02 0.  1.
    10030    2    1    2    0    0  0.00000000000E+00  0.00000000000E+00  0.98847590886E+03  0.26898865418E+04  0.25016804323E+04 0.  0.
        4    1    3    3  502    0 -0.44235636294E+03  0.53846344238E+03  0.16111226639E+04  0.17553745702E+04  0.12699999809E+01 0. -1.
       -4    1    3    3    0  502  0.44235636294E+03 -0.53846344238E+03 -0.62264675506E+03  0.93451197162E+03  0.12699999809E+01 0.  1.
</event>
<event>
 5   0  0.8354653E-06  0.2503255E+04  0.7818609E-02  0.8401827E-01
        2   -1    0    0  501    0  0.00000000000E+00  0.00000000000E+00  0.11197175164E+04  0.11197175164E+04  0.25500000920E-02 0.  1.
       -2   -1    0    0    0  501  0.00000000000E+00  0.00000000000E+00 -0.13990778545E+04  0.13990778545E+04  0.25500000920E-02 0. -1.
    10030    2    1    2    0    0  0.00000000000E+00  0.00000000000E+00 -0.27936033810E+03  0.25187953709E+04  0.25032554647E+04 0.  0.
        3    1    3    3  502    0  0.50581666033E+03 -0.93411756480E+03 -0.80571519005E+03  0.13332678262E+04  0.10100000352E+00 0. -1.
       -3    1    3    3    0  502 -0.50581666033E+03  0.93411756480E+03  0.52635485195E+03  0.11855275446E+04  0.10100000352E+00 0.  1.
</event>
<event>
 5   0  0.8354653E-06  0.2505912E+04  0.7818609E-02  0.8400882E-01
       -2   -1    0    0    0  501  0.00000000000E+00  0.00000000000E+00  0.95619371945E+03  0.95619371946E+03  0.25500000920E-02 0. -1.
        2   -1    0    0  501    0  0.00000000000E+00  0.00000000000E+00 -0.16418206267E+04  0.16418206267E+04  0.25500000920E-02 0.  1.
    10030    2    1    2    0    0  0.00000000000E+00  0.00000000000E+00 -0.68562690723E+03  0.25980143461E+04  0.25059118673E+04 0.  0.
        3    1    3    3  502    0  0.45880484472E+03  0.11639047668E+04 -0.41405867645E+03  0.13178090869E+04  0.10100000352E+00 0.  1.
       -3    1    3    3    0  502 -0.45880484472E+03 -0.11639047668E+04 -0.27156823078E+03  0.12802052593E+04  0.10100000352E+00 0. -1.
</event>
<event>
 5   0  0.8354653E-06  0.2502763E+04  0.7818609E-02  0.8402002E-01
        2   -1    0    0  501    0  0.00000000000E+00  0.00000000000E+00  0.19334027076E+04  0.19334027076E+04  0.25500000920E-02 0.  1.
       -2   -1    0    0    0  501  0.00000000000E+00  0.00000000000E+00 -0.80994776606E+03  0.80994776606E+03  0.25500000920E-02 0. -1.
    10030    2    1    2    0    0  0.00000000000E+00  0.00000000000E+00  0.11234549415E+04  0.27433504737E+04  0.25027626367E+04 0.  0.
        3    1    3    3  502    0 -0.59663913694E+03  0.28927303723E+03 -0.60156333616E+03  0.89528521010E+03  0.10100000352E+00 0. -1.
       -3    1    3    3    0  502  0.59663913694E+03 -0.28927303723E+03  0.17250182777E+04  0.18480652636E+04  0.10100000352E+00 0.  1.
</event>
<event>
 5   0  0.8407986E-06  0.2494277E+04  0.7818609E-02  0.8405027E-01
        2   -1    0    0  501    0  0.00000000000E+00  0.00000000000E+00  0.18801563762E+04  0.18801563763E+04  0.25500000920E-02 0. -1.
       -2   -1    0    0    0  501  0.00000000000E+00  0.00000000000E+00 -0.82724725754E+03  0.82724725754E+03  0.25500000920E-02 0.  1.
    10030    2    1    2    0    0  0.00000000000E+00  0.00000000000E+00  0.10529091187E+04  0.27074036338E+04  0.24942768138E+04 0.  0.
        5    1    3    3  502    0  0.10034250435E+03  0.82213279491E+03  0.15385197223E+04  0.17472939010E+04  0.46999998093E+01 0. -1.
       -5    1    3    3    0  502 -0.10034250435E+03 -0.82213279491E+03 -0.48561060359E+03  0.96010973277E+03  0.46999998093E+01 0.  1.
</event>
<event>
 5   0  0.3484857E-06  0.2502854E+04  0.7818609E-02  0.8401969E-01
        1   -1    0    0  501    0  0.00000000000E+00  0.00000000000E+00  0.17262516213E+04  0.17262516213E+04  0.50400001928E-02 0.  1.
       -1   -1    0    0    0  501  0.00000000000E+00  0.00000000000E+00 -0.90720832583E+03  0.90720832585E+03  0.50400001928E-02 0. -1.
    10030    2    1    2    0    0  0.00000000000E+00  0.00000000000E+00  0.81904329542E+03  0.26334599471E+04  0.25028542453E+04 0.  0.
        3    1    3    3  502    0 -0.11162317272E+04 -0.50717343878E+03  0.14569500744E+03  0.12346761564E+04  0.10100000352E+00 0. -1.
       -3    1    3    3    0  502  0.11162317272E+04  0.50717343878E+03  0.67334828798E+03  0.13987837907E+04  0.10100000352E+00 0.  1.
</event>
<event>
 5   0  0.3522870E-06  0.2504390E+04  0.7818609E-02  0.8401423E-01
        1   -1    0    0  501    0  0.00000000000E+00  0.00000000000E+00  0.10275371938E+04  0.10275371938E+04  0.50400001928E-02 0. -1.
       -1   -1    0    0    0  501  0.00000000000E+00  0.00000000000E+00 -0.15259715039E+04  0.15259715040E+04  0.50400001928E-02 0.  1.
    10030    2    1    2    0    0  0.00000000000E+00  0.00000000000E+00 -0.49843431013E+03  0.25535086978E+04  0.25043901270E+04 0.  0.
        2    1    3    3  502    0  0.45192846997E+02  0.12417492832E+04 -0.40720388042E+03  0.13075927026E+04  0.25500000920E-02 0. -1.
       -2    1    3    3    0  502 -0.45192846997E+02 -0.12417492832E+04 -0.91230429716E+02  0.12459159952E+04  0.25500000920E-02 0.  1.
</event>
<event>
 5   0  0.3481387E-06  0.2488371E+04  0.7818609E-02  0.8407140E-01
        1   -1    0    0  501    0  0.00000000000E+00  0.00000000000E+00  0.17257217503E+04  0.17257217503E+04  0.50400001928E-02 0.  1.
       -1   -1    0    0    0  501  0.00000000000E+00  0.00000000000E+00 -0.89701492364E+03  0.89701492365E+03  0.50400001928E-02 0. -1.
    10030    2    1    2    0    0  0.00000000000E+00  0.00000000000E+00  0.82870682667E+03  0.26227366740E+04  0.24883714868E+04 0.  0.
        4    1    3    3  502    0 -0.38887989140E+03 -0.42532863323E+03  0.15765566169E+04  0.16785900022E+04  0.12699999809E+01 0.  1.
       -4    1    3    3    0  502  0.38887989140E+03  0.42532863323E+03 -0.74784979025E+03  0.94414667179E+03  0.12699999809E+01 0. -1.
</event>
<event>
 5   0  0.8354653E-06  0.2494610E+04  0.7818609E-02  0.8404908E-01
       -2   -1    0    0    0  501  0.00000000000E+00  0.00000000000E+00  0.81425600354E+03  0.81425600354E+03  0.25500000920E-02 0. -1.
        2   -1    0    0  501    0  0.00000000000E+00  0.00000000000E+00 -0.19106634507E+04  0.19106634507E+04  0.25500000920E-02 0.  1.
    10030    2    1    2    0    0  0.00000000000E+00  0.00000000000E+00 -0.10964074471E+04  0.27249194542E+04  0.24946095370E+04 0.  0.
        3    1    3    3  502    0 -0.11141058442E+02 -0.91514770558E+03 -0.14738788449E+04  0.17349173772E+04  0.10100000352E+00 0.  1.
       -3    1    3    3    0  502  0.11141058442E+02  0.91514770558E+03  0.37747139771E+03  0.99000207702E+03  0.10100000352E+00 0. -1.
</event>
<event>
 5   0  0.8354653E-06  0.2498776E+04  0.7818609E-02  0.8403422E-01
       -2   -1    0    0    0  501  0.00000000000E+00  0.00000000000E+00  0.10337914092E+04  0.10337914092E+04  0.25500000920E-02 0.  1.
        2   -1    0    0  501    0  0.00000000000E+00  0.00000000000E+00 -0.15099467098E+04  0.15099467098E+04  0.25500000920E-02 0. -1.
    10030    2    1    2    0    0  0.00000000000E+00  0.00000000000E+00 -0.47615530059E+03  0.25437381191E+04  0.24987756498E+04 0.  0.
        3    1    3    3  502    0 -0.51586714993E+03  0.57263776555E+03 -0.12391010335E+04  0.14592478570E+04  0.10100000352E+00 0. -1.
       -3    1    3    3    0  502  0.51586714993E+03 -0.57263776555E+03  0.76294573288E+03  0.10844902620E+04  0.10100000352E+00 0.  1.
</event>
<event>
 5   0  0.8579923E-06  0.2484982E+04  0.7818609E-02  0.8408355E-01
        2   -1    0    0  501    0  0.00000000000E+00  0.00000000000E+00  0.12366621443E+04  0.12366621443E+04  0.25500000920E-02 0.  1.
       -2   -1    0    0    0  501  0.00000000000E+00  0.00000000000E+00 -0.12483473539E+04  0.12483473540E+04  0.25500000920E-02 0. -1.
    10030    2    1    2    0    0  0.00000000000E+00  0.00000000000E+00 -0.11685209635E+02  0.24850094983E+04  0.24849820246E+04 0.  0.
        1    1    3    3  502    0  0.99520466125E+03 -0.60924079742E+03  0.42098438218E+03  0.12404976893E+04  0.50400001928E-02 0.  1.
       -1    1    3    3    0  502 -0.99520466125E+03  0.60924079742E+03 -0.43266959182E+03  0.12445118090E+04  0.50400001928E-02 0. -1.
</event>
<event>
 5   0  0.3424193E-06  0.2496528E+04  0.7818609E-02  0.8404223E-01
        1   -1    0    0  501    0  0.00000000000E+00  0.00000000000E+00  0.24284729802E+04  0.24284729802E+04  0.50400001928E-02 0.  1.
       -1   -1    0    0    0  501  0.00000000000E+00  0.00000000000E+00 -0.64162276654E+03  0.64162276656E+03  0.50400001928E-02 0. -1.
    10030    2    1    2    0    0  0.00000000000E+00  0.00000000000E+00  0.17868502136E+04  0.30700957467E+04  0.24965284313E+04 0.  0.
        1    1    3    3  502    0 -0.51838509488E+03  0.11317059608E+04  0.77884033956E+03  0.14683575051E+04  0.50400001928E-02 0.  1.
       -1    1    3    3    0  502  0.51838509488E+03 -0.11317059608E+04  0.10080098741E+04  0.16017382416E+04  0.50400001928E-02 0. -1.
</event>
<event>
 5   0  0.8056723E-06  0.2507418E+04  0.7818609E-02  0.8400348E-01
        2   -1    0    0  501    0  0.00000000000E+00  0.00000000000E+00  0.25573842721E+04  0.25573842721E+04  0.25500000920E-02 0. -1.
       -2   -1    0    0    0  501  0.00000000000E+00  0.00000000000E+00 -0.61460682653E+03  0.61460682654E+03  0.25500000920E-02 0.  1.
    10030    2    1    2    0    0  0.00000000000E+00  0.00000000000E+00  0.19427774456E+04  0.31719910986E+04  0.25074176610E+04 0.  0.
        2    1    3    3  502    0  0.66364568879E+03 -0.92847128348E+03  0.16278732735E+04  0.19880784489E+04  0.25500000920E-02 0.  1.
       -2    1    3    3    0  502 -0.66364568879E+03  0.92847128348E+03  0.31490417204E+03  0.11839126497E+04  0.25500000920E-02 0. -1.
</event>
<event>
 5   0  0.8354653E-06  0.2542360E+04  0.7818609E-02  0.8388048E-01
       -2   -1    0    0    0  501  0.00000000000E+00  0.00000000000E+00  0.16204657993E+04  0.16204657993E+04  0.25500000920E-02 0. -1.
        2   -1    0    0  501    0  0.00000000000E+00  0.00000000000E+00 -0.99718133729E+03  0.99718133729E+03  0.25500000920E-02 0.  1.
    10030    2    1    2    0    0  0.00000000000E+00  0.00000000000E+00  0.62328446197E+03  0.26176471366E+04  0.25423597328E+04 0.  0.
        3    1    3    3  502    0 -0.12198552600E+04  0.14542232369E+03  0.64797091796E+03  0.13889063425E+04  0.10100000352E+00 0. -1.
       -3    1    3    3    0  502  0.12198552600E+04 -0.14542232369E+03 -0.24686455990E+02  0.12287407940E+04  0.10100000352E+00 0.  1.
</event>
<event>
 5   0  0.3424193E-06  0.2500496E+04  0.7818609E-02  0.8402809E-01
        1   -1    0    0  501    0  0.00000000000E+00  0.00000000000E+00  0.14316870000E+04  0.14316870000E+04  0.50400001928E-02 0. -1.
       -1   -1    0    0    0  501  0.00000000000E+00  0.00000000000E+00 -0.10918031663E+04  0.10918031663E+04  0.50400001928E-02 0.  1.
    10030    2    1    2    0    0  0.00000000000E+00  0.00000000000E+00  0.33988383372E+03  0.25234901663E+04  0.25004962706E+04 0.  0.
        1    1    3    3  502    0  0.58074545064E+03  0.54389612812E+03  0.11431918447E+04  0.13928301657E+04  0.50400001928E-02 0. -1.
       -1    1    3    3    0  502 -0.58074545064E+03 -0.54389612812E+03 -0.80330801096E+03  0.11306600007E+04  0.50400001928E-02 0.  1.
</event>
<event>
 5   0  0.8948286E-06  0.2512422E+04  0.7818609E-02  0.8398574E-01
        2   -1    0    0  501    0  0.00000000000E+00  0.00000000000E+00  0.22342626483E+04  0.22342626483E+04  0.25500000920E-02 0. -1.
       -2   -1    0    0    0  501  0.00000000000E+00  0.00000000000E+00 -0.70630270840E+03  0.70630270841E+03  0.25500000920E-02 0.  1.
    10030    2    1    2    0    0  0.00000000000E+00  0.00000000000E+00  0.15279599399E+04  0.29405653567E+04  0.25124217478E+04 0.  0.
        4    1    3    3  502    0 -0.92962482091E+02 -0.10381197548E+04 -0.56752137257E+02  0.10438185026E+04  0.12699999809E+01 0.  1.
       -4    1    3    3    0  502  0.92962482091E+02  0.10381197548E+04  0.15847120771E+04  0.18967468541E+04  0.12699999809E+01 0. -1.
</event>
<event>
 5   0  0.2901250E-06  0.2501250E+04  0.7818609E-02  0.8402540E-01
        3   -1    0    0  501    0  0.00000000000E+00  0.00000000000E+00  0.11725912264E+04  0.11725912308E+04  0.10100000352E+00 0.  1.
       -3   -1    0    0    0  501  0.00000000000E+00  0.00000000000E+00 -0.13338516607E+04  0.13338516645E+04  0.10100000352E+00 0. -1.
    10030    2    1    2    0    0  0.00000000000E+00  0.00000000000E+00 -0.16126043428E+03  0.25064428953E+04  0.25012498995E+04 0.  0.
        2    1    3    3  502    0  0.55753524246E+03 -0.10094132739E+04 -0.56568275860E+03  0.12844289344E+04  0.25500000920E-02 0.  1.
       -2    1    3    3    0  502 -0.55753524246E+03  0.10094132739E+04  0.40442232433E+03  0.12220139609E+04  0.25500000920E-02 0. -1.
</event>
<event>
 5   0  0.8407986E-06  0.2494308E+04  0.7818609E-02  0.8405016E-01
       -2   -1    0    0    0  501  0.00000000000E+00  0.00000000000E+00  0.97954403791E+03  0.97954403791E+03  0.25500000920E-02 0.  1.
        2   -1    0    0  501    0  0.00000000000E+00  0.00000000000E+00 -0.15878742154E+04  0.15878742154E+04  0.25500000920E-02 0. -1.
    10030    2    1    2    0    0  0.00000000000E+00  0.00000000000E+00 -0.60833017752E+03  0.25674182533E+04  0.24943076961E+04 0.  0.
        5    1    3    3  502    0 -0.11607559156E+04  0.29123860623E+03  0.57116327692E+02  0.11981062500E+04  0.46999998093E+01 0. -1.
       -5    1    3    3    0  502  0.11607559156E+04 -0.29123860623E+03 -0.66544650521E+03  0.13693120034E+04  0.46999998093E+01 0.  1.
</event>
<event>
 5   0  0.8056723E-06  0.2518262E+04  0.7818609E-02  0.8396508E-01
       -2   -1    0    0    0  501  0.00000000000E+00  0.00000000000E+00  0.10610540660E+04  0.10610540660E+04  0.25500000920E-02 0.  1.
        2   -1    0    0  501    0  0.00000000000E+00  0.00000000000E+00 -0.14941845477E+04  0.14941845477E+04  0.25500000920E-02 0. -1.
    10030    2    1    2    0    0  0.00000000000E+00  0.00000000000E+00 -0.43313048167E+03  0.25552386138E+04  0.25182617733E+04 0.  0.
        2    1    3    3  502    0  0.32842882761E+03  0.54496529910E+03 -0.13190541718E+04  0.14644987471E+04  0.25500000920E-02 0. -1.
       -2    1    3    3    0  502 -0.32842882761E+03 -0.54496529910E+03  0.88592369013E+03  0.10907398667E+04  0.25500000920E-02 0.  1.
</event>
<event>
 5   0  0.8354653E-06  0.2501856E+04  0.7818609E-02  0.8402325E-01
       -2   -1    0    0    0  501  0.00000000000E+00  0.00000000000E+00  0.92999271377E+03  0.92999271377E+03  0.25500000920E-02 0.  1.
        2   -1    0    0  501    0  0.00000000000E+00  0.00000000000E+00 -0.16826164672E+04  0.16826164672E+04  0.25500000920E-02 0. -1.
    10030    2    1    2    0    0  0.00000000000E+00  0.00000000000E+00 -0.75262375347E+03  0.26126091810E+04  0.25018561546E+04 0.  0.
        3    1    3    3  502    0 -0.42594527687E+03 -0.55596669372E+02 -0.16031830515E+04  0.16597337966E+04  0.10100000352E+00 0. -1.
       -3    1    3    3    0  502  0.42594527687E+03  0.55596669372E+02  0.85055929807E+03  0.95287538444E+03  0.10100000352E+00 0.  1.
</event>
<event>
 5   0  0.8354653E-06  0.2500927E+04  0.7818609E-02  0.8402655E-01
        2   -1    0    0  501    0  0.00000000000E+00  0.00000000000E+00  0.26339233025E+04  0.26339233025E+04  0.25500000920E-02 0. -1.
       -2   -1    0    0    0  501  0.00000000000E+00  0.00000000000E+00 -0.59366171414E+03  0.59366171415E+03  0.25500000920E-02 0.  1.
    10030    2    1    2    0    0  0.00000000000E+00  0.00000000000E+00  0.20402615884E+04  0.32275850167E+04  0.25009273662E+04 0.  0.
        3    1    3    3  502    0 -0.59621124739E+03 -0.98410765760E+03  0.38825447567E+03  0.12143629117E+04  0.10100000352E+00 0.  1.
       -3    1    3    3    0  502  0.59621124739E+03  0.98410765760E+03  0.16520071127E+04  0.20132221050E+04  0.10100000352E+00 0. -1.
</event>
<event>
 5   0  0.8056723E-06  0.2499732E+04  0.7818609E-02  0.8403081E-01
        2   -1    0    0  501    0  0.00000000000E+00  0.00000000000E+00  0.16362279496E+04  0.16362279496E+04  0.25500000920E-02 0. -1.
       -2   -1    0    0    0  501  0.00000000000E+00  0.00000000000E+00 -0.95473541645E+03  0.95473541645E+03  0.25500000920E-02 0.  1.
    10030    2    1    2    0    0  0.00000000000E+00  0.00000000000E+00  0.68149253319E+03  0.25909633661E+04  0.24997318039E+04 0.  0.
        2    1    3    3  502    0 -0.84481706122E+03 -0.46038500655E+03 -0.48617698181E+03  0.10779787933E+04  0.25500000920E-02 0.  1.
       -2    1    3    3    0  502  0.84481706122E+03  0.46038500655E+03  0.11676695150E+04  0.15129845728E+04  0.25500000920E-02 0. -1.
</event>
<event>
 5   0  0.8354653E-06  0.2505423E+04  0.7818609E-02  0.8401056E-01
       -2   -1    0    0    0  501  0.00000000000E+00  0.00000000000E+00  0.85725179581E+03  0.85725179581E+03  0.25500000920E-02 0.  1.
        2   -1    0    0  501    0  0.00000000000E+00  0.00000000000E+00 -0.18306010752E+04  0.18306010752E+04  0.25500000920E-02 0. -1.
    10030    2    1    2    0    0  0.00000000000E+00  0.00000000000E+00 -0.97334927937E+03  0.26878528710E+04  0.25054229656E+04 0.  0.
        3    1    3    3  502    0 -0.10877612880E+04  0.22509909391E+03 -0.11079736706E+04  0.15689167876E+04  0.10100000352E+00 0. -1.
       -3    1    3    3    0  502  0.10877612880E+04 -0.22509909391E+03  0.13462439118E+03  0.11189360833E+04  0.10100000352E+00 0.  1.
</event>
<event>
 5   0  0.3642184E-06  0.2523589E+04  0.7818609E-02  0.8394630E-01
        1   -1    0    0  501    0  0.00000000000E+00  0.00000000000E+00  0.22779763297E+04  0.22779763297E+04  0.50400001928E-02 0.  1.
       -1   -1    0    0    0  501  0.00000000000E+00  0.00000000000E+00 -0.69892093851E+03  0.69892093853E+03  0.50400001928E-02 0. -1.
    10030    2    1    2    0    0  0.00000000000E+00  0.00000000000E+00  0.15790553912E+04  0.29768972682E+04  0.25235889953E+04 0.  0.
        5    1    3    3  502    0  0.83177425198E+03 -0.26745603912E+03  0.18633926998E+04  0.20580659811E+04  0.46999998093E+01 0.  1.
       -5    1    3    3    0  502 -0.83177425198E+03  0.26745603912E+03 -0.28433730858E+03  0.91883128711E+03  0.46999998093E+01 0. -1.
</event>
<event>
 5   0  0.8579923E-06  0.2504503E+04  0.7818609E-02  0.8401383E-01
       -2   -1    0    0    0  501  0.00000000000E+00  0.00000000000E+00  0.15421003845E+04  0.15421003845E+04  0.25500000920E-02 0.  1.
        2   -1    0    0  501    0  0.00000000000E+00  0.00000000000E+00 -0.10168819791E+04  0.10168819791E+04  0.25500000920E-02 0. -1.
    10030    2    1    2    0    0  0.00000000000E+00  0.00000000000E+00  0.52521840544E+03  0.25589823636E+04  0.25045032169E+04 0.  0.
        1    1    3    3  502    0  0.94082960424E+01 -0.22677826701E+03  0.15209077243E+04  0.15377506964E+04  0.50400001928E-02 0.  1.
       -1    1    3    3    0  502 -0.94082960424E+01  0.22677826701E+03 -0.99568931884E+03  0.10212316672E+04  0.50400001928E-02 0. -1.
</event>
<event>
 5   0  0.3484857E-06  0.2491405E+04  0.7818609E-02  0.8406054E-01
        1   -1    0    0  501    0  0.00000000000E+00  0.00000000000E+00  0.10728090151E+04  0.10728090151E+04  0.50400001928E-02 0.  1.
       -1   -1    0    0    0  501  0.00000000000E+00  0.00000000000E+00 -0.14464593699E+04  0.14464593699E+04  0.50400001928E-02 0. -1.
    10030    2    1    2    0    0  0.00000000000E+00  0.00000000000E+00 -0.37365035479E+03  0.25192683850E+04  0.24914049466E+04 0.  0.
        3    1    3    3  502    0 -0.75854927534E+03  0.29342051727E+03  0.76727487577E+03  0.11181249252E+04  0.10100000352E+00 0.  1.
       -3    1    3    3    0  502  0.75854927534E+03 -0.29342051727E+03 -0.11409252306E+04  0.14011434598E+04  0.10100000352E+00 0. -1.
</event>
<event>
 5   0  0.8948286E-06  0.2502098E+04  0.7818609E-02  0.8402239E-01
       -2   -1    0    0    0  501  0.00000000000E+00  0.00000000000E+00  0.11530567854E+04  0.11530567854E+04  0.25500000920E-02 0.  1.
        2   -1    0    0  501    0  0.00000000000E+00  0.00000000000E+00 -0.13573690208E+04  0.13573690208E+04  0.25500000920E-02 0. -1.
    10030    2    1    2    0    0  0.00000000000E+00  0.00000000000E+00 -0.20431223543E+03  0.25104258062E+04  0.25020979674E+04 0.  0.
        4    1    3    3  502    0  0.90372719050E+02 -0.10753141119E+04  0.53292320551E+03  0.12035266609E+04  0.12699999809E+01 0.  1.
       -4    1    3    3    0  502 -0.90372719050E+02  0.10753141119E+04 -0.73723544093E+03  0.13068991453E+04  0.12699999809E+01 0. -1.
</event>
<event>
 5   0  0.8948286E-06  0.2541882E+04  0.7818609E-02  0.8388215E-01
       -2   -1    0    0    0  501  0.00000000000E+00  0.00000000000E+00  0.12075779457E+04  0.12075779458E+04  0.25500000920E-02 0.  1.
        2   -1    0    0  501    0  0.00000000000E+00  0.00000000000E+00 -0.13376283110E+04  0.13376283110E+04  0.25500000920E-02 0. -1.
    10030    2    1    2    0    0  0.00000000000E+00  0.00000000000E+00 -0.13005036529E+03  0.25452062568E+04  0.25418815456E+04 0.  0.
        4    1    3    3  502    0 -0.49459803875E+03  0.69668079787E+03  0.87710797415E+03  0.12244637052E+04  0.12699999809E+01 0.  1.
       -4    1    3    3    0  502  0.49459803875E+03 -0.69668079787E+03 -0.10071583394E+04  0.13207425516E+04  0.12699999809E+01 0. -1.
</event>
<event>
 5   0  0.2901250E-06  0.2501797E+04  0.7818609E-02  0.8402346E-01
       -3   -1    0    0    0  501  0.00000000000E+00  0.00000000000E+00  0.17224764324E+04  0.17224764353E+04  0.10100000352E+00 0.  1.
        3   -1    0    0  501    0  0.00000000000E+00  0.00000000000E+00 -0.90842857643E+03  0.90842858204E+03  0.10100000352E+00 0. -1.
    10030    2    1    2    0    0  0.00000000000E+00  0.00000000000E+00  0.81404785595E+03  0.26309050174E+04  0.25017968140E+04 0.  0.
        5    1    3    3  502    0 -0.17271572207E+03  0.10459309361E+04  0.11053114157E+04  0.15315148251E+04  0.46999998093E+01 0.  1.
       -5    1    3    3    0  502  0.17271572207E+03 -0.10459309361E+04 -0.29126355980E+03  0.10993901923E+04  0.46999998093E+01 0. -1.
</event>
<event>
 5   0  0.8948286E-06  0.2497146E+04  0.7818609E-02  0.8404003E-01
       -2   -1    0    0    0  501  0.00000000000E+00  0.00000000000E+00  0.96877549436E+03  0.96877549436E+03  0.25500000920E-02 0.  1.
        2   -1    0    0  501    0  0.00000000000E+00  0.00000000000E+00 -0.16091808966E+04  0.16091808966E+04  0.25500000920E-02 0. -1.
    10030    2    1    2    0    0  0.00000000000E+00  0.00000000000E+00 -0.64040540220E+03  0.25779563909E+04  0.24971463862E+04 0.  0.
        4    1    3    3  502    0 -0.85059788841E+03 -0.11445465698E+03 -0.12563649798E+04  0.15215358069E+04  0.12699999809E+01 0. -1.
       -4    1    3    3    0  502  0.85059788841E+03  0.11445465698E+03  0.61595957758E+03  0.10564205840E+04  0.12699999809E+01 0.  1.
</event>
<event>
 5   0  0.8579923E-06  0.2500812E+04  0.7818609E-02  0.8402696E-01
        2   -1    0    0  501    0  0.00000000000E+00  0.00000000000E+00  0.18856962546E+04  0.18856962546E+04  0.25500000920E-02 0. -1.
       -2   -1    0    0    0  501  0.00000000000E+00  0.00000000000E+00 -0.82914483989E+03  0.82914483989E+03  0.25500000920E-02 0.  1.
    10030    2    1    2    0    0  0.00000000000E+00  0.00000000000E+00  0.10565514147E+04  0.27148410945E+04  0.25008121234E+04 0.  0.
        1    1    3    3  502    0 -0.56083298956E+03 -0.10306119649E+04  0.99749492750E+03  0.15400294785E+04  0.50400001928E-02 0. -1.
       -1    1    3    3    0  502  0.56083298956E+03  0.10306119649E+04  0.59056487183E+02  0.11748116160E+04  0.50400001928E-02 0.  1.
</event>
<event>
 5   0  0.3481387E-06  0.2503040E+04  0.7818609E-02  0.8401903E-01
       -1   -1    0    0    0  501  0.00000000000E+00  0.00000000000E+00  0.81511128176E+03  0.81511128178E+03  0.50400001928E-02 0. -1.
        1   -1    0    0  501    0  0.00000000000E+00  0.00000000000E+00 -0.19215815509E+04  0.19215815509E+04  0.50400001928E-02 0.  1.
    10030    2    1    2    0    0  0.00000000000E+00  0.00000000000E+00 -0.11064702691E+04  0.27366928327E+04  0.25030403920E+04 0.  0.
        4    1    3    3  502    0  0.12466380821E+04 -0.98899904709E+02 -0.49952195433E+03  0.13466296799E+04  0.12699999809E+01 0.  1.
       -4    1    3    3    0  502 -0.12466380821E+04  0.98899904709E+02 -0.60694831480E+03  0.13900631528E+04  0.12699999809E+01 0. -1.
</event>
<event>
 5   0  0.3642184E-06  0.2503647E+04  0.7818609E-02  0.8401687E-01
       -1   -1    0    0    0  501  0.00000000000E+00  0.00000000000E+00  0.14356804478E+04  0.14356804478E+04  0.50400001928E-02 0. -1.
        1   -1    0    0  501    0  0.00000000000E+00  0.00000000000E+00 -0.10915116478E+04  0.10915116478E+04  0.50400001928E-02 0.  1.
    10030    2    1    2    0    0  0.00000000000E+00  0.00000000000E+00  0.34416880002E+03  0.25271920956E+04  0.25036468851E+04 0.  0.
        5    1    3    3  502    0  0.69318237221E+03  0.36021961325E+03 -0.81526574324E+03  0.11291325400E+04  0.46999998093E+01 0.  1.
       -5    1    3    3    0  502 -0.69318237221E+03 -0.36021961325E+03  0.11594345433E+04  0.13980595556E+04  0.46999998093E+01 0. -1.
</event>
<event>
 5   0  0.8948286E-06  0.2507044E+04  0.7818609E-02  0.8400480E-01
       -2   -1    0    0    0  501  0.00000000000E+00  0.00000000000E+00  0.15398667043E+04  0.15398667043E+04  0.25500000920E-02 0.  1.
        2   -1    0    0  501    0  0.00000000000E+00  0.00000000000E+00 -0.10204244997E+04  0.10204244997E+04  0.25500000920E-02 0. -1.
    10030    2    1    2    0    0  0.00000000000E+00  0.00000000000E+00  0.51944220460E+03  0.25602912039E+04  0.25070442447E+04 0.  0.
        4    1    3    3  502    0 -0.98016488002E+03  0.35911042273E+02  0.10568785940E+04  0.14418761287E+04  0.12699999809E+01 0. -1.
       -4    1    3    3    0  502  0.98016488002E+03 -0.35911042273E+02 -0.53743638943E+03  0.11184150753E+04  0.12699999809E+01 0.  1.
</event>
<event>
 5   0  0.8579923E-06  0.2498975E+04  0.7818609E-02  0.8403351E-01
       -2   -1    0    0    0  501  0.00000000000E+00  0.00000000000E+00  0.11299542976E+04  0.11299542976E+04  0.25500000920E-02 0.  1.
        2   -1    0    0  501    0  0.00000000000E+00  0.00000000000E+00 -0.13816654917E+04  0.13816654918E+04  0.25500000920E-02 0. -1.
    10030    2    1    2    0    0  0.00000000000E+00  0.00000000000E+00 -0.25171119413E+03  0.25116197894E+04  0.24989748780E+04 0.  0.
        1    1    3    3  502    0  0.95830827981E+03 -0.41769787097E+03  0.56199958560E+03  0.11868739633E+04  0.50400001928E-02 0.  1.
       -1    1    3    3    0  502 -0.95830827981E+03  0.41769787097E+03 -0.81371077973E+03  0.13247458261E+04  0.50400001928E-02 0. -1.
</event>
<event>
 5   0  0.8056723E-06  0.2500821E+04  0.7818609E-02  0.8402693E-01
        2   -1    0    0  501    0  0.00000000000E+00  0.00000000000E+00  0.94895789183E+03  0.94895789183E+03  0.25500000920E-02 0. -1.
       -2   -1    0    0    0  501  0.00000000000E+00  0.00000000000E+00 -0.16476251141E+04  0.16476251142E+04  0.25500000920E-02 0.  1.
    10030    2    1    2    0    0  0.00000000000E+00  0.00000000000E+00 -0.69866722232E+03  0.25965830060E+04  0.25008213490E+04 0.  0.
        2    1    3    3  502    0 -0.25819847684E+03 -0.63237059867E+03 -0.14368016144E+04  0.15908984589E+04  0.25500000920E-02 0. -1.
       -2    1    3    3    0  502  0.25819847684E+03  0.63237059867E+03  0.73813439204E+03  0.10056845471E+04  0.25500000920E-02 0.  1.
</event>
<event>
 5   0  0.8407986E-06  0.2493102E+04  0.7818609E-02  0.8405447E-01
        2   -1    0    0  501    0  0.00000000000E+00  0.00000000000E+00  0.12781997000E+04  0.12781997000E+04  0.25500000920E-02 0.  1.
       -2   -1    0    0    0  501  0.00000000000E+00  0.00000000000E+00 -0.12156857449E+04  0.12156857449E+04  0.25500000920E-02 0. -1.
    10030    2    1    2    0    0  0.00000000000E+00  0.00000000000E+00  0.62513955167E+02  0.24938854449E+04  0.24931018065E+04 0.  0.
        5    1    3    3  502    0  0.48604316870E+03  0.11355953638E+04  0.19879774896E+03  0.12511424487E+04  0.46999998093E+01 0. -1.
       -5    1    3    3    0  502 -0.48604316870E+03 -0.11355953638E+04 -0.13628379379E+03  0.12427429962E+04  0.46999998093E+01 0.  1.
</event>
<event>
 5   0  0.8056723E-06  0.2495208E+04  0.7818609E-02  0.8404695E-01
        2   -1    0    0  501    0  0.00000000000E+00  0.00000000000E+00  0.11401742001E+04  0.11401742001E+04  0.25500000920E-02 0. -1.
       -2   -1    0    0    0  501  0.00000000000E+00  0.00000000000E+00 -0.13651557285E+04  0.13651557285E+04  0.25500000920E-02 0.  1.
    10030    2    1    2    0    0  0.00000000000E+00  0.00000000000E+00 -0.22498152834E+03  0.25053299286E+04  0.24952076793E+04 0.  0.
        2    1    3    3  502    0  0.58365473727E+03  0.12112777118E+03  0.98794369589E+03  0.11538446757E+04  0.25500000920E-02 0. -1.
       -2    1    3    3    0  502 -0.58365473727E+03 -0.12112777118E+03 -0.12129252242E+04  0.13514852529E+04  0.25500000920E-02 0.  1.
</event>
<event>
 5   0  0.3484857E-06  0.2505261E+04  0.7818609E-02  0.8401114E-01
       -1   -1    0    0    0  501  0.00000000000E+00  0.00000000000E+00  0.15392601864E+04  0.15392601864E+04  0.50400001928E-02 0. -1.
        1   -1    0    0  501    0  0.00000000000E+00  0.00000000000E+00 -0.10193745542E+04  0.10193745542E+04  0.50400001928E-02 0.  1.
    10030    2    1    2    0    0  0.00000000000E+00  0.00000000000E+00  0.51988563219E+03  0.25586347406E+04  0.25052605983E+04 0.  0.
        3    1    3    3  502    0 -0.33444630773E+03  0.11643636559E+04 -0.65412267112E+02  0.12132088983E+04  0.10100000352E+00 0.  1.
       -3    1    3    3    0  502  0.33444630773E+03 -0.11643636559E+04  0.58529789930E+03  0.13454258423E+04  0.10100000352E+00 0. -1.
</event>
<event>
 5   0  0.8579923E-06  0.2503935E+04  0.7818609E-02  0.8401585E-01
        2   -1    0    0  501    0  0.00000000000E+00  0.00000000000E+00  0.19527296386E+04  0.19527296386E+04  0.25500000920E-02 0. -1.
       -2   -1    0    0    0  501  0.00000000000E+00  0.00000000000E+00 -0.80268290769E+03  0.80268290769E+03  0.25500000920E-02 0.  1.
    10030    2    1    2    0    0  0.00000000000E+00  0.00000000000E+00  0.11500467309E+04  0.27554125463E+04  0.25039350664E+04 0.  0.
        1    1    3    3  502    0 -0.37658898923E+03  0.18317954002E+03 -0.72332364651E+03  0.83580566421E+03  0.50400001928E-02 0.  1.
       -1    1    3    3    0  502  0.37658898923E+03 -0.18317954002E+03  0.18733703774E+04  0.19196068821E+04  0.50400001928E-02 0. -1.
</event>
<event>
 5   0  0.3522870E-06  0.2500197E+04  0.7818609E-02  0.8402915E-01
       -1   -1    0    0    0  501  0.00000000000E+00  0.00000000000E+00  0.16648652245E+04  0.16648652245E+04  0.50400001928E-02 0. -1.
        1   -1    0    0  501    0  0.00000000000E+00  0.00000000000E+00 -0.93866231164E+03  0.93866231165E+03  0.50400001928E-02 0.  1.
    10030    2    1    2    0    0  0.00000000000E+00  0.00000000000E+00  0.72620291283E+03  0.26035275361E+04  0.25001969844E+04 0.  0.
        2    1    3    3  502    0  0.86694739678E+03 -0.13861359858E+03  0.12897875390E+04  0.15602446649E+04  0.25500000920E-02 0. -1.
       -2    1    3    3    0  502 -0.86694739678E+03  0.13861359858E+03 -0.56358462621E+03  0.10432828712E+04  0.25500000920E-02 0.  1.
</event>
<event>
 5   0  0.3481387E-06  0.2495322E+04  0.7818609E-02  0.8404654E-01
        1   -1    0    0  501    0  0.00000000000E+00  0.00000000000E+00  0.16161715135E+04  0.16161715135E+04  0.50400001928E-02 0. -1.
       -1   -1    0    0    0  501  0.00000000000E+00  0.00000000000E+00 -0.96317654457E+03  0.96317654458E+03  0.50400001928E-02 0.  1.
    10030    2    1    2    0    0  0.00000000000E+00  0.00000000000E+00  0.65299496895E+03  0.25793480581E+04  0.24953224191E+04 0.  0.
        4    1    3    3  502    0  0.43299158445E+03  0.11274197962E+04  0.65025307795E+03  0.13716369007E+04  0.12699999809E+01 0.  1.
       -4    1    3    3    0  502 -0.43299158445E+03 -0.11274197962E+04  0.27418909956E+01  0.12077111574E+04  0.12699999809E+01 0. -1.
</event>
<event>
 5   0  0.8354653E-06  0.2491060E+04  0.7818609E-02  0.8406178E-01
        2   -1    0    0  501    0  0.00000000000E+00  0.00000000000E+00  0.14433952485E+04  0.14433952485E+04  0.25500000920E-02 0. -1.
       -2   -1    0    0    0  501  0.00000000000E+00  0.00000000000E+00 -0.10747883266E+04  0.10747883266E+04  0.25500000920E-02 0.  1.
    10030    2    1    2    0    0  0.00000000000E+00  0.00000000000E+00  0.36860692189E+03  0.25181835751E+04  0.24910595045E+04 0.  0.
        3    1    3    3  502    0 -0.51867929346E+03 -0.10294757781E+04 -0.29252718652E+03  0.11892942244E+04  0.10100000352E+00 0.  1.
       -3    1    3    3    0  502  0.51867929346E+03  0.10294757781E+04  0.66113410840E+03  0.13288893508E+04  0.10100000352E+00 0. -1.
</event>
<event>
 5   0  0.8407986E-06  0.2495251E+04  0.7818609E-02  0.8404679E-01
       -2   -1    0    0    0  501  0.00000000000E+00  0.00000000000E+00  0.10115614061E+04  0.10115614061E+04  0.25500000920E-02 0. -1.
        2   -1    0    0  501    0  0.00000000000E+00  0.00000000000E+00 -0.15387790120E+04  0.15387790120E+04  0.25500000920E-02 0.  1.
    10030    2    1    2    0    0  0.00000000000E+00  0.00000000000E+00 -0.52721760585E+03  0.25503404181E+04  0.24952510584E+04 0.  0.
        5    1    3    3  502    0  0.96337876613E+03 -0.66971672661E+02 -0.10709618796E+04  0.14420697936E+04  0.46999998093E+01 0.  1.
       -5    1    3    3    0  502 -0.96337876613E+03  0.66971672661E+02  0.54374427374E+03  0.11082706245E+04  0.46999998093E+01 0. -1.
</event>
<event>
 5   0  0.2901250E-06  0.2493784E+04  0.7818609E-02  0.8405203E-01
       -3   -1    0    0    0  501  0.00000000000E+00  0.00000000000E+00  0.12371846426E+04  0.12371846467E+04  0.10100000352E+00 0. -1.
        3   -1    0    0  501    0  0.00000000000E+00  0.00000000000E+00 -0.12566756431E+04  0.12566756472E+04  0.10100000352E+00 0.  1.
    10030    2    1    2    0    0  0.00000000000E+00  0.00000000000E+00 -0.19491000539E+02  0.24938602938E+04  0.24937841258E+04 0.  0.
        5    1    3    3  502    0 -0.97431662363E+03  0.45207093478E+03  0.62356422872E+03  0.12419804550E+04  0.46999998093E+01 0.  1.
       -5    1    3    3    0  502  0.97431662363E+03 -0.45207093478E+03 -0.64305522926E+03  0.12518798389E+04  0.46999998093E+01 0. -1.
</event>
<event>
 5   0  0.8407986E-06  0.2500449E+04  0.7818609E-02  0.8402826E-01
        2   -1    0    0  501    0  0.00000000000E+00  0.00000000000E+00  0.17411214191E+04  0.17411214191E+04  0.25500000920E-02 0.  1.
       -2   -1    0    0    0  501  0.00000000000E+00  0.00000000000E+00 -0.89773247603E+03  0.89773247603E+03  0.25500000920E-02 0. -1.
    10030    2    1    2    0    0  0.00000000000E+00  0.00000000000E+00  0.84338894305E+03  0.26388538951E+04  0.25004489538E+04 0.  0.
        5    1    3    3  502    0  0.12020731141E+04  0.66090371400E+02  0.77753977926E+03  0.14331566234E+04  0.46999998093E+01 0.  1.
       -5    1    3    3    0  502 -0.12020731141E+04 -0.66090371400E+02  0.65849163791E+02  0.12056972717E+04  0.46999998093E+01 0. -1.
</event>
<event>
 5   0  0.8579923E-06  0.2502363E+04  0.7818609E-02  0.8402144E-01
        2   -1    0    0  501    0  0.00000000000E+00  0.00000000000E+00  0.24992851396E+04  0.24992851396E+04  0.25500000920E-02 0. -1.
       -2   -1    0    0    0  501  0.00000000000E+00  0.00000000000E+00 -0.62636118692E+03  0.62636118692E+03  0.25500000920E-02 0.  1.
    10030    2    1    2    0    0  0.00000000000E+00  0.00000000000E+00  0.18729239527E+04  0.31256463265E+04  0.25023630484E+04 0.  0.
        1    1    3    3  502    0  0.27246944339E+03 -0.48448577323E+03  0.23365936723E+04  0.24017985035E+04  0.50400001928E-02 0. -1.
       -1    1    3    3    0  502 -0.27246944339E+03  0.48448577323E+03 -0.46366971958E+03  0.72384782304E+03  0.50400001928E-02 0.  1.
</event>
<event>
 5   0  0.3481387E-06  0.2484228E+04  0.7818609E-02  0.8408626E-01
        1   -1    0    0  501    0  0.00000000000E+00  0.00000000000E+00  0.14638721735E+04  0.14638721735E+04  0.50400001928E-02 0. -1.
       -1   -1    0    0    0  501  0.00000000000E+00  0.00000000000E+00 -0.10539496552E+04  0.10539496552E+04  0.50400001928E-02 0.  1.
    10030    2    1    2    0    0  0.00000000000E+00  0.00000000000E+00  0.40992251829E+03  0.25178218287E+04  0.24842283088E+04 0.  0.
        4    1    3    3  502    0  0.64151829503E+03  0.74836180847E+03 -0.56107342611E+03  0.11341940406E+04  0.12699999809E+01 0.  1.
       -4    1    3    3    0  502 -0.64151829503E+03 -0.74836180847E+03  0.97099594440E+03  0.13836277882E+04  0.12699999809E+01 0. -1.
</event>
<event>
 5   0  0.3642184E-06  0.2487784E+04  0.7818609E-02  0.8407351E-01
        1   -1    0    0  501    0  0.00000000000E+00  0.00000000000E+00  0.20316209967E+04  0.20316209967E+04  0.50400001928E-02 0.  1.
       -1   -1    0    0    0  501  0.00000000000E+00  0.00000000000E+00 -0.76159234333E+03  0.76159234334E+03  0.50400001928E-02 0. -1.
    10030    2    1    2    0    0  0.00000000000E+00  0.00000000000E+00  0.12700286534E+04  0.27932133401E+04  0.24877837492E+04 0.  0.
        5    1    3    3  502    0  0.37275746430E+03 -0.53333031454E+03 -0.55525907567E+03  0.85540872261E+03  0.46999998093E+01 0. -1.
       -5    1    3    3    0  502 -0.37275746430E+03  0.53333031454E+03  0.18252877291E+04  0.19378046175E+04  0.46999998093E+01 0.  1.
</event>
<event>
 5   0  0.8407986E-06  0.2503161E+04  0.7818609E-02  0.8401860E-01
        2   -1    0    0  501    0  0.00000000000E+00  0.00000000000E+00  0.20642380861E+04  0.20642380861E+04  0.25500000920E-02 0.  1.
       -2   -1    0    0    0  501  0.00000000000E+00  0.00000000000E+00 -0.75885295670E+03  0.75885295670E+03  0.25500000920E-02 0. -1.
    10030    2    1    2    0    0  0.00000000000E+00  0.00000000000E+00  0.13053851294E+04  0.28230910428E+04  0.25031605422E+04 0.  0.
        5    1    3    3  502    0  0.17070848699E+03  0.67789935680E+03  0.18235219555E+04  0.19529319849E+04  0.46999998093E+01 0.  1.
       -5    1    3    3    0  502 -0.17070848699E+03 -0.67789935680E+03 -0.51813682610E+03  0.87015905789E+03  0.46999998093E+01 0. -1.
</event>
<event>
 5   0  0.8056723E-06  0.2498912E+04  0.7818609E-02  0.8403373E-01
        2   -1    0    0  501    0  0.00000000000E+00  0.00000000000E+00  0.98941766686E+03  0.98941766686E+03  0.25500000920E-02 0.  1.
       -2   -1    0    0    0  501  0.00000000000E+00  0.00000000000E+00 -0.15778372008E+04  0.15778372008E+04  0.25500000920E-02 0. -1.
    10030    2    1    2    0    0  0.00000000000E+00  0.00000000000E+00 -0.58841953398E+03  0.25672548677E+04  0.24989117647E+04 0.  0.
        2    1    3    3  502    0 -0.51112257778E+03  0.55796980729E+03 -0.13156673325E+04  0.15177473852E+04  0.25500000920E-02 0. -1.
       -2    1    3    3    0  502  0.51112257778E+03 -0.55796980729E+03  0.72724779854E+03  0.10495074825E+04  0.25500000920E-02 0.  1.
</event>
<event>
 5   0  0.8354653E-06  0.2511570E+04  0.7818609E-02  0.8398875E-01
       -2   -1    0    0    0  501  0.00000000000E+00  0.00000000000E+00  0.15136888179E+04  0.15136888179E+04  0.25500000920E-02 0.  1.
        2   -1    0    0  501    0  0.00000000000E+00  0.00000000000E+00 -0.10418232898E+04  0.10418232898E+04  0.25500000920E-02 0. -1.
    10030    2    1    2    0    0  0.00000000000E+00  0.00000000000E+00  0.47186552816E+03  0.25555121077E+04  0.25115702371E+04 0.  0.
        3    1    3    3  502    0  0.39100574688E+03 -0.93110849311E+03 -0.52354978470E+03  0.11375205085E+04  0.10100000352E+00 0. -1.
       -3    1    3    3    0  502 -0.39100574688E+03  0.93110849311E+03  0.99541531286E+03  0.14179915992E+04  0.10100000352E+00 0.  1.
</event>
<event>
 5   0  0.3424193E-06  0.2500540E+04  0.7818609E-02  0.8402793E-01
       -1   -1    0    0    0  501  0.00000000000E+00  0.00000000000E+00  0.93115570636E+03  0.93115570637E+03  0.50400001928E-02 0. -1.
        1   -1    0    0  501    0  0.00000000000E+00  0.00000000000E+00 -0.16787472354E+04  0.16787472355E+04  0.50400001928E-02 0.  1.
    10030    2    1    2    0    0  0.00000000000E+00  0.00000000000E+00 -0.74759152909E+03  0.26099029418E+04  0.25005399960E+04 0.  0.
        1    1    3    3  502    0  0.77004867304E+03  0.81900108154E+03 -0.94493701448E+03  0.14685515625E+04  0.50400001928E-02 0. -1.
       -1    1    3    3    0  502 -0.77004867304E+03 -0.81900108154E+03  0.19734548539E+03  0.11413513793E+04  0.50400001928E-02 0.  1.
</event>
<event>
 5   0  0.8354653E-06  0.2514144E+04  0.7818609E-02  0.8397964E-01
        2   -1    0    0  501    0  0.00000000000E+00  0.00000000000E+00  0.19450015145E+04  0.19450015145E+04  0.25500000920E-02 0.  1.
       -2   -1    0    0    0  501  0.00000000000E+00  0.00000000000E+00 -0.81245681644E+03  0.81245681645E+03  0.25500000920E-02 0. -1.
    10030    2    1    2    0    0  0.00000000000E+00  0.00000000000E+00  0.11325446981E+04  0.27574583310E+04  0.25141437815E+04 0.  0.
        3    1    3    3  502    0 -0.64591384077E+03 -0.59650187729E+03 -0.41912697909E+03  0.97400544871E+03  0.10100000352E+00 0. -1.
       -3    1    3    3    0  502  0.64591384077E+03  0.59650187729E+03  0.15516716772E+04  0.17834528823E+04  0.10100000352E+00 0.  1.
</event>
<event>
 5   0  0.8407986E-06  0.2493645E+04  0.7818609E-02  0.8405253E-01
        2   -1    0    0  501    0  0.00000000000E+00  0.00000000000E+00  0.13370601587E+04  0.13370601587E+04  0.25500000920E-02 0. -1.
       -2   -1    0    0    0  501  0.00000000000E+00  0.00000000000E+00 -0.11626753582E+04  0.11626753583E+04  0.25500000920E-02 0.  1.
    10030    2    1    2    0    0  0.00000000000E+00  0.00000000000E+00  0.17438480042E+03  0.24997355169E+04  0.24936454431E+04 0.  0.
        5    1    3    3  502    0 -0.76528725633E+03  0.21607498197E+03  0.10498458941E+04  0.13170237181E+04  0.46999998093E+01 0. -1.
       -5    1    3    3    0  502  0.76528725633E+03 -0.21607498197E+03 -0.87546109372E+03  0.11827117989E+04  0.46999998093E+01 0.  1.
</event>
<event>
 5   0  0.3424193E-06  0.2480033E+04  0.7818609E-02  0.8410134E-01
        1   -1    0    0  501    0  0.00000000000E+00  0.00000000000E+00  0.19837533791E+04  0.19837533791E+04  0.50400001928E-02 0. -1.
       -1   -1    0    0    0  501  0.00000000000E+00  0.00000000000E+00 -0.77511689783E+03  0.77511689785E+03  0.50400001928E-02 0.  1.
    10030    2    1    2    0    0  0.00000000000E+00  0.00000000000E+00  0.12086364813E+04  0.27588702769E+04  0.24800328750E+04 0.  0.
        1    1    3    3  502    0 -0.53029173711E+03  0.11046600651E+04  0.81584899415E+03  0.14721048764E+04  0.50400001928E-02 0. -1.
       -1    1    3    3    0  502  0.53029173711E+03 -0.11046600651E+04  0.39278748711E+03  0.12867654005E+04  0.50400001928E-02 0.  1.
</event>
<event>
 5   0  0.3522870E-06  0.2489903E+04  0.7818609E-02  0.8406592E-01
        1   -1    0    0  501    0  0.00000000000E+00  0.00000000000E+00  0.75946725441E+03  0.75946725443E+03  0.50400001928E-02 0. -1.
       -1   -1    0    0    0  501  0.00000000000E+00  0.00000000000E+00 -0.20407779259E+04  0.20407779259E+04  0.50400001928E-02 0.  1.
    10030    2    1    2    0    0  0.00000000000E+00  0.00000000000E+00 -0.12813106715E+04  0.28002451803E+04  0.24899028160E+04 0.  0.
        2    1    3    3  502    0  0.71205079961E+03 -0.10181743001E+04 -0.72927215529E+03  0.14406710669E+04  0.25500000920E-02 0.  1.
       -2    1    3    3    0  502 -0.71205079961E+03  0.10181743001E+04 -0.55203851620E+03  0.13595741134E+04  0.25500000920E-02 0. -1.
</event>
<event>
 5   0  0.8948286E-06  0.2498474E+04  0.7818609E-02  0.8403530E-01
       -2   -1    0    0    0  501  0.00000000000E+00  0.00000000000E+00  0.86392337496E+03  0.86392337496E+03  0.25500000920E-02 0. -1.
        2   -1    0    0  501    0  0.00000000000E+00  0.00000000000E+00 -0.18064015727E+04  0.18064015727E+04  0.25500000920E-02 0.  1.
    10030    2    1    2    0    0  0.00000000000E+00  0.00000000000E+00 -0.94247819776E+03  0.26703249477E+04  0.24984735686E+04 0.  0.
        4    1    3    3  502    0  0.14089591743E+02 -0.12364507048E+04 -0.66117612676E+03  0.14021998237E+04  0.12699999809E+01 0. -1.
       -4    1    3    3    0  502 -0.14089591743E+02  0.12364507048E+04 -0.28130207100E+03  0.12681251240E+04  0.12699999809E+01 0.  1.
</event>
<event>
 5   0  0.8948286E-06  0.2513515E+04  0.7818609E-02  0.8398187E-01
        2   -1    0    0  501    0  0.00000000000E+00  0.00000000000E+00  0.11338529368E+04  0.11338529368E+04  0.25500000920E-02 0.  1.
       -2   -1    0    0    0  501  0.00000000000E+00  0.00000000000E+00 -0.13929841700E+04  0.13929841700E+04  0.25500000920E-02 0. -1.
    10030    2    1    2    0    0  0.00000000000E+00  0.00000000000E+00 -0.25913123323E+03  0.25268371068E+04  0.25135148236E+04 0.  0.
        4    1    3    3  502    0 -0.11079155645E+04  0.35073723488E+03  0.35145146351E+03  0.12140894737E+04  0.12699999809E+01 0.  1.
       -4    1    3    3    0  502  0.11079155645E+04 -0.35073723488E+03 -0.61058269674E+03  0.13127476332E+04  0.12699999809E+01 0. -1.
</event>
<event>
 5   0  0.8056723E-06  0.2447740E+04  0.7818609E-02  0.8421844E-01
        2   -1    0    0  501    0  0.00000000000E+00  0.00000000000E+00  0.14992072333E+04  0.14992072333E+04  0.25500000920E-02 0.  1.
       -2   -1    0    0    0  501  0.00000000000E+00  0.00000000000E+00 -0.99909990979E+03  0.99909990979E+03  0.25500000920E-02 0. -1.
    10030    2    1    2    0    0  0.00000000000E+00  0.00000000000E+00  0.50010732355E+03  0.24983071431E+04  0.24477400283E+04 0.  0.
        2    1    3    3  502    0 -0.27012121049E+03 -0.11936072258E+04  0.26427469500E+03  0.12520003164E+04  0.25500000920E-02 0. -1.
       -2    1    3    3    0  502  0.27012121049E+03  0.11936072258E+04  0.23583262855E+03  0.12463068268E+04  0.25500000920E-02 0.  1.
</event>
<event>
 5   0  0.8579923E-06  0.2497542E+04  0.7818609E-02  0.8403862E-01
        2   -1    0    0  501    0  0.00000000000E+00  0.00000000000E+00  0.17012431671E+04  0.17012431671E+04  0.25500000920E-02 0. -1.
       -2   -1    0    0    0  501  0.00000000000E+00  0.00000000000E+00 -0.91664049947E+03  0.91664049947E+03  0.25500000920E-02 0.  1.
    10030    2    1    2    0    0  0.00000000000E+00  0.00000000000E+00  0.78460266766E+03  0.26178836666E+04  0.24975415003E+04 0.  0.
        1    1    3    3  502    0 -0.50016382106E+03 -0.11330087776E+04  0.55986547417E+03  0.13591622740E+04  0.50400001928E-02 0. -1.
       -1    1    3    3    0  502  0.50016382106E+03  0.11330087776E+04  0.22473719349E+03  0.12587213926E+04  0.50400001928E-02 0.  1.
</event>
<event>
 5   0  0.8948286E-06  0.2500154E+04  0.7818609E-02  0.8402931E-01
       -2   -1    0    0    0  501  0.00000000000E+00  0.00000000000E+00  0.12326039754E+04  0.12326039754E+04  0.25500000920E-02 0. -1.
        2   -1    0    0  501    0  0.00000000000E+00  0.00000000000E+00 -0.12677981387E+04  0.12677981387E+04  0.25500000920E-02 0.  1.
    10030    2    1    2    0    0  0.00000000000E+00  0.00000000000E+00 -0.35194163298E+02  0.25004021142E+04  0.25001544159E+04 0.  0.
        4    1    3    3  502    0 -0.11409435055E+04 -0.18472980150E+03 -0.49389444186E+03  0.12569051336E+04  0.12699999809E+01 0. -1.
       -4    1    3    3    0  502  0.11409435055E+04  0.18472980150E+03  0.45870027856E+03  0.12434969806E+04  0.12699999809E+01 0.  1.
</event>
<event>
 5   0  0.8354653E-06  0.2504738E+04  0.7818609E-02  0.8401299E-01
        2   -1    0    0  501    0  0.00000000000E+00  0.00000000000E+00  0.11256580429E+04  0.11256580429E+04  0.25500000920E-02 0. -1.
       -2   -1    0    0    0  501  0.00000000000E+00  0.00000000000E+00 -0.13933435254E+04  0.13933435254E+04  0.25500000920E-02 0.  1.
    10030    2    1    2    0    0  0.00000000000E+00  0.00000000000E+00 -0.26768548247E+03  0.25190015683E+04  0.25047381866E+04 0.  0.
        3    1    3    3  502    0 -0.32108017897E+03  0.11797294832E+04 -0.40663301234E+03  0.12884892517E+04  0.10100000352E+00 0.  1.
       -3    1    3    3    0  502  0.32108017897E+03 -0.11797294832E+04  0.13894752987E+03  0.12305123166E+04  0.10100000352E+00 0. -1.
</event>
<event>
 5   0  0.3484857E-06  0.2487955E+04  0.7818609E-02  0.8407289E-01
       -1   -1    0    0    0  501  0.00000000000E+00  0.00000000000E+00  0.10487434131E+04  0.10487434132E+04  0.50400001928E-02 0. -1.
        1   -1    0    0  501    0  0.00000000000E+00  0.00000000000E+00 -0.14755558358E+04  0.14755558358E+04  0.50400001928E-02 0.  1.
    10030    2    1    2    0    0  0.00000000000E+00  0.00000000000E+00 -0.42681242262E+03  0.25242992489E+04  0.24879545522E+04 0.  0.
        3    1    3    3  502    0 -0.72440002767E+03  0.94974918020E+03  0.13908883336E+03  0.12025492169E+04  0.10100000352E+00 0. -1.
       -3    1    3    3    0  502  0.72440002767E+03 -0.94974918020E+03 -0.56590125598E+03  0.13217500320E+04  0.10100000352E+00 0.  1.
</event>
<event>
 5   0  0.3484857E-06  0.2498745E+04  0.7818609E-02  0.8403433E-01
       -1   -1    0    0    0  501  0.00000000000E+00  0.00000000000E+00  0.16623823816E+04  0.16623823816E+04  0.50400001928E-02 0.  1.
        1   -1    0    0  501    0  0.00000000000E+00  0.00000000000E+00 -0.93897295912E+03  0.93897295913E+03  0.50400001928E-02 0. -1.
    10030    2    1    2    0    0  0.00000000000E+00  0.00000000000E+00  0.72340942245E+03  0.26013553407E+04  0.24987453684E+04 0.  0.
        3    1    3    3  502    0  0.75156233572E+03 -0.93910780420E+03  0.71345928929E+03  0.13984969003E+04  0.10100000352E+00 0.  1.
       -3    1    3    3    0  502 -0.75156233572E+03  0.93910780420E+03  0.99501331571E+01  0.12028584404E+04  0.10100000352E+00 0. -1.
</event>
<event>
 5   0  0.3481387E-06  0.2424682E+04  0.7818609E-02  0.8430320E-01
       -1   -1    0    0    0  501  0.00000000000E+00  0.00000000000E+00  0.15422675513E+04  0.15422675513E+04  0.50400001928E-02 0.  1.
        1   -1    0    0  501    0  0.00000000000E+00  0.00000000000E+00 -0.95299368574E+03  0.95299368575E+03  0.50400001928E-02 0. -1.
    10030    2    1    2    0    0  0.00000000000E+00  0.00000000000E+00  0.58927386552E+03  0.24952612370E+04  0.24246824436E+04 0.  0.
        4    1    3    3  502    0  0.30301828626E+03 -0.11669357903E+04  0.42566311355E+03  0.12785733923E+04  0.12699999809E+01 0.  1.
       -4    1    3    3    0  502 -0.30301828626E+03  0.11669357903E+04  0.16361075196E+03  0.12166878447E+04  0.12699999809E+01 0. -1.
</event>
<event>
 5   0  0.3424193E-06  0.2635545E+04  0.7818609E-02  0.8356227E-01
        1   -1    0    0  501    0  0.00000000000E+00  0.00000000000E+00  0.18525901537E+04  0.18525901537E+04  0.50400001928E-02 0.  1.
       -1   -1    0    0    0  501  0.00000000000E+00  0.00000000000E+00 -0.93734975201E+03  0.93734975202E+03  0.50400001928E-02 0. -1.
    10030    2    1    2    0    0  0.00000000000E+00  0.00000000000E+00  0.91524040172E+03  0.27899399058E+04  0.26355454245E+04 0.  0.
        1    1    3    3  502    0 -0.89841329747E+03 -0.65238411618E+03  0.12089696519E+04  0.16414503061E+04  0.50400001928E-02 0.  1.
       -1    1    3    3    0  502  0.89841329747E+03  0.65238411618E+03 -0.29372925017E+03  0.11484895997E+04  0.50400001928E-02 0. -1.
</event>
<event>
 5   0  0.8579923E-06  0.2369113E+04  0.7818609E-02  0.8451158E-01
       -2   -1    0    0    0  501  0.00000000000E+00  0.00000000000E+00  0.12804097046E+04  0.12804097046E+04  0.25500000920E-02 0. -1.
        2   -1    0    0  501    0  0.00000000000E+00  0.00000000000E+00 -0.10958791138E+04  0.10958791138E+04  0.25500000920E-02 0.  1.
    10030    2    1    2    0    0  0.00000000000E+00  0.00000000000E+00  0.18453059074E+03  0.23762888184E+04  0.23691131273E+04 0.  0.
        1    1    3    3  502    0  0.67350823888E+03 -0.43413094555E+03 -0.78278251651E+03  0.11201926146E+04  0.50400001928E-02 0.  1.
       -1    1    3    3    0  502 -0.67350823888E+03  0.43413094555E+03  0.96731310725E+03  0.12560962038E+04  0.50400001928E-02 0. -1.
</event>
<event>
 5   0  0.8948286E-06  0.2489196E+04  0.7818609E-02  0.8406845E-01
       -2   -1    0    0    0  501  0.00000000000E+00  0.00000000000E+00  0.17576780703E+04  0.17576780703E+04  0.25500000920E-02 0. -1.
        2   -1    0    0  501    0  0.00000000000E+00  0.00000000000E+00 -0.88128970825E+03  0.88128970825E+03  0.25500000920E-02 0.  1.
    10030    2    1    2    0    0  0.00000000000E+00  0.00000000000E+00  0.87638836202E+03  0.26389677785E+04  0.24891955277E+04 0.  0.
        4    1    3    3  502    0  0.37059011306E+03  0.11123631875E+04 -0.44604244497E+01  0.11724804481E+04  0.12699999809E+01 0.  1.
       -4    1    3    3    0  502 -0.37059011306E+03 -0.11123631875E+04  0.88084878647E+03  0.14664873304E+04  0.12699999809E+01 0. -1.
</event>
<event>
 5   0  0.8056723E-06  0.2488945E+04  0.7818609E-02  0.8406935E-01
       -2   -1    0    0    0  501  0.00000000000E+00  0.00000000000E+00  0.10413880764E+04  0.10413880764E+04  0.25500000920E-02 0.  1.
        2   -1    0    0  501    0  0.00000000000E+00  0.00000000000E+00 -0.14871605212E+04  0.14871605212E+04  0.25500000920E-02 0. -1.
    10030    2    1    2    0    0  0.00000000000E+00  0.00000000000E+00 -0.44577244484E+03  0.25285485976E+04  0.24889445429E+04 0.  0.
        2    1    3    3  502    0 -0.24596895675E+03 -0.10384528580E+04  0.42747693055E+03  0.11496180201E+04  0.25500000920E-02 0.  1.
       -2    1    3    3    0  502  0.24596895675E+03  0.10384528580E+04 -0.87324937539E+03  0.13789305775E+04  0.25500000920E-02 0. -1.
</event>
<event>
 5   0  0.3642184E-06  0.2493499E+04  0.7818609E-02  0.8405305E-01
       -1   -1    0    0    0  501  0.00000000000E+00  0.00000000000E+00  0.12269636066E+04  0.12269636067E+04  0.50400001928E-02 0. -1.
        1   -1    0    0  501    0  0.00000000000E+00  0.00000000000E+00 -0.12668546627E+04  0.12668546627E+04  0.50400001928E-02 0.  1.
    10030    2    1    2    0    0  0.00000000000E+00  0.00000000000E+00 -0.39891056034E+02  0.24938182693E+04  0.24934992007E+04 0.  0.
        5    1    3    3  502    0 -0.32219118995E+02  0.64434568386E+03  0.10470288563E+04  0.12298418385E+04  0.46999998093E+01 0. -1.
       -5    1    3    3    0  502  0.32219118995E+02 -0.64434568386E+03 -0.10869199123E+04  0.12639764308E+04  0.46999998093E+01 0.  1.
</event>
<event>
 5   0  0.3484857E-06  0.2492141E+04  0.7818609E-02  0.8405791E-01
       -1   -1    0    0    0  501  0.00000000000E+00  0.00000000000E+00  0.80001080480E+03  0.80001080482E+03  0.50400001928E-02 0. -1.
        1   -1    0    0  501    0  0.00000000000E+00  0.00000000000E+00 -0.19408388037E+04  0.19408388037E+04  0.50400001928E-02 0.  1.
    10030    2    1    2    0    0  0.00000000000E+00  0.00000000000E+00 -0.11408279989E+04  0.27408496085E+04  0.24921412587E+04 0.  0.
        3    1    3    3  502    0  0.23900303245E+03 -0.39898363660E+03 -0.18418010878E+04  0.18996161846E+04  0.10100000352E+00 0.  1.
       -3    1    3    3    0  502 -0.23900303245E+03  0.39898363660E+03  0.70097308892E+03  0.84123342384E+03  0.10100000352E+00 0. -1.
</event>
<event>
 5   0  0.8579923E-06  0.2410937E+04  0.7818609E-02  0.8435420E-01
        2   -1    0    0  501    0  0.00000000000E+00  0.00000000000E+00  0.23417598819E+04  0.23417598819E+04  0.25500000920E-02 0.  1.
       -2   -1    0    0    0  501  0.00000000000E+00  0.00000000000E+00 -0.62053945427E+03  0.62053945428E+03  0.25500000920E-02 0. -1.
    10030    2    1    2    0    0  0.00000000000E+00  0.00000000000E+00  0.17212204276E+04  0.29622993361E+04  0.24109370785E+04 0.  0.
        1    1    3    3  502    0  0.11744810638E+04 -0.24970298321E+03  0.99178165555E+03  0.15573657892E+04  0.50400001928E-02 0.  1.
       -1    1    3    3    0  502 -0.11744810638E+04  0.24970298321E+03  0.72943877204E+03  0.14049335469E+04  0.50400001928E-02 0. -1.
</event>
<event>
 5   0  0.3481387E-06  0.2510681E+04  0.7818609E-02  0.8399190E-01
        1   -1    0    0  501    0  0.00000000000E+00  0.00000000000E+00  0.12868225558E+04  0.12868225558E+04  0.50400001928E-02 0.  1.
       -1   -1    0    0    0  501  0.00000000000E+00  0.00000000000E+00 -0.12246281748E+04  0.12246281748E+04  0.50400001928E-02 0. -1.
    10030    2    1    2    0    0  0.00000000000E+00  0.00000000000E+00  0.62194380946E+02  0.25114507306E+04  0.25106805116E+04 0.  0.
        4    1    3    3  502    0  0.92538856800E+03 -0.75789487690E+03  0.41217192958E+03  0.12651624238E+04  0.12699999809E+01 0.  1.
       -4    1    3    3    0  502 -0.92538856800E+03  0.75789487690E+03 -0.34997754864E+03  0.12462883068E+04  0.12699999809E+01 0. -1.
</event>
<event>
 5   0  0.3484857E-06  0.2501127E+04  0.7818609E-02  0.8402584E-01
       -1   -1    0    0    0  501  0.00000000000E+00  0.00000000000E+00  0.10367689961E+04  0.10367689961E+04  0.50400001928E-02 0.  1.
        1   -1    0    0  501    0  0.00000000000E+00  0.00000000000E+00 -0.15084449532E+04  0.15084449532E+04  0.50400001928E-02 0. -1.
    10030    2    1    2    0    0  0.00000000000E+00  0.00000000000E+00 -0.47167595715E+03  0.25452139493E+04  0.25011269139E+04 0.  0.
        3    1    3    3  502    0 -0.11983248421E+04 -0.14061292098E+03 -0.57050346010E+03  0.13346267752E+04  0.10100000352E+00 0. -1.
       -3    1    3    3    0  502  0.11983248421E+04  0.14061292098E+03  0.98827502952E+02  0.12105871742E+04  0.10100000352E+00 0.  1.
</event>
<event>
 5   0  0.3424193E-06  0.2526320E+04  0.7818609E-02  0.8393668E-01
       -1   -1    0    0    0  501  0.00000000000E+00  0.00000000000E+00  0.10121574245E+04  0.10121574245E+04  0.50400001928E-02 0. -1.
        1   -1    0    0  501    0  0.00000000000E+00  0.00000000000E+00 -0.15764081315E+04  0.15764081315E+04  0.50400001928E-02 0.  1.
    10030    2    1    2    0    0  0.00000000000E+00  0.00000000000E+00 -0.56425070700E+03  0.25885655559E+04  0.25263200068E+04 0.  0.
        1    1    3    3  502    0 -0.61341173625E+02 -0.84386011931E+03 -0.12431636797E+04  0.15037681255E+04  0.50400001928E-02 0.  1.
       -1    1    3    3    0  502  0.61341173625E+02  0.84386011931E+03  0.67891297274E+03  0.10847974305E+04  0.50400001928E-02 0. -1.
</event>
<event>
 5   0  0.3642184E-06  0.2501221E+04  0.7818609E-02  0.8402551E-01
        1   -1    0    0  501    0  0.00000000000E+00  0.00000000000E+00  0.14426632970E+04  0.14426632970E+04  0.50400001928E-02 0.  1.
       -1   -1    0    0    0  501  0.00000000000E+00  0.00000000000E+00 -0.10841248942E+04  0.10841248942E+04  0.50400001928E-02 0. -1.
    10030    2    1    2    0    0  0.00000000000E+00  0.00000000000E+00  0.35853840285E+03  0.25267881912E+04  0.25012214570E+04 0.  0.
        5    1    3    3  502    0 -0.68000323601E+03 -0.71391604815E+03  0.95649978241E+03  0.13736791651E+04  0.46999998093E+01 0. -1.
       -5    1    3    3    0  502  0.68000323601E+03  0.71391604815E+03 -0.59796137956E+03  0.11531090262E+04  0.46999998093E+01 0.  1.
</event>
<event>
 5   0  0.3484857E-06  0.2452262E+04  0.7818609E-02  0.8420192E-01
        1   -1    0    0  501    0  0.00000000000E+00  0.00000000000E+00  0.11391786256E+04  0.11391786256E+04  0.50400001928E-02 0. -1.
       -1   -1    0    0    0  501  0.00000000000E+00  0.00000000000E+00 -0.13197206206E+04  0.13197206206E+04  0.50400001928E-02 0.  1.
    10030    2    1    2    0    0  0.00000000000E+00  0.00000000000E+00 -0.18054199495E+03  0.24588992462E+04  0.24522622395E+04 0.  0.
        3    1    3    3  502    0  0.21962078905E+03 -0.91123113495E+03 -0.88286721116E+03  0.12876451355E+04  0.10100000352E+00 0.  1.
       -3    1    3    3    0  502 -0.21962078905E+03  0.91123113495E+03  0.70232521620E+03  0.11712541107E+04  0.10100000352E+00 0. -1.
</event>
<event>
 5   0  0.8948286E-06  0.2515207E+04  0.7818609E-02  0.8397588E-01
        2   -1    0    0  501    0  0.00000000000E+00  0.00000000000E+00  0.24504766731E+04  0.24504766731E+04  0.25500000920E-02 0.  1.
       -2   -1    0    0    0  501  0.00000000000E+00  0.00000000000E+00 -0.64541182799E+03  0.64541182799E+03  0.25500000920E-02 0. -1.
    10030    2    1    2    0    0  0.00000000000E+00  0.00000000000E+00  0.18050648451E+04  0.30958885011E+04  0.25152070524E+04 0.  0.
        4    1    3    3  502    0  0.11638891280E+03 -0.11434532576E+04  0.15307978714E+04  0.19142558521E+04  0.12699999809E+01 0.  1.
       -4    1    3    3    0  502 -0.11638891280E+03  0.11434532576E+04  0.27426697374E+03  0.11816326490E+04  0.12699999809E+01 0. -1.
</event>
<event>
 5   0  0.8579923E-06  0.2495274E+04  0.7818609E-02  0.8404671E-01
       -2   -1    0    0    0  501  0.00000000000E+00  0.00000000000E+00  0.90392513383E+03  0.90392513383E+03  0.25500000920E-02 0.  1.
        2   -1    0    0  501    0  0.00000000000E+00  0.00000000000E+00 -0.17220430799E+04  0.17220430799E+04  0.25500000920E-02 0. -1.
    10030    2    1    2    0    0  0.00000000000E+00  0.00000000000E+00 -0.81811794610E+03  0.26259682138E+04  0.24952739501E+04 0.  0.
        1    1    3    3  502    0  0.12286626942E+04 -0.57994378643E+02 -0.62885877192E+03  0.13814625291E+04  0.50400001928E-02 0. -1.
       -1    1    3    3    0  502 -0.12286626942E+04  0.57994378643E+02 -0.18925917418E+03  0.12445056847E+04  0.50400001928E-02 0.  1.
</event>
<event>
 5   0  0.3481387E-06  0.2505801E+04  0.7818609E-02  0.8400922E-01
        1   -1    0    0  501    0  0.00000000000E+00  0.00000000000E+00  0.13586785009E+04  0.13586785010E+04  0.50400001928E-02 0. -1.
       -1   -1    0    0    0  501  0.00000000000E+00  0.00000000000E+00 -0.11553575707E+04  0.11553575707E+04  0.50400001928E-02 0.  1.
    10030    2    1    2    0    0  0.00000000000E+00  0.00000000000E+00  0.20332093027E+03  0.25140360716E+04  0.25058008637E+04 0.  0.
        4    1    3    3  502    0 -0.75991156095E+03  0.37604183698E+03  0.10271261963E+04  0.13318644374E+04  0.12699999809E+01 0. -1.
       -4    1    3    3    0  502  0.75991156095E+03 -0.37604183698E+03 -0.82380526599E+03  0.11821716342E+04  0.12699999809E+01 0.  1.
</event>
<event>
 5   0  0.8407986E-06  0.2500349E+04  0.7818609E-02  0.8402861E-01
        2   -1    0    0  501    0  0.00000000000E+00  0.00000000000E+00  0.10173657439E+04  0.10173657439E+04  0.25500000920E-02 0.  1.
       -2   -1    0    0    0  501  0.00000000000E+00  0.00000000000E+00 -0.15362579127E+04  0.15362579127E+04  0.25500000920E-02 0. -1.
    10030    2    1    2    0    0  0.00000000000E+00  0.00000000000E+00 -0.51889216879E+03  0.25536236567E+04  0.25003489151E+04 0.  0.
        5    1    3    3  502    0  0.52358283952E+03 -0.19792771200E+03 -0.14011190955E+04  0.15087979251E+04  0.46999998093E+01 0. -1.
       -5    1    3    3    0  502 -0.52358283952E+03  0.19792771200E+03  0.88222692674E+03  0.10448257315E+04  0.46999998093E+01 0.  1.
</event>
<event>
 5   0  0.3481387E-06  0.2490004E+04  0.7818609E-02  0.8406555E-01
        1   -1    0    0  501    0  0.00000000000E+00  0.00000000000E+00  0.14633191052E+04  0.14633191053E+04  0.50400001928E-02 0. -1.
       -1   -1    0    0    0  501  0.00000000000E+00  0.00000000000E+00 -0.10592560441E+04  0.10592560441E+04  0.50400001928E-02 0.  1.
    10030    2    1    2    0    0  0.00000000000E+00  0.00000000000E+00  0.40406306116E+03  0.25225751494E+04  0.24900037001E+04 0.  0.
        4    1    3    3  502    0 -0.12245058171E+04  0.37025828545E+02 -0.22777910410E+02  0.12252778681E+04  0.12699999809E+01 0.  1.
       -4    1    3    3    0  502  0.12245058171E+04 -0.37025828545E+02  0.42684097157E+03  0.12972972812E+04  0.12699999809E+01 0. -1.
</event>
<event>
 5   0  0.3424193E-06  0.2511888E+04  0.7818609E-02  0.8398762E-01
        1   -1    0    0  501    0  0.00000000000E+00  0.00000000000E+00  0.82684613742E+03  0.82684613744E+03  0.50400001928E-02 0.  1.
       -1   -1    0    0    0  501  0.00000000000E+00  0.00000000000E+00 -0.19077258082E+04  0.19077258082E+04  0.50400001928E-02 0. -1.
    10030    2    1    2    0    0  0.00000000000E+00  0.00000000000E+00 -0.10808796708E+04  0.27345719456E+04  0.25118883063E+04 0.  0.
        1    1    3    3  502    0  0.10354264358E+04 -0.40491519751E+03  0.95589594008E+02  0.11158860119E+04  0.50400001928E-02 0.  1.
       -1    1    3    3    0  502 -0.10354264358E+04  0.40491519751E+03 -0.11764692648E+04  0.16186859337E+04  0.50400001928E-02 0. -1.
</event>
<event>
 5   0  0.3424193E-06  0.2497966E+04  0.7818609E-02  0.8403710E-01
       -1   -1    0    0    0  501  0.00000000000E+00  0.00000000000E+00  0.77878144295E+03  0.77878144296E+03  0.50400001928E-02 0. -1.
        1   -1    0    0  501    0  0.00000000000E+00  0.00000000000E+00 -0.20030763529E+04  0.20030763529E+04  0.50400001928E-02 0.  1.
    10030    2    1    2    0    0  0.00000000000E+00  0.00000000000E+00 -0.12242949100E+04  0.27818577959E+04  0.24979661267E+04 0.  0.
        1    1    3    3  502    0 -0.68463184735E+02 -0.11127868968E+04 -0.12391396348E+04  0.16668679971E+04  0.50400001928E-02 0.  1.
       -1    1    3    3    0  502  0.68463184735E+02  0.11127868968E+04  0.14844724784E+02  0.11149897988E+04  0.50400001928E-02 0. -1.
</event>
<event>
 5   0  0.3484857E-06  0.2496109E+04  0.7818609E-02  0.8404373E-01
        1   -1    0    0  501    0  0.00000000000E+00  0.00000000000E+00  0.12384183640E+04  0.12384183640E+04  0.50400001928E-02 0.  1.
       -1   -1    0    0    0  501  0.00000000000E+00  0.00000000000E+00 -0.12577659760E+04  0.12577659760E+04  0.50400001928E-02 0. -1.
    10030    2    1    2    0    0  0.00000000000E+00  0.00000000000E+00 -0.19347612000E+02  0.24961843399E+04  0.24961093583E+04 0.  0.
        3    1    3    3  502    0 -0.51839801623E+03 -0.46326017738E+03 -0.10461864784E+04  0.12561260498E+04  0.10100000352E+00 0. -1.
       -3    1    3    3    0  502  0.51839801623E+03  0.46326017738E+03  0.10268388664E+04  0.12400582901E+04  0.10100000352E+00 0.  1.
</event>
<event>
 5   0  0.8407986E-06  0.2494385E+04  0.7818609E-02  0.8404989E-01
       -2   -1    0    0    0  501  0.00000000000E+00  0.00000000000E+00  0.97536248373E+03  0.97536248373E+03  0.25500000920E-02 0. -1.
        2   -1    0    0  501    0  0.00000000000E+00  0.00000000000E+00 -0.15947800102E+04  0.15947800102E+04  0.25500000920E-02 0.  1.
    10030    2    1    2    0    0  0.00000000000E+00  0.00000000000E+00 -0.61941752651E+03  0.25701424940E+04  0.24943845668E+04 0.  0.
        5    1    3    3  502    0 -0.88365991403E+03 -0.11335554128E+01 -0.12165587388E+04  0.15036267435E+04  0.46999998093E+01 0.  1.
       -5    1    3    3    0  502  0.88365991403E+03  0.11335554128E+01  0.59714121233E+03  0.10665157505E+04  0.46999998093E+01 0. -1.
</event>
<event>
 5   0  0.8579923E-06  0.2487332E+04  0.7818609E-02  0.8407512E-01
        2   -1    0    0  501    0  0.00000000000E+00  0.00000000000E+00  0.15055960036E+04  0.15055960036E+04  0.25500000920E-02 0.  1.
       -2   -1    0    0    0  501  0.00000000000E+00  0.00000000000E+00 -0.10273044127E+04  0.10273044127E+04  0.25500000920E-02 0. -1.
    10030    2    1    2    0    0  0.00000000000E+00  0.00000000000E+00  0.47829159094E+03  0.25329004163E+04  0.24873322401E+04 0.  0.
        1    1    3    3  502    0  0.30480552036E+03 -0.12562975082E+03 -0.98199629931E+03  0.10358600154E+04  0.50400001928E-02 0. -1.
       -1    1    3    3    0  502 -0.30480552036E+03  0.12562975082E+03  0.14602878903E+04  0.14970404009E+04  0.50400001928E-02 0.  1.
</event>
<event>
 5   0  0.3481387E-06  0.2472885E+04  0.7818609E-02  0.8412709E-01
       -1   -1    0    0    0  501  0.00000000000E+00  0.00000000000E+00  0.96024042065E+03  0.96024042066E+03  0.50400001928E-02 0.  1.
        1   -1    0    0  501    0  0.00000000000E+00  0.00000000000E+00 -0.15920913134E+04  0.15920913134E+04  0.50400001928E-02 0. -1.
    10030    2    1    2    0    0  0.00000000000E+00  0.00000000000E+00 -0.63185089275E+03  0.25523317341E+04  0.24728853047E+04 0.  0.
        4    1    3    3  502    0  0.84233624470E+03  0.43777872999E+03  0.50174343503E+03  0.10737451528E+04  0.12699999809E+01 0.  1.
       -4    1    3    3    0  502 -0.84233624470E+03 -0.43777872999E+03 -0.11335943278E+04  0.14785865813E+04  0.12699999809E+01 0. -1.
</event>
<event>
 5   0  0.3484857E-06  0.2506951E+04  0.7818609E-02  0.8400513E-01
       -1   -1    0    0    0  501  0.00000000000E+00  0.00000000000E+00  0.11106151570E+04  0.11106151570E+04  0.50400001928E-02 0.  1.
        1   -1    0    0  501    0  0.00000000000E+00  0.00000000000E+00 -0.14147127068E+04  0.14147127068E+04  0.50400001928E-02 0. -1.
    10030    2    1    2    0    0  0.00000000000E+00  0.00000000000E+00 -0.30409754979E+03  0.25253278639E+04  0.25069514355E+04 0.  0.
        3    1    3    3  502    0 -0.42941826066E+03  0.81732793793E+03  0.70197260579E+03  0.11598234996E+04  0.10100000352E+00 0.  1.
       -3    1    3    3    0  502  0.42941826066E+03 -0.81732793793E+03 -0.10060701556E+04  0.13655043643E+04  0.10100000352E+00 0. -1.
</event>
<event>
 5   0  0.8407986E-06  0.2457381E+04  0.7818609E-02  0.8418328E-01
        2   -1    0    0  501    0  0.00000000000E+00  0.00000000000E+00  0.15866636799E+04  0.15866636799E+04  0.25500000920E-02 0. -1.
       -2   -1    0    0    0  501  0.00000000000E+00  0.00000000000E+00 -0.95148121751E+03  0.95148121751E+03  0.25500000920E-02 0.  1.
    10030    2    1    2    0    0  0.00000000000E+00  0.00000000000E+00  0.63518246243E+03  0.25381448975E+04  0.24573812809E+04 0.  0.
        5    1    3    3  502    0  0.39784831791E+03  0.11261800611E+04  0.19857432040E+02  0.11945631928E+04  0.46999998093E+01 0.  1.
       -5    1    3    3    0  502 -0.39784831791E+03 -0.11261800611E+04  0.61532503039E+03  0.13435817046E+04  0.46999998093E+01 0. -1.
</event>
<event>
 5   0  0.3484857E-06  0.2499551E+04  0.7818609E-02  0.8403145E-01
       -1   -1    0    0    0  501  0.00000000000E+00  0.00000000000E+00  0.58574421984E+03  0.58574421986E+03  0.50400001928E-02 0.  1.
        1   -1    0    0  501    0  0.00000000000E+00  0.00000000000E+00 -0.26665894196E+04  0.26665894196E+04  0.50400001928E-02 0. -1.
    10030    2    1    2    0    0  0.00000000000E+00  0.00000000000E+00 -0.20808451997E+04  0.32523336394E+04  0.24995514311E+04 0.  0.
        3    1    3    3  502    0  0.75802955590E+03  0.20909458638E+03 -0.23043707992E+04  0.24348417082E+04  0.10100000352E+00 0. -1.
       -3    1    3    3    0  502 -0.75802955590E+03 -0.20909458638E+03  0.22352559952E+03  0.81749193116E+03  0.10100000352E+00 0.  1.
</event>
<event>
 5   0  0.3484857E-06  0.2502237E+04  0.7818609E-02  0.8402189E-01
       -1   -1    0    0    0  501  0.00000000000E+00  0.00000000000E+00  0.12553492498E+04  0.12553492498E+04  0.50400001928E-02 0.  1.
        1   -1    0    0  501    0  0.00000000000E+00  0.00000000000E+00 -0.12469019795E+04  0.12469019795E+04  0.50400001928E-02 0. -1.
    10030    2    1    2    0    0  0.00000000000E+00  0.00000000000E+00  0.84472702467E+01  0.25022512293E+04  0.25022369708E+04 0.  0.
        3    1    3    3  502    0 -0.21824585531E+03  0.12218783701E+04  0.16132147371E+03  0.12516559562E+04  0.10100000352E+00 0. -1.
       -3    1    3    3    0  502  0.21824585531E+03 -0.12218783701E+04 -0.15287420346E+03  0.12505952731E+04  0.10100000352E+00 0.  1.
</event>
<event>
 5   0  0.8948286E-06  0.2508057E+04  0.7818609E-02  0.8400121E-01
       -2   -1    0    0    0  501  0.00000000000E+00  0.00000000000E+00  0.10270002540E+04  0.10270002540E+04  0.25500000920E-02 0.  1.
        2   -1    0    0  501    0  0.00000000000E+00  0.00000000000E+00 -0.15312432383E+04  0.15312432383E+04  0.25500000920E-02 0. -1.
    10030    2    1    2    0    0  0.00000000000E+00  0.00000000000E+00 -0.50424298432E+03  0.25582434923E+04  0.25080567734E+04 0.  0.
        4    1    3    3  502    0 -0.48627436653E+02 -0.11346649462E+04 -0.79451033534E+03  0.13860293841E+04  0.12699999809E+01 0. -1.
       -4    1    3    3    0  502  0.48627436653E+02  0.11346649462E+04  0.29026735103E+03  0.11722141083E+04  0.12699999809E+01 0.  1.
</event>
<event>
 5   0  0.8056723E-06  0.2500601E+04  0.7818609E-02  0.8402771E-01
       -2   -1    0    0    0  501  0.00000000000E+00  0.00000000000E+00  0.11567712166E+04  0.11567712166E+04  0.25500000920E-02 0.  1.
        2   -1    0    0  501    0  0.00000000000E+00  0.00000000000E+00 -0.13513923999E+04  0.13513923999E+04  0.25500000920E-02 0. -1.
    10030    2    1    2    0    0  0.00000000000E+00  0.00000000000E+00 -0.19462118332E+03  0.25081636165E+04  0.25006013921E+04 0.  0.
        2    1    3    3  502    0  0.78402883161E+03 -0.40103951235E+03 -0.98752939010E+03  0.13231584167E+04  0.25500000920E-02 0. -1.
       -2    1    3    3    0  502 -0.78402883161E+03  0.40103951235E+03  0.79290820677E+03  0.11850051998E+04  0.25500000920E-02 0.  1.
</event>
<event>
 5   0  0.3522870E-06  0.2504488E+04  0.7818609E-02  0.8401388E-01
       -1   -1    0    0    0  501  0.00000000000E+00  0.00000000000E+00  0.88930482123E+03  0.88930482125E+03  0.50400001928E-02 0.  1.
        1   -1    0    0  501    0  0.00000000000E+00  0.00000000000E+00 -0.17633041059E+04  0.17633041059E+04  0.50400001928E-02 0. -1.
    10030    2    1    2    0    0  0.00000000000E+00  0.00000000000E+00 -0.87399928465E+03  0.26526089271E+04  0.25044878460E+04 0.  0.
        2    1    3    3  502    0  0.25441041622E+03  0.12249791444E+04 -0.38079242241E+03  0.13077849338E+04  0.25500000920E-02 0.  1.
       -2    1    3    3    0  502 -0.25441041622E+03 -0.12249791444E+04 -0.49320686224E+03  0.13448239933E+04  0.25500000920E-02 0. -1.
</event>
<event>
 5   0  0.8056723E-06  0.2455115E+04  0.7818609E-02  0.8419153E-01
       -2   -1    0    0    0  501  0.00000000000E+00  0.00000000000E+00  0.87004854266E+03  0.87004854267E+03  0.25500000920E-02 0. -1.
        2   -1    0    0  501    0  0.00000000000E+00  0.00000000000E+00 -0.17319699222E+04  0.17319699222E+04  0.25500000920E-02 0.  1.
    10030    2    1    2    0    0  0.00000000000E+00  0.00000000000E+00 -0.86192137949E+03  0.26020184648E+04  0.24551153999E+04 0.  0.
        2    1    3    3  502    0 -0.10217565619E+04  0.47442055868E+03  0.85905088924E+02  0.11297968944E+04  0.25500000920E-02 0. -1.
       -2    1    3    3    0  502  0.10217565619E+04 -0.47442055868E+03 -0.94782646842E+03  0.14722215704E+04  0.25500000920E-02 0.  1.
</event>
<event>
 5   0  0.3522870E-06  0.2507418E+04  0.7818609E-02  0.8400347E-01
       -1   -1    0    0    0  501  0.00000000000E+00  0.00000000000E+00  0.99094918747E+03  0.99094918748E+03  0.50400001928E-02 0.  1.
        1   -1    0    0  501    0  0.00000000000E+00  0.00000000000E+00 -0.15861425787E+04  0.15861425787E+04  0.50400001928E-02 0. -1.
    10030    2    1    2    0    0  0.00000000000E+00  0.00000000000E+00 -0.59519339122E+03  0.25770917662E+04  0.25074183533E+04 0.  0.
        2    1    3    3  502    0  0.29334642453E+03  0.75111881304E+02  0.95279923912E+03  0.99976012601E+03  0.25500000920E-02 0.  1.
       -2    1    3    3    0  502 -0.29334642453E+03 -0.75111881304E+02 -0.15479926303E+04  0.15773316402E+04  0.25500000920E-02 0. -1.
</event>
<event>
 5   0  0.2901250E-06  0.2519123E+04  0.7818609E-02  0.8396204E-01
       -3   -1    0    0    0  501  0.00000000000E+00  0.00000000000E+00  0.10122991256E+04  0.10122991306E+04  0.10100000352E+00 0.  1.
        3   -1    0    0  501    0  0.00000000000E+00  0.00000000000E+00 -0.15672195484E+04  0.15672195516E+04  0.10100000352E+00 0. -1.
    10030    2    1    2    0    0  0.00000000000E+00  0.00000000000E+00 -0.55492042281E+03  0.25795186822E+04  0.25191228546E+04 0.  0.
        3    1    3    3  502    0  0.80984595378E+03  0.28801623137E+03 -0.12202354267E+04  0.14925743952E+04  0.10100000352E+00 0. -1.
       -3    1    3    3    0  502 -0.80984595378E+03 -0.28801623137E+03  0.66531500394E+03  0.10869442870E+04  0.10100000352E+00 0.  1.
</event>
<event>
 5   0  0.3424193E-06  0.2511038E+04  0.7818609E-02  0.8399064E-01
       -1   -1    0    0    0  501  0.00000000000E+00  0.00000000000E+00  0.13749584241E+04  0.13749584242E+04  0.50400001928E-02 0.  1.
        1   -1    0    0  501    0  0.00000000000E+00  0.00000000000E+00 -0.11464549347E+04  0.11464549347E+04  0.50400001928E-02 0. -1.
    10030    2    1    2    0    0  0.00000000000E+00  0.00000000000E+00  0.22850348948E+03  0.25214133588E+04  0.25110379291E+04 0.  0.
        1    1    3    3  502    0  0.71972363773E+03 -0.19926816853E+03  0.11276880066E+04  0.13525495030E+04  0.50400001928E-02 0.  1.
       -1    1    3    3    0  502 -0.71972363773E+03  0.19926816853E+03 -0.89918451712E+03  0.11688638559E+04  0.50400001928E-02 0. -1.
</event>
<event>
 5   0  0.8056723E-06  0.2391840E+04  0.7818609E-02  0.8442565E-01
        2   -1    0    0  501    0  0.00000000000E+00  0.00000000000E+00  0.14548781454E+04  0.14548781454E+04  0.25500000920E-02 0. -1.
       -2   -1    0    0    0  501  0.00000000000E+00  0.00000000000E+00 -0.98305447059E+03  0.98305447059E+03  0.25500000920E-02 0.  1.
    10030    2    1    2    0    0  0.00000000000E+00  0.00000000000E+00  0.47182367478E+03  0.24379326160E+04  0.23918398483E+04 0.  0.
        2    1    3    3  502    0  0.17881280817E+03  0.99223498229E+03 -0.41969421691E+03  0.10920840243E+04  0.25500000920E-02 0.  1.
       -2    1    3    3    0  502 -0.17881280817E+03 -0.99223498229E+03  0.89151789168E+03  0.13458485916E+04  0.25500000920E-02 0. -1.
</event>
<event>
 5   0  0.8948286E-06  0.2497991E+04  0.7818609E-02  0.8403702E-01
        2   -1    0    0  501    0  0.00000000000E+00  0.00000000000E+00  0.14434818329E+04  0.14434818329E+04  0.25500000920E-02 0. -1.
       -2   -1    0    0    0  501  0.00000000000E+00  0.00000000000E+00 -0.10807130824E+04  0.10807130824E+04  0.25500000920E-02 0.  1.
    10030    2    1    2    0    0  0.00000000000E+00  0.00000000000E+00  0.36276875048E+03  0.25241949153E+04  0.24979909536E+04 0.  0.
        4    1    3    3  502    0 -0.42205665359E+03 -0.94884129314E+03 -0.51983779305E+03  0.11613201808E+04  0.12699999809E+01 0.  1.
       -4    1    3    3    0  502  0.42205665359E+03  0.94884129314E+03  0.88260654353E+03  0.13628747345E+04  0.12699999809E+01 0. -1.
</event>
<event>
 5   0  0.8579923E-06  0.2495087E+04  0.7818609E-02  0.8404738E-01
       -2   -1    0    0    0  501  0.00000000000E+00  0.00000000000E+00  0.75671360617E+03  0.75671360617E+03  0.25500000920E-02 0.  1.
        2   -1    0    0  501    0  0.00000000000E+00  0.00000000000E+00 -0.20567427829E+04  0.20567427829E+04  0.25500000920E-02 0. -1.
    10030    2    1    2    0    0  0.00000000000E+00  0.00000000000E+00 -0.13000291767E+04  0.28134563891E+04  0.24950873718E+04 0.  0.
        1    1    3    3  502    0 -0.62352349460E+03 -0.10721211799E+04 -0.80188444420E+03  0.14769035292E+04  0.50400001928E-02 0.  1.
       -1    1    3    3    0  502  0.62352349460E+03  0.10721211799E+04 -0.49814473254E+03  0.13365528599E+04  0.50400001928E-02 0. -1.
</event>
<event>
 5   0  0.8579923E-06  0.2495511E+04  0.7818609E-02  0.8404587E-01
       -2   -1    0    0    0  501  0.00000000000E+00  0.00000000000E+00  0.53325328042E+03  0.53325328042E+03  0.25500000920E-02 0.  1.
        2   -1    0    0  501    0  0.00000000000E+00  0.00000000000E+00 -0.29196131342E+04  0.29196131342E+04  0.25500000920E-02 0. -1.
    10030    2    1    2    0    0  0.00000000000E+00  0.00000000000E+00 -0.23863598538E+04  0.34528664147E+04  0.24955105942E+04 0.  0.
        1    1    3    3  502    0 -0.96772925256E+03 -0.66630860550E+03 -0.17743482303E+04  0.21280927391E+04  0.50400001928E-02 0. -1.
       -1    1    3    3    0  502  0.96772925256E+03  0.66630860550E+03 -0.61201162356E+03  0.13247736755E+04  0.50400001928E-02 0.  1.
</event>
<event>
 5   0  0.3522870E-06  0.2449685E+04  0.7818609E-02  0.8421133E-01
       -1   -1    0    0    0  501  0.00000000000E+00  0.00000000000E+00  0.98443546728E+03  0.98443546729E+03  0.50400001928E-02 0.  1.
        1   -1    0    0  501    0  0.00000000000E+00  0.00000000000E+00 -0.15239591559E+04  0.15239591560E+04  0.50400001928E-02 0. -1.
    10030    2    1    2    0    0  0.00000000000E+00  0.00000000000E+00 -0.53952368867E+03  0.25083946232E+04  0.24496852400E+04 0.  0.
        2    1    3    3  502    0  0.50163533782E+03  0.67913541672E+03 -0.11783703644E+04  0.14496274149E+04  0.25500000920E-02 0. -1.
       -2    1    3    3    0  502 -0.50163533782E+03 -0.67913541672E+03  0.63884667571E+03  0.10587672083E+04  0.25500000920E-02 0.  1.
</event>
<event>
 5   0  0.2901250E-06  0.2478593E+04  0.7818609E-02  0.8410652E-01
        4   -1    0    0  501    0  0.00000000000E+00  0.00000000000E+00  0.14406425453E+04  0.14406431051E+04  0.12699999809E+01 0. -1.
       -4   -1    0    0    0  501  0.00000000000E+00  0.00000000000E+00 -0.10660898679E+04  0.10660906244E+04  0.12699999809E+01 0.  1.
    10030    2    1    2    0    0  0.00000000000E+00  0.00000000000E+00  0.37455267737E+03  0.25067337295E+04  0.24785932063E+04 0.  0.
        1    1    3    3  502    0 -0.49655989026E+03 -0.10566482175E+04 -0.23310970555E+03  0.11905533650E+04  0.50400001928E-02 0.  1.
       -1    1    3    3    0  502  0.49655989026E+03  0.10566482175E+04  0.60766238293E+03  0.13161803645E+04  0.50400001928E-02 0. -1.
</event>
<event>
 5   0  0.8579923E-06  0.2494786E+04  0.7818609E-02  0.8404845E-01
        2   -1    0    0  501    0  0.00000000000E+00  0.00000000000E+00  0.12822118224E+04  0.12822118225E+04  0.25500000920E-02 0. -1.
       -2   -1    0    0    0  501  0.00000000000E+00  0.00000000000E+00 -0.12135200925E+04  0.12135200925E+04  0.25500000920E-02 0.  1.
    10030    2    1    2    0    0  0.00000000000E+00  0.00000000000E+00  0.68691729903E+02  0.24957319150E+04  0.24947864113E+04 0.  0.
        1    1    3    3  502    0 -0.40158090087E+02 -0.45859508565E+03  0.11941245762E+04  0.12797873372E+04  0.50400001928E-02 0. -1.
       -1    1    3    3    0  502  0.40158090087E+02  0.45859508565E+03 -0.11254328463E+04  0.12159445778E+04  0.50400001928E-02 0.  1.
</event>
<event>
 5   0  0.8407986E-06  0.2497230E+04  0.7818609E-02  0.8403973E-01
       -2   -1    0    0    0  501  0.00000000000E+00  0.00000000000E+00  0.11683155171E+04  0.11683155171E+04  0.25500000920E-02 0.  1.
        2   -1    0    0  501    0  0.00000000000E+00  0.00000000000E+00 -0.13344331572E+04  0.13344331572E+04  0.25500000920E-02 0. -1.
    10030    2    1    2    0    0  0.00000000000E+00  0.00000000000E+00 -0.16611764005E+03  0.25027486743E+04  0.24972296363E+04 0.  0.
        5    1    3    3  502    0  0.26210531636E+03 -0.60518144931E+03 -0.11456251138E+04  0.13219011970E+04  0.46999998093E+01 0. -1.
       -5    1    3    3    0  502 -0.26210531636E+03  0.60518144931E+03  0.97950747371E+03  0.11808474772E+04  0.46999998093E+01 0.  1.
</event>
<event>
 5   0  0.8948286E-06  0.2499459E+04  0.7818609E-02  0.8403178E-01
       -2   -1    0    0    0  501  0.00000000000E+00  0.00000000000E+00  0.10062444279E+04  0.10062444279E+04  0.25500000920E-02 0. -1.
        2   -1    0    0  501    0  0.00000000000E+00  0.00000000000E+00 -0.15521319218E+04  0.15521319218E+04  0.25500000920E-02 0.  1.
    10030    2    1    2    0    0  0.00000000000E+00  0.00000000000E+00 -0.54588749390E+03  0.25583763496E+04  0.24994592196E+04 0.  0.
        4    1    3    3  502    0  0.80753288975E+03  0.41018188213E+03  0.60843666365E+03  0.10911257173E+04  0.12699999809E+01 0. -1.
       -4    1    3    3    0  502 -0.80753288975E+03 -0.41018188213E+03 -0.11543241575E+04  0.14672506323E+04  0.12699999809E+01 0.  1.
</event>
<event>
 5   0  0.3424193E-06  0.2457748E+04  0.7818609E-02  0.8418194E-01
       -1   -1    0    0    0  501  0.00000000000E+00  0.00000000000E+00  0.11119460441E+04  0.11119460441E+04  0.50400001928E-02 0.  1.
        1   -1    0    0  501    0  0.00000000000E+00  0.00000000000E+00 -0.13580981464E+04  0.13580981464E+04  0.50400001928E-02 0. -1.
    10030    2    1    2    0    0  0.00000000000E+00  0.00000000000E+00 -0.24615210230E+03  0.24700441905E+04  0.24577484504E+04 0.  0.
        1    1    3    3  502    0 -0.93839242517E+03 -0.75072494660E+03 -0.38119469566E+03  0.12607448929E+04  0.50400001928E-02 0. -1.
       -1    1    3    3    0  502  0.93839242517E+03  0.75072494660E+03  0.13504259336E+03  0.12092992976E+04  0.50400001928E-02 0.  1.
</event>
<event>
 5   0  0.8354653E-06  0.2503393E+04  0.7818609E-02  0.8401778E-01
        2   -1    0    0  501    0  0.00000000000E+00  0.00000000000E+00  0.17756665050E+04  0.17756665050E+04  0.25500000920E-02 0.  1.
       -2   -1    0    0    0  501  0.00000000000E+00  0.00000000000E+00 -0.88234160539E+03  0.88234160539E+03  0.25500000920E-02 0. -1.
    10030    2    1    2    0    0  0.00000000000E+00  0.00000000000E+00  0.89332489961E+03  0.26580081104E+04  0.25033932449E+04 0.  0.
        3    1    3    3  502    0 -0.55973384908E+03 -0.75847529389E+03 -0.42770214807E+03  0.10351405175E+04  0.10100000352E+00 0. -1.
       -3    1    3    3    0  502  0.55973384908E+03  0.75847529389E+03  0.13210270477E+04  0.16228675929E+04  0.10100000352E+00 0.  1.
</event>
<event>
 5   0  0.8579923E-06  0.2486226E+04  0.7818609E-02  0.8407909E-01
        2   -1    0    0  501    0  0.00000000000E+00  0.00000000000E+00  0.14595122402E+04  0.14595122402E+04  0.25500000920E-02 0. -1.
       -2   -1    0    0    0  501  0.00000000000E+00  0.00000000000E+00 -0.10587989953E+04  0.10587989953E+04  0.25500000920E-02 0.  1.
    10030    2    1    2    0    0  0.00000000000E+00  0.00000000000E+00  0.40071324487E+03  0.25183112355E+04  0.24862261309E+04 0.  0.
        1    1    3    3  502    0 -0.27718800331E+03  0.82469401136E+03 -0.69900771906E+03  0.11160489205E+04  0.50400001928E-02 0.  1.
       -1    1    3    3    0  502  0.27718800331E+03 -0.82469401136E+03  0.10997209639E+04  0.14022623150E+04  0.50400001928E-02 0. -1.
</event>
<event>
 5   0  0.3481387E-06  0.2504710E+04  0.7818609E-02  0.8401309E-01
        1   -1    0    0  501    0  0.00000000000E+00  0.00000000000E+00  0.15252144402E+04  0.15252144402E+04  0.50400001928E-02 0. -1.
       -1   -1    0    0    0  501  0.00000000000E+00  0.00000000000E+00 -0.10283101909E+04  0.10283101909E+04  0.50400001928E-02 0.  1.
    10030    2    1    2    0    0  0.00000000000E+00  0.00000000000E+00  0.49690424932E+03  0.25535246311E+04  0.25047104042E+04 0.  0.
        4    1    3    3  502    0 -0.11244908511E+04 -0.37064627483E+03 -0.16758632775E+03  0.11958031298E+04  0.12699999809E+01 0. -1.
       -4    1    3    3    0  502  0.11244908511E+04  0.37064627483E+03  0.66449057707E+03  0.13577215013E+04  0.12699999809E+01 0.  1.
</event>
<event>
 5   0  0.8354653E-06  0.2492042E+04  0.7818609E-02  0.8405826E-01
        2   -1    0    0  501    0  0.00000000000E+00  0.00000000000E+00  0.10210827614E+04  0.10210827614E+04  0.25500000920E-02 0. -1.
       -2   -1    0    0    0  501  0.00000000000E+00  0.00000000000E+00 -0.15205117088E+04  0.15205117088E+04  0.25500000920E-02 0.  1.
    10030    2    1    2    0    0  0.00000000000E+00  0.00000000000E+00 -0.49942894738E+03  0.25415944702E+04  0.24920419695E+04 0.  0.
        3    1    3    3  502    0 -0.63040431232E+03  0.84646985286E+02  0.84303506919E+03  0.10560695276E+04  0.10100000352E+00 0. -1.
       -3    1    3    3    0  502  0.63040431232E+03 -0.84646985286E+02 -0.13424640166E+04  0.14855249426E+04  0.10100000352E+00 0.  1.
</event>
<event>
 5   0  0.8579923E-06  0.2504879E+04  0.7818609E-02  0.8401249E-01
       -2   -1    0    0    0  501  0.00000000000E+00  0.00000000000E+00  0.12191381177E+04  0.12191381177E+04  0.25500000920E-02 0. -1.
        2   -1    0    0  501    0  0.00000000000E+00  0.00000000000E+00 -0.12866506126E+04  0.12866506126E+04  0.25500000920E-02 0.  1.
    10030    2    1    2    0    0  0.00000000000E+00  0.00000000000E+00 -0.67512494847E+02  0.25057887303E+04  0.25048790837E+04 0.  0.
        1    1    3    3  502    0 -0.12076069802E+04 -0.38184869044E+02 -0.36377315929E+03  0.12617858829E+04  0.50400001928E-02 0.  1.
       -1    1    3    3    0  502  0.12076069802E+04  0.38184869044E+02  0.29626066444E+03  0.12440028474E+04  0.50400001928E-02 0. -1.
</event>
<event>
 5   0  0.3522870E-06  0.2496509E+04  0.7818609E-02  0.8404230E-01
        1   -1    0    0  501    0  0.00000000000E+00  0.00000000000E+00  0.12487039222E+04  0.12487039222E+04  0.50400001928E-02 0. -1.
       -1   -1    0    0    0  501  0.00000000000E+00  0.00000000000E+00 -0.12478048378E+04  0.12478048378E+04  0.50400001928E-02 0.  1.
    10030    2    1    2    0    0  0.00000000000E+00  0.00000000000E+00  0.89908444811E+00  0.24965087600E+04  0.24965085981E+04 0.  0.
        2    1    3    3  502    0  0.53178939786E+03  0.96558527757E+03  0.58609785617E+03  0.12484652934E+04  0.25500000920E-02 0. -1.
       -2    1    3    3    0  502 -0.53178939786E+03 -0.96558527757E+03 -0.58519877172E+03  0.12480434665E+04  0.25500000920E-02 0.  1.
</event>
<event>
 5   0  0.8407986E-06  0.2496814E+04  0.7818609E-02  0.8404121E-01
        2   -1    0    0  501    0  0.00000000000E+00  0.00000000000E+00  0.65624969891E+03  0.65624969892E+03  0.25500000920E-02 0.  1.
       -2   -1    0    0    0  501  0.00000000000E+00  0.00000000000E+00 -0.23748896314E+04  0.23748896314E+04  0.25500000920E-02 0. -1.
    10030    2    1    2    0    0  0.00000000000E+00  0.00000000000E+00 -0.17186399325E+04  0.30311393303E+04  0.24968144549E+04 0.  0.
        5    1    3    3  502    0  0.71411832559E+03  0.10647059565E+03  0.37705547496E+03  0.81455134392E+03  0.46999998093E+01 0.  1.
       -5    1    3    3    0  502 -0.71411832559E+03 -0.10647059565E+03 -0.20956954075E+04  0.22165879864E+04  0.46999998093E+01 0. -1.
</event>
<event>
 5   0  0.3424193E-06  0.2507388E+04  0.7818609E-02  0.8400358E-01
        1   -1    0    0  501    0  0.00000000000E+00  0.00000000000E+00  0.12999888862E+04  0.12999888862E+04  0.50400001928E-02 0.  1.
       -1   -1    0    0    0  501  0.00000000000E+00  0.00000000000E+00 -0.12090480998E+04  0.12090480998E+04  0.50400001928E-02 0. -1.
    10030    2    1    2    0    0  0.00000000000E+00  0.00000000000E+00  0.90940786364E+02  0.25090369860E+04  0.25073883565E+04 0.  0.
        1    1    3    3  502    0 -0.83263141832E+03 -0.14106864004E+02 -0.89230907804E+03  0.12205283992E+04  0.50400001928E-02 0. -1.
       -1    1    3    3    0  502  0.83263141832E+03  0.14106864004E+02  0.98324986440E+03  0.12885085868E+04  0.50400001928E-02 0.  1.
</event>
<event>
 5   0  0.8579923E-06  0.2479778E+04  0.7818609E-02  0.8410225E-01
       -2   -1    0    0    0  501  0.00000000000E+00  0.00000000000E+00  0.69841497476E+03  0.69841497477E+03  0.25500000920E-02 0.  1.
        2   -1    0    0  501    0  0.00000000000E+00  0.00000000000E+00 -0.22011615006E+04  0.22011615006E+04  0.25500000920E-02 0. -1.
    10030    2    1    2    0    0  0.00000000000E+00  0.00000000000E+00 -0.15027465259E+04  0.28995764754E+04  0.24797775335E+04 0.  0.
        1    1    3    3  502    0 -0.12216181185E+04  0.50372272618E+02 -0.99224667572E+03  0.15746242913E+04  0.50400001928E-02 0. -1.
       -1    1    3    3    0  502  0.12216181185E+04 -0.50372272618E+02 -0.51049985016E+03  0.13249521841E+04  0.50400001928E-02 0.  1.
</event>
<event>
 5   0  0.8056723E-06  0.2503660E+04  0.7818609E-02  0.8401683E-01
        2   -1    0    0  501    0  0.00000000000E+00  0.00000000000E+00  0.21798155182E+04  0.21798155182E+04  0.25500000920E-02 0. -1.
       -2   -1    0    0    0  501  0.00000000000E+00  0.00000000000E+00 -0.71890388093E+03  0.71890388094E+03  0.25500000920E-02 0.  1.
    10030    2    1    2    0    0  0.00000000000E+00  0.00000000000E+00  0.14609116372E+04  0.28987193991E+04  0.25036595901E+04 0.  0.
        2    1    3    3  502    0 -0.29838845944E+03  0.88528696768E+03  0.16951892773E+04  0.19355710717E+04  0.25500000920E-02 0. -1.
       -2    1    3    3    0  502  0.29838845944E+03 -0.88528696768E+03 -0.23427764007E+03  0.96314832737E+03  0.25500000920E-02 0.  1.
</event>
<event>
 5   0  0.3642184E-06  0.2504937E+04  0.7818609E-02  0.8401229E-01
        1   -1    0    0  501    0  0.00000000000E+00  0.00000000000E+00  0.20054616989E+04  0.20054616989E+04  0.50400001928E-02 0. -1.
       -1   -1    0    0    0  501  0.00000000000E+00  0.00000000000E+00 -0.78220271386E+03  0.78220271388E+03  0.50400001928E-02 0.  1.
    10030    2    1    2    0    0  0.00000000000E+00  0.00000000000E+00  0.12232589850E+04  0.27876644128E+04  0.25049371916E+04 0.  0.
        5    1    3    3  502    0 -0.69784985867E+03  0.57003398124E+03 -0.35645201543E+03  0.96902698328E+03  0.46999998093E+01 0.  1.
       -5    1    3    3    0  502  0.69784985867E+03 -0.57003398124E+03  0.15797110005E+04  0.18186374295E+04  0.46999998093E+01 0. -1.
</event>
<event>
 5   0  0.3484857E-06  0.2500695E+04  0.7818609E-02  0.8402738E-01
       -1   -1    0    0    0  501  0.00000000000E+00  0.00000000000E+00  0.96581120214E+03  0.96581120215E+03  0.50400001928E-02 0.  1.
        1   -1    0    0  501    0  0.00000000000E+00  0.00000000000E+00 -0.16187106478E+04  0.16187106478E+04  0.50400001928E-02 0. -1.
    10030    2    1    2    0    0  0.00000000000E+00  0.00000000000E+00 -0.65289944563E+03  0.25845218499E+04  0.25006950047E+04 0.  0.
        3    1    3    3  502    0 -0.93399437205E+03 -0.83127679692E+03 -0.32489381700E+03  0.12918678735E+04  0.10100000352E+00 0. -1.
       -3    1    3    3    0  502  0.93399437205E+03  0.83127679692E+03 -0.32800562863E+03  0.12926539764E+04  0.10100000352E+00 0.  1.
</event>
<event>
 5   0  0.8354653E-06  0.2522905E+04  0.7818609E-02  0.8394871E-01
       -2   -1    0    0    0  501  0.00000000000E+00  0.00000000000E+00  0.98583569478E+03  0.98583569479E+03  0.25500000920E-02 0.  1.
        2   -1    0    0  501    0  0.00000000000E+00  0.00000000000E+00 -0.16141247714E+04  0.16141247714E+04  0.25500000920E-02 0. -1.
    10030    2    1    2    0    0  0.00000000000E+00  0.00000000000E+00 -0.62828907666E+03  0.25999604662E+04  0.25229045289E+04 0.  0.
        3    1    3    3  502    0 -0.11534618027E+03 -0.93443472849E+03  0.55101345696E+03  0.10909119319E+04  0.10100000352E+00 0.  1.
       -3    1    3    3    0  502  0.11534618027E+03  0.93443472849E+03 -0.11793025336E+04  0.15090485344E+04  0.10100000352E+00 0. -1.
</event>
<event>
 5   0  0.8407986E-06  0.2496940E+04  0.7818609E-02  0.8404076E-01
       -2   -1    0    0    0  501  0.00000000000E+00  0.00000000000E+00  0.13341639082E+04  0.13341639082E+04  0.25500000920E-02 0. -1.
        2   -1    0    0  501    0  0.00000000000E+00  0.00000000000E+00 -0.11682804281E+04  0.11682804281E+04  0.25500000920E-02 0.  1.
    10030    2    1    2    0    0  0.00000000000E+00  0.00000000000E+00  0.16588348010E+03  0.25024443363E+04  0.24969401930E+04 0.  0.
        5    1    3    3  502    0 -0.69547819718E+03 -0.92017481349E+03 -0.39586015220E+03  0.12194830709E+04  0.46999998093E+01 0.  1.
       -5    1    3    3    0  502  0.69547819718E+03  0.92017481349E+03  0.56174363230E+03  0.12829612654E+04  0.46999998093E+01 0. -1.
</event>
<event>
 5   0  0.3642184E-06  0.2501830E+04  0.7818609E-02  0.8402334E-01
       -1   -1    0    0    0  501  0.00000000000E+00  0.00000000000E+00  0.70943495016E+03  0.70943495018E+03  0.50400001928E-02 0.  1.
        1   -1    0    0  501    0  0.00000000000E+00  0.00000000000E+00 -0.22056823218E+04  0.22056823218E+04  0.50400001928E-02 0. -1.
    10030    2    1    2    0    0  0.00000000000E+00  0.00000000000E+00 -0.14962473716E+04  0.29151172719E+04  0.25018298328E+04 0.  0.
        5    1    3    3  502    0  0.74288522637E+03  0.35591116866E+03  0.34877816066E+03  0.89454989514E+03  0.46999998093E+01 0.  1.
       -5    1    3    3    0  502 -0.74288522637E+03 -0.35591116866E+03 -0.18450255323E+04  0.20205673768E+04  0.46999998093E+01 0. -1.
</event>
<event>
 5   0  0.8579923E-06  0.2462312E+04  0.7818609E-02  0.8416537E-01
       -2   -1    0    0    0  501  0.00000000000E+00  0.00000000000E+00  0.10179782242E+04  0.10179782242E+04  0.25500000920E-02 0.  1.
        2   -1    0    0  501    0  0.00000000000E+00  0.00000000000E+00 -0.14889754245E+04  0.14889754245E+04  0.25500000920E-02 0. -1.
    10030    2    1    2    0    0  0.00000000000E+00  0.00000000000E+00 -0.47099720039E+03  0.25069536487E+04  0.24623115631E+04 0.  0.
        1    1    3    3  502    0  0.61603684276E+03  0.50342416464E+03  0.72111434157E+03  0.10737519149E+04  0.50400001928E-02 0.  1.
       -1    1    3    3    0  502 -0.61603684276E+03 -0.50342416464E+03 -0.11921115420E+04  0.14332017338E+04  0.50400001928E-02 0. -1.
</event>
<event>
 5   0  0.3424193E-06  0.2508450E+04  0.7818609E-02  0.8399981E-01
        1   -1    0    0  501    0  0.00000000000E+00  0.00000000000E+00  0.13075891448E+04  0.13075891449E+04  0.50400001928E-02 0.  1.
       -1   -1    0    0    0  501  0.00000000000E+00  0.00000000000E+00 -0.12030384353E+04  0.12030384353E+04  0.50400001928E-02 0. -1.
    10030    2    1    2    0    0  0.00000000000E+00  0.00000000000E+00  0.10455070959E+03  0.25106275801E+04  0.25084497195E+04 0.  0.
        1    1    3    3  502    0  0.97308606158E+03  0.58816937006E+03  0.58211224825E+03  0.12773779240E+04  0.50400001928E-02 0.  1.
       -1    1    3    3    0  502 -0.97308606158E+03 -0.58816937006E+03 -0.47756153866E+03  0.12332496561E+04  0.50400001928E-02 0. -1.
</event>
<event>
 5   0  0.8354653E-06  0.2502337E+04  0.7818609E-02  0.8402154E-01
       -2   -1    0    0    0  501  0.00000000000E+00  0.00000000000E+00  0.10931808440E+04  0.10931808440E+04  0.25500000920E-02 0. -1.
        2   -1    0    0  501    0  0.00000000000E+00  0.00000000000E+00 -0.14319883820E+04  0.14319883820E+04  0.25500000920E-02 0.  1.
    10030    2    1    2    0    0  0.00000000000E+00  0.00000000000E+00 -0.33880753795E+03  0.25251692260E+04  0.25023367224E+04 0.  0.
        3    1    3    3  502    0  0.13607755974E+03  0.27033622978E+03 -0.13944922996E+04  0.14269574497E+04  0.10100000352E+00 0.  1.
       -3    1    3    3    0  502 -0.13607755974E+03 -0.27033622978E+03  0.10556847617E+04  0.10982117763E+04  0.10100000352E+00 0. -1.
</event>
<event>
 5   0  0.8948286E-06  0.2499480E+04  0.7818609E-02  0.8403171E-01
       -2   -1    0    0    0  501  0.00000000000E+00  0.00000000000E+00  0.56721335601E+03  0.56721335601E+03  0.25500000920E-02 0. -1.
        2   -1    0    0  501    0  0.00000000000E+00  0.00000000000E+00 -0.27535505954E+04  0.27535505954E+04  0.25500000920E-02 0.  1.
    10030    2    1    2    0    0  0.00000000000E+00  0.00000000000E+00 -0.21863372394E+04  0.33207639515E+04  0.24994804854E+04 0.  0.
        4    1    3    3  502    0  0.84701804877E+03 -0.14042895791E+03 -0.22996855142E+04  0.24547331717E+04  0.12699999809E+01 0.  1.
       -4    1    3    3    0  502 -0.84701804877E+03  0.14042895791E+03  0.11334827478E+03  0.86603077974E+03  0.12699999809E+01 0. -1.
</event>
<event>
 5   0  0.8056723E-06  0.2512206E+04  0.7818609E-02  0.8398650E-01
        2   -1    0    0  501    0  0.00000000000E+00  0.00000000000E+00  0.97249409384E+03  0.97249409384E+03  0.25500000920E-02 0.  1.
       -2   -1    0    0    0  501  0.00000000000E+00  0.00000000000E+00 -0.16224205169E+04  0.16224205169E+04  0.25500000920E-02 0. -1.
    10030    2    1    2    0    0  0.00000000000E+00  0.00000000000E+00 -0.64992642309E+03  0.25949146108E+04  0.25122057005E+04 0.  0.
        2    1    3    3  502    0  0.11503020143E+04  0.41030696536E+03 -0.62831180766E+03  0.13734344752E+04  0.25500000920E-02 0. -1.
       -2    1    3    3    0  502 -0.11503020143E+04 -0.41030696536E+03 -0.21614615424E+02  0.12214801356E+04  0.25500000920E-02 0.  1.
</event>
<event>
 5   0  0.8056723E-06  0.2500556E+04  0.7818609E-02  0.8402788E-01
        2   -1    0    0  501    0  0.00000000000E+00  0.00000000000E+00  0.11961330866E+04  0.11961330866E+04  0.25500000920E-02 0. -1.
       -2   -1    0    0    0  501  0.00000000000E+00  0.00000000000E+00 -0.13068737436E+04  0.13068737436E+04  0.25500000920E-02 0.  1.
    10030    2    1    2    0    0  0.00000000000E+00  0.00000000000E+00 -0.11074065703E+03  0.25030068302E+04  0.25005558780E+04 0.  0.
        2    1    3    3  502    0  0.15885026840E+03 -0.66592281453E+03  0.99184262335E+03  0.12051715198E+04  0.25500000920E-02 0. -1.
       -2    1    3    3    0  502 -0.15885026840E+03  0.66592281453E+03 -0.11025832804E+04  0.12978353104E+04  0.25500000920E-02 0.  1.
</event>
<event>
 5   0  0.8579923E-06  0.2514168E+04  0.7818609E-02  0.8397956E-01
       -2   -1    0    0    0  501  0.00000000000E+00  0.00000000000E+00  0.13163308631E+04  0.13163308631E+04  0.25500000920E-02 0.  1.
        2   -1    0    0  501    0  0.00000000000E+00  0.00000000000E+00 -0.12005033806E+04  0.12005033806E+04  0.25500000920E-02 0. -1.
    10030    2    1    2    0    0  0.00000000000E+00  0.00000000000E+00  0.11582748247E+03  0.25168342437E+04  0.25141675768E+04 0.  0.
        1    1    3    3  502    0 -0.84470389432E+01 -0.11431212204E+04  0.58140450552E+03  0.12825087431E+04  0.50400001928E-02 0.  1.
       -1    1    3    3    0  502  0.84470389432E+01  0.11431212204E+04 -0.46557702305E+03  0.12343255006E+04  0.50400001928E-02 0. -1.
</event>
<event>
 5   0  0.3642184E-06  0.2535145E+04  0.7818609E-02  0.8390571E-01
       -1   -1    0    0    0  501  0.00000000000E+00  0.00000000000E+00  0.12861035016E+04  0.12861035017E+04  0.50400001928E-02 0. -1.
        1   -1    0    0  501    0  0.00000000000E+00  0.00000000000E+00 -0.12493086757E+04  0.12493086757E+04  0.50400001928E-02 0.  1.
    10030    2    1    2    0    0  0.00000000000E+00  0.00000000000E+00  0.36794825940E+02  0.25354121774E+04  0.25351451733E+04 0.  0.
        5    1    3    3  502    0 -0.90596402044E+03  0.67768162013E+03  0.59002999356E+03  0.12760018291E+04  0.46999998093E+01 0. -1.
       -5    1    3    3    0  502  0.90596402044E+03 -0.67768162013E+03 -0.55323516762E+03  0.12594103483E+04  0.46999998093E+01 0.  1.
</event>
<event>
 5   0  0.3424193E-06  0.2542608E+04  0.7818609E-02  0.8387962E-01
        1   -1    0    0  501    0  0.00000000000E+00  0.00000000000E+00  0.11033404989E+04  0.11033404989E+04  0.50400001928E-02 0. -1.
       -1   -1    0    0    0  501  0.00000000000E+00  0.00000000000E+00 -0.14648363741E+04  0.14648363741E+04  0.50400001928E-02 0.  1.
    10030    2    1    2    0    0  0.00000000000E+00  0.00000000000E+00 -0.36149587523E+03  0.25681768730E+04  0.25426075559E+04 0.  0.
        1    1    3    3  502    0  0.40051936332E+03 -0.10123121865E+04  0.48237660399E+03  0.11907472072E+04  0.50400001928E-02 0. -1.
       -1    1    3    3    0  502 -0.40051936332E+03  0.10123121865E+04 -0.84387247921E+03  0.13774296659E+04  0.50400001928E-02 0.  1.
</event>
<event>
 5   0  0.8579923E-06  0.2482379E+04  0.7818609E-02  0.8409290E-01
       -2   -1    0    0    0  501  0.00000000000E+00  0.00000000000E+00  0.10514005331E+04  0.10514005331E+04  0.25500000920E-02 0.  1.
        2   -1    0    0  501    0  0.00000000000E+00  0.00000000000E+00 -0.14652371554E+04  0.14652371554E+04  0.25500000920E-02 0. -1.
    10030    2    1    2    0    0  0.00000000000E+00  0.00000000000E+00 -0.41383662230E+03  0.25166376885E+04  0.24823787997E+04 0.  0.
        1    1    3    3  502    0 -0.56093418930E+03 -0.11038558445E+04 -0.29416549560E+03  0.12726657962E+04  0.50400001928E-02 0.  1.
       -1    1    3    3    0  502  0.56093418930E+03  0.11038558445E+04 -0.11967112670E+03  0.12439718922E+04  0.50400001928E-02 0. -1.
</event>
<event>
 5   0  0.3522870E-06  0.2508249E+04  0.7818609E-02  0.8400053E-01
        1   -1    0    0  501    0  0.00000000000E+00  0.00000000000E+00  0.17249851533E+04  0.17249851533E+04  0.50400001928E-02 0. -1.
       -1   -1    0    0    0  501  0.00000000000E+00  0.00000000000E+00 -0.91179255963E+03  0.91179255964E+03  0.50400001928E-02 0.  1.
    10030    2    1    2    0    0  0.00000000000E+00  0.00000000000E+00  0.81319259370E+03  0.26367777130E+04  0.25082492925E+04 0.  0.
        2    1    3    3  502    0  0.25219295068E+03  0.92082564596E+03  0.12614750752E+04  0.15820368264E+04  0.25500000920E-02 0. -1.
       -2    1    3    3    0  502 -0.25219295068E+03 -0.92082564596E+03 -0.44828248151E+03  0.10547408866E+04  0.25500000920E-02 0.  1.
</event>
<event>
 5   0  0.3484857E-06  0.2507395E+04  0.7818609E-02  0.8400356E-01
       -1   -1    0    0    0  501  0.00000000000E+00  0.00000000000E+00  0.55851905398E+03  0.55851905400E+03  0.50400001928E-02 0. -1.
        1   -1    0    0  501    0  0.00000000000E+00  0.00000000000E+00 -0.28141524232E+04  0.28141524232E+04  0.50400001928E-02 0.  1.
    10030    2    1    2    0    0  0.00000000000E+00  0.00000000000E+00 -0.22556333692E+04  0.33726714772E+04  0.25073952614E+04 0.  0.
        3    1    3    3  502    0 -0.34443342906E+03 -0.11785567924E+04 -0.14684385399E+04  0.19141426947E+04  0.10100000352E+00 0.  1.
       -3    1    3    3    0  502  0.34443342906E+03  0.11785567924E+04 -0.78719482925E+03  0.14585287825E+04  0.10100000352E+00 0. -1.
</event>
<event>
 5   0  0.3481387E-06  0.2496051E+04  0.7818609E-02  0.8404394E-01
       -1   -1    0    0    0  501  0.00000000000E+00  0.00000000000E+00  0.11214569578E+04  0.11214569578E+04  0.50400001928E-02 0.  1.
        1   -1    0    0  501    0  0.00000000000E+00  0.00000000000E+00 -0.13888781865E+04  0.13888781865E+04  0.50400001928E-02 0. -1.
    10030    2    1    2    0    0  0.00000000000E+00  0.00000000000E+00 -0.26742122874E+03  0.25103351443E+04  0.24960505651E+04 0.  0.
        4    1    3    3  502    0  0.26661587841E+03  0.35578354056E+02 -0.13593792847E+04  0.13857357246E+04  0.12699999809E+01 0. -1.
       -4    1    3    3    0  502 -0.26661587841E+03 -0.35578354056E+02  0.10919580560E+04  0.11245994197E+04  0.12699999809E+01 0.  1.
</event>
<event>
 5   0  0.8579923E-06  0.2524008E+04  0.7818609E-02  0.8394482E-01
       -2   -1    0    0    0  501  0.00000000000E+00  0.00000000000E+00  0.66963588730E+03  0.66963588731E+03  0.25500000920E-02 0. -1.
        2   -1    0    0  501    0  0.00000000000E+00  0.00000000000E+00 -0.23783882931E+04  0.23783882931E+04  0.25500000920E-02 0.  1.
    10030    2    1    2    0    0  0.00000000000E+00  0.00000000000E+00 -0.17087524058E+04  0.30480241804E+04  0.25240080468E+04 0.  0.
        1    1    3    3  502    0  0.84819169981E+03 -0.32128086978E+03 -0.19140545253E+04  0.21180782050E+04  0.50400001928E-02 0.  1.
       -1    1    3    3    0  502 -0.84819169981E+03  0.32128086978E+03  0.20530211943E+03  0.92994597541E+03  0.50400001928E-02 0. -1.
</event>
<event>
 5   0  0.3522870E-06  0.2505752E+04  0.7818609E-02  0.8400939E-01
       -1   -1    0    0    0  501  0.00000000000E+00  0.00000000000E+00  0.93760326868E+03  0.93760326870E+03  0.50400001928E-02 0.  1.
        1   -1    0    0  501    0  0.00000000000E+00  0.00000000000E+00 -0.16741599210E+04  0.16741599210E+04  0.50400001928E-02 0. -1.
    10030    2    1    2    0    0  0.00000000000E+00  0.00000000000E+00 -0.73655665235E+03  0.26117631897E+04  0.25057516352E+04 0.  0.
        2    1    3    3  502    0  0.77263503820E+03  0.10081805676E+03 -0.13908920728E+04  0.15942741110E+04  0.25500000920E-02 0. -1.
       -2    1    3    3    0  502 -0.77263503820E+03 -0.10081805676E+03  0.65433542048E+03  0.10174890787E+04  0.25500000920E-02 0.  1.
</event>
<event>
 5   0  0.3484857E-06  0.2494773E+04  0.7818609E-02  0.8404850E-01
       -1   -1    0    0    0  501  0.00000000000E+00  0.00000000000E+00  0.11396192697E+04  0.11396192697E+04  0.50400001928E-02 0.  1.
        1   -1    0    0  501    0  0.00000000000E+00  0.00000000000E+00 -0.13653446732E+04  0.13653446732E+04  0.50400001928E-02 0. -1.
    10030    2    1    2    0    0  0.00000000000E+00  0.00000000000E+00 -0.22572540355E+03  0.25049639429E+04  0.24947730153E+04 0.  0.
        3    1    3    3  502    0  0.68215989025E+03 -0.62775430500E+03 -0.95087097415E+03  0.13279959349E+04  0.10100000352E+00 0. -1.
       -3    1    3    3    0  502 -0.68215989025E+03  0.62775430500E+03  0.72514557060E+03  0.11769680081E+04  0.10100000352E+00 0.  1.
</event>
<event>
 5   0  0.3642184E-06  0.2501066E+04  0.7818609E-02  0.8402606E-01
        1   -1    0    0  501    0  0.00000000000E+00  0.00000000000E+00  0.27448822998E+04  0.27448822998E+04  0.50400001928E-02 0. -1.
       -1   -1    0    0    0  501  0.00000000000E+00  0.00000000000E+00 -0.56972684332E+03  0.56972684334E+03  0.50400001928E-02 0.  1.
    10030    2    1    2    0    0  0.00000000000E+00  0.00000000000E+00  0.21751554564E+04  0.33146091431E+04  0.25010662750E+04 0.  0.
        5    1    3    3  502    0  0.78858898981E+03 -0.70982525093E+03  0.21040102889E+03  0.10816723925E+04  0.46999998093E+01 0.  1.
       -5    1    3    3    0  502 -0.78858898981E+03  0.70982525093E+03  0.19647544276E+04  0.22329367506E+04  0.46999998093E+01 0. -1.
</event>
<event>
 5   0  0.8579923E-06  0.2504298E+04  0.7818609E-02  0.8401456E-01
        2   -1    0    0  501    0  0.00000000000E+00  0.00000000000E+00  0.19599257139E+04  0.19599257139E+04  0.25500000920E-02 0. -1.
       -2   -1    0    0    0  501  0.00000000000E+00  0.00000000000E+00 -0.79996744543E+03  0.79996744543E+03  0.25500000920E-02 0.  1.
    10030    2    1    2    0    0  0.00000000000E+00  0.00000000000E+00  0.11599582685E+04  0.27598931593E+04  0.25042977192E+04 0.  0.
        1    1    3    3  502    0 -0.18809252397E+03  0.46705307719E+03  0.18434446076E+04  0.19109697527E+04  0.50400001928E-02 0. -1.
       -1    1    3    3    0  502  0.18809252397E+03 -0.46705307719E+03 -0.68348633913E+03  0.84892340661E+03  0.50400001928E-02 0.  1.
</event>
<event>
 5   0  0.3642184E-06  0.2496955E+04  0.7818609E-02  0.8404071E-01
       -1   -1    0    0    0  501  0.00000000000E+00  0.00000000000E+00  0.20113388863E+04  0.20113388863E+04  0.50400001928E-02 0. -1.
        1   -1    0    0  501    0  0.00000000000E+00  0.00000000000E+00 -0.77495436345E+03  0.77495436346E+03  0.50400001928E-02 0.  1.
    10030    2    1    2    0    0  0.00000000000E+00  0.00000000000E+00  0.12363845229E+04  0.27862932498E+04  0.24969548225E+04 0.  0.
        5    1    3    3  502    0  0.15330084579E+02  0.46225619933E+03 -0.67581942486E+03  0.81894431454E+03  0.46999998093E+01 0.  1.
       -5    1    3    3    0  502 -0.15330084579E+02 -0.46225619933E+03  0.19122039477E+04  0.19673489353E+04  0.46999998093E+01 0. -1.
</event>
<event>
 5   0  0.8056723E-06  0.2499777E+04  0.7818609E-02  0.8403065E-01
       -2   -1    0    0    0  501  0.00000000000E+00  0.00000000000E+00  0.85487801718E+03  0.85487801719E+03  0.25500000920E-02 0. -1.
        2   -1    0    0  501    0  0.00000000000E+00  0.00000000000E+00 -0.18274207099E+04  0.18274207099E+04  0.25500000920E-02 0.  1.
    10030    2    1    2    0    0  0.00000000000E+00  0.00000000000E+00 -0.97254269275E+03  0.26822987271E+04  0.24997774246E+04 0.  0.
        2    1    3    3  502    0 -0.10099926133E+04 -0.32213086445E+03 -0.11967081179E+04  0.15987381563E+04  0.25500000920E-02 0.  1.
       -2    1    3    3    0  502  0.10099926133E+04  0.32213086445E+03  0.22416542519E+03  0.10835605708E+04  0.25500000920E-02 0. -1.
</event>
<event>
 5   0  0.3522870E-06  0.2497139E+04  0.7818609E-02  0.8404006E-01
       -1   -1    0    0    0  501  0.00000000000E+00  0.00000000000E+00  0.96997121779E+03  0.96997121780E+03  0.50400001928E-02 0.  1.
        1   -1    0    0  501    0  0.00000000000E+00  0.00000000000E+00 -0.16071875280E+04  0.16071875280E+04  0.50400001928E-02 0. -1.
    10030    2    1    2    0    0  0.00000000000E+00  0.00000000000E+00 -0.63721631022E+03  0.25771587458E+04  0.24971388778E+04 0.  0.
        2    1    3    3  502    0  0.95239588598E+03  0.76082075216E+03 -0.39727807236E+02  0.12196247125E+04  0.25500000920E-02 0.  1.
       -2    1    3    3    0  502 -0.95239588598E+03 -0.76082075216E+03 -0.59748850298E+03  0.13575340334E+04  0.25500000920E-02 0. -1.
</event>
<event>
 5   0  0.8407986E-06  0.2510237E+04  0.7818609E-02  0.8399348E-01
        2   -1    0    0  501    0  0.00000000000E+00  0.00000000000E+00  0.24517294195E+04  0.24517294195E+04  0.25500000920E-02 0. -1.
       -2   -1    0    0    0  501  0.00000000000E+00  0.00000000000E+00 -0.64253531124E+03  0.64253531125E+03  0.25500000920E-02 0.  1.
    10030    2    1    2    0    0  0.00000000000E+00  0.00000000000E+00  0.18091941083E+04  0.30942647307E+04  0.25102372204E+04 0.  0.
        5    1    3    3  502    0  0.32456426583E+02 -0.66697825539E+03  0.22145754624E+04  0.23130672237E+04  0.46999998093E+01 0. -1.
       -5    1    3    3    0  502 -0.32456426583E+02  0.66697825539E+03 -0.40538135410E+03  0.78119750706E+03  0.46999998093E+01 0.  1.
</event>
<event>
 5   0  0.8948286E-06  0.2518054E+04  0.7818609E-02  0.8396582E-01
        2   -1    0    0  501    0  0.00000000000E+00  0.00000000000E+00  0.84424014020E+03  0.84424014021E+03  0.25500000920E-02 0. -1.
       -2   -1    0    0    0  501  0.00000000000E+00  0.00000000000E+00 -0.18776041648E+04  0.18776041648E+04  0.25500000920E-02 0.  1.
    10030    2    1    2    0    0  0.00000000000E+00  0.00000000000E+00 -0.10333640246E+04  0.27218443050E+04  0.25180538544E+04 0.  0.
        4    1    3    3  502    0  0.81492324209E+03 -0.79641193089E+03  0.62172154258E+02  0.11411568007E+04  0.12699999809E+01 0. -1.
       -4    1    3    3    0  502 -0.81492324209E+03  0.79641193089E+03 -0.10955361789E+04  0.15806875043E+04  0.12699999809E+01 0.  1.
</event>
<event>
 5   0  0.8948286E-06  0.2487565E+04  0.7818609E-02  0.8407429E-01
       -2   -1    0    0    0  501  0.00000000000E+00  0.00000000000E+00  0.56286782045E+03  0.56286782045E+03  0.25500000920E-02 0.  1.
        2   -1    0    0  501    0  0.00000000000E+00  0.00000000000E+00 -0.27484168727E+04  0.27484168727E+04  0.25500000920E-02 0. -1.
    10030    2    1    2    0    0  0.00000000000E+00  0.00000000000E+00 -0.21855490523E+04  0.33112846932E+04  0.24875654081E+04 0.  0.
        4    1    3    3  502    0 -0.72056322733E+03  0.16685478920E+03 -0.24238705913E+04  0.25342064126E+04  0.12699999809E+01 0. -1.
       -4    1    3    3    0  502  0.72056322733E+03 -0.16685478920E+03  0.23832153906E+03  0.77707828058E+03  0.12699999809E+01 0.  1.
</event>
<event>
 5   0  0.3642184E-06  0.2498428E+04  0.7818609E-02  0.8403546E-01
       -1   -1    0    0    0  501  0.00000000000E+00  0.00000000000E+00  0.22215388618E+04  0.22215388618E+04  0.50400001928E-02 0.  1.
        1   -1    0    0  501    0  0.00000000000E+00  0.00000000000E+00 -0.70245703631E+03  0.70245703633E+03  0.50400001928E-02 0. -1.
    10030    2    1    2    0    0  0.00000000000E+00  0.00000000000E+00  0.15190818255E+04  0.29239958982E+04  0.24984279897E+04 0.  0.
        5    1    3    3  502    0  0.61256204108E+02  0.12254323963E+04  0.48488204882E+03  0.13193064738E+04  0.46999998093E+01 0. -1.
       -5    1    3    3    0  502 -0.61256204108E+02 -0.12254323963E+04  0.10341997767E+04  0.16046894244E+04  0.46999998093E+01 0.  1.
</event>
<event>
 5   0  0.2901250E-06  0.2510009E+04  0.7818609E-02  0.8399428E-01
       -3   -1    0    0    0  501  0.00000000000E+00  0.00000000000E+00  0.12655391678E+04  0.12655391718E+04  0.10100000352E+00 0.  1.
        3   -1    0    0  501    0  0.00000000000E+00  0.00000000000E+00 -0.12445574929E+04  0.12445574970E+04  0.10100000352E+00 0. -1.
    10030    2    1    2    0    0  0.00000000000E+00  0.00000000000E+00  0.20981674858E+02  0.25100966688E+04  0.25100089753E+04 0.  0.
        2    1    3    3  502    0  0.90049022572E+03  0.76415190656E+03  0.43503538697E+03  0.12585970645E+04  0.25500000920E-02 0. -1.
       -2    1    3    3    0  502 -0.90049022572E+03 -0.76415190656E+03 -0.41405371212E+03  0.12514996042E+04  0.25500000920E-02 0.  1.
</event>
<event>
 5   0  0.3642184E-06  0.2503223E+04  0.7818609E-02  0.8401838E-01
        1   -1    0    0  501    0  0.00000000000E+00  0.00000000000E+00  0.15936485234E+04  0.15936485234E+04  0.50400001928E-02 0.  1.
       -1   -1    0    0    0  501  0.00000000000E+00  0.00000000000E+00 -0.98298455937E+03  0.98298455938E+03  0.50400001928E-02 0. -1.
    10030    2    1    2    0    0  0.00000000000E+00  0.00000000000E+00  0.61066396401E+03  0.25766330828E+04  0.25032234351E+04 0.  0.
        5    1    3    3  502    0  0.11133827906E+04  0.51891407460E+03  0.55240614214E+03  0.13468733018E+04  0.46999998093E+01 0. -1.
       -5    1    3    3    0  502 -0.11133827906E+04 -0.51891407460E+03  0.58257821871E+02  0.12297597810E+04  0.46999998093E+01 0.  1.
</event>
<event>
 5   0  0.8948286E-06  0.2525967E+04  0.7818609E-02  0.8393792E-01
       -2   -1    0    0    0  501  0.00000000000E+00  0.00000000000E+00  0.89469356435E+03  0.89469356435E+03  0.25500000920E-02 0. -1.
        2   -1    0    0  501    0  0.00000000000E+00  0.00000000000E+00 -0.17828762871E+04  0.17828762871E+04  0.25500000920E-02 0.  1.
    10030    2    1    2    0    0  0.00000000000E+00  0.00000000000E+00 -0.88818272280E+03  0.26775698515E+04  0.25259674900E+04 0.  0.
        4    1    3    3  502    0 -0.11868801595E+03 -0.11700412053E+04  0.44026931774E+02  0.11768701079E+04  0.12699999809E+01 0. -1.
       -4    1    3    3    0  502  0.11868801595E+03  0.11700412053E+04 -0.93220965457E+03  0.15006997436E+04  0.12699999809E+01 0.  1.
</event>
<event>
 5   0  0.8407986E-06  0.2503973E+04  0.7818609E-02  0.8401571E-01
       -2   -1    0    0    0  501  0.00000000000E+00  0.00000000000E+00  0.82833566257E+03  0.82833566258E+03  0.25500000920E-02 0. -1.
        2   -1    0    0  501    0  0.00000000000E+00  0.00000000000E+00 -0.18923128921E+04  0.18923128921E+04  0.25500000920E-02 0.  1.
    10030    2    1    2    0    0  0.00000000000E+00  0.00000000000E+00 -0.10639772295E+04  0.27206485547E+04  0.25039730456E+04 0.  0.
        5    1    3    3  502    0 -0.67976166374E+03  0.71691527108E+03 -0.13675631474E+04  0.16870964636E+04  0.46999998093E+01 0.  1.
       -5    1    3    3    0  502  0.67976166374E+03 -0.71691527108E+03  0.30358591789E+03  0.10335520911E+04  0.46999998093E+01 0. -1.
</event>
<event>
 5   0  0.3484857E-06  0.2502452E+04  0.7818609E-02  0.8402112E-01
       -1   -1    0    0    0  501  0.00000000000E+00  0.00000000000E+00  0.66094227681E+03  0.66094227683E+03  0.50400001928E-02 0.  1.
        1   -1    0    0  501    0  0.00000000000E+00  0.00000000000E+00 -0.23686893825E+04  0.23686893825E+04  0.50400001928E-02 0. -1.
    10030    2    1    2    0    0  0.00000000000E+00  0.00000000000E+00 -0.17077471057E+04  0.30296316593E+04  0.25024523600E+04 0.  0.
        3    1    3    3  502    0  0.86952351105E+03 -0.61160850318E+03 -0.54989765440E+02  0.10644998741E+04  0.10100000352E+00 0. -1.
       -3    1    3    3    0  502 -0.86952351105E+03  0.61160850318E+03 -0.16527573402E+04  0.19651317852E+04  0.10100000352E+00 0.  1.
</event>
<event>
 5   0  0.8948286E-06  0.2511735E+04  0.7818609E-02  0.8398817E-01
       -2   -1    0    0    0  501  0.00000000000E+00  0.00000000000E+00  0.13033303931E+04  0.13033303931E+04  0.25500000920E-02 0.  1.
        2   -1    0    0  501    0  0.00000000000E+00  0.00000000000E+00 -0.12101328409E+04  0.12101328409E+04  0.25500000920E-02 0. -1.
    10030    2    1    2    0    0  0.00000000000E+00  0.00000000000E+00  0.93197552230E+02  0.25134632341E+04  0.25117347880E+04 0.  0.
        4    1    3    3  502    0 -0.29535435874E+03  0.34651401857E+03 -0.11246318446E+04  0.12133031612E+04  0.12699999809E+01 0. -1.
       -4    1    3    3    0  502  0.29535435874E+03 -0.34651401857E+03  0.12178293968E+04  0.13001600728E+04  0.12699999809E+01 0.  1.
</event>
<event>
 5   0  0.8579923E-06  0.2501484E+04  0.7818609E-02  0.8402457E-01
        2   -1    0    0  501    0  0.00000000000E+00  0.00000000000E+00  0.17030580265E+04  0.17030580265E+04  0.25500000920E-02 0. -1.
       -2   -1    0    0    0  501  0.00000000000E+00  0.00000000000E+00 -0.91855710066E+03  0.91855710067E+03  0.25500000920E-02 0.  1.
    10030    2    1    2    0    0  0.00000000000E+00  0.00000000000E+00  0.78450092583E+03  0.26216151272E+04  0.25014843938E+04 0.  0.
        1    1    3    3  502    0 -0.10195755752E+03 -0.12422620605E+04  0.50089000796E+03  0.13433172263E+04  0.50400001928E-02 0. -1.
       -1    1    3    3    0  502  0.10195755752E+03  0.12422620605E+04  0.28361091787E+03  0.12782979008E+04  0.50400001928E-02 0.  1.
</event>
<event>
 5   0  0.3484857E-06  0.2593248E+04  0.7818609E-02  0.8370498E-01
       -1   -1    0    0    0  501  0.00000000000E+00  0.00000000000E+00  0.76136293712E+03  0.76136293714E+03  0.50400001928E-02 0. -1.
        1   -1    0    0  501    0  0.00000000000E+00  0.00000000000E+00 -0.22081892300E+04  0.22081892300E+04  0.50400001928E-02 0.  1.
    10030    2    1    2    0    0  0.00000000000E+00  0.00000000000E+00 -0.14468262929E+04  0.29695521672E+04  0.25932477228E+04 0.  0.
        3    1    3    3  502    0  0.12270545007E+02 -0.59361724395E+03 -0.20433727951E+04  0.21278873063E+04  0.10100000352E+00 0.  1.
       -3    1    3    3    0  502 -0.12270545007E+02  0.59361724395E+03  0.59654650215E+03  0.84166486087E+03  0.10100000352E+00 0. -1.
</event>
<event>
 5   0  0.8354653E-06  0.2530503E+04  0.7818609E-02  0.8392198E-01
       -2   -1    0    0    0  501  0.00000000000E+00  0.00000000000E+00  0.15821455977E+04  0.15821455977E+04  0.25500000920E-02 0.  1.
        2   -1    0    0  501    0  0.00000000000E+00  0.00000000000E+00 -0.10118295503E+04  0.10118295503E+04  0.25500000920E-02 0. -1.
    10030    2    1    2    0    0  0.00000000000E+00  0.00000000000E+00  0.57031604739E+03  0.25939751479E+04  0.25305032452E+04 0.  0.
        3    1    3    3  502    0  0.21852122160E+03 -0.60618022442E+03  0.14013482194E+04  0.15423951605E+04  0.10100000352E+00 0.  1.
       -3    1    3    3    0  502 -0.21852122160E+03  0.60618022442E+03 -0.83103217205E+03  0.10515799874E+04  0.10100000352E+00 0. -1.
</event>
<event>
 5   0  0.3484857E-06  0.2500615E+04  0.7818609E-02  0.8402767E-01
       -1   -1    0    0    0  501  0.00000000000E+00  0.00000000000E+00  0.12830060966E+04  0.12830060966E+04  0.50400001928E-02 0. -1.
        1   -1    0    0  501    0  0.00000000000E+00  0.00000000000E+00 -0.12184419692E+04  0.12184419692E+04  0.50400001928E-02 0.  1.
    10030    2    1    2    0    0  0.00000000000E+00  0.00000000000E+00  0.64564127383E+02  0.25014480658E+04  0.25006147043E+04 0.  0.
        3    1    3    3  502    0 -0.66780629831E+03 -0.86107730737E+03 -0.58098756538E+03  0.12348951140E+04  0.10100000352E+00 0.  1.
       -3    1    3    3    0  502  0.66780629831E+03  0.86107730737E+03  0.64555169276E+03  0.12665529517E+04  0.10100000352E+00 0. -1.
</event>
<event>
 5   0  0.3642184E-06  0.2496871E+04  0.7818609E-02  0.8404101E-01
        1   -1    0    0  501    0  0.00000000000E+00  0.00000000000E+00  0.17558563447E+04  0.17558563447E+04  0.50400001928E-02 0.  1.
       -1   -1    0    0    0  501  0.00000000000E+00  0.00000000000E+00 -0.88765306386E+03  0.88765306388E+03  0.50400001928E-02 0. -1.
    10030    2    1    2    0    0  0.00000000000E+00  0.00000000000E+00  0.86820328083E+03  0.26435094086E+04  0.24968710532E+04 0.  0.
        5    1    3    3  502    0 -0.60268583860E+03 -0.86601820867E+03 -0.27243740110E+03  0.10897072934E+04  0.46999998093E+01 0. -1.
       -5    1    3    3    0  502  0.60268583860E+03  0.86601820867E+03  0.11406406819E+04  0.15538021152E+04  0.46999998093E+01 0.  1.
</event>
<event>
 5   0  0.3424193E-06  0.2507702E+04  0.7818609E-02  0.8400247E-01
        1   -1    0    0  501    0  0.00000000000E+00  0.00000000000E+00  0.17504708077E+04  0.17504708077E+04  0.50400001928E-02 0. -1.
       -1   -1    0    0    0  501  0.00000000000E+00  0.00000000000E+00 -0.89812535913E+03  0.89812535914E+03  0.50400001928E-02 0.  1.
    10030    2    1    2    0    0  0.00000000000E+00  0.00000000000E+00  0.85234544860E+03  0.26485961669E+04  0.25077019144E+04 0.  0.
        1    1    3    3  502    0 -0.45770863982E+03 -0.25234660054E+03 -0.77758410170E+03  0.93691677379E+03  0.50400001928E-02 0.  1.
       -1    1    3    3    0  502  0.45770863982E+03  0.25234660054E+03  0.16299295503E+04  0.17116793931E+04  0.50400001928E-02 0. -1.
</event>
<event>
 5   0  0.3424193E-06  0.2488183E+04  0.7818609E-02  0.8407207E-01
        1   -1    0    0  501    0  0.00000000000E+00  0.00000000000E+00  0.21184788942E+04  0.21184788942E+04  0.50400001928E-02 0.  1.
       -1   -1    0    0    0  501  0.00000000000E+00  0.00000000000E+00 -0.73060166791E+03  0.73060166793E+03  0.50400001928E-02 0. -1.
    10030    2    1    2    0    0  0.00000000000E+00  0.00000000000E+00  0.13878772263E+04  0.28490805622E+04  0.24881834447E+04 0.  0.
        1    1    3    3  502    0  0.76076985073E+03  0.69688881651E+03  0.14900034559E+04  0.18123286366E+04  0.50400001928E-02 0. -1.
       -1    1    3    3    0  502 -0.76076985073E+03 -0.69688881651E+03 -0.10212622961E+03  0.10367519256E+04  0.50400001928E-02 0.  1.
</event>
<event>
 5   0  0.8354653E-06  0.2505140E+04  0.7818609E-02  0.8401157E-01
       -2   -1    0    0    0  501  0.00000000000E+00  0.00000000000E+00  0.11690526415E+04  0.11690526415E+04  0.25500000920E-02 0. -1.
        2   -1    0    0  501    0  0.00000000000E+00  0.00000000000E+00 -0.13420543275E+04  0.13420543275E+04  0.25500000920E-02 0.  1.
    10030    2    1    2    0    0  0.00000000000E+00  0.00000000000E+00 -0.17300168607E+03  0.25111069690E+04  0.25051404404E+04 0.  0.
        3    1    3    3  502    0 -0.87149671472E+03  0.86137616132E+03 -0.34684376935E+03  0.12734897038E+04  0.10100000352E+00 0. -1.
       -3    1    3    3    0  502  0.87149671472E+03 -0.86137616132E+03  0.17384208328E+03  0.12376172652E+04  0.10100000352E+00 0.  1.
</event>
<event>
 5   0  0.3424193E-06  0.2508497E+04  0.7818609E-02  0.8399965E-01
        1   -1    0    0  501    0  0.00000000000E+00  0.00000000000E+00  0.13028706918E+04  0.13028706918E+04  0.50400001928E-02 0.  1.
       -1   -1    0    0    0  501  0.00000000000E+00  0.00000000000E+00 -0.12074411620E+04  0.12074411620E+04  0.50400001928E-02 0. -1.
    10030    2    1    2    0    0  0.00000000000E+00  0.00000000000E+00  0.95429529734E+02  0.25103118538E+04  0.25084973208E+04 0.  0.
        1    1    3    3  502    0 -0.92942924278E+03 -0.79102240184E+03 -0.24160428181E+03  0.12441574605E+04  0.50400001928E-02 0. -1.
       -1    1    3    3    0  502  0.92942924278E+03  0.79102240184E+03  0.33703381155E+03  0.12661543933E+04  0.50400001928E-02 0.  1.
</event>
<event>
 5   0  0.3522870E-06  0.2501613E+04  0.7818609E-02  0.8402411E-01
       -1   -1    0    0    0  501  0.00000000000E+00  0.00000000000E+00  0.10101339642E+04  0.10101339642E+04  0.50400001928E-02 0.  1.
        1   -1    0    0  501    0  0.00000000000E+00  0.00000000000E+00 -0.15488212172E+04  0.15488212172E+04  0.50400001928E-02 0. -1.
    10030    2    1    2    0    0  0.00000000000E+00  0.00000000000E+00 -0.53868725296E+03  0.25589551814E+04  0.25016130124E+04 0.  0.
        2    1    3    3  502    0  0.10854276307E+04 -0.19025915494E+02  0.36618806363E+03  0.11456914178E+04  0.25500000920E-02 0.  1.
       -2    1    3    3    0  502 -0.10854276307E+04  0.19025915494E+02 -0.90487531659E+03  0.14132637636E+04  0.25500000920E-02 0. -1.
</event>
<event>
 5   0  0.3642184E-06  0.2513396E+04  0.7818609E-02  0.8398229E-01
       -1   -1    0    0    0  501  0.00000000000E+00  0.00000000000E+00  0.70381939719E+03  0.70381939720E+03  0.50400001928E-02 0. -1.
        1   -1    0    0  501    0  0.00000000000E+00  0.00000000000E+00 -0.22438854918E+04  0.22438854918E+04  0.50400001928E-02 0.  1.
    10030    2    1    2    0    0  0.00000000000E+00  0.00000000000E+00 -0.15400660947E+04  0.29477048890E+04  0.25133962157E+04 0.  0.
        5    1    3    3  502    0  0.41791735351E+03  0.61655097982E+03  0.41703158933E+03  0.85365535293E+03  0.46999998093E+01 0. -1.
       -5    1    3    3    0  502 -0.41791735351E+03 -0.61655097982E+03 -0.19570976840E+04  0.20940495361E+04  0.46999998093E+01 0.  1.
</event>
<event>
 5   0  0.8948286E-06  0.2501438E+04  0.7818609E-02  0.8402473E-01
       -2   -1    0    0    0  501  0.00000000000E+00  0.00000000000E+00  0.12053157702E+04  0.12053157702E+04  0.25500000920E-02 0.  1.
        2   -1    0    0  501    0  0.00000000000E+00  0.00000000000E+00 -0.12978328654E+04  0.12978328654E+04  0.25500000920E-02 0. -1.
    10030    2    1    2    0    0  0.00000000000E+00  0.00000000000E+00 -0.92517095228E+02  0.25031486356E+04  0.25014383220E+04 0.  0.
        4    1    3    3  502    0  0.11271374902E+04 -0.35720368485E+03 -0.45429145013E+03  0.12666553315E+04  0.12699999809E+01 0.  1.
       -4    1    3    3    0  502 -0.11271374902E+04  0.35720368485E+03  0.36177435490E+03  0.12364933041E+04  0.12699999809E+01 0. -1.
</event>
<event>
 5   0  0.8354653E-06  0.2502578E+04  0.7818609E-02  0.8402068E-01
        2   -1    0    0  501    0  0.00000000000E+00  0.00000000000E+00  0.21021563626E+04  0.21021563626E+04  0.25500000920E-02 0.  1.
       -2   -1    0    0    0  501  0.00000000000E+00  0.00000000000E+00 -0.74481797668E+03  0.74481797668E+03  0.25500000920E-02 0. -1.
    10030    2    1    2    0    0  0.00000000000E+00  0.00000000000E+00  0.13573383859E+04  0.28469743393E+04  0.25025777500E+04 0.  0.
        3    1    3    3  502    0 -0.22893791583E+03 -0.23199438294E+03  0.20530165672E+04  0.20787282165E+04  0.10100000352E+00 0.  1.
       -3    1    3    3    0  502  0.22893791583E+03  0.23199438294E+03 -0.69567818125E+03  0.76824612273E+03  0.10100000352E+00 0. -1.
</event>
<event>
 5   0  0.3481387E-06  0.2502550E+04  0.7818609E-02  0.8402078E-01
       -1   -1    0    0    0  501  0.00000000000E+00  0.00000000000E+00  0.15629725835E+04  0.15629725835E+04  0.50400001928E-02 0. -1.
        1   -1    0    0  501    0  0.00000000000E+00  0.00000000000E+00 -0.10017382468E+04  0.10017382468E+04  0.50400001928E-02 0.  1.
    10030    2    1    2    0    0  0.00000000000E+00  0.00000000000E+00  0.56123433670E+03  0.25647108303E+04  0.25025502317E+04 0.  0.
        4    1    3    3  502    0 -0.83687089174E+02  0.93522862224E+03 -0.56698823369E+03  0.10968743660E+04  0.12699999809E+01 0.  1.
       -4    1    3    3    0  502  0.83687089174E+02 -0.93522862224E+03  0.11282225704E+04  0.14678364643E+04  0.12699999809E+01 0. -1.
</event>
<event>
 5   0  0.3522870E-06  0.2506489E+04  0.7818609E-02  0.8400678E-01
       -1   -1    0    0    0  501  0.00000000000E+00  0.00000000000E+00  0.63850716668E+03  0.63850716670E+03  0.50400001928E-02 0. -1.
        1   -1    0    0  501    0  0.00000000000E+00  0.00000000000E+00 -0.24598334256E+04  0.24598334256E+04  0.50400001928E-02 0.  1.
    10030    2    1    2    0    0  0.00000000000E+00  0.00000000000E+00 -0.18213262589E+04  0.30983405923E+04  0.25064885965E+04 0.  0.
        2    1    3    3  502    0  0.33802035516E+03 -0.67760064868E+03  0.32374593901E+03  0.82353617566E+03  0.25500000920E-02 0. -1.
       -2    1    3    3    0  502 -0.33802035516E+03  0.67760064868E+03 -0.21450721980E+04  0.22748044167E+04  0.25500000920E-02 0.  1.
</event>
<event>
 5   0  0.3481387E-06  0.2504576E+04  0.7818609E-02  0.8401357E-01
        1   -1    0    0  501    0  0.00000000000E+00  0.00000000000E+00  0.64342637316E+03  0.64342637318E+03  0.50400001928E-02 0. -1.
       -1   -1    0    0    0  501  0.00000000000E+00  0.00000000000E+00 -0.24373039498E+04  0.24373039498E+04  0.50400001928E-02 0.  1.
    10030    2    1    2    0    0  0.00000000000E+00  0.00000000000E+00 -0.17938775766E+04  0.30807303230E+04  0.25045763241E+04 0.  0.
        4    1    3    3  502    0  0.36274918084E+03 -0.11777107367E+04 -0.11709770173E+04  0.16999348033E+04  0.12699999809E+01 0. -1.
       -4    1    3    3    0  502 -0.36274918084E+03  0.11777107367E+04 -0.62290055930E+03  0.13807955197E+04  0.12699999809E+01 0.  1.
</event>
<event>
 5   0  0.3424193E-06  0.2506072E+04  0.7818609E-02  0.8400826E-01
       -1   -1    0    0    0  501  0.00000000000E+00  0.00000000000E+00  0.10012716969E+04  0.10012716970E+04  0.50400001928E-02 0. -1.
        1   -1    0    0  501    0  0.00000000000E+00  0.00000000000E+00 -0.15681048458E+04  0.15681048458E+04  0.50400001928E-02 0.  1.
    10030    2    1    2    0    0  0.00000000000E+00  0.00000000000E+00 -0.56683314889E+03  0.25693765428E+04  0.25060718266E+04 0.  0.
        1    1    3    3  502    0  0.36204467285E+03  0.44969772274E+03  0.85678866733E+03  0.10331462662E+04  0.50400001928E-02 0. -1.
       -1    1    3    3    0  502 -0.36204467285E+03 -0.44969772274E+03 -0.14236218162E+04  0.15362302766E+04  0.50400001928E-02 0.  1.
</event>
<event>
 5   0  0.2901250E-06  0.2556627E+04  0.7818609E-02  0.8383085E-01
       -3   -1    0    0    0  501  0.00000000000E+00  0.00000000000E+00  0.23946134395E+04  0.23946134416E+04  0.10100000352E+00 0. -1.
        3   -1    0    0  501    0  0.00000000000E+00  0.00000000000E+00 -0.68240055072E+03  0.68240055819E+03  0.10100000352E+00 0.  1.
    10030    2    1    2    0    0  0.00000000000E+00  0.00000000000E+00  0.17122128888E+04  0.30770139998E+04  0.25566271098E+04 0.  0.
        5    1    3    3  502    0 -0.11621395331E+04  0.51994773012E+03  0.71809439541E+03  0.14617098163E+04  0.46999998093E+01 0. -1.
       -5    1    3    3    0  502  0.11621395331E+04 -0.51994773012E+03  0.99411849336E+03  0.16153041835E+04  0.46999998093E+01 0.  1.
</event>
<event>
 5   0  0.3481387E-06  0.2492639E+04  0.7818609E-02  0.8405613E-01
        1   -1    0    0  501    0  0.00000000000E+00  0.00000000000E+00  0.12423517072E+04  0.12423517072E+04  0.50400001928E-02 0.  1.
       -1   -1    0    0    0  501  0.00000000000E+00  0.00000000000E+00 -0.12502998789E+04  0.12502998789E+04  0.50400001928E-02 0. -1.
    10030    2    1    2    0    0  0.00000000000E+00  0.00000000000E+00 -0.79481716798E+01  0.24926515861E+04  0.24926389142E+04 0.  0.
        4    1    3    3  502    0 -0.49506259291E+03 -0.61292075449E+03 -0.96966618780E+03  0.12494050387E+04  0.12699999809E+01 0. -1.
       -4    1    3    3    0  502  0.49506259291E+03  0.61292075449E+03  0.96171801612E+03  0.12432465474E+04  0.12699999809E+01 0.  1.
</event>
<event>
 5   0  0.8948286E-06  0.2485724E+04  0.7818609E-02  0.8408089E-01
        2   -1    0    0  501    0  0.00000000000E+00  0.00000000000E+00  0.21023235733E+04  0.21023235733E+04  0.25500000920E-02 0. -1.
       -2   -1    0    0    0  501  0.00000000000E+00  0.00000000000E+00 -0.73476114754E+03  0.73476114755E+03  0.25500000920E-02 0.  1.
    10030    2    1    2    0    0  0.00000000000E+00  0.00000000000E+00  0.13675624257E+04  0.28370847208E+04  0.24857237829E+04 0.  0.
        4    1    3    3  502    0 -0.23812782445E+03 -0.82481154449E+03 -0.34196631564E+03  0.92410038342E+03  0.12699999809E+01 0.  1.
       -4    1    3    3    0  502  0.23812782445E+03  0.82481154449E+03  0.17095287414E+04  0.19129843374E+04  0.12699999809E+01 0. -1.
</event>
<event>
 5   0  0.8948286E-06  0.2507808E+04  0.7818609E-02  0.8400209E-01
       -2   -1    0    0    0  501  0.00000000000E+00  0.00000000000E+00  0.11234272668E+04  0.11234272668E+04  0.25500000920E-02 0.  1.
        2   -1    0    0  501    0  0.00000000000E+00  0.00000000000E+00 -0.13995349229E+04  0.13995349229E+04  0.25500000920E-02 0. -1.
    10030    2    1    2    0    0  0.00000000000E+00  0.00000000000E+00 -0.27610765611E+03  0.25229621897E+04  0.25078083604E+04 0.  0.
        4    1    3    3  502    0 -0.91928487023E+03  0.31918478083E+03  0.65749025683E+03  0.11744184296E+04  0.12699999809E+01 0.  1.
       -4    1    3    3    0  502  0.91928487023E+03 -0.31918478083E+03 -0.93359791294E+03  0.13485437601E+04  0.12699999809E+01 0. -1.
</event>
<event>
 5   0  0.3424193E-06  0.2495368E+04  0.7818609E-02  0.8404638E-01
        1   -1    0    0  501    0  0.00000000000E+00  0.00000000000E+00  0.12310501275E+04  0.12310501275E+04  0.50400001928E-02 0. -1.
       -1   -1    0    0    0  501  0.00000000000E+00  0.00000000000E+00 -0.12645424082E+04  0.12645424082E+04  0.50400001928E-02 0.  1.
    10030    2    1    2    0    0  0.00000000000E+00  0.00000000000E+00 -0.33492280695E+02  0.24955925357E+04  0.24953677827E+04 0.  0.
        1    1    3    3  502    0  0.11063882450E+03 -0.91991689074E+03 -0.85242122013E+03  0.12590115059E+04  0.50400001928E-02 0.  1.
       -1    1    3    3    0  502 -0.11063882450E+03  0.91991689074E+03  0.81892893944E+03  0.12365810298E+04  0.50400001928E-02 0. -1.
</event>
<event>
 5   0  0.3481387E-06  0.2500123E+04  0.7818609E-02  0.8402942E-01
       -1   -1    0    0    0  501  0.00000000000E+00  0.00000000000E+00  0.18552605828E+04  0.18552605828E+04  0.50400001928E-02 0. -1.
        1   -1    0    0  501    0  0.00000000000E+00  0.00000000000E+00 -0.84228240277E+03  0.84228240278E+03  0.50400001928E-02 0.  1.
    10030    2    1    2    0    0  0.00000000000E+00  0.00000000000E+00  0.10129781801E+04  0.26975429856E+04  0.25001226702E+04 0.  0.
        4    1    3    3  502    0  0.51464221327E+03  0.10577876837E+04  0.96282890110E+03  0.15201356838E+04  0.12699999809E+01 0. -1.
       -4    1    3    3    0  502 -0.51464221327E+03 -0.10577876837E+04  0.50149278969E+02  0.11774073019E+04  0.12699999809E+01 0.  1.
</event>
<event>
 5   0  0.8948286E-06  0.2491822E+04  0.7818609E-02  0.8405905E-01
       -2   -1    0    0    0  501  0.00000000000E+00  0.00000000000E+00  0.91221942654E+03  0.91221942655E+03  0.25500000920E-02 0. -1.
        2   -1    0    0  501    0  0.00000000000E+00  0.00000000000E+00 -0.17016677192E+04  0.17016677192E+04  0.25500000920E-02 0.  1.
    10030    2    1    2    0    0  0.00000000000E+00  0.00000000000E+00 -0.78944829266E+03  0.26138871458E+04  0.24918221052E+04 0.  0.
        4    1    3    3  502    0 -0.11045343999E+04  0.10672932186E+03 -0.98895921380E+03  0.14864149247E+04  0.12699999809E+01 0.  1.
       -4    1    3    3    0  502  0.11045343999E+04 -0.10672932186E+03  0.19951092114E+03  0.11274722211E+04  0.12699999809E+01 0. -1.
</event>
<event>
 5   0  0.8948286E-06  0.2495389E+04  0.7818609E-02  0.8404630E-01
       -2   -1    0    0    0  501  0.00000000000E+00  0.00000000000E+00  0.13142988750E+04  0.13142988750E+04  0.25500000920E-02 0. -1.
        2   -1    0    0  501    0  0.00000000000E+00  0.00000000000E+00 -0.11844650808E+04  0.11844650808E+04  0.25500000920E-02 0.  1.
    10030    2    1    2    0    0  0.00000000000E+00  0.00000000000E+00  0.12983379417E+03  0.24987639558E+04  0.24953886457E+04 0.  0.
        4    1    3    3  502    0  0.63549003930E+03  0.53581918803E+03  0.99665369970E+03  0.12977942835E+04  0.12699999809E+01 0. -1.
       -4    1    3    3    0  502 -0.63549003930E+03 -0.53581918803E+03 -0.86681990552E+03  0.12009696723E+04  0.12699999809E+01 0.  1.
</event>
<event>
 5   0  0.8407986E-06  0.2496375E+04  0.7818609E-02  0.8404278E-01
        2   -1    0    0  501    0  0.00000000000E+00  0.00000000000E+00  0.21352701769E+04  0.21352701769E+04  0.25500000920E-02 0. -1.
       -2   -1    0    0    0  501  0.00000000000E+00  0.00000000000E+00 -0.72963722960E+03  0.72963722961E+03  0.25500000920E-02 0.  1.
    10030    2    1    2    0    0  0.00000000000E+00  0.00000000000E+00  0.14056329473E+04  0.28649074066E+04  0.24963754656E+04 0.  0.
        5    1    3    3  502    0 -0.58379646701E+03 -0.41335639284E+03 -0.47105973829E+03  0.85650521857E+03  0.46999998093E+01 0.  1.
       -5    1    3    3    0  502  0.58379646701E+03  0.41335639284E+03  0.18766926856E+04  0.20084021880E+04  0.46999998093E+01 0. -1.
</event>
<event>
 5   0  0.8579923E-06  0.2508623E+04  0.7818609E-02  0.8399920E-01
       -2   -1    0    0    0  501  0.00000000000E+00  0.00000000000E+00  0.83807650977E+03  0.83807650977E+03  0.25500000920E-02 0.  1.
        2   -1    0    0  501    0  0.00000000000E+00  0.00000000000E+00 -0.18772713699E+04  0.18772713699E+04  0.25500000920E-02 0. -1.
    10030    2    1    2    0    0  0.00000000000E+00  0.00000000000E+00 -0.10391948601E+04  0.27153478796E+04  0.25086227596E+04 0.  0.
        1    1    3    3  502    0 -0.12456486394E+04 -0.13980490530E+03 -0.56933033465E+03  0.13767072943E+04  0.50400001928E-02 0.  1.
       -1    1    3    3    0  502  0.12456486394E+04  0.13980490530E+03 -0.46986452544E+03  0.13386405853E+04  0.50400001928E-02 0. -1.
</event>
<event>
 5   0  0.3642184E-06  0.2501314E+04  0.7818609E-02  0.8402518E-01
       -1   -1    0    0    0  501  0.00000000000E+00  0.00000000000E+00  0.77178747452E+03  0.77178747453E+03  0.50400001928E-02 0.  1.
        1   -1    0    0  501    0  0.00000000000E+00  0.00000000000E+00 -0.20266500858E+04  0.20266500858E+04  0.50400001928E-02 0. -1.
    10030    2    1    2    0    0  0.00000000000E+00  0.00000000000E+00 -0.12548626112E+04  0.27984375603E+04  0.25013141757E+04 0.  0.
        5    1    3    3  502    0  0.21240227533E+02 -0.11778231516E+04 -0.10973251883E+04  0.16099264525E+04  0.46999998093E+01 0. -1.
       -5    1    3    3    0  502 -0.21240227533E+02  0.11778231516E+04 -0.15753742295E+03  0.11885111078E+04  0.46999998093E+01 0.  1.
</event>
<event>
 5   0  0.8407986E-06  0.2507865E+04  0.7818609E-02  0.8400189E-01
       -2   -1    0    0    0  501  0.00000000000E+00  0.00000000000E+00  0.10519745793E+04  0.10519745793E+04  0.25500000920E-02 0.  1.
        2   -1    0    0  501    0  0.00000000000E+00  0.00000000000E+00 -0.14946617370E+04  0.14946617371E+04  0.25500000920E-02 0. -1.
    10030    2    1    2    0    0  0.00000000000E+00  0.00000000000E+00 -0.44268715776E+03  0.25466363163E+04  0.25078645514E+04 0.  0.
        5    1    3    3  502    0 -0.11117830854E+04  0.37502268836E+03 -0.67047138191E+03  0.13513909907E+04  0.46999998093E+01 0.  1.
       -5    1    3    3    0  502  0.11117830854E+04 -0.37502268836E+03  0.22778422415E+03  0.11952453257E+04  0.46999998093E+01 0. -1.
</event>
<event>
 5   0  0.3522870E-06  0.2666430E+04  0.7818609E-02  0.8345980E-01
        1   -1    0    0  501    0  0.00000000000E+00  0.00000000000E+00  0.11982818822E+04  0.11982818822E+04  0.50400001928E-02 0. -1.
       -1   -1    0    0    0  501  0.00000000000E+00  0.00000000000E+00 -0.14833427204E+04  0.14833427204E+04  0.50400001928E-02 0.  1.
    10030    2    1    2    0    0  0.00000000000E+00  0.00000000000E+00 -0.28506083824E+03  0.26816246026E+04  0.26664303531E+04 0.  0.
        2    1    3    3  502    0  0.10768489722E+04 -0.40726692344E+03 -0.81866542870E+03  0.14126864974E+04  0.25500000920E-02 0.  1.
       -2    1    3    3    0  502 -0.10768489722E+04  0.40726692344E+03  0.53360459045E+03  0.12689381052E+04  0.25500000920E-02 0. -1.
</event>
<event>
 5   0  0.8407986E-06  0.2501783E+04  0.7818609E-02  0.8402351E-01
       -2   -1    0    0    0  501  0.00000000000E+00  0.00000000000E+00  0.94476768700E+03  0.94476768701E+03  0.25500000920E-02 0. -1.
        2   -1    0    0  501    0  0.00000000000E+00  0.00000000000E+00 -0.16562055878E+04  0.16562055878E+04  0.25500000920E-02 0.  1.
    10030    2    1    2    0    0  0.00000000000E+00  0.00000000000E+00 -0.71143790076E+03  0.26009732748E+04  0.25017829821E+04 0.  0.
        5    1    3    3  502    0  0.91322039991E+03  0.42435447448E+03 -0.11272043490E+04  0.15115091641E+04  0.46999998093E+01 0.  1.
       -5    1    3    3    0  502 -0.91322039991E+03 -0.42435447448E+03  0.41576644827E+03  0.10894641106E+04  0.46999998093E+01 0. -1.
</event>
<event>
 5   0  0.3484857E-06  0.2507083E+04  0.7818609E-02  0.8400467E-01
        1   -1    0    0  501    0  0.00000000000E+00  0.00000000000E+00  0.22927198836E+04  0.22927198836E+04  0.50400001928E-02 0.  1.
       -1   -1    0    0    0  501  0.00000000000E+00  0.00000000000E+00 -0.68537186359E+03  0.68537186361E+03  0.50400001928E-02 0. -1.
    10030    2    1    2    0    0  0.00000000000E+00  0.00000000000E+00  0.16073480200E+04  0.29780917472E+04  0.25070825270E+04 0.  0.
        3    1    3    3  502    0  0.95217121059E+03  0.68916670182E+03  0.28618598160E+03  0.12097450903E+04  0.10100000352E+00 0. -1.
       -3    1    3    3    0  502 -0.95217121059E+03 -0.68916670182E+03  0.13211620384E+04  0.17683466569E+04  0.10100000352E+00 0.  1.
</event>
<event>
 5   0  0.3481387E-06  0.2509817E+04  0.7818609E-02  0.8399497E-01
       -1   -1    0    0    0  501  0.00000000000E+00  0.00000000000E+00  0.13900525296E+04  0.13900525296E+04  0.50400001928E-02 0.  1.
        1   -1    0    0  501    0  0.00000000000E+00  0.00000000000E+00 -0.11329034765E+04  0.11329034765E+04  0.50400001928E-02 0. -1.
    10030    2    1    2    0    0  0.00000000000E+00  0.00000000000E+00  0.25714905309E+03  0.25229560061E+04  0.25098169999E+04 0.  0.
        4    1    3    3  502    0  0.89719833341E+03  0.47831241794E+02  0.10092551229E+04  0.13512402426E+04  0.12699999809E+01 0.  1.
       -4    1    3    3    0  502 -0.89719833341E+03 -0.47831241794E+02 -0.75210606984E+03  0.11717157635E+04  0.12699999809E+01 0. -1.
</event>
<event>
 5   0  0.3484857E-06  0.2501807E+04  0.7818609E-02  0.8402342E-01
       -1   -1    0    0    0  501  0.00000000000E+00  0.00000000000E+00  0.94842710062E+03  0.94842710064E+03  0.50400001928E-02 0. -1.
        1   -1    0    0  501    0  0.00000000000E+00  0.00000000000E+00 -0.16498472786E+04  0.16498472786E+04  0.50400001928E-02 0.  1.
    10030    2    1    2    0    0  0.00000000000E+00  0.00000000000E+00 -0.70142017801E+03  0.25982743793E+04  0.25018072436E+04 0.  0.
        3    1    3    3  502    0  0.24658141670E+03  0.77017245230E+03 -0.13418631703E+04  0.15667050709E+04  0.10100000352E+00 0. -1.
       -3    1    3    3    0  502 -0.24658141670E+03 -0.77017245230E+03  0.64044299227E+03  0.10315693083E+04  0.10100000352E+00 0.  1.
</event>
<event>
 5   0  0.3484857E-06  0.2507051E+04  0.7818609E-02  0.8400478E-01
        1   -1    0    0  501    0  0.00000000000E+00  0.00000000000E+00  0.11111861716E+04  0.11111861716E+04  0.50400001928E-02 0. -1.
       -1   -1    0    0    0  501  0.00000000000E+00  0.00000000000E+00 -0.14140976908E+04  0.14140976908E+04  0.50400001928E-02 0.  1.
    10030    2    1    2    0    0  0.00000000000E+00  0.00000000000E+00 -0.30291151920E+03  0.25252838625E+04  0.25070506970E+04 0.  0.
        3    1    3    3  502    0 -0.68190974238E+03 -0.48738025876E+03 -0.10903211678E+04  0.13752602200E+04  0.10100000352E+00 0.  1.
       -3    1    3    3    0  502  0.68190974238E+03  0.48738025876E+03  0.78740964862E+03  0.11500236425E+04  0.10100000352E+00 0. -1.
</event>
<event>
 5   0  0.8056723E-06  0.2507395E+04  0.7818609E-02  0.8400356E-01
       -2   -1    0    0    0  501  0.00000000000E+00  0.00000000000E+00  0.15812084329E+04  0.15812084330E+04  0.25500000920E-02 0.  1.
        2   -1    0    0  501    0  0.00000000000E+00  0.00000000000E+00 -0.99402287192E+03  0.99402287192E+03  0.25500000920E-02 0. -1.
    10030    2    1    2    0    0  0.00000000000E+00  0.00000000000E+00  0.58718556103E+03  0.25752313049E+04  0.25073949411E+04 0.  0.
        2    1    3    3  502    0  0.95002120434E+03 -0.80684553103E+03  0.15496953105E+03  0.12560077847E+04  0.25500000920E-02 0.  1.
       -2    1    3    3    0  502 -0.95002120434E+03  0.80684553103E+03  0.43221602998E+03  0.13192235202E+04  0.25500000920E-02 0. -1.
</event>
<event>
 5   0  0.3642184E-06  0.2495308E+04  0.7818609E-02  0.8404659E-01
        1   -1    0    0  501    0  0.00000000000E+00  0.00000000000E+00  0.19585477738E+04  0.19585477738E+04  0.50400001928E-02 0.  1.
       -1   -1    0    0    0  501  0.00000000000E+00  0.00000000000E+00 -0.79479347817E+03  0.79479347818E+03  0.50400001928E-02 0. -1.
    10030    2    1    2    0    0  0.00000000000E+00  0.00000000000E+00  0.11637542956E+04  0.27533412520E+04  0.24953083956E+04 0.  0.
        5    1    3    3  502    0 -0.43698230709E+03  0.10971831232E+04  0.13796371184E+03  0.11890418068E+04  0.46999998093E+01 0. -1.
       -5    1    3    3    0  502  0.43698230709E+03 -0.10971831232E+04  0.10257905838E+04  0.15642994452E+04  0.46999998093E+01 0.  1.
</event>
<event>
 5   0  0.3522870E-06  0.2474571E+04  0.7818609E-02  0.8412101E-01
       -1   -1    0    0    0  501  0.00000000000E+00  0.00000000000E+00  0.88014276045E+03  0.88014276047E+03  0.50400001928E-02 0.  1.
        1   -1    0    0  501    0  0.00000000000E+00  0.00000000000E+00 -0.17393486704E+04  0.17393486704E+04  0.50400001928E-02 0. -1.
    10030    2    1    2    0    0  0.00000000000E+00  0.00000000000E+00 -0.85920590993E+03  0.26194914309E+04  0.24745707831E+04 0.  0.
        2    1    3    3  502    0  0.79454141997E+03  0.34689153890E+03 -0.13640489476E+04  0.16162485388E+04  0.25500000920E-02 0. -1.
       -2    1    3    3    0  502 -0.79454141997E+03 -0.34689153890E+03  0.50484303764E+03  0.10032428921E+04  0.25500000920E-02 0.  1.
</event>
<event>
 5   0  0.3484857E-06  0.2495270E+04  0.7818609E-02  0.8404673E-01
        1   -1    0    0  501    0  0.00000000000E+00  0.00000000000E+00  0.11790649608E+04  0.11790649608E+04  0.50400001928E-02 0. -1.
       -1   -1    0    0    0  501  0.00000000000E+00  0.00000000000E+00 -0.13201929063E+04  0.13201929063E+04  0.50400001928E-02 0.  1.
    10030    2    1    2    0    0  0.00000000000E+00  0.00000000000E+00 -0.14112794553E+03  0.24992578671E+04  0.24952700834E+04 0.  0.
        3    1    3    3  502    0 -0.16929209337E+03 -0.12206238545E+04 -0.26583908637E+03  0.12606557171E+04  0.10100000352E+00 0. -1.
       -3    1    3    3    0  502  0.16929209337E+03  0.12206238545E+04  0.12471114084E+03  0.12386021500E+04  0.10100000352E+00 0.  1.
</event>
<event>
 5   0  0.8579923E-06  0.2528465E+04  0.7818609E-02  0.8392914E-01
        2   -1    0    0  501    0  0.00000000000E+00  0.00000000000E+00  0.25219771493E+04  0.25219771493E+04  0.25500000920E-02 0.  1.
       -2   -1    0    0    0  501  0.00000000000E+00  0.00000000000E+00 -0.63374224919E+03  0.63374224920E+03  0.25500000920E-02 0. -1.
    10030    2    1    2    0    0  0.00000000000E+00  0.00000000000E+00  0.18882349001E+04  0.31557193985E+04  0.25284647287E+04 0.  0.
        1    1    3    3  502    0  0.99511767811E+03 -0.71287876353E+03  0.54978003703E+03  0.13419066338E+04  0.50400001928E-02 0. -1.
       -1    1    3    3    0  502 -0.99511767811E+03  0.71287876353E+03  0.13384548631E+04  0.18138127647E+04  0.50400001928E-02 0.  1.
</event>
<event>
 5   0  0.8056723E-06  0.2499157E+04  0.7818609E-02  0.8403286E-01
        2   -1    0    0  501    0  0.00000000000E+00  0.00000000000E+00  0.17074076687E+04  0.17074076687E+04  0.25500000920E-02 0.  1.
       -2   -1    0    0    0  501  0.00000000000E+00  0.00000000000E+00 -0.91451287506E+03  0.91451287506E+03  0.25500000920E-02 0. -1.
    10030    2    1    2    0    0  0.00000000000E+00  0.00000000000E+00  0.79289479364E+03  0.26219205438E+04  0.24991568946E+04 0.  0.
        2    1    3    3  502    0  0.57950917411E+02 -0.40621008091E+03  0.16347142428E+04  0.16854244553E+04  0.25500000920E-02 0.  1.
       -2    1    3    3    0  502 -0.57950917411E+02  0.40621008091E+03 -0.84181944921E+03  0.93649608848E+03  0.25500000920E-02 0. -1.
</event>
<event>
 5   0  0.3484857E-06  0.2490337E+04  0.7818609E-02  0.8406436E-01
        1   -1    0    0  501    0  0.00000000000E+00  0.00000000000E+00  0.14734170068E+04  0.14734170068E+04  0.50400001928E-02 0.  1.
       -1   -1    0    0    0  501  0.00000000000E+00  0.00000000000E+00 -0.10522777816E+04  0.10522777816E+04  0.50400001928E-02 0. -1.
    10030    2    1    2    0    0  0.00000000000E+00  0.00000000000E+00  0.42113922522E+03  0.25256947883E+04  0.24903365067E+04 0.  0.
        3    1    3    3  502    0  0.70415011566E+03 -0.90881012022E+03 -0.27442580581E+03  0.11819783218E+04  0.10100000352E+00 0. -1.
       -3    1    3    3    0  502 -0.70415011566E+03  0.90881012022E+03  0.69556503103E+03  0.13437164666E+04  0.10100000352E+00 0.  1.
</event>
<event>
 5   0  0.8579923E-06  0.2502919E+04  0.7818609E-02  0.8401946E-01
       -2   -1    0    0    0  501  0.00000000000E+00  0.00000000000E+00  0.10010783217E+04  0.10010783217E+04  0.25500000920E-02 0. -1.
        2   -1    0    0  501    0  0.00000000000E+00  0.00000000000E+00 -0.15644635453E+04  0.15644635453E+04  0.25500000920E-02 0.  1.
    10030    2    1    2    0    0  0.00000000000E+00  0.00000000000E+00 -0.56338522361E+03  0.25655418669E+04  0.25029187284E+04 0.  0.
        1    1    3    3  502    0 -0.63214065525E+03  0.36691291181E+03 -0.13229453121E+04  0.15114268728E+04  0.50400001928E-02 0.  1.
       -1    1    3    3    0  502  0.63214065525E+03 -0.36691291181E+03  0.75956008848E+03  0.10541149942E+04  0.50400001928E-02 0. -1.
</event>
<event>
 5   0  0.3424193E-06  0.2502241E+04  0.7818609E-02  0.8402187E-01
       -1   -1    0    0    0  501  0.00000000000E+00  0.00000000000E+00  0.18597502462E+04  0.18597502462E+04  0.50400001928E-02 0.  1.
        1   -1    0    0  501    0  0.00000000000E+00  0.00000000000E+00 -0.84167371166E+03  0.84167371168E+03  0.50400001928E-02 0. -1.
    10030    2    1    2    0    0  0.00000000000E+00  0.00000000000E+00  0.10180765345E+04  0.27014239579E+04  0.25022413093E+04 0.  0.
        1    1    3    3  502    0 -0.62803515852E+02  0.64905359625E+03  0.16617819542E+04  0.17851426038E+04  0.50400001928E-02 0. -1.
       -1    1    3    3    0  502  0.62803515852E+02 -0.64905359625E+03 -0.64370541972E+03  0.91628135407E+03  0.50400001928E-02 0.  1.
</event>
<event>
 5   0  0.3484857E-06  0.2506371E+04  0.7818609E-02  0.8400719E-01
       -1   -1    0    0    0  501  0.00000000000E+00  0.00000000000E+00  0.22885692608E+04  0.22885692608E+04  0.50400001928E-02 0.  1.
        1   -1    0    0  501    0  0.00000000000E+00  0.00000000000E+00 -0.68622511167E+03  0.68622511169E+03  0.50400001928E-02 0. -1.
    10030    2    1    2    0    0  0.00000000000E+00  0.00000000000E+00  0.16023441491E+04  0.29747943725E+04  0.25063708398E+04 0.  0.
        3    1    3    3  502    0  0.94225527625E+03  0.73213740235E+03  0.34672449080E+03  0.12426134010E+04  0.10100000352E+00 0. -1.
       -3    1    3    3    0  502 -0.94225527625E+03 -0.73213740235E+03  0.12556196583E+04  0.17321809715E+04  0.10100000352E+00 0.  1.
</event>
<event>
 5   0  0.8948286E-06  0.2495305E+04  0.7818609E-02  0.8404660E-01
       -2   -1    0    0    0  501  0.00000000000E+00  0.00000000000E+00  0.13449690904E+04  0.13449690904E+04  0.25500000920E-02 0. -1.
        2   -1    0    0  501    0  0.00000000000E+00  0.00000000000E+00 -0.11573770194E+04  0.11573770194E+04  0.25500000920E-02 0.  1.
    10030    2    1    2    0    0  0.00000000000E+00  0.00000000000E+00  0.18759207104E+03  0.25023461098E+04  0.24953046444E+04 0.  0.
        4    1    3    3  502    0  0.12212055669E+04  0.12941196206E+03  0.31474528437E+03  0.12677368416E+04  0.12699999809E+01 0.  1.
       -4    1    3    3    0  502 -0.12212055669E+04 -0.12941196206E+03 -0.12715321334E+03  0.12346092682E+04  0.12699999809E+01 0. -1.
</event>
<event>
 5   0  0.8407986E-06  0.2536200E+04  0.7818609E-02  0.8390202E-01
       -2   -1    0    0    0  501  0.00000000000E+00  0.00000000000E+00  0.10138116039E+04  0.10138116039E+04  0.25500000920E-02 0.  1.
        2   -1    0    0  501    0  0.00000000000E+00  0.00000000000E+00 -0.15861695567E+04  0.15861695567E+04  0.25500000920E-02 0. -1.
    10030    2    1    2    0    0  0.00000000000E+00  0.00000000000E+00 -0.57235795282E+03  0.25999811606E+04  0.25361995997E+04 0.  0.
        5    1    3    3  502    0 -0.24451440146E+03  0.98140715205E+03 -0.10703389783E+04  0.14726149901E+04  0.46999998093E+01 0.  1.
       -5    1    3    3    0  502  0.24451440146E+03 -0.98140715205E+03  0.49798102549E+03  0.11273661705E+04  0.46999998093E+01 0. -1.
</event>
<event>
 5   0  0.8579923E-06  0.2357647E+04  0.7818609E-02  0.8455532E-01
        2   -1    0    0  501    0  0.00000000000E+00  0.00000000000E+00  0.11365462137E+04  0.11365462137E+04  0.25500000920E-02 0. -1.
       -2   -1    0    0    0  501  0.00000000000E+00  0.00000000000E+00 -0.12226733338E+04  0.12226733338E+04  0.25500000920E-02 0.  1.
    10030    2    1    2    0    0  0.00000000000E+00  0.00000000000E+00 -0.86127120104E+02  0.23592195476E+04  0.23576469186E+04 0.  0.
        1    1    3    3  502    0  0.51481503576E+03 -0.97238827878E+03  0.38036318496E+03  0.11641518966E+04  0.50400001928E-02 0. -1.
       -1    1    3    3    0  502 -0.51481503576E+03  0.97238827878E+03 -0.46649030507E+03  0.11950676510E+04  0.50400001928E-02 0.  1.
</event>
<event>
 5   0  0.8407986E-06  0.2495641E+04  0.7818609E-02  0.8404540E-01
       -2   -1    0    0    0  501  0.00000000000E+00  0.00000000000E+00  0.77391521193E+03  0.77391521193E+03  0.25500000920E-02 0.  1.
        2   -1    0    0  501    0  0.00000000000E+00  0.00000000000E+00 -0.20119209785E+04  0.20119209785E+04  0.25500000920E-02 0. -1.
    10030    2    1    2    0    0  0.00000000000E+00  0.00000000000E+00 -0.12380057666E+04  0.27858361904E+04  0.24956412006E+04 0.  0.
        5    1    3    3  502    0  0.10930428659E+04  0.14427674941E+03 -0.12713117987E+04  0.16827995325E+04  0.46999998093E+01 0. -1.
       -5    1    3    3    0  502 -0.10930428659E+04 -0.14427674941E+03  0.33306032073E+02  0.11030366580E+04  0.46999998093E+01 0.  1.
</event>
<event>
 5   0  0.8948286E-06  0.2522337E+04  0.7818609E-02  0.8395071E-01
       -2   -1    0    0    0  501  0.00000000000E+00  0.00000000000E+00  0.81933047841E+03  0.81933047842E+03  0.25500000920E-02 0. -1.
        2   -1    0    0  501    0  0.00000000000E+00  0.00000000000E+00 -0.19412749008E+04  0.19412749008E+04  0.25500000920E-02 0.  1.
    10030    2    1    2    0    0  0.00000000000E+00  0.00000000000E+00 -0.11219444224E+04  0.27606053793E+04  0.25223367683E+04 0.  0.
        4    1    3    3  502    0 -0.51341276965E+03  0.20248222873E+03 -0.18020919947E+04  0.18847092336E+04  0.12699999809E+01 0.  1.
       -4    1    3    3    0  502  0.51341276965E+03 -0.20248222873E+03  0.68014757227E+03  0.87589614565E+03  0.12699999809E+01 0. -1.
</event>
<event>
 5   0  0.3484857E-06  0.2502374E+04  0.7818609E-02  0.8402140E-01
        1   -1    0    0  501    0  0.00000000000E+00  0.00000000000E+00  0.11055940460E+04  0.11055940460E+04  0.50400001928E-02 0.  1.
       -1   -1    0    0    0  501  0.00000000000E+00  0.00000000000E+00 -0.14159531353E+04  0.14159531353E+04  0.50400001928E-02 0. -1.
    10030    2    1    2    0    0  0.00000000000E+00  0.00000000000E+00 -0.31035908934E+03  0.25215471813E+04  0.25023743571E+04 0.  0.
        3    1    3    3  502    0  0.38598296241E+03 -0.65868348564E+03  0.84368864832E+03  0.11378300959E+04  0.10100000352E+00 0.  1.
       -3    1    3    3    0  502 -0.38598296241E+03  0.65868348564E+03 -0.11540477377E+04  0.13837170854E+04  0.10100000352E+00 0. -1.
</event>
<event>
 5   0  0.3484857E-06  0.2513456E+04  0.7818609E-02  0.8398208E-01
        1   -1    0    0  501    0  0.00000000000E+00  0.00000000000E+00  0.19204196499E+04  0.19204196499E+04  0.50400001928E-02 0.  1.
       -1   -1    0    0    0  501  0.00000000000E+00  0.00000000000E+00 -0.82240600715E+03  0.82240600717E+03  0.50400001928E-02 0. -1.
    10030    2    1    2    0    0  0.00000000000E+00  0.00000000000E+00  0.10980136428E+04  0.27428256571E+04  0.25134555149E+04 0.  0.
        3    1    3    3  502    0  0.30107773189E+03 -0.86265345764E+03  0.14906204289E+04  0.17483615364E+04  0.10100000352E+00 0.  1.
       -3    1    3    3    0  502 -0.30107773189E+03  0.86265345764E+03 -0.39260678616E+03  0.99446412070E+03  0.10100000352E+00 0. -1.
</event>
<event>
 5   0  0.8354653E-06  0.2543378E+04  0.7818609E-02  0.8387693E-01
        2   -1    0    0  501    0  0.00000000000E+00  0.00000000000E+00  0.23247145404E+04  0.23247145404E+04  0.25500000920E-02 0.  1.
       -2   -1    0    0    0  501  0.00000000000E+00  0.00000000000E+00 -0.69565203133E+03  0.69565203133E+03  0.25500000920E-02 0. -1.
    10030    2    1    2    0    0  0.00000000000E+00  0.00000000000E+00  0.16290625091E+04  0.30203665717E+04  0.25433775908E+04 0.  0.
        3    1    3    3  502    0  0.14685796499E+03  0.11076279181E+04  0.15356980826E+04  0.18991512520E+04  0.10100000352E+00 0.  1.
       -3    1    3    3    0  502 -0.14685796499E+03 -0.11076279181E+04  0.93364426462E+02  0.11212153197E+04  0.10100000352E+00 0. -1.
</event>
<event>
 5   0  0.8948286E-06  0.2484303E+04  0.7818609E-02  0.8408599E-01
       -2   -1    0    0    0  501  0.00000000000E+00  0.00000000000E+00  0.17078552211E+04  0.17078552211E+04  0.25500000920E-02 0. -1.
        2   -1    0    0  501    0  0.00000000000E+00  0.00000000000E+00 -0.90343735244E+03  0.90343735244E+03  0.25500000920E-02 0.  1.
    10030    2    1    2    0    0  0.00000000000E+00  0.00000000000E+00  0.80441786868E+03  0.26112925736E+04  0.24843028795E+04 0.  0.
        4    1    3    3  502    0 -0.36073804831E+03 -0.11877815189E+04  0.44900087594E+03  0.13200607091E+04  0.12699999809E+01 0. -1.
       -4    1    3    3    0  502  0.36073804831E+03  0.11877815189E+04  0.35541699275E+03  0.12912318645E+04  0.12699999809E+01 0.  1.
</event>
<event>
 5   0  0.3522870E-06  0.2495619E+04  0.7818609E-02  0.8404548E-01
       -1   -1    0    0    0  501  0.00000000000E+00  0.00000000000E+00  0.17021213524E+04  0.17021213524E+04  0.50400001928E-02 0. -1.
        1   -1    0    0  501    0  0.00000000000E+00  0.00000000000E+00 -0.91475773902E+03  0.91475773903E+03  0.50400001928E-02 0.  1.
    10030    2    1    2    0    0  0.00000000000E+00  0.00000000000E+00  0.78736361335E+03  0.26168790914E+04  0.24956191054E+04 0.  0.
        2    1    3    3  502    0  0.10051330105E+04 -0.19517263370E+03 -0.35416440645E+03  0.10834284252E+04  0.25500000920E-02 0.  1.
       -2    1    3    3    0  502 -0.10051330105E+04  0.19517263370E+03  0.11415280198E+04  0.15334506662E+04  0.25500000920E-02 0. -1.
</event>
<event>
 5   0  0.3424193E-06  0.2491002E+04  0.7818609E-02  0.8406198E-01
        1   -1    0    0  501    0  0.00000000000E+00  0.00000000000E+00  0.26686425290E+04  0.26686425290E+04  0.50400001928E-02 0. -1.
       -1   -1    0    0    0  501  0.00000000000E+00  0.00000000000E+00 -0.58129636605E+03  0.58129636607E+03  0.50400001928E-02 0.  1.
    10030    2    1    2    0    0  0.00000000000E+00  0.00000000000E+00  0.20873461630E+04  0.32499388951E+04  0.24910015692E+04 0.  0.
        1    1    3    3  502    0 -0.35848044276E+03  0.55276725447E+03 -0.33534212814E+03  0.73926599299E+03  0.50400001928E-02 0.  1.
       -1    1    3    3    0  502  0.35848044276E+03 -0.55276725447E+03  0.24226882911E+04  0.25106729021E+04  0.50400001928E-02 0. -1.
</event>
<event>
 5   0  0.3522870E-06  0.2493087E+04  0.7818609E-02  0.8405452E-01
        1   -1    0    0  501    0  0.00000000000E+00  0.00000000000E+00  0.24820305172E+04  0.24820305172E+04  0.50400001928E-02 0.  1.
       -1   -1    0    0    0  501  0.00000000000E+00  0.00000000000E+00 -0.62604823954E+03  0.62604823956E+03  0.50400001928E-02 0. -1.
    10030    2    1    2    0    0  0.00000000000E+00  0.00000000000E+00  0.18559822776E+04  0.31080787568E+04  0.24930871110E+04 0.  0.
        2    1    3    3  502    0 -0.98692968806E+03  0.68777177232E+03  0.13354293638E+04  0.17973402031E+04  0.25500000920E-02 0. -1.
       -2    1    3    3    0  502  0.98692968806E+03 -0.68777177232E+03  0.52055291389E+03  0.13107385537E+04  0.25500000920E-02 0.  1.
</event>
<event>
 5   0  0.8948286E-06  0.2495495E+04  0.7818609E-02  0.8404592E-01
        2   -1    0    0  501    0  0.00000000000E+00  0.00000000000E+00  0.16083072971E+04  0.16083072971E+04  0.25500000920E-02 0. -1.
       -2   -1    0    0    0  501  0.00000000000E+00  0.00000000000E+00 -0.96802003658E+03  0.96802003658E+03  0.25500000920E-02 0.  1.
    10030    2    1    2    0    0  0.00000000000E+00  0.00000000000E+00  0.64028726056E+03  0.25763273337E+04  0.24954948917E+04 0.  0.
        4    1    3    3  502    0  0.92047233519E+03 -0.52715708142E+02 -0.54781682981E+03  0.10724519372E+04  0.12699999809E+01 0.  1.
       -4    1    3    3    0  502 -0.92047233519E+03  0.52715708142E+02  0.11881040904E+04  0.15038753965E+04  0.12699999809E+01 0. -1.
</event>
<event>
 5   0  0.8948286E-06  0.2498615E+04  0.7818609E-02  0.8403479E-01
       -2   -1    0    0    0  501  0.00000000000E+00  0.00000000000E+00  0.79157614523E+03  0.79157614523E+03  0.25500000920E-02 0.  1.
        2   -1    0    0  501    0  0.00000000000E+00  0.00000000000E+00 -0.19717236130E+04  0.19717236130E+04  0.25500000920E-02 0. -1.
    10030    2    1    2    0    0  0.00000000000E+00  0.00000000000E+00 -0.11801474678E+04  0.27632997582E+04  0.24986151181E+04 0.  0.
        4    1    3    3  502    0 -0.24448681523E+03 -0.61635509250E+03  0.58091005277E+03  0.88154722232E+03  0.12699999809E+01 0.  1.
       -4    1    3    3    0  502  0.24448681523E+03  0.61635509250E+03 -0.17610575205E+04  0.18817525359E+04  0.12699999809E+01 0. -1.
</event>
<event>
 5   0  0.8407986E-06  0.2471377E+04  0.7818609E-02  0.8413254E-01
       -2   -1    0    0    0  501  0.00000000000E+00  0.00000000000E+00  0.13869477338E+04  0.13869477338E+04  0.25500000920E-02 0. -1.
        2   -1    0    0  501    0  0.00000000000E+00  0.00000000000E+00 -0.11009255172E+04  0.11009255172E+04  0.25500000920E-02 0.  1.
    10030    2    1    2    0    0  0.00000000000E+00  0.00000000000E+00  0.28602221653E+03  0.24878732510E+04  0.24713770665E+04 0.  0.
        5    1    3    3  502    0  0.25699642928E+03  0.92304886912E+03 -0.64247769768E+03  0.11536316836E+04  0.46999998093E+01 0.  1.
       -5    1    3    3    0  502 -0.25699642928E+03 -0.92304886912E+03  0.92849991421E+03  0.13342415674E+04  0.46999998093E+01 0. -1.
</event>
<event>
 5   0  0.3484857E-06  0.2508740E+04  0.7818609E-02  0.8399879E-01
       -1   -1    0    0    0  501  0.00000000000E+00  0.00000000000E+00  0.11291178666E+04  0.11291178666E+04  0.50400001928E-02 0.  1.
        1   -1    0    0  501    0  0.00000000000E+00  0.00000000000E+00 -0.13935161171E+04  0.13935161171E+04  0.50400001928E-02 0. -1.
    10030    2    1    2    0    0  0.00000000000E+00  0.00000000000E+00 -0.26439825059E+03  0.25226339837E+04  0.25087398791E+04 0.  0.
        3    1    3    3  502    0  0.90201175813E+03  0.50161544223E+03  0.58463096243E+03  0.11861857511E+04  0.10100000352E+00 0.  1.
       -3    1    3    3    0  502 -0.90201175813E+03 -0.50161544223E+03 -0.84902921302E+03  0.13364482326E+04  0.10100000352E+00 0. -1.
</event>
<event>
 5   0  0.3522870E-06  0.2517272E+04  0.7818609E-02  0.8396858E-01
       -1   -1    0    0    0  501  0.00000000000E+00  0.00000000000E+00  0.23251712128E+04  0.23251712128E+04  0.50400001928E-02 0.  1.
        1   -1    0    0  501    0  0.00000000000E+00  0.00000000000E+00 -0.68131088815E+03  0.68131088817E+03  0.50400001928E-02 0. -1.
    10030    2    1    2    0    0  0.00000000000E+00  0.00000000000E+00  0.16438603247E+04  0.30064821010E+04  0.25172719076E+04 0.  0.
        2    1    3    3  502    0 -0.30718069377E+03 -0.31112570666E+03  0.22315593212E+04  0.22739868487E+04  0.25500000920E-02 0.  1.
       -2    1    3    3    0  502  0.30718069377E+03  0.31112570666E+03 -0.58769899659E+03  0.73249525225E+03  0.25500000920E-02 0. -1.
</event>
<event>
 5   0  0.8579923E-06  0.2495439E+04  0.7818609E-02  0.8404612E-01
        2   -1    0    0  501    0  0.00000000000E+00  0.00000000000E+00  0.16007762608E+04  0.16007762608E+04  0.25500000920E-02 0. -1.
       -2   -1    0    0    0  501  0.00000000000E+00  0.00000000000E+00 -0.97253051850E+03  0.97253051850E+03  0.25500000920E-02 0.  1.
    10030    2    1    2    0    0  0.00000000000E+00  0.00000000000E+00  0.62824574234E+03  0.25733067793E+04  0.24954388528E+04 0.  0.
        1    1    3    3  502    0 -0.28575681664E+03  0.80636683886E+03  0.12507147156E+04  0.15153124222E+04  0.50400001928E-02 0. -1.
       -1    1    3    3    0  502  0.28575681664E+03 -0.80636683886E+03 -0.62246897325E+03  0.10579943571E+04  0.50400001928E-02 0.  1.
</event>
<event>
 5   0  0.3481387E-06  0.2517999E+04  0.7818609E-02  0.8396601E-01
        1   -1    0    0  501    0  0.00000000000E+00  0.00000000000E+00  0.15369502430E+04  0.15369502430E+04  0.50400001928E-02 0. -1.
       -1   -1    0    0    0  501  0.00000000000E+00  0.00000000000E+00 -0.10313151574E+04  0.10313151574E+04  0.50400001928E-02 0.  1.
    10030    2    1    2    0    0  0.00000000000E+00  0.00000000000E+00  0.50563508564E+03  0.25682654005E+04  0.25179992707E+04 0.  0.
        4    1    3    3  502    0  0.84421199948E+03 -0.48305129029E+03 -0.56254427112E+03  0.11236058557E+04  0.12699999809E+01 0.  1.
       -4    1    3    3    0  502 -0.84421199948E+03  0.48305129029E+03  0.10681793568E+04  0.14446595447E+04  0.12699999809E+01 0. -1.
</event>
<event>
 5   0  0.8948286E-06  0.2481152E+04  0.7818609E-02  0.8409731E-01
        2   -1    0    0  501    0  0.00000000000E+00  0.00000000000E+00  0.12821193136E+04  0.12821193136E+04  0.25500000920E-02 0.  1.
       -2   -1    0    0    0  501  0.00000000000E+00  0.00000000000E+00 -0.12003791820E+04  0.12003791820E+04  0.25500000920E-02 0. -1.
    10030    2    1    2    0    0  0.00000000000E+00  0.00000000000E+00  0.81740131574E+02  0.24824984956E+04  0.24811524201E+04 0.  0.
        4    1    3    3  502    0  0.11984684486E+04  0.31513367316E+03 -0.17401256738E+02  0.12393305737E+04  0.12699999809E+01 0. -1.
       -4    1    3    3    0  502 -0.11984684486E+04 -0.31513367316E+03  0.99141388312E+02  0.12431679219E+04  0.12699999809E+01 0.  1.
</event>
<event>
 5   0  0.2901250E-06  0.2460443E+04  0.7818609E-02  0.8417215E-01
        3   -1    0    0  501    0  0.00000000000E+00  0.00000000000E+00  0.18527117826E+04  0.18527117853E+04  0.10100000352E+00 0. -1.
       -3   -1    0    0    0  501  0.00000000000E+00  0.00000000000E+00 -0.81688120275E+03  0.81688120899E+03  0.10100000352E+00 0.  1.
    10030    2    1    2    0    0  0.00000000000E+00  0.00000000000E+00  0.10358305798E+04  0.26695929943E+04  0.24604434083E+04 0.  0.
        5    1    3    3  502    0  0.10408267452E+04  0.63872577514E+03  0.67933112747E+03  0.13974275653E+04  0.46999998093E+01 0. -1.
       -5    1    3    3    0  502 -0.10408267452E+04 -0.63872577514E+03  0.35649945237E+03  0.12721654291E+04  0.46999998093E+01 0.  1.
</event>
<event>
 5   0  0.8056723E-06  0.2482456E+04  0.7818609E-02  0.8409262E-01
       -2   -1    0    0    0  501  0.00000000000E+00  0.00000000000E+00  0.97959060048E+03  0.97959060048E+03  0.25500000920E-02 0. -1.
        2   -1    0    0  501    0  0.00000000000E+00  0.00000000000E+00 -0.15727459953E+04  0.15727459953E+04  0.25500000920E-02 0.  1.
    10030    2    1    2    0    0  0.00000000000E+00  0.00000000000E+00 -0.59315539482E+03  0.25523365958E+04  0.24824561982E+04 0.  0.
        2    1    3    3  502    0 -0.34168060533E+03  0.11785204886E+04 -0.10425318982E+03  0.12314726573E+04  0.25500000920E-02 0.  1.
       -2    1    3    3    0  502  0.34168060533E+03 -0.11785204886E+04 -0.48890220500E+03  0.13208639385E+04  0.25500000920E-02 0. -1.
</event>
<event>
 5   0  0.3481387E-06  0.2499577E+04  0.7818609E-02  0.8403136E-01
       -1   -1    0    0    0  501  0.00000000000E+00  0.00000000000E+00  0.67624886783E+03  0.67624886785E+03  0.50400001928E-02 0.  1.
        1   -1    0    0  501    0  0.00000000000E+00  0.00000000000E+00 -0.23097580810E+04  0.23097580810E+04  0.50400001928E-02 0. -1.
    10030    2    1    2    0    0  0.00000000000E+00  0.00000000000E+00 -0.16335092132E+04  0.29860069489E+04  0.24995769940E+04 0.  0.
        4    1    3    3  502    0 -0.63390675001E+03 -0.47999040000E+03  0.33512029487E+03  0.86286486585E+03  0.12699999809E+01 0.  1.
       -4    1    3    3    0  502  0.63390675001E+03  0.47999040000E+03 -0.19686295081E+04  0.21231420830E+04  0.12699999809E+01 0. -1.
</event>
<event>
 5   0  0.8948286E-06  0.2481026E+04  0.7818609E-02  0.8409777E-01
        2   -1    0    0  501    0  0.00000000000E+00  0.00000000000E+00  0.13275085791E+04  0.13275085791E+04  0.25500000920E-02 0. -1.
       -2   -1    0    0    0  501  0.00000000000E+00  0.00000000000E+00 -0.11592183404E+04  0.11592183404E+04  0.25500000920E-02 0.  1.
    10030    2    1    2    0    0  0.00000000000E+00  0.00000000000E+00  0.16829023870E+03  0.24867269195E+04  0.24810258297E+04 0.  0.
        4    1    3    3  502    0  0.18318593148E+03  0.10957210592E+04  0.63741804454E+03  0.12808064262E+04  0.12699999809E+01 0. -1.
       -4    1    3    3    0  502 -0.18318593148E+03 -0.10957210592E+04 -0.46912780584E+03  0.12059204933E+04  0.12699999809E+01 0.  1.
</event>
<event>
 5   0  0.3484857E-06  0.2501305E+04  0.7818609E-02  0.8402521E-01
       -1   -1    0    0    0  501  0.00000000000E+00  0.00000000000E+00  0.94186845353E+03  0.94186845354E+03  0.50400001928E-02 0.  1.
        1   -1    0    0  501    0  0.00000000000E+00  0.00000000000E+00 -0.16606688195E+04  0.16606688195E+04  0.50400001928E-02 0. -1.
    10030    2    1    2    0    0  0.00000000000E+00  0.00000000000E+00 -0.71880036595E+03  0.26025372730E+04  0.25013049177E+04 0.  0.
        3    1    3    3  502    0  0.32322452997E+03 -0.11713248027E+04 -0.66744955927E+03  0.13863494562E+04  0.10100000352E+00 0. -1.
       -3    1    3    3    0  502 -0.32322452997E+03  0.11713248027E+04 -0.51350806681E+02  0.12161878168E+04  0.10100000352E+00 0.  1.
</event>
<event>
 5   0  0.8407986E-06  0.2501816E+04  0.7818609E-02  0.8402339E-01
        2   -1    0    0  501    0  0.00000000000E+00  0.00000000000E+00  0.21282331916E+04  0.21282331916E+04  0.25500000920E-02 0.  1.
       -2   -1    0    0    0  501  0.00000000000E+00  0.00000000000E+00 -0.73524414613E+03  0.73524414614E+03  0.25500000920E-02 0. -1.
    10030    2    1    2    0    0  0.00000000000E+00  0.00000000000E+00  0.13929890455E+04  0.28634773378E+04  0.25018161369E+04 0.  0.
        5    1    3    3  502    0 -0.55625183847E+03  0.35744106607E+03  0.19118683045E+04  0.20229786769E+04  0.46999998093E+01 0.  1.
       -5    1    3    3    0  502  0.55625183847E+03 -0.35744106607E+03 -0.51887925899E+03  0.84049866086E+03  0.46999998093E+01 0. -1.
</event>
<event>
 5   0  0.8407986E-06  0.2501508E+04  0.7818609E-02  0.8402448E-01
        2   -1    0    0  501    0  0.00000000000E+00  0.00000000000E+00  0.18329238311E+04  0.18329238311E+04  0.25500000920E-02 0. -1.
       -2   -1    0    0    0  501  0.00000000000E+00  0.00000000000E+00 -0.85349211821E+03  0.85349211821E+03  0.25500000920E-02 0.  1.
    10030    2    1    2    0    0  0.00000000000E+00  0.00000000000E+00  0.97943171293E+03  0.26864159494E+04  0.25015083795E+04 0.  0.
        5    1    3    3  502    0  0.90350517293E+03  0.42602467348E+02 -0.43798271254E+03  0.10049813502E+04  0.46999998093E+01 0.  1.
       -5    1    3    3    0  502 -0.90350517293E+03 -0.42602467348E+02  0.14174144255E+04  0.16814345992E+04  0.46999998093E+01 0. -1.
</event>
<event>
 5   0  0.8579923E-06  0.2574502E+04  0.7818609E-02  0.8376914E-01
       -2   -1    0    0    0  501  0.00000000000E+00  0.00000000000E+00  0.15780865810E+04  0.15780865810E+04  0.25500000920E-02 0. -1.
        2   -1    0    0  501    0  0.00000000000E+00  0.00000000000E+00 -0.10500149620E+04  0.10500149620E+04  0.25500000920E-02 0.  1.
    10030    2    1    2    0    0  0.00000000000E+00  0.00000000000E+00  0.52807161903E+03  0.26281015431E+04  0.25745015218E+04 0.  0.
        1    1    3    3  502    0 -0.12588790885E+04  0.17987803973E+03  0.46789798338E+03  0.13550133548E+04  0.50400001928E-02 0.  1.
       -1    1    3    3    0  502  0.12588790885E+04 -0.17987803973E+03  0.60173635649E+02  0.12730881883E+04  0.50400001928E-02 0. -1.
</event>
<event>
 5   0  0.3481387E-06  0.2477178E+04  0.7818609E-02  0.8411162E-01
        1   -1    0    0  501    0  0.00000000000E+00  0.00000000000E+00  0.17444603167E+04  0.17444603167E+04  0.50400001928E-02 0.  1.
       -1   -1    0    0    0  501  0.00000000000E+00  0.00000000000E+00 -0.87941362696E+03  0.87941362698E+03  0.50400001928E-02 0. -1.
    10030    2    1    2    0    0  0.00000000000E+00  0.00000000000E+00  0.86504668978E+03  0.26238739437E+04  0.24771775667E+04 0.  0.
        4    1    3    3  502    0  0.42935525472E+02 -0.52179275157E+03  0.16214889154E+04  0.17039187336E+04  0.12699999809E+01 0.  1.
       -4    1    3    3    0  502 -0.42935525472E+02  0.52179275157E+03 -0.75644222567E+03  0.91995521011E+03  0.12699999809E+01 0. -1.
</event>
<event>
 5   0  0.3484857E-06  0.2479784E+04  0.7818609E-02  0.8410223E-01
        1   -1    0    0  501    0  0.00000000000E+00  0.00000000000E+00  0.13035345720E+04  0.13035345720E+04  0.50400001928E-02 0.  1.
       -1   -1    0    0    0  501  0.00000000000E+00  0.00000000000E+00 -0.11793569590E+04  0.11793569590E+04  0.50400001928E-02 0. -1.
    10030    2    1    2    0    0  0.00000000000E+00  0.00000000000E+00  0.12417761303E+03  0.24828915310E+04  0.24797843203E+04 0.  0.
        3    1    3    3  502    0 -0.84920298298E+03 -0.18524725962E+03  0.94743107112E+03  0.12857246588E+04  0.10100000352E+00 0.  1.
       -3    1    3    3    0  502  0.84920298298E+03  0.18524725962E+03 -0.82325345809E+03  0.11971668722E+04  0.10100000352E+00 0. -1.
</event>
<event>
 5   0  0.3484857E-06  0.2498105E+04  0.7818609E-02  0.8403661E-01
       -1   -1    0    0    0  501  0.00000000000E+00  0.00000000000E+00  0.15284651631E+04  0.15284651631E+04  0.50400001928E-02 0. -1.
        1   -1    0    0  501    0  0.00000000000E+00  0.00000000000E+00 -0.10207180025E+04  0.10207180025E+04  0.50400001928E-02 0.  1.
    10030    2    1    2    0    0  0.00000000000E+00  0.00000000000E+00  0.50774716062E+03  0.25491831655E+04  0.24981048081E+04 0.  0.
        3    1    3    3  502    0  0.41888970275E+03  0.97570720030E+02  0.14505159070E+04  0.15129392040E+04  0.10100000352E+00 0. -1.
       -3    1    3    3    0  502 -0.41888970275E+03 -0.97570720030E+02 -0.94276874636E+03  0.10362439615E+04  0.10100000352E+00 0.  1.
</event>
<event>
 5   0  0.8948286E-06  0.2500569E+04  0.7818609E-02  0.8402783E-01
       -2   -1    0    0    0  501  0.00000000000E+00  0.00000000000E+00  0.81166875523E+03  0.81166875523E+03  0.25500000920E-02 0. -1.
        2   -1    0    0  501    0  0.00000000000E+00  0.00000000000E+00 -0.19259230026E+04  0.19259230026E+04  0.25500000920E-02 0.  1.
    10030    2    1    2    0    0  0.00000000000E+00  0.00000000000E+00 -0.11142542473E+04  0.27375917578E+04  0.25005691561E+04 0.  0.
        4    1    3    3  502    0  0.11311819846E+04  0.39381279708E+03 -0.94964883097E+03  0.15285600140E+04  0.12699999809E+01 0.  1.
       -4    1    3    3    0  502 -0.11311819846E+04 -0.39381279708E+03 -0.16460541635E+03  0.12090317438E+04  0.12699999809E+01 0. -1.
</event>
<event>
 5   0  0.3642184E-06  0.2499258E+04  0.7818609E-02  0.8403250E-01
        1   -1    0    0  501    0  0.00000000000E+00  0.00000000000E+00  0.12317036372E+04  0.12317036372E+04  0.50400001928E-02 0. -1.
       -1   -1    0    0    0  501  0.00000000000E+00  0.00000000000E+00 -0.12678155712E+04  0.12678155712E+04  0.50400001928E-02 0.  1.
    10030    2    1    2    0    0  0.00000000000E+00  0.00000000000E+00 -0.36111934008E+02  0.24995192083E+04  0.24992583302E+04 0.  0.
        5    1    3    3  502    0  0.16253099953E+03 -0.11300512040E+04 -0.52616304199E+03  0.12571005076E+04  0.46999998093E+01 0.  1.
       -5    1    3    3    0  502 -0.16253099953E+03  0.11300512040E+04  0.49005110798E+03  0.12424187007E+04  0.46999998093E+01 0. -1.
</event>
<event>
 5   0  0.3481387E-06  0.2501256E+04  0.7818609E-02  0.8402538E-01
       -1   -1    0    0    0  501  0.00000000000E+00  0.00000000000E+00  0.11484574794E+04  0.11484574794E+04  0.50400001928E-02 0.  1.
        1   -1    0    0  501    0  0.00000000000E+00  0.00000000000E+00 -0.13618884623E+04  0.13618884623E+04  0.50400001928E-02 0. -1.
    10030    2    1    2    0    0  0.00000000000E+00  0.00000000000E+00 -0.21343098287E+03  0.25103459417E+04  0.25012564768E+04 0.  0.
        4    1    3    3  502    0 -0.26860410370E+03 -0.89234169922E+03 -0.94380127040E+03  0.13263424609E+04  0.12699999809E+01 0. -1.
       -4    1    3    3    0  502  0.26860410370E+03  0.89234169922E+03  0.73037028753E+03  0.11840034808E+04  0.12699999809E+01 0.  1.
</event>
<event>
 5   0  0.3522870E-06  0.2507653E+04  0.7818609E-02  0.8400264E-01
       -1   -1    0    0    0  501  0.00000000000E+00  0.00000000000E+00  0.78176887148E+03  0.78176887150E+03  0.50400001928E-02 0.  1.
        1   -1    0    0  501    0  0.00000000000E+00  0.00000000000E+00 -0.20109274482E+04  0.20109274482E+04  0.50400001928E-02 0. -1.
    10030    2    1    2    0    0  0.00000000000E+00  0.00000000000E+00 -0.12291585767E+04  0.27926963197E+04  0.25076526728E+04 0.  0.
        2    1    3    3  502    0 -0.45798529405E+03  0.31678318717E+03  0.63649265266E+03  0.84570976944E+03  0.25500000920E-02 0.  1.
       -2    1    3    3    0  502  0.45798529405E+03 -0.31678318717E+03 -0.18656512293E+04  0.19469865502E+04  0.25500000920E-02 0. -1.
</event>
<event>
 5   0  0.8354653E-06  0.2498463E+04  0.7818609E-02  0.8403533E-01
        2   -1    0    0  501    0  0.00000000000E+00  0.00000000000E+00  0.87149041736E+03  0.87149041737E+03  0.25500000920E-02 0. -1.
       -2   -1    0    0    0  501  0.00000000000E+00  0.00000000000E+00 -0.17907018630E+04  0.17907018630E+04  0.25500000920E-02 0.  1.
    10030    2    1    2    0    0  0.00000000000E+00  0.00000000000E+00 -0.91921144567E+03  0.26621922804E+04  0.24984631388E+04 0.  0.
        3    1    3    3  502    0  0.40586024411E+03 -0.54118827786E+03 -0.15786538359E+04  0.17174851480E+04  0.10100000352E+00 0. -1.
       -3    1    3    3    0  502 -0.40586024411E+03  0.54118827786E+03  0.65944239020E+03  0.94470713242E+03  0.10100000352E+00 0.  1.
</event>
<event>
 5   0  0.8948286E-06  0.2501684E+04  0.7818609E-02  0.8402386E-01
        2   -1    0    0  501    0  0.00000000000E+00  0.00000000000E+00  0.13244104357E+04  0.13244104357E+04  0.25500000920E-02 0. -1.
       -2   -1    0    0    0  501  0.00000000000E+00  0.00000000000E+00 -0.11813603767E+04  0.11813603767E+04  0.25500000920E-02 0.  1.
    10030    2    1    2    0    0  0.00000000000E+00  0.00000000000E+00  0.14305005898E+03  0.25057708124E+04  0.25016842417E+04 0.  0.
        4    1    3    3  502    0  0.91994352435E+03 -0.24330519782E+03  0.88470766690E+03  0.12993085761E+04  0.12699999809E+01 0. -1.
       -4    1    3    3    0  502 -0.91994352435E+03  0.24330519782E+03 -0.74165760792E+03  0.12064622363E+04  0.12699999809E+01 0.  1.
</event>
<event>
 5   0  0.8579923E-06  0.2519964E+04  0.7818609E-02  0.8395908E-01
        2   -1    0    0  501    0  0.00000000000E+00  0.00000000000E+00  0.11944420347E+04  0.11944420347E+04  0.25500000920E-02 0. -1.
       -2   -1    0    0    0  501  0.00000000000E+00  0.00000000000E+00 -0.13291180182E+04  0.13291180182E+04  0.25500000920E-02 0.  1.
    10030    2    1    2    0    0  0.00000000000E+00  0.00000000000E+00 -0.13467598352E+03  0.25235600529E+04  0.25199638331E+04 0.  0.
        1    1    3    3  502    0 -0.57782611602E+03 -0.61658573948E+02  0.10522331462E+04  0.12020313615E+04  0.50400001928E-02 0. -1.
       -1    1    3    3    0  502  0.57782611602E+03  0.61658573948E+02 -0.11869091297E+04  0.13215286914E+04  0.50400001928E-02 0.  1.
</event>
<event>
 5   0  0.8354653E-06  0.2510581E+04  0.7818609E-02  0.8399226E-01
        2   -1    0    0  501    0  0.00000000000E+00  0.00000000000E+00  0.23244685323E+04  0.23244685323E+04  0.25500000920E-02 0. -1.
       -2   -1    0    0    0  501  0.00000000000E+00  0.00000000000E+00 -0.67789850969E+03  0.67789850970E+03  0.25500000920E-02 0.  1.
    10030    2    1    2    0    0  0.00000000000E+00  0.00000000000E+00  0.16465700226E+04  0.30023670420E+04  0.25105806132E+04 0.  0.
        3    1    3    3  502    0 -0.43994825443E+03  0.57166057723E+03  0.20518520808E+04  0.21749591384E+04  0.10100000352E+00 0. -1.
       -3    1    3    3    0  502  0.43994825443E+03 -0.57166057723E+03 -0.40528205813E+03  0.82740790363E+03  0.10100000352E+00 0.  1.
</event>
<event>
 5   0  0.3642184E-06  0.2493923E+04  0.7818609E-02  0.8405154E-01
        1   -1    0    0  501    0  0.00000000000E+00  0.00000000000E+00  0.14265839626E+04  0.14265839626E+04  0.50400001928E-02 0. -1.
       -1   -1    0    0    0  501  0.00000000000E+00  0.00000000000E+00 -0.10899554245E+04  0.10899554246E+04  0.50400001928E-02 0.  1.
    10030    2    1    2    0    0  0.00000000000E+00  0.00000000000E+00  0.33662853804E+03  0.25165393871E+04  0.24939229568E+04 0.  0.
        5    1    3    3  502    0  0.12766312291E+03 -0.11797621638E+04 -0.21824489409E+03  0.12065610469E+04  0.46999998093E+01 0. -1.
       -5    1    3    3    0  502 -0.12766312291E+03  0.11797621638E+04  0.55487343213E+03  0.13099783402E+04  0.46999998093E+01 0.  1.
</event>
<event>
 5   0  0.3481387E-06  0.2564609E+04  0.7818609E-02  0.8380323E-01
        1   -1    0    0  501    0  0.00000000000E+00  0.00000000000E+00  0.53933766652E+03  0.53933766654E+03  0.50400001928E-02 0. -1.
       -1   -1    0    0    0  501  0.00000000000E+00  0.00000000000E+00 -0.30487473969E+04  0.30487473969E+04  0.50400001928E-02 0.  1.
    10030    2    1    2    0    0  0.00000000000E+00  0.00000000000E+00 -0.25094097304E+04  0.35880850634E+04  0.25646085915E+04 0.  0.
        4    1    3    3  502    0  0.50135434825E+03 -0.47163794921E+03 -0.27683641097E+04  0.28526549028E+04  0.12699999809E+01 0.  1.
       -4    1    3    3    0  502 -0.50135434825E+03  0.47163794921E+03  0.25895437936E+03  0.73543016061E+03  0.12699999809E+01 0. -1.
</event>
<event>
 5   0  0.3642184E-06  0.2665055E+04  0.7818609E-02  0.8346433E-01
        1   -1    0    0  501    0  0.00000000000E+00  0.00000000000E+00  0.14405097867E+04  0.14405097867E+04  0.50400001928E-02 0. -1.
       -1   -1    0    0    0  501  0.00000000000E+00  0.00000000000E+00 -0.12326396979E+04  0.12326396979E+04  0.50400001928E-02 0.  1.
    10030    2    1    2    0    0  0.00000000000E+00  0.00000000000E+00  0.20787008883E+03  0.26731494846E+04  0.26650550075E+04 0.  0.
        5    1    3    3  502    0 -0.36407363797E+03  0.10992121986E+04 -0.55745405786E+03  0.12851436449E+04  0.46999998093E+01 0.  1.
       -5    1    3    3    0  502  0.36407363797E+03 -0.10992121986E+04  0.76532414669E+03  0.13880058397E+04  0.46999998093E+01 0. -1.
</event>
<event>
 5   0  0.3424193E-06  0.2525310E+04  0.7818609E-02  0.8394024E-01
        1   -1    0    0  501    0  0.00000000000E+00  0.00000000000E+00  0.86143674936E+03  0.86143674938E+03  0.50400001928E-02 0.  1.
       -1   -1    0    0    0  501  0.00000000000E+00  0.00000000000E+00 -0.18507423323E+04  0.18507423323E+04  0.50400001928E-02 0. -1.
    10030    2    1    2    0    0  0.00000000000E+00  0.00000000000E+00 -0.98930558298E+03  0.27121790817E+04  0.25253098493E+04 0.  0.
        1    1    3    3  502    0 -0.10032852979E+04 -0.45709238382E+03  0.16634302785E+03  0.11149819906E+04  0.50400001928E-02 0.  1.
       -1    1    3    3    0  502  0.10032852979E+04  0.45709238382E+03 -0.11556486108E+04  0.15971970912E+04  0.50400001928E-02 0. -1.
</event>
<event>
 5   0  0.8948286E-06  0.2499875E+04  0.7818609E-02  0.8403030E-01
       -2   -1    0    0    0  501  0.00000000000E+00  0.00000000000E+00  0.10097990100E+04  0.10097990100E+04  0.25500000920E-02 0. -1.
        2   -1    0    0  501    0  0.00000000000E+00  0.00000000000E+00 -0.15471827640E+04  0.15471827640E+04  0.25500000920E-02 0.  1.
    10030    2    1    2    0    0  0.00000000000E+00  0.00000000000E+00 -0.53738375400E+03  0.25569817740E+04  0.24998748956E+04 0.  0.
        4    1    3    3  502    0  0.82231291561E+03  0.90893620332E+03 -0.18192295970E+02  0.12258450658E+04  0.12699999809E+01 0.  1.
       -4    1    3    3    0  502 -0.82231291561E+03 -0.90893620332E+03 -0.51919145803E+03  0.13311367082E+04  0.12699999809E+01 0. -1.
</event>
<event>
 5   0  0.8579923E-06  0.2495717E+04  0.7818609E-02  0.8404513E-01
       -2   -1    0    0    0  501  0.00000000000E+00  0.00000000000E+00  0.15732186399E+04  0.15732186400E+04  0.25500000920E-02 0. -1.
        2   -1    0    0  501    0  0.00000000000E+00  0.00000000000E+00 -0.98978638596E+03  0.98978638597E+03  0.25500000920E-02 0.  1.
    10030    2    1    2    0    0  0.00000000000E+00  0.00000000000E+00  0.58343225399E+03  0.25630050259E+04  0.24957166441E+04 0.  0.
        1    1    3    3  502    0 -0.99636659454E+03 -0.70488612260E+03  0.24825525082E+02  0.12207485995E+04  0.50400001928E-02 0.  1.
       -1    1    3    3    0  502  0.99636659454E+03  0.70488612260E+03  0.55860672890E+03  0.13422564264E+04  0.50400001928E-02 0. -1.
</event>
<event>
 5   0  0.8056723E-06  0.2514667E+04  0.7818609E-02  0.8397779E-01
       -2   -1    0    0    0  501  0.00000000000E+00  0.00000000000E+00  0.66618206165E+03  0.66618206165E+03  0.25500000920E-02 0.  1.
        2   -1    0    0  501    0  0.00000000000E+00  0.00000000000E+00 -0.23730562128E+04  0.23730562128E+04  0.25500000920E-02 0. -1.
    10030    2    1    2    0    0  0.00000000000E+00  0.00000000000E+00 -0.17068741512E+04  0.30392382745E+04  0.25146669603E+04 0.  0.
        2    1    3    3  502    0  0.45823524030E+03 -0.10416097671E+04 -0.14997378391E+04  0.18825897132E+04  0.25500000920E-02 0. -1.
       -2    1    3    3    0  502 -0.45823524030E+03  0.10416097671E+04 -0.20713631211E+03  0.11566485612E+04  0.25500000920E-02 0.  1.
</event>
<event>
 5   0  0.3484857E-06  0.2493991E+04  0.7818609E-02  0.8405129E-01
       -1   -1    0    0    0  501  0.00000000000E+00  0.00000000000E+00  0.10320838888E+04  0.10320838889E+04  0.50400001928E-02 0.  1.
        1   -1    0    0  501    0  0.00000000000E+00  0.00000000000E+00 -0.15066584675E+04  0.15066584675E+04  0.50400001928E-02 0. -1.
    10030    2    1    2    0    0  0.00000000000E+00  0.00000000000E+00 -0.47457457868E+03  0.25387423564E+04  0.24939911230E+04 0.  0.
        3    1    3    3  502    0 -0.11282752029E+04 -0.40478786552E+03 -0.58716943979E+03  0.13347756781E+04  0.10100000352E+00 0. -1.
       -3    1    3    3    0  502  0.11282752029E+04  0.40478786552E+03  0.11259486111E+03  0.12039666783E+04  0.10100000352E+00 0.  1.
</event>
<event>
 5   0  0.8354653E-06  0.2479449E+04  0.7818609E-02  0.8410344E-01
        2   -1    0    0  501    0  0.00000000000E+00  0.00000000000E+00  0.73014027215E+03  0.73014027215E+03  0.25500000920E-02 0.  1.
       -2   -1    0    0    0  501  0.00000000000E+00  0.00000000000E+00 -0.21049607497E+04  0.21049607497E+04  0.25500000920E-02 0. -1.
    10030    2    1    2    0    0  0.00000000000E+00  0.00000000000E+00 -0.13748204776E+04  0.28351010219E+04  0.24794488216E+04 0.  0.
        3    1    3    3  502    0 -0.11908521550E+04  0.27992681943E+03 -0.91732053123E+03  0.15290404986E+04  0.10100000352E+00 0.  1.
       -3    1    3    3    0  502  0.11908521550E+04 -0.27992681943E+03 -0.45749994634E+03  0.13060605232E+04  0.10100000352E+00 0. -1.
</event>
<event>
 5   0  0.8407986E-06  0.2494354E+04  0.7818609E-02  0.8405000E-01
        2   -1    0    0  501    0  0.00000000000E+00  0.00000000000E+00  0.14495667209E+04  0.14495667209E+04  0.25500000920E-02 0. -1.
       -2   -1    0    0    0  501  0.00000000000E+00  0.00000000000E+00 -0.10730449989E+04  0.10730449989E+04  0.25500000920E-02 0.  1.
    10030    2    1    2    0    0  0.00000000000E+00  0.00000000000E+00  0.37652172197E+03  0.25226117198E+04  0.24943538806E+04 0.  0.
        5    1    3    3  502    0  0.11849208813E+04  0.28657731706E+03 -0.77901524195E+02  0.12215788108E+04  0.46999998093E+01 0. -1.
       -5    1    3    3    0  502 -0.11849208813E+04 -0.28657731706E+03  0.45442324617E+03  0.13010329090E+04  0.46999998093E+01 0.  1.
</event>
<event>
 5   0  0.8579923E-06  0.2499558E+04  0.7818609E-02  0.8403143E-01
        2   -1    0    0  501    0  0.00000000000E+00  0.00000000000E+00  0.19631388318E+04  0.19631388318E+04  0.25500000920E-02 0.  1.
       -2   -1    0    0    0  501  0.00000000000E+00  0.00000000000E+00 -0.79563811293E+03  0.79563811294E+03  0.25500000920E-02 0. -1.
    10030    2    1    2    0    0  0.00000000000E+00  0.00000000000E+00  0.11675007189E+04  0.27587769448E+04  0.24995584215E+04 0.  0.
        1    1    3    3  502    0  0.26063766672E+03  0.39007455608E+03  0.18622675255E+04  0.19204505953E+04  0.50400001928E-02 0.  1.
       -1    1    3    3    0  502 -0.26063766672E+03 -0.39007455608E+03 -0.69476680658E+03  0.83832634944E+03  0.50400001928E-02 0. -1.
</event>
<event>
 5   0  0.3484857E-06  0.2471611E+04  0.7818609E-02  0.8413170E-01
       -1   -1    0    0    0  501  0.00000000000E+00  0.00000000000E+00  0.79959460504E+03  0.79959460505E+03  0.50400001928E-02 0.  1.
        1   -1    0    0  501    0  0.00000000000E+00  0.00000000000E+00 -0.19099868515E+04  0.19099868515E+04  0.50400001928E-02 0. -1.
    10030    2    1    2    0    0  0.00000000000E+00  0.00000000000E+00 -0.11103922465E+04  0.27095814566E+04  0.24716109582E+04 0.  0.
        3    1    3    3  502    0  0.85140778619E+03  0.88296404636E+03 -0.39004486136E+03  0.12871113898E+04  0.10100000352E+00 0. -1.
       -3    1    3    3    0  502 -0.85140778619E+03 -0.88296404636E+03 -0.72034738509E+03  0.14224700668E+04  0.10100000352E+00 0.  1.
</event>
<event>
 5   0  0.3481387E-06  0.2595158E+04  0.7818609E-02  0.8369848E-01
        1   -1    0    0  501    0  0.00000000000E+00  0.00000000000E+00  0.14094521836E+04  0.14094521836E+04  0.50400001928E-02 0.  1.
       -1   -1    0    0    0  501  0.00000000000E+00  0.00000000000E+00 -0.11945857175E+04  0.11945857175E+04  0.50400001928E-02 0. -1.
    10030    2    1    2    0    0  0.00000000000E+00  0.00000000000E+00  0.21486646612E+03  0.26040379011E+04  0.25951581440E+04 0.  0.
        4    1    3    3  502    0  0.39306315633E+03  0.10970741764E+04  0.68003406370E+03  0.13492658500E+04  0.12699999809E+01 0.  1.
       -4    1    3    3    0  502 -0.39306315633E+03 -0.10970741764E+04 -0.46516759758E+03  0.12547720511E+04  0.12699999809E+01 0. -1.
</event>
<event>
 5   0  0.3484857E-06  0.2502345E+04  0.7818609E-02  0.8402150E-01
       -1   -1    0    0    0  501  0.00000000000E+00  0.00000000000E+00  0.11286800401E+04  0.11286800401E+04  0.50400001928E-02 0.  1.
        1   -1    0    0  501    0  0.00000000000E+00  0.00000000000E+00 -0.13869591507E+04  0.13869591507E+04  0.50400001928E-02 0. -1.
    10030    2    1    2    0    0  0.00000000000E+00  0.00000000000E+00 -0.25827911065E+03  0.25156391908E+04  0.25023453877E+04 0.  0.
        3    1    3    3  502    0 -0.67436365626E+03  0.27951061273E+03 -0.11506778748E+04  0.13627002991E+04  0.10100000352E+00 0. -1.
       -3    1    3    3    0  502  0.67436365626E+03 -0.27951061273E+03  0.89239876415E+03  0.11529388917E+04  0.10100000352E+00 0.  1.
</event>
<event>
 5   0  0.8948286E-06  0.2503749E+04  0.7818609E-02  0.8401651E-01
       -2   -1    0    0    0  501  0.00000000000E+00  0.00000000000E+00  0.68381526304E+03  0.68381526304E+03  0.25500000920E-02 0. -1.
        2   -1    0    0  501    0  0.00000000000E+00  0.00000000000E+00 -0.22918325282E+04  0.22918325282E+04  0.25500000920E-02 0.  1.
    10030    2    1    2    0    0  0.00000000000E+00  0.00000000000E+00 -0.16080172652E+04  0.29756477913E+04  0.25037492392E+04 0.  0.
        4    1    3    3  502    0 -0.59847762065E+03  0.74917142759E+02  0.49974572308E+03  0.78328503199E+03  0.12699999809E+01 0. -1.
       -4    1    3    3    0  502  0.59847762065E+03 -0.74917142759E+02 -0.21077629883E+04  0.21923627593E+04  0.12699999809E+01 0.  1.
</event>
<event>
 5   0  0.8407986E-06  0.2492970E+04  0.7818609E-02  0.8405494E-01
        2   -1    0    0  501    0  0.00000000000E+00  0.00000000000E+00  0.10547047553E+04  0.10547047553E+04  0.25500000920E-02 0.  1.
       -2   -1    0    0    0  501  0.00000000000E+00  0.00000000000E+00 -0.14731368713E+04  0.14731368713E+04  0.25500000920E-02 0. -1.
    10030    2    1    2    0    0  0.00000000000E+00  0.00000000000E+00 -0.41843211603E+03  0.25278416266E+04  0.24929696857E+04 0.  0.
        5    1    3    3  502    0  0.57558297891E+03 -0.48776974702E+03 -0.12153085745E+04  0.14304587072E+04  0.46999998093E+01 0. -1.
       -5    1    3    3    0  502 -0.57558297891E+03  0.48776974702E+03  0.79687645851E+03  0.10973829194E+04  0.46999998093E+01 0.  1.
</event>
<event>
 5   0  0.8056723E-06  0.2501051E+04  0.7818609E-02  0.8402611E-01
        2   -1    0    0  501    0  0.00000000000E+00  0.00000000000E+00  0.19437496979E+04  0.19437496979E+04  0.25500000920E-02 0.  1.
       -2   -1    0    0    0  501  0.00000000000E+00  0.00000000000E+00 -0.80453451960E+03  0.80453451960E+03  0.25500000920E-02 0. -1.
    10030    2    1    2    0    0  0.00000000000E+00  0.00000000000E+00  0.11392151783E+04  0.27482842175E+04  0.25010507627E+04 0.  0.
        2    1    3    3  502    0 -0.34302164531E+03 -0.23105573072E+03 -0.72720664257E+03  0.83658837002E+03  0.25500000920E-02 0. -1.
       -2    1    3    3    0  502  0.34302164531E+03  0.23105573072E+03  0.18664218209E+04  0.19116958475E+04  0.25500000920E-02 0.  1.
</event>
<event>
 5   0  0.8354653E-06  0.2501829E+04  0.7818609E-02  0.8402334E-01
       -2   -1    0    0    0  501  0.00000000000E+00  0.00000000000E+00  0.11939425379E+04  0.11939425379E+04  0.25500000920E-02 0.  1.
        2   -1    0    0  501    0  0.00000000000E+00  0.00000000000E+00 -0.13106048438E+04  0.13106048438E+04  0.25500000920E-02 0. -1.
    10030    2    1    2    0    0  0.00000000000E+00  0.00000000000E+00 -0.11666230592E+03  0.25045473817E+04  0.25018288298E+04 0.  0.
        3    1    3    3  502    0 -0.90664048673E+03  0.84540446889E+03  0.10942532431E+03  0.12444595614E+04  0.10100000352E+00 0.  1.
       -3    1    3    3    0  502  0.90664048673E+03 -0.84540446889E+03 -0.22608763023E+03  0.12600878203E+04  0.10100000352E+00 0. -1.
</event>
<event>
 5   0  0.8056723E-06  0.2487034E+04  0.7818609E-02  0.8407619E-01
       -2   -1    0    0    0  501  0.00000000000E+00  0.00000000000E+00  0.92192957286E+03  0.92192957286E+03  0.25500000920E-02 0.  1.
        2   -1    0    0  501    0  0.00000000000E+00  0.00000000000E+00 -0.16772805157E+04  0.16772805157E+04  0.25500000920E-02 0. -1.
    10030    2    1    2    0    0  0.00000000000E+00  0.00000000000E+00 -0.75535094280E+03  0.25992100885E+04  0.24870339840E+04 0.  0.
        2    1    3    3  502    0 -0.10454705052E+04  0.41929414556E+03 -0.92823656506E+03  0.14596024385E+04  0.25500000920E-02 0. -1.
       -2    1    3    3    0  502  0.10454705052E+04 -0.41929414556E+03  0.17288562226E+03  0.11396076501E+04  0.25500000920E-02 0.  1.
</event>
<event>
 5   0  0.8354653E-06  0.2495854E+04  0.7818609E-02  0.8404464E-01
        2   -1    0    0  501    0  0.00000000000E+00  0.00000000000E+00  0.19091971657E+04  0.19091971657E+04  0.25500000920E-02 0. -1.
       -2   -1    0    0    0  501  0.00000000000E+00  0.00000000000E+00 -0.81569470370E+03  0.81569470371E+03  0.25500000920E-02 0.  1.
    10030    2    1    2    0    0  0.00000000000E+00  0.00000000000E+00  0.10935024620E+04  0.27248918694E+04  0.24958541755E+04 0.  0.
        3    1    3    3  502    0 -0.34770264000E+03 -0.76384692336E+03 -0.46156115119E+03  0.95780893433E+03  0.10100000352E+00 0.  1.
       -3    1    3    3    0  502  0.34770264000E+03  0.76384692336E+03  0.15550636132E+04  0.17670829351E+04  0.10100000352E+00 0. -1.
</event>
<event>
 5   0  0.8354653E-06  0.2509751E+04  0.7818609E-02  0.8399520E-01
        2   -1    0    0  501    0  0.00000000000E+00  0.00000000000E+00  0.16838646034E+04  0.16838646034E+04  0.25500000920E-02 0. -1.
       -2   -1    0    0    0  501  0.00000000000E+00  0.00000000000E+00 -0.93517727334E+03  0.93517727335E+03  0.25500000920E-02 0.  1.
    10030    2    1    2    0    0  0.00000000000E+00  0.00000000000E+00  0.74868733007E+03  0.26190418768E+04  0.25097505123E+04 0.  0.
        3    1    3    3  502    0 -0.39695794989E+03 -0.93902435692E+03  0.11378958438E+04  0.15277923021E+04  0.10100000352E+00 0. -1.
       -3    1    3    3    0  502  0.39695794989E+03  0.93902435692E+03 -0.38920851370E+03  0.10912495747E+04  0.10100000352E+00 0.  1.
</event>
<event>
 5   0  0.8056723E-06  0.2494944E+04  0.7818609E-02  0.8404789E-01
        2   -1    0    0  501    0  0.00000000000E+00  0.00000000000E+00  0.10726552701E+04  0.10726552701E+04  0.25500000920E-02 0.  1.
       -2   -1    0    0    0  501  0.00000000000E+00  0.00000000000E+00 -0.14507796040E+04  0.14507796040E+04  0.25500000920E-02 0. -1.
    10030    2    1    2    0    0  0.00000000000E+00  0.00000000000E+00 -0.37812433393E+03  0.25234348741E+04  0.24949439977E+04 0.  0.
        2    1    3    3  502    0  0.63104599157E+03  0.59344249671E+02  0.89765877477E+03  0.10988776362E+04  0.25500000920E-02 0.  1.
       -2    1    3    3    0  502 -0.63104599157E+03 -0.59344249671E+02 -0.12757831087E+04  0.14245572379E+04  0.25500000920E-02 0. -1.
</event>
<event>
 5   0  0.3484857E-06  0.2373674E+04  0.7818609E-02  0.8449426E-01
       -1   -1    0    0    0  501  0.00000000000E+00  0.00000000000E+00  0.13784847607E+04  0.13784847607E+04  0.50400001928E-02 0.  1.
        1   -1    0    0  501    0  0.00000000000E+00  0.00000000000E+00 -0.10218333530E+04  0.10218333530E+04  0.50400001928E-02 0. -1.
    10030    2    1    2    0    0  0.00000000000E+00  0.00000000000E+00  0.35665140768E+03  0.24003181136E+04  0.23736736971E+04 0.  0.
        3    1    3    3  502    0 -0.55474205632E+03  0.47651628215E+03 -0.76692636571E+03  0.10597087226E+04  0.10100000352E+00 0. -1.
       -3    1    3    3    0  502  0.55474205632E+03 -0.47651628215E+03  0.11235777734E+04  0.13406093910E+04  0.10100000352E+00 0.  1.
</event>
<event>
 5   0  0.3522870E-06  0.2499847E+04  0.7818609E-02  0.8403040E-01
        1   -1    0    0  501    0  0.00000000000E+00  0.00000000000E+00  0.25127591587E+04  0.25127591587E+04  0.50400001928E-02 0. -1.
       -1   -1    0    0    0  501  0.00000000000E+00  0.00000000000E+00 -0.62175030967E+03  0.62175030969E+03  0.50400001928E-02 0.  1.
    10030    2    1    2    0    0  0.00000000000E+00  0.00000000000E+00  0.18910088490E+04  0.31345094684E+04  0.24998470234E+04 0.  0.
        2    1    3    3  502    0  0.90813770287E+03  0.74050306761E+03  0.40003050901E+03  0.12381774060E+04  0.25500000920E-02 0. -1.
       -2    1    3    3    0  502 -0.90813770287E+03 -0.74050306761E+03  0.14909783400E+04  0.18963320624E+04  0.25500000920E-02 0.  1.
</event>
<event>
 5   0  0.3522870E-06  0.2483428E+04  0.7818609E-02  0.8408913E-01
        1   -1    0    0  501    0  0.00000000000E+00  0.00000000000E+00  0.80396972031E+03  0.80396972033E+03  0.50400001928E-02 0.  1.
       -1   -1    0    0    0  501  0.00000000000E+00  0.00000000000E+00 -0.19178000796E+04  0.19178000796E+04  0.50400001928E-02 0. -1.
    10030    2    1    2    0    0  0.00000000000E+00  0.00000000000E+00 -0.11138303593E+04  0.27217698000E+04  0.24834276262E+04 0.  0.
        2    1    3    3  502    0  0.21934168077E+03  0.11855718614E+04 -0.88233204962E+03  0.14940553059E+04  0.25500000920E-02 0. -1.
       -2    1    3    3    0  502 -0.21934168077E+03 -0.11855718614E+04 -0.23149830971E+03  0.12277144940E+04  0.25500000920E-02 0.  1.
</event>
<event>
 5   0  0.3484857E-06  0.2473710E+04  0.7818609E-02  0.8412412E-01
       -1   -1    0    0    0  501  0.00000000000E+00  0.00000000000E+00  0.16535095477E+04  0.16535095477E+04  0.50400001928E-02 0. -1.
        1   -1    0    0  501    0  0.00000000000E+00  0.00000000000E+00 -0.92518992082E+03  0.92518992083E+03  0.50400001928E-02 0.  1.
    10030    2    1    2    0    0  0.00000000000E+00  0.00000000000E+00  0.72831962689E+03  0.25786994685E+04  0.24737100619E+04 0.  0.
        3    1    3    3  502    0 -0.84242415547E+03 -0.57926865001E+03  0.10898221073E+04  0.14943034707E+04  0.10100000352E+00 0. -1.
       -3    1    3    3    0  502  0.84242415547E+03  0.57926865001E+03 -0.36150248046E+03  0.10843959979E+04  0.10100000352E+00 0.  1.
</event>
<event>
 5   0  0.8579923E-06  0.2507769E+04  0.7818609E-02  0.8400223E-01
       -2   -1    0    0    0  501  0.00000000000E+00  0.00000000000E+00  0.15387876274E+04  0.15387876274E+04  0.25500000920E-02 0. -1.
        2   -1    0    0  501    0  0.00000000000E+00  0.00000000000E+00 -0.10217302839E+04  0.10217302839E+04  0.25500000920E-02 0.  1.
    10030    2    1    2    0    0  0.00000000000E+00  0.00000000000E+00  0.51705734350E+03  0.25605179114E+04  0.25077686652E+04 0.  0.
        1    1    3    3  502    0 -0.49637562027E+03  0.49663266278E+03  0.13192222486E+04  0.14944497648E+04  0.50400001928E-02 0. -1.
       -1    1    3    3    0  502  0.49637562027E+03 -0.49663266278E+03 -0.80216490513E+03  0.10660681466E+04  0.50400001928E-02 0.  1.
</event>
<event>
 5   0  0.3484857E-06  0.2520886E+04  0.7818609E-02  0.8395582E-01
        1   -1    0    0  501    0  0.00000000000E+00  0.00000000000E+00  0.17590251270E+04  0.17590251270E+04  0.50400001928E-02 0. -1.
       -1   -1    0    0    0  501  0.00000000000E+00  0.00000000000E+00 -0.90318034289E+03  0.90318034290E+03  0.50400001928E-02 0.  1.
    10030    2    1    2    0    0  0.00000000000E+00  0.00000000000E+00  0.85584478414E+03  0.26622054699E+04  0.25208862865E+04 0.  0.
        3    1    3    3  502    0  0.80913411949E+03  0.27751188529E+03  0.14055653051E+04  0.16453950003E+04  0.10100000352E+00 0. -1.
       -3    1    3    3    0  502 -0.80913411949E+03 -0.27751188529E+03 -0.54972052098E+03  0.10168104697E+04  0.10100000352E+00 0.  1.
</event>
<event>
 5   0  0.8354653E-06  0.2502371E+04  0.7818609E-02  0.8402141E-01
        2   -1    0    0  501    0  0.00000000000E+00  0.00000000000E+00  0.65873985299E+03  0.65873985300E+03  0.25500000920E-02 0. -1.
       -2   -1    0    0    0  501  0.00000000000E+00  0.00000000000E+00 -0.23764537596E+04  0.23764537596E+04  0.25500000920E-02 0.  1.
    10030    2    1    2    0    0  0.00000000000E+00  0.00000000000E+00 -0.17177139066E+04  0.30351936126E+04  0.25023707161E+04 0.  0.
        3    1    3    3  502    0  0.23038249237E+03  0.24630019056E+03  0.60256933580E+03  0.69052855937E+03  0.10100000352E+00 0. -1.
       -3    1    3    3    0  502 -0.23038249237E+03 -0.24630019056E+03 -0.23202832424E+04  0.23446650532E+04  0.10100000352E+00 0.  1.
</event>
<event>
 5   0  0.3424193E-06  0.2498860E+04  0.7818609E-02  0.8403392E-01
       -1   -1    0    0    0  501  0.00000000000E+00  0.00000000000E+00  0.83426321548E+03  0.83426321550E+03  0.50400001928E-02 0.  1.
        1   -1    0    0  501    0  0.00000000000E+00  0.00000000000E+00 -0.18712018004E+04  0.18712018004E+04  0.50400001928E-02 0. -1.
    10030    2    1    2    0    0  0.00000000000E+00  0.00000000000E+00 -0.10369385850E+04  0.27054650159E+04  0.24988596046E+04 0.  0.
        1    1    3    3  502    0 -0.49839080587E+03 -0.96147897417E+03 -0.11930749691E+04  0.16112923679E+04  0.50400001928E-02 0. -1.
       -1    1    3    3    0  502  0.49839080587E+03  0.96147897417E+03  0.15613638411E+03  0.10941726480E+04  0.50400001928E-02 0.  1.
</event>
<event>
 5   0  0.8948286E-06  0.2496130E+04  0.7818609E-02  0.8404365E-01
       -2   -1    0    0    0  501  0.00000000000E+00  0.00000000000E+00  0.74363447988E+03  0.74363447989E+03  0.25500000920E-02 0. -1.
        2   -1    0    0  501    0  0.00000000000E+00  0.00000000000E+00 -0.20946669781E+04  0.20946669781E+04  0.25500000920E-02 0.  1.
    10030    2    1    2    0    0  0.00000000000E+00  0.00000000000E+00 -0.13510324982E+04  0.28383014580E+04  0.24961302761E+04 0.  0.
        4    1    3    3  502    0  0.19500106385E+03 -0.15845109527E+03  0.71457720857E+03  0.75746575131E+03  0.12699999809E+01 0. -1.
       -4    1    3    3    0  502 -0.19500106385E+03  0.15845109527E+03 -0.20656097068E+04  0.20808357067E+04  0.12699999809E+01 0.  1.
</event>
<event>
 5   0  0.8948286E-06  0.2494141E+04  0.7818609E-02  0.8405076E-01
       -2   -1    0    0    0  501  0.00000000000E+00  0.00000000000E+00  0.67432099347E+03  0.67432099347E+03  0.25500000920E-02 0.  1.
        2   -1    0    0  501    0  0.00000000000E+00  0.00000000000E+00 -0.23062980271E+04  0.23062980271E+04  0.25500000920E-02 0. -1.
    10030    2    1    2    0    0  0.00000000000E+00  0.00000000000E+00 -0.16319770337E+04  0.29806190206E+04  0.24941412766E+04 0.  0.
        4    1    3    3  502    0  0.35993887257E+03 -0.53770892002E+03 -0.20899887464E+04  0.21878623009E+04  0.12699999809E+01 0. -1.
       -4    1    3    3    0  502 -0.35993887257E+03  0.53770892002E+03  0.45801171278E+03  0.79275671968E+03  0.12699999809E+01 0.  1.
</event>
<event>
 5   0  0.3642184E-06  0.2507256E+04  0.7818609E-02  0.8400405E-01
        1   -1    0    0  501    0  0.00000000000E+00  0.00000000000E+00  0.25208608929E+04  0.25208608929E+04  0.50400001928E-02 0.  1.
       -1   -1    0    0    0  501  0.00000000000E+00  0.00000000000E+00 -0.62343098540E+03  0.62343098542E+03  0.50400001928E-02 0. -1.
    10030    2    1    2    0    0  0.00000000000E+00  0.00000000000E+00  0.18974299075E+04  0.31442918784E+04  0.25072557034E+04 0.  0.
        5    1    3    3  502    0  0.19358196939E+03 -0.67380236012E+03  0.22520365912E+04  0.23586382718E+04  0.46999998093E+01 0.  1.
       -5    1    3    3    0  502 -0.19358196939E+03  0.67380236012E+03 -0.35460668363E+03  0.78565360653E+03  0.46999998093E+01 0. -1.
</event>
<event>
 5   0  0.3484857E-06  0.2504875E+04  0.7818609E-02  0.8401251E-01
       -1   -1    0    0    0  501  0.00000000000E+00  0.00000000000E+00  0.10565243480E+04  0.10565243480E+04  0.50400001928E-02 0. -1.
        1   -1    0    0  501    0  0.00000000000E+00  0.00000000000E+00 -0.14846794224E+04  0.14846794224E+04  0.50400001928E-02 0.  1.
    10030    2    1    2    0    0  0.00000000000E+00  0.00000000000E+00 -0.42815507434E+03  0.25412037704E+04  0.25048752135E+04 0.  0.
        3    1    3    3  502    0  0.96883141143E+03  0.52042091304E+03  0.39388645585E+03  0.11681689864E+04  0.10100000352E+00 0. -1.
       -3    1    3    3    0  502 -0.96883141143E+03 -0.52042091304E+03 -0.82204153020E+03  0.13730347840E+04  0.10100000352E+00 0.  1.
</event>
<event>
 5   0  0.3522870E-06  0.2506053E+04  0.7818609E-02  0.8400832E-01
       -1   -1    0    0    0  501  0.00000000000E+00  0.00000000000E+00  0.66708001097E+03  0.66708001098E+03  0.50400001928E-02 0. -1.
        1   -1    0    0  501    0  0.00000000000E+00  0.00000000000E+00 -0.23536533672E+04  0.23536533672E+04  0.50400001928E-02 0.  1.
    10030    2    1    2    0    0  0.00000000000E+00  0.00000000000E+00 -0.16865733562E+04  0.30207333782E+04  0.25060527640E+04 0.  0.
        2    1    3    3  502    0 -0.34201299466E+03  0.57874142384E+03 -0.21178877354E+04  0.22220177731E+04  0.25500000920E-02 0.  1.
       -2    1    3    3    0  502  0.34201299466E+03 -0.57874142384E+03  0.43131437915E+03  0.79871560511E+03  0.25500000920E-02 0. -1.
</event>
<event>
 5   0  0.8948286E-06  0.2493292E+04  0.7818609E-02  0.8405379E-01
       -2   -1    0    0    0  501  0.00000000000E+00  0.00000000000E+00  0.14710082982E+04  0.14710082982E+04  0.25500000920E-02 0. -1.
        2   -1    0    0  501    0  0.00000000000E+00  0.00000000000E+00 -0.10565042805E+04  0.10565042805E+04  0.25500000920E-02 0.  1.
    10030    2    1    2    0    0  0.00000000000E+00  0.00000000000E+00  0.41450401778E+03  0.25275125787E+04  0.24932922522E+04 0.  0.
        4    1    3    3  502    0  0.67669546826E+03 -0.28826027197E+03 -0.81309839678E+03  0.10964220706E+04  0.12699999809E+01 0.  1.
       -4    1    3    3    0  502 -0.67669546826E+03  0.28826027197E+03  0.12276024146E+04  0.14310905081E+04  0.12699999809E+01 0. -1.
</event>
<event>
 5   0  0.3484857E-06  0.2490516E+04  0.7818609E-02  0.8406372E-01
       -1   -1    0    0    0  501  0.00000000000E+00  0.00000000000E+00  0.81506064738E+03  0.81506064740E+03  0.50400001928E-02 0. -1.
        1   -1    0    0  501    0  0.00000000000E+00  0.00000000000E+00 -0.19025177359E+04  0.19025177360E+04  0.50400001928E-02 0.  1.
    10030    2    1    2    0    0  0.00000000000E+00  0.00000000000E+00 -0.10874570886E+04  0.27175783834E+04  0.24905158803E+04 0.  0.
        3    1    3    3  502    0 -0.65902411897E+03 -0.65502219703E+03 -0.14483483275E+04  0.17207788225E+04  0.10100000352E+00 0.  1.
       -3    1    3    3    0  502  0.65902411897E+03  0.65502219703E+03  0.36089123892E+03  0.99679956086E+03  0.10100000352E+00 0. -1.
</event>
<event>
 5   0  0.8056723E-06  0.2578360E+04  0.7818609E-02  0.8375589E-01
        2   -1    0    0  501    0  0.00000000000E+00  0.00000000000E+00  0.11988406749E+04  0.11988406749E+04  0.25500000920E-02 0. -1.
       -2   -1    0    0    0  501  0.00000000000E+00  0.00000000000E+00 -0.13863267101E+04  0.13863267101E+04  0.25500000920E-02 0.  1.
    10030    2    1    2    0    0  0.00000000000E+00  0.00000000000E+00 -0.18748603527E+03  0.25851673850E+04  0.25783598266E+04 0.  0.
        2    1    3    3  502    0  0.93257150433E+03 -0.76607084705E+00 -0.98620249192E+03  0.13573082010E+04  0.25500000920E-02 0.  1.
       -2    1    3    3    0  502 -0.93257150433E+03  0.76607084705E+00  0.79871645665E+03  0.12278591840E+04  0.25500000920E-02 0. -1.
</event>
<event>
 5   0  0.8948286E-06  0.2487592E+04  0.7818609E-02  0.8407419E-01
       -2   -1    0    0    0  501  0.00000000000E+00  0.00000000000E+00  0.15397737902E+04  0.15397737902E+04  0.25500000920E-02 0. -1.
        2   -1    0    0  501    0  0.00000000000E+00  0.00000000000E+00 -0.10047116831E+04  0.10047116831E+04  0.25500000920E-02 0.  1.
    10030    2    1    2    0    0  0.00000000000E+00  0.00000000000E+00  0.53506210713E+03  0.25444854733E+04  0.24875921823E+04 0.  0.
        4    1    3    3  502    0  0.57329107133E+03 -0.91445534887E+03 -0.36477842623E+03  0.11392787853E+04  0.12699999809E+01 0.  1.
       -4    1    3    3    0  502 -0.57329107133E+03  0.91445534887E+03  0.89984053336E+03  0.14052066880E+04  0.12699999809E+01 0. -1.
</event>
<event>
 5   0  0.3642184E-06  0.2490915E+04  0.7818609E-02  0.8406229E-01
       -1   -1    0    0    0  501  0.00000000000E+00  0.00000000000E+00  0.64684055119E+03  0.64684055121E+03  0.50400001928E-02 0. -1.
        1   -1    0    0  501    0  0.00000000000E+00  0.00000000000E+00 -0.23980630262E+04  0.23980630262E+04  0.50400001928E-02 0.  1.
    10030    2    1    2    0    0  0.00000000000E+00  0.00000000000E+00 -0.17512224751E+04  0.30449035775E+04  0.24909150204E+04 0.  0.
        5    1    3    3  502    0  0.24981430832E+03 -0.12637617302E+03 -0.23590896862E+04  0.23756481986E+04  0.46999998093E+01 0.  1.
       -5    1    3    3    0  502 -0.24981430832E+03  0.12637617302E+03  0.60786721117E+03  0.66925537888E+03  0.46999998093E+01 0. -1.
</event>
<event>
 5   0  0.3522870E-06  0.2545690E+04  0.7818609E-02  0.8386887E-01
       -1   -1    0    0    0  501  0.00000000000E+00  0.00000000000E+00  0.11807252767E+04  0.11807252767E+04  0.50400001928E-02 0. -1.
        1   -1    0    0  501    0  0.00000000000E+00  0.00000000000E+00 -0.13721514471E+04  0.13721514471E+04  0.50400001928E-02 0.  1.
    10030    2    1    2    0    0  0.00000000000E+00  0.00000000000E+00 -0.19142617041E+03  0.25528767238E+04  0.25456896095E+04 0.  0.
        2    1    3    3  502    0 -0.12435559486E+04  0.26924702385E+03 -0.60850876686E+02  0.12738242368E+04  0.25500000920E-02 0.  1.
       -2    1    3    3    0  502  0.12435559486E+04 -0.26924702385E+03 -0.13057529372E+03  0.12790524870E+04  0.25500000920E-02 0. -1.
</event>
<event>
 5   0  0.8056723E-06  0.2494844E+04  0.7818609E-02  0.8404825E-01
        2   -1    0    0  501    0  0.00000000000E+00  0.00000000000E+00  0.21832120418E+04  0.21832120418E+04  0.25500000920E-02 0.  1.
       -2   -1    0    0    0  501  0.00000000000E+00  0.00000000000E+00 -0.71273945253E+03  0.71273945253E+03  0.25500000920E-02 0. -1.
    10030    2    1    2    0    0  0.00000000000E+00  0.00000000000E+00  0.14704725893E+04  0.28959514943E+04  0.24948437670E+04 0.  0.
        2    1    3    3  502    0 -0.15342718362E+03  0.12353335493E+04  0.64184999309E+03  0.14005571364E+04  0.25500000920E-02 0. -1.
       -2    1    3    3    0  502  0.15342718362E+03 -0.12353335493E+04  0.82862259619E+03  0.14953943579E+04  0.25500000920E-02 0.  1.
</event>
<event>
 5   0  0.8354653E-06  0.2576008E+04  0.7818609E-02  0.8376397E-01
       -2   -1    0    0    0  501  0.00000000000E+00  0.00000000000E+00  0.10049363062E+04  0.10049363062E+04  0.25500000920E-02 0. -1.
        2   -1    0    0  501    0  0.00000000000E+00  0.00000000000E+00 -0.16508048738E+04  0.16508048738E+04  0.25500000920E-02 0.  1.
    10030    2    1    2    0    0  0.00000000000E+00  0.00000000000E+00 -0.64586856755E+03  0.26557411800E+04  0.25760075716E+04 0.  0.
        3    1    3    3  502    0 -0.23501806016E+03 -0.27291174619E+03 -0.15978349751E+04  0.16379227478E+04  0.10100000352E+00 0.  1.
       -3    1    3    3    0  502  0.23501806016E+03  0.27291174619E+03  0.95196640753E+03  0.10178184323E+04  0.10100000352E+00 0. -1.
</event>
<event>
 5   0  0.8407986E-06  0.2540483E+04  0.7818609E-02  0.8388704E-01
       -2   -1    0    0    0  501  0.00000000000E+00  0.00000000000E+00  0.11157798309E+04  0.11157798309E+04  0.25500000920E-02 0.  1.
        2   -1    0    0  501    0  0.00000000000E+00  0.00000000000E+00 -0.14460859163E+04  0.14460859163E+04  0.25500000920E-02 0. -1.
    10030    2    1    2    0    0  0.00000000000E+00  0.00000000000E+00 -0.33030608539E+03  0.25618657471E+04  0.25404830242E+04 0.  0.
        5    1    3    3  502    0 -0.10335967348E+03 -0.10231094951E+04  0.58681433944E+03  0.11839803293E+04  0.46999998093E+01 0.  1.
       -5    1    3    3    0  502  0.10335967348E+03  0.10231094951E+04 -0.91712042483E+03  0.13778854179E+04  0.46999998093E+01 0. -1.
</event>
<event>
 5   0  0.3522870E-06  0.2414380E+04  0.7818609E-02  0.8434139E-01
        1   -1    0    0  501    0  0.00000000000E+00  0.00000000000E+00  0.15908971958E+04  0.15908971958E+04  0.50400001928E-02 0.  1.
       -1   -1    0    0    0  501  0.00000000000E+00  0.00000000000E+00 -0.91602916323E+03  0.91602916324E+03  0.50400001928E-02 0. -1.
    10030    2    1    2    0    0  0.00000000000E+00  0.00000000000E+00  0.67486803257E+03  0.25069263590E+04  0.24143804398E+04 0.  0.
        2    1    3    3  502    0 -0.22557335879E+02 -0.10363962808E+04 -0.30489119928E+03  0.10805483458E+04  0.25500000920E-02 0. -1.
       -2    1    3    3    0  502  0.22557335879E+02  0.10363962808E+04  0.97975923185E+03  0.14263780132E+04  0.25500000920E-02 0.  1.
</event>
<event>
 5   0  0.8056723E-06  0.2498268E+04  0.7818609E-02  0.8403603E-01
        2   -1    0    0  501    0  0.00000000000E+00  0.00000000000E+00  0.24788387538E+04  0.24788387538E+04  0.25500000920E-02 0. -1.
       -2   -1    0    0    0  501  0.00000000000E+00  0.00000000000E+00 -0.62946238761E+03  0.62946238762E+03  0.25500000920E-02 0.  1.
    10030    2    1    2    0    0  0.00000000000E+00  0.00000000000E+00  0.18493763662E+04  0.31083011414E+04  0.24982680084E+04 0.  0.
        2    1    3    3  502    0 -0.17254805277E+03 -0.81733562740E+03 -0.23081197278E+03  0.86665132846E+03  0.25500000920E-02 0.  1.
       -2    1    3    3    0  502  0.17254805277E+03  0.81733562740E+03  0.20801883389E+04  0.22416498129E+04  0.25500000920E-02 0. -1.
</event>
<event>
 5   0  0.3522870E-06  0.2501294E+04  0.7818609E-02  0.8402525E-01
       -1   -1    0    0    0  501  0.00000000000E+00  0.00000000000E+00  0.88426504526E+03  0.88426504528E+03  0.50400001928E-02 0. -1.
        1   -1    0    0  501    0  0.00000000000E+00  0.00000000000E+00 -0.17688334773E+04  0.17688334773E+04  0.50400001928E-02 0.  1.
    10030    2    1    2    0    0  0.00000000000E+00  0.00000000000E+00 -0.88456843201E+03  0.26530985226E+04  0.25012937571E+04 0.  0.
        2    1    3    3  502    0  0.96077730455E+03  0.29353654760E+03 -0.12323817971E+04  0.15899753544E+04  0.25500000920E-02 0.  1.
       -2    1    3    3    0  502 -0.96077730455E+03 -0.29353654760E+03  0.34781336511E+03  0.10631231682E+04  0.25500000920E-02 0. -1.
</event>
<event>
 5   0  0.8407986E-06  0.2479393E+04  0.7818609E-02  0.8410364E-01
        2   -1    0    0  501    0  0.00000000000E+00  0.00000000000E+00  0.23821033312E+04  0.23821033312E+04  0.25500000920E-02 0. -1.
       -2   -1    0    0    0  501  0.00000000000E+00  0.00000000000E+00 -0.64516389573E+03  0.64516389573E+03  0.25500000920E-02 0.  1.
    10030    2    1    2    0    0  0.00000000000E+00  0.00000000000E+00  0.17369394355E+04  0.30272672269E+04  0.24793927202E+04 0.  0.
        5    1    3    3  502    0 -0.32334729787E+03  0.50607956449E+03  0.21926213262E+04  0.22733852227E+04  0.46999998093E+01 0. -1.
       -5    1    3    3    0  502  0.32334729787E+03 -0.50607956449E+03 -0.45568189079E+03  0.75388200418E+03  0.46999998093E+01 0.  1.
</event>
<event>
 5   0  0.3424193E-06  0.2486735E+04  0.7818609E-02  0.8407727E-01
       -1   -1    0    0    0  501  0.00000000000E+00  0.00000000000E+00  0.11924452974E+04  0.11924452974E+04  0.50400001928E-02 0.  1.
        1   -1    0    0  501    0  0.00000000000E+00  0.00000000000E+00 -0.12964640864E+04  0.12964640864E+04  0.50400001928E-02 0. -1.
    10030    2    1    2    0    0  0.00000000000E+00  0.00000000000E+00 -0.10401878901E+03  0.24889093838E+04  0.24867348094E+04 0.  0.
        1    1    3    3  502    0  0.63927803786E+03 -0.10590928059E+04  0.73033926192E+02  0.12392287665E+04  0.50400001928E-02 0.  1.
       -1    1    3    3    0  502 -0.63927803786E+03  0.10590928059E+04 -0.17705271520E+03  0.12496806173E+04  0.50400001928E-02 0. -1.
</event>
<event>
 5   0  0.3522870E-06  0.2493798E+04  0.7818609E-02  0.8405198E-01
        1   -1    0    0  501    0  0.00000000000E+00  0.00000000000E+00  0.11799268809E+04  0.11799268809E+04  0.50400001928E-02 0. -1.
       -1   -1    0    0    0  501  0.00000000000E+00  0.00000000000E+00 -0.13176720462E+04  0.13176720462E+04  0.50400001928E-02 0.  1.
    10030    2    1    2    0    0  0.00000000000E+00  0.00000000000E+00 -0.13774516527E+03  0.24975989272E+04  0.24937976402E+04 0.  0.
        2    1    3    3  502    0 -0.12097958579E+04  0.27248234768E+03 -0.19908622572E+03  0.12559808807E+04  0.25500000920E-02 0.  1.
       -2    1    3    3    0  502  0.12097958579E+04 -0.27248234768E+03  0.61341060453E+02  0.12416180464E+04  0.25500000920E-02 0. -1.
</event>
<event>
 5   0  0.3424193E-06  0.2475168E+04  0.7818609E-02  0.8411886E-01
        1   -1    0    0  501    0  0.00000000000E+00  0.00000000000E+00  0.11232689942E+04  0.11232689942E+04  0.50400001928E-02 0.  1.
       -1   -1    0    0    0  501  0.00000000000E+00  0.00000000000E+00 -0.13635331331E+04  0.13635331331E+04  0.50400001928E-02 0. -1.
    10030    2    1    2    0    0  0.00000000000E+00  0.00000000000E+00 -0.24026413887E+03  0.24868021273E+04  0.24751682698E+04 0.  0.
        1    1    3    3  502    0 -0.40008155390E+03  0.47637418764E+03  0.95476424382E+03  0.11395491993E+04  0.50400001928E-02 0.  1.
       -1    1    3    3    0  502  0.40008155390E+03 -0.47637418764E+03 -0.11950283827E+04  0.13472529280E+04  0.50400001928E-02 0. -1.
</event>
<event>
 5   0  0.8407986E-06  0.2501137E+04  0.7818609E-02  0.8402580E-01
       -2   -1    0    0    0  501  0.00000000000E+00  0.00000000000E+00  0.15639139977E+04  0.15639139977E+04  0.25500000920E-02 0.  1.
        2   -1    0    0  501    0  0.00000000000E+00  0.00000000000E+00 -0.10000050848E+04  0.10000050848E+04  0.25500000920E-02 0. -1.
    10030    2    1    2    0    0  0.00000000000E+00  0.00000000000E+00  0.56390891287E+03  0.25639190826E+04  0.25011373013E+04 0.  0.
        5    1    3    3  502    0 -0.23051697905E+03  0.10375970818E+04  0.95739748554E+03  0.14305166260E+04  0.46999998093E+01 0.  1.
       -5    1    3    3    0  502  0.23051697905E+03 -0.10375970818E+04 -0.39348857267E+03  0.11334024566E+04  0.46999998093E+01 0. -1.
</event>
<event>
 5   0  0.3642184E-06  0.2502863E+04  0.7818609E-02  0.8401966E-01
        1   -1    0    0  501    0  0.00000000000E+00  0.00000000000E+00  0.94257638056E+03  0.94257638057E+03  0.50400001928E-02 0.  1.
       -1   -1    0    0    0  501  0.00000000000E+00  0.00000000000E+00 -0.16614898326E+04  0.16614898326E+04  0.50400001928E-02 0. -1.
    10030    2    1    2    0    0  0.00000000000E+00  0.00000000000E+00 -0.71891345207E+03  0.26040662132E+04  0.25028632186E+04 0.  0.
        5    1    3    3  502    0  0.48998417280E+02 -0.55577004787E+03 -0.15249192644E+04  0.16237863295E+04  0.46999998093E+01 0. -1.
       -5    1    3    3    0  502 -0.48998417280E+02  0.55577004787E+03  0.80600581229E+03  0.98027988373E+03  0.46999998093E+01 0.  1.
</event>
<event>
 5   0  0.3484857E-06  0.2508032E+04  0.7818609E-02  0.8400130E-01
        1   -1    0    0  501    0  0.00000000000E+00  0.00000000000E+00  0.16066748763E+04  0.16066748763E+04  0.50400001928E-02 0. -1.
       -1   -1    0    0    0  501  0.00000000000E+00  0.00000000000E+00 -0.97876454790E+03  0.97876454791E+03  0.50400001928E-02 0.  1.
    10030    2    1    2    0    0  0.00000000000E+00  0.00000000000E+00  0.62791032840E+03  0.25854394242E+04  0.25080322238E+04 0.  0.
        3    1    3    3  502    0 -0.98181887987E+03 -0.28935083144E+03 -0.43287993961E+03  0.11113403029E+04  0.10100000352E+00 0.  1.
       -3    1    3    3    0  502  0.98181887987E+03  0.28935083144E+03  0.10607902680E+04  0.14740991213E+04  0.10100000352E+00 0. -1.
</event>
<event>
 5   0  0.8579923E-06  0.2502881E+04  0.7818609E-02  0.8401960E-01
       -2   -1    0    0    0  501  0.00000000000E+00  0.00000000000E+00  0.94160864806E+03  0.94160864806E+03  0.25500000920E-02 0. -1.
        2   -1    0    0  501    0  0.00000000000E+00  0.00000000000E+00 -0.16632205342E+04  0.16632205342E+04  0.25500000920E-02 0.  1.
    10030    2    1    2    0    0  0.00000000000E+00  0.00000000000E+00 -0.72161188615E+03  0.26048291823E+04  0.25028806113E+04 0.  0.
        1    1    3    3  502    0 -0.28330738273E+03  0.10934721336E+04  0.19979875415E+03  0.11471111203E+04  0.50400001928E-02 0.  1.
       -1    1    3    3    0  502  0.28330738273E+03 -0.10934721336E+04 -0.92141064031E+03  0.14577180620E+04  0.50400001928E-02 0. -1.
</event>
<event>
 5   0  0.3424193E-06  0.2494319E+04  0.7818609E-02  0.8405012E-01
       -1   -1    0    0    0  501  0.00000000000E+00  0.00000000000E+00  0.14259195544E+04  0.14259195544E+04  0.50400001928E-02 0. -1.
        1   -1    0    0  501    0  0.00000000000E+00  0.00000000000E+00 -0.10908093836E+04  0.10908093836E+04  0.50400001928E-02 0.  1.
    10030    2    1    2    0    0  0.00000000000E+00  0.00000000000E+00  0.33511017083E+03  0.25167289380E+04  0.24943186887E+04 0.  0.
        1    1    3    3  502    0  0.11367053323E+04 -0.39812320140E+03  0.49420022140E+03  0.13018582699E+04  0.50400001928E-02 0. -1.
       -1    1    3    3    0  502 -0.11367053323E+04  0.39812320140E+03 -0.15909005057E+03  0.12148706681E+04  0.50400001928E-02 0.  1.
</event>
<event>
 5   0  0.8354653E-06  0.2495430E+04  0.7818609E-02  0.8404615E-01
       -2   -1    0    0    0  501  0.00000000000E+00  0.00000000000E+00  0.87107441005E+03  0.87107441006E+03  0.25500000920E-02 0. -1.
        2   -1    0    0  501    0  0.00000000000E+00  0.00000000000E+00 -0.17872102998E+04  0.17872102998E+04  0.25500000920E-02 0.  1.
    10030    2    1    2    0    0  0.00000000000E+00  0.00000000000E+00 -0.91613588977E+03  0.26582847099E+04  0.24954303497E+04 0.  0.
        3    1    3    3  502    0  0.59117170837E+03  0.10987657186E+04 -0.45295312044E+03  0.13273796114E+04  0.10100000352E+00 0. -1.
       -3    1    3    3    0  502 -0.59117170837E+03 -0.10987657186E+04 -0.46318276933E+03  0.13309050985E+04  0.10100000352E+00 0.  1.
</event>
<event>
 5   0  0.3424193E-06  0.2498532E+04  0.7818609E-02  0.8403509E-01
        1   -1    0    0  501    0  0.00000000000E+00  0.00000000000E+00  0.95617375391E+03  0.95617375393E+03  0.50400001928E-02 0. -1.
       -1   -1    0    0    0  501  0.00000000000E+00  0.00000000000E+00 -0.16321990997E+04  0.16321990997E+04  0.50400001928E-02 0.  1.
    10030    2    1    2    0    0  0.00000000000E+00  0.00000000000E+00 -0.67602534578E+03  0.25883728536E+04  0.24985323214E+04 0.  0.
        1    1    3    3  502    0 -0.10642230163E+04  0.56825560231E+03 -0.67399023107E+03  0.13819362827E+04  0.50400001928E-02 0.  1.
       -1    1    3    3    0  502  0.10642230163E+04 -0.56825560231E+03 -0.20351147065E+01  0.12064365709E+04  0.50400001928E-02 0. -1.
</event>
<event>
 5   0  0.3424193E-06  0.2501366E+04  0.7818609E-02  0.8402499E-01
       -1   -1    0    0    0  501  0.00000000000E+00  0.00000000000E+00  0.99451347630E+03  0.99451347631E+03  0.50400001928E-02 0.  1.
        1   -1    0    0  501    0  0.00000000000E+00  0.00000000000E+00 -0.15728377708E+04  0.15728377708E+04  0.50400001928E-02 0. -1.
    10030    2    1    2    0    0  0.00000000000E+00  0.00000000000E+00 -0.57832429454E+03  0.25673512472E+04  0.25013663140E+04 0.  0.
        1    1    3    3  502    0  0.35952166423E+03  0.10346145992E+03  0.93573843627E+03  0.10077532048E+04  0.50400001928E-02 0.  1.
       -1    1    3    3    0  502 -0.35952166423E+03 -0.10346145992E+03 -0.15140627308E+04  0.15595980423E+04  0.50400001928E-02 0. -1.
</event>
<event>
 5   0  0.8579923E-06  0.2501105E+04  0.7818609E-02  0.8402592E-01
       -2   -1    0    0    0  501  0.00000000000E+00  0.00000000000E+00  0.97301187865E+03  0.97301187866E+03  0.25500000920E-02 0.  1.
        2   -1    0    0  501    0  0.00000000000E+00  0.00000000000E+00 -0.16072588099E+04  0.16072588099E+04  0.25500000920E-02 0. -1.
    10030    2    1    2    0    0  0.00000000000E+00  0.00000000000E+00 -0.63424693124E+03  0.25802706886E+04  0.25011052870E+04 0.  0.
        1    1    3    3  502    0  0.74541218348E+01  0.96239277778E+03  0.50666644919E+03  0.10876425485E+04  0.50400001928E-02 0.  1.
       -1    1    3    3    0  502 -0.74541218348E+01 -0.96239277778E+03 -0.11409133804E+04  0.14926281400E+04  0.50400001928E-02 0. -1.
</event>
<event>
 5   0  0.3424193E-06  0.2514717E+04  0.7818609E-02  0.8397761E-01
        1   -1    0    0  501    0  0.00000000000E+00  0.00000000000E+00  0.22009973176E+04  0.22009973176E+04  0.50400001928E-02 0. -1.
       -1   -1    0    0    0  501  0.00000000000E+00  0.00000000000E+00 -0.71828798673E+03  0.71828798674E+03  0.50400001928E-02 0.  1.
    10030    2    1    2    0    0  0.00000000000E+00  0.00000000000E+00  0.14827093308E+04  0.29192853043E+04  0.25147166298E+04 0.  0.
        1    1    3    3  502    0  0.13287938820E+03 -0.76689783155E+03 -0.40501737722E+03  0.87739859341E+03  0.50400001928E-02 0.  1.
       -1    1    3    3    0  502 -0.13287938820E+03  0.76689783155E+03  0.18877267081E+04  0.20418867109E+04  0.50400001928E-02 0. -1.
</event>
<event>
 5   0  0.3424193E-06  0.2352528E+04  0.7818609E-02  0.8457493E-01
       -1   -1    0    0    0  501  0.00000000000E+00  0.00000000000E+00  0.93061431166E+03  0.93061431167E+03  0.50400001928E-02 0.  1.
        1   -1    0    0  501    0  0.00000000000E+00  0.00000000000E+00 -0.14867566101E+04  0.14867566101E+04  0.50400001928E-02 0. -1.
    10030    2    1    2    0    0  0.00000000000E+00  0.00000000000E+00 -0.55614229844E+03  0.24173709218E+04  0.23525279844E+04 0.  0.
        1    1    3    3  502    0  0.43507552339E+03  0.74588257690E+03 -0.10988139371E+04  0.13975062067E+04  0.50400001928E-02 0. -1.
       -1    1    3    3    0  502 -0.43507552339E+03 -0.74588257690E+03  0.54267163863E+03  0.10198647150E+04  0.50400001928E-02 0.  1.
</event>
<event>
 5   0  0.8354653E-06  0.2500872E+04  0.7818609E-02  0.8402675E-01
       -2   -1    0    0    0  501  0.00000000000E+00  0.00000000000E+00  0.82329908679E+03  0.82329908680E+03  0.25500000920E-02 0.  1.
        2   -1    0    0  501    0  0.00000000000E+00  0.00000000000E+00 -0.18991759353E+04  0.18991759353E+04  0.25500000920E-02 0. -1.
    10030    2    1    2    0    0  0.00000000000E+00  0.00000000000E+00 -0.10758768486E+04  0.27224750221E+04  0.25008716986E+04 0.  0.
        3    1    3    3  502    0 -0.26125125912E+03 -0.39561972538E+03 -0.17975423690E+04  0.18590120403E+04  0.10100000352E+00 0. -1.
       -3    1    3    3    0  502  0.26125125912E+03  0.39561972538E+03  0.72166552041E+03  0.86346298186E+03  0.10100000352E+00 0.  1.
</event>
<event>
 5   0  0.8407986E-06  0.2496436E+04  0.7818609E-02  0.8404256E-01
       -2   -1    0    0    0  501  0.00000000000E+00  0.00000000000E+00  0.66330866315E+03  0.66330866315E+03  0.25500000920E-02 0. -1.
        2   -1    0    0  501    0  0.00000000000E+00  0.00000000000E+00 -0.23489031866E+04  0.23489031866E+04  0.25500000920E-02 0.  1.
    10030    2    1    2    0    0  0.00000000000E+00  0.00000000000E+00 -0.16855945235E+04  0.30122118498E+04  0.24964357253E+04 0.  0.
        5    1    3    3  502    0  0.66500860708E+03  0.82008113776E+03 -0.39469928149E+02  0.10565744106E+04  0.46999998093E+01 0. -1.
       -5    1    3    3    0  502 -0.66500860708E+03 -0.82008113776E+03 -0.16461245953E+04  0.19556374391E+04  0.46999998093E+01 0.  1.
</event>
<event>
 5   0  0.8056723E-06  0.2508248E+04  0.7818609E-02  0.8400053E-01
        2   -1    0    0  501    0  0.00000000000E+00  0.00000000000E+00  0.26297982845E+04  0.26297982845E+04  0.25500000920E-02 0.  1.
       -2   -1    0    0    0  501  0.00000000000E+00  0.00000000000E+00 -0.59807895575E+03  0.59807895576E+03  0.25500000920E-02 0. -1.
    10030    2    1    2    0    0  0.00000000000E+00  0.00000000000E+00  0.20317193287E+04  0.32278772402E+04  0.25082480036E+04 0.  0.
        2    1    3    3  502    0 -0.70231120332E+03  0.99949777585E+03  0.13811915695E+04  0.18438890915E+04  0.25500000920E-02 0.  1.
       -2    1    3    3    0  502  0.70231120332E+03 -0.99949777585E+03  0.65052775926E+03  0.13839881487E+04  0.25500000920E-02 0. -1.
</event>
<event>
 5   0  0.8056723E-06  0.2508037E+04  0.7818609E-02  0.8400128E-01
        2   -1    0    0  501    0  0.00000000000E+00  0.00000000000E+00  0.15498005492E+04  0.15498005492E+04  0.25500000920E-02 0.  1.
       -2   -1    0    0    0  501  0.00000000000E+00  0.00000000000E+00 -0.10146871684E+04  0.10146871684E+04  0.25500000920E-02 0. -1.
    10030    2    1    2    0    0  0.00000000000E+00  0.00000000000E+00  0.53511338085E+03  0.25644877176E+04  0.25080372652E+04 0.  0.
        2    1    3    3  502    0 -0.48897785750E+03  0.10314815918E+03  0.14435846456E+04  0.15276372334E+04  0.25500000920E-02 0.  1.
       -2    1    3    3    0  502  0.48897785750E+03 -0.10314815918E+03 -0.90847126472E+03  0.10368504843E+04  0.25500000920E-02 0. -1.
</event>
<event>
 5   0  0.8354653E-06  0.2509435E+04  0.7818609E-02  0.8399632E-01
        2   -1    0    0  501    0  0.00000000000E+00  0.00000000000E+00  0.14944522722E+04  0.14944522722E+04  0.25500000920E-02 0. -1.
       -2   -1    0    0    0  501  0.00000000000E+00  0.00000000000E+00 -0.10534398615E+04  0.10534398615E+04  0.25500000920E-02 0.  1.
    10030    2    1    2    0    0  0.00000000000E+00  0.00000000000E+00  0.44101241076E+03  0.25478921337E+04  0.25094346731E+04 0.  0.
        3    1    3    3  502    0 -0.11469523860E+04  0.50371405434E+03  0.29292928538E+03  0.12864817141E+04  0.10100000352E+00 0. -1.
       -3    1    3    3    0  502  0.11469523860E+04 -0.50371405434E+03  0.14808312538E+03  0.12614104196E+04  0.10100000352E+00 0.  1.
</event>
<event>
 5   0  0.3522870E-06  0.2500906E+04  0.7818609E-02  0.8402663E-01
        1   -1    0    0  501    0  0.00000000000E+00  0.00000000000E+00  0.11898635435E+04  0.11898635435E+04  0.50400001928E-02 0.  1.
       -1   -1    0    0    0  501  0.00000000000E+00  0.00000000000E+00 -0.13141275748E+04  0.13141275748E+04  0.50400001928E-02 0. -1.
    10030    2    1    2    0    0  0.00000000000E+00  0.00000000000E+00 -0.12426403128E+03  0.25039911183E+04  0.25009058301E+04 0.  0.
        2    1    3    3  502    0  0.10137862310E+04 -0.67567701435E+03 -0.34413626869E+03  0.12659904112E+04  0.25500000920E-02 0.  1.
       -2    1    3    3    0  502 -0.10137862310E+04  0.67567701435E+03  0.21987223741E+03  0.12380007071E+04  0.25500000920E-02 0. -1.
</event>
<event>
 5   0  0.8579923E-06  0.2495080E+04  0.7818609E-02  0.8404740E-01
       -2   -1    0    0    0  501  0.00000000000E+00  0.00000000000E+00  0.75045023941E+03  0.75045023942E+03  0.25500000920E-02 0.  1.
        2   -1    0    0  501    0  0.00000000000E+00  0.00000000000E+00 -0.20738967709E+04  0.20738967709E+04  0.25500000920E-02 0. -1.
    10030    2    1    2    0    0  0.00000000000E+00  0.00000000000E+00 -0.13234465315E+04  0.28243470103E+04  0.24950802217E+04 0.  0.
        1    1    3    3  502    0  0.41502556379E+03 -0.11730893678E+04 -0.56065796741E+03  0.13648158264E+04  0.50400001928E-02 0.  1.
       -1    1    3    3    0  502 -0.41502556379E+03  0.11730893678E+04 -0.76278856406E+03  0.14595311839E+04  0.50400001928E-02 0. -1.
</event>
<event>
 5   0  0.3484857E-06  0.2502247E+04  0.7818609E-02  0.8402186E-01
        1   -1    0    0  501    0  0.00000000000E+00  0.00000000000E+00  0.18144939469E+04  0.18144939469E+04  0.50400001928E-02 0.  1.
       -1   -1    0    0    0  501  0.00000000000E+00  0.00000000000E+00 -0.86267003573E+03  0.86267003575E+03  0.50400001928E-02 0. -1.
    10030    2    1    2    0    0  0.00000000000E+00  0.00000000000E+00  0.95182391112E+03  0.26771639826E+04  0.25022466369E+04 0.  0.
        3    1    3    3  502    0  0.44595751405E+03 -0.97814270928E+03 -0.20888375379E+03  0.10951135543E+04  0.10100000352E+00 0. -1.
       -3    1    3    3    0  502 -0.44595751405E+03  0.97814270928E+03  0.11607076649E+04  0.15820504283E+04  0.10100000352E+00 0.  1.
</event>
<event>
 5   0  0.3484857E-06  0.2490316E+04  0.7818609E-02  0.8406444E-01
        1   -1    0    0  501    0  0.00000000000E+00  0.00000000000E+00  0.20847439356E+04  0.20847439356E+04  0.50400001928E-02 0. -1.
       -1   -1    0    0    0  501  0.00000000000E+00  0.00000000000E+00 -0.74369700973E+03  0.74369700975E+03  0.50400001928E-02 0.  1.
    10030    2    1    2    0    0  0.00000000000E+00  0.00000000000E+00  0.13410469259E+04  0.28284409454E+04  0.24903155069E+04 0.  0.
        3    1    3    3  502    0 -0.76060398324E+03 -0.28953041585E+03  0.17408510491E+04  0.19216942177E+04  0.10100000352E+00 0. -1.
       -3    1    3    3    0  502  0.76060398324E+03  0.28953041585E+03 -0.39980412320E+03  0.90674672767E+03  0.10100000352E+00 0.  1.
</event>
<event>
 5   0  0.3481387E-06  0.2378834E+04  0.7818609E-02  0.8447471E-01
        1   -1    0    0  501    0  0.00000000000E+00  0.00000000000E+00  0.14894848781E+04  0.14894848781E+04  0.50400001928E-02 0. -1.
       -1   -1    0    0    0  501  0.00000000000E+00  0.00000000000E+00 -0.94979999105E+03  0.94979999107E+03  0.50400001928E-02 0.  1.
    10030    2    1    2    0    0  0.00000000000E+00  0.00000000000E+00  0.53968488702E+03  0.24392848692E+04  0.23788339361E+04 0.  0.
        4    1    3    3  502    0  0.43476580231E+03  0.11046327267E+04  0.19395954997E+03  0.12028535587E+04  0.12699999809E+01 0.  1.
       -4    1    3    3    0  502 -0.43476580231E+03 -0.11046327267E+04  0.34572533706E+03  0.12364313104E+04  0.12699999809E+01 0. -1.
</event>
<event>
 5   0  0.8948286E-06  0.2490517E+04  0.7818609E-02  0.8406372E-01
       -2   -1    0    0    0  501  0.00000000000E+00  0.00000000000E+00  0.87762810736E+03  0.87762810736E+03  0.25500000920E-02 0.  1.
        2   -1    0    0  501    0  0.00000000000E+00  0.00000000000E+00 -0.17668856641E+04  0.17668856641E+04  0.25500000920E-02 0. -1.
    10030    2    1    2    0    0  0.00000000000E+00  0.00000000000E+00 -0.88925755671E+03  0.26445137714E+04  0.24905168309E+04 0.  0.
        4    1    3    3  502    0  0.65443765875E+03 -0.14238731257E+03  0.67009602197E+03  0.94741389452E+03  0.12699999809E+01 0.  1.
       -4    1    3    3    0  502 -0.65443765875E+03  0.14238731257E+03 -0.15593535787E+04  0.16970998769E+04  0.12699999809E+01 0. -1.
</event>
<event>
 5   0  0.3484857E-06  0.2495930E+04  0.7818609E-02  0.8404437E-01
       -1   -1    0    0    0  501  0.00000000000E+00  0.00000000000E+00  0.12138691766E+04  0.12138691766E+04  0.50400001928E-02 0.  1.
        1   -1    0    0  501    0  0.00000000000E+00  0.00000000000E+00 -0.12830184840E+04  0.12830184840E+04  0.50400001928E-02 0. -1.
    10030    2    1    2    0    0  0.00000000000E+00  0.00000000000E+00 -0.69149307390E+02  0.24968876606E+04  0.24959299596E+04 0.  0.
        3    1    3    3  502    0  0.13427931496E+03 -0.86703903284E+03 -0.92239981224E+03  0.12730314382E+04  0.10100000352E+00 0.  1.
       -3    1    3    3    0  502 -0.13427931496E+03  0.86703903284E+03  0.85325050485E+03  0.12238562224E+04  0.10100000352E+00 0. -1.
</event>
<event>
 5   0  0.8407986E-06  0.2488408E+04  0.7818609E-02  0.8407127E-01
        2   -1    0    0  501    0  0.00000000000E+00  0.00000000000E+00  0.99820693954E+03  0.99820693954E+03  0.25500000920E-02 0. -1.
       -2   -1    0    0    0  501  0.00000000000E+00  0.00000000000E+00 -0.15508238141E+04  0.15508238141E+04  0.25500000920E-02 0.  1.
    10030    2    1    2    0    0  0.00000000000E+00  0.00000000000E+00 -0.55261687452E+03  0.25490307536E+04  0.24884075978E+04 0.  0.
        5    1    3    3  502    0  0.72643110174E+03  0.27424878741E+03  0.71954155053E+03  0.10586201755E+04  0.46999998093E+01 0. -1.
       -5    1    3    3    0  502 -0.72643110174E+03 -0.27424878741E+03 -0.12721584250E+04  0.14904105781E+04  0.46999998093E+01 0.  1.
</event>
<event>
 5   0  0.3484857E-06  0.2502460E+04  0.7818609E-02  0.8402110E-01
       -1   -1    0    0    0  501  0.00000000000E+00  0.00000000000E+00  0.15655836265E+04  0.15655836265E+04  0.50400001928E-02 0. -1.
        1   -1    0    0  501    0  0.00000000000E+00  0.00000000000E+00 -0.99999582366E+03  0.99999582367E+03  0.50400001928E-02 0.  1.
    10030    2    1    2    0    0  0.00000000000E+00  0.00000000000E+00  0.56558780285E+03  0.25655794502E+04  0.25024604597E+04 0.  0.
        3    1    3    3  502    0  0.75052806883E+03 -0.67813102405E+03 -0.47227623927E+03  0.11163328018E+04  0.10100000352E+00 0.  1.
       -3    1    3    3    0  502 -0.75052806883E+03  0.67813102405E+03  0.10378640421E+04  0.14492466484E+04  0.10100000352E+00 0. -1.
</event>
<event>
 5   0  0.8579923E-06  0.2500943E+04  0.7818609E-02  0.8402650E-01
        2   -1    0    0  501    0  0.00000000000E+00  0.00000000000E+00  0.11414904453E+04  0.11414904453E+04  0.25500000920E-02 0. -1.
       -2   -1    0    0    0  501  0.00000000000E+00  0.00000000000E+00 -0.13698570490E+04  0.13698570490E+04  0.25500000920E-02 0.  1.
    10030    2    1    2    0    0  0.00000000000E+00  0.00000000000E+00 -0.22836660371E+03  0.25113474943E+04  0.25009428085E+04 0.  0.
        1    1    3    3  502    0 -0.27935106794E+02 -0.11406782321E+04 -0.62792837132E+03  0.13023905862E+04  0.50400001928E-02 0. -1.
       -1    1    3    3    0  502  0.27935106794E+02  0.11406782321E+04  0.39956176761E+03  0.12089569081E+04  0.50400001928E-02 0.  1.
</event>
<event>
 5   0  0.3484857E-06  0.2481974E+04  0.7818609E-02  0.8409436E-01
        1   -1    0    0  501    0  0.00000000000E+00  0.00000000000E+00  0.10995434731E+04  0.10995434731E+04  0.50400001928E-02 0.  1.
       -1   -1    0    0    0  501  0.00000000000E+00  0.00000000000E+00 -0.14006257653E+04  0.14006257653E+04  0.50400001928E-02 0. -1.
    10030    2    1    2    0    0  0.00000000000E+00  0.00000000000E+00 -0.30108229216E+03  0.25001692384E+04  0.24819741486E+04 0.  0.
        3    1    3    3  502    0  0.89992116401E+03  0.59485349140E+03 -0.76850406997E+03  0.13245026589E+04  0.10100000352E+00 0. -1.
       -3    1    3    3    0  502 -0.89992116401E+03 -0.59485349140E+03  0.46742177781E+03  0.11756665795E+04  0.10100000352E+00 0.  1.
</event>
<event>
 5   0  0.8407986E-06  0.2508034E+04  0.7818609E-02  0.8400129E-01
       -2   -1    0    0    0  501  0.00000000000E+00  0.00000000000E+00  0.14642303722E+04  0.14642303722E+04  0.25500000920E-02 0.  1.
        2   -1    0    0  501    0  0.00000000000E+00  0.00000000000E+00 -0.10739828867E+04  0.10739828867E+04  0.25500000920E-02 0. -1.
    10030    2    1    2    0    0  0.00000000000E+00  0.00000000000E+00  0.39024748560E+03  0.25382132589E+04  0.25080337812E+04 0.  0.
        5    1    3    3  502    0  0.10872115962E+04 -0.23800518207E+03 -0.38963592283E+03  0.11792004766E+04  0.46999998093E+01 0. -1.
       -5    1    3    3    0  502 -0.10872115962E+04  0.23800518207E+03  0.77988340842E+03  0.13590127823E+04  0.46999998093E+01 0.  1.
</event>
<event>
 5   0  0.8354653E-06  0.2531890E+04  0.7818609E-02  0.8391712E-01
        2   -1    0    0  501    0  0.00000000000E+00  0.00000000000E+00  0.95651337165E+03  0.95651337165E+03  0.25500000920E-02 0.  1.
       -2   -1    0    0    0  501  0.00000000000E+00  0.00000000000E+00 -0.16754781491E+04  0.16754781491E+04  0.25500000920E-02 0. -1.
    10030    2    1    2    0    0  0.00000000000E+00  0.00000000000E+00 -0.71896477750E+03  0.26319915208E+04  0.25318904033E+04 0.  0.
        3    1    3    3  502    0  0.33020457493E+03 -0.11964321419E+04 -0.10036393687E+03  0.12452139822E+04  0.10100000352E+00 0.  1.
       -3    1    3    3    0  502 -0.33020457493E+03  0.11964321419E+04 -0.61860084062E+03  0.13867775386E+04  0.10100000352E+00 0. -1.
</event>
<event>
 5   0  0.8354653E-06  0.2429296E+04  0.7818609E-02  0.8428616E-01
       -2   -1    0    0    0  501  0.00000000000E+00  0.00000000000E+00  0.11170767709E+04  0.11170767709E+04  0.25500000920E-02 0. -1.
        2   -1    0    0  501    0  0.00000000000E+00  0.00000000000E+00 -0.13207413369E+04  0.13207413370E+04  0.25500000920E-02 0.  1.
    10030    2    1    2    0    0  0.00000000000E+00  0.00000000000E+00 -0.20366456603E+03  0.24378181079E+04  0.24292957563E+04 0.  0.
        3    1    3    3  502    0  0.51211248371E+03 -0.35685795653E+03 -0.11474871379E+04  0.13062670244E+04  0.10100000352E+00 0.  1.
       -3    1    3    3    0  502 -0.51211248371E+03  0.35685795653E+03  0.94382257189E+03  0.11315510835E+04  0.10100000352E+00 0. -1.
</event>
<event>
 5   0  0.3424193E-06  0.2426134E+04  0.7818609E-02  0.8429784E-01
       -1   -1    0    0    0  501  0.00000000000E+00  0.00000000000E+00  0.10208322825E+04  0.10208322825E+04  0.50400001928E-02 0. -1.
        1   -1    0    0  501    0  0.00000000000E+00  0.00000000000E+00 -0.14415019054E+04  0.14415019054E+04  0.50400001928E-02 0.  1.
    10030    2    1    2    0    0  0.00000000000E+00  0.00000000000E+00 -0.42066962288E+03  0.24623341879E+04  0.24261341104E+04 0.  0.
        1    1    3    3  502    0 -0.98034887548E+02  0.37143135812E+02  0.10162260472E+04  0.10216192201E+04  0.50400001928E-02 0. -1.
       -1    1    3    3    0  502  0.98034887548E+02 -0.37143135812E+02 -0.14368956701E+04  0.14407149678E+04  0.50400001928E-02 0.  1.
</event>
<event>
 5   0  0.3481387E-06  0.2472235E+04  0.7818609E-02  0.8412944E-01
       -1   -1    0    0    0  501  0.00000000000E+00  0.00000000000E+00  0.83650322604E+03  0.83650322605E+03  0.50400001928E-02 0. -1.
        1   -1    0    0  501    0  0.00000000000E+00  0.00000000000E+00 -0.18266358750E+04  0.18266358750E+04  0.50400001928E-02 0.  1.
    10030    2    1    2    0    0  0.00000000000E+00  0.00000000000E+00 -0.99013264895E+03  0.26631391010E+04  0.24722352657E+04 0.  0.
        4    1    3    3  502    0 -0.91529166929E+03 -0.18673244898E+03  0.37698719360E+03  0.10073474100E+04  0.12699999809E+01 0. -1.
       -4    1    3    3    0  502  0.91529166929E+03  0.18673244898E+03 -0.13671198426E+04  0.16557916911E+04  0.12699999809E+01 0.  1.
</event>
<event>
 5   0  0.3424193E-06  0.2500460E+04  0.7818609E-02  0.8402822E-01
        1   -1    0    0  501    0  0.00000000000E+00  0.00000000000E+00  0.25830047666E+04  0.25830047666E+04  0.50400001928E-02 0. -1.
       -1   -1    0    0    0  501  0.00000000000E+00  0.00000000000E+00 -0.60513849778E+03  0.60513849780E+03  0.50400001928E-02 0.  1.
    10030    2    1    2    0    0  0.00000000000E+00  0.00000000000E+00  0.19778662688E+04  0.31881432644E+04  0.25004604570E+04 0.  0.
        1    1    3    3  502    0 -0.90543213202E+03  0.23108253808E+03 -0.70079634903E+02  0.93707931380E+03  0.50400001928E-02 0.  1.
       -1    1    3    3    0  502  0.90543213202E+03 -0.23108253808E+03  0.20479459037E+04  0.22510639506E+04  0.50400001928E-02 0. -1.
</event>
<event>
 5   0  0.2901250E-06  0.2511474E+04  0.7818609E-02  0.8398909E-01
        3   -1    0    0  501    0  0.00000000000E+00  0.00000000000E+00  0.77455218887E+03  0.77455219545E+03  0.10100000352E+00 0. -1.
       -3   -1    0    0    0  501  0.00000000000E+00  0.00000000000E+00 -0.20358547036E+04  0.20358547061E+04  0.10100000352E+00 0.  1.
    10030    2    1    2    0    0  0.00000000000E+00  0.00000000000E+00 -0.12613025147E+04  0.28104069015E+04  0.25114742520E+04 0.  0.
        2    1    3    3  502    0 -0.58877441164E+03  0.78948059918E+03 -0.15024447872E+04  0.17964618735E+04  0.25500000920E-02 0.  1.
       -2    1    3    3    0  502  0.58877441164E+03 -0.78948059918E+03  0.24114227251E+03  0.10139450280E+04  0.25500000920E-02 0. -1.
</event>
<event>
 5   0  0.3484857E-06  0.2520205E+04  0.7818609E-02  0.8395823E-01
        1   -1    0    0  501    0  0.00000000000E+00  0.00000000000E+00  0.17035970369E+04  0.17035970369E+04  0.50400001928E-02 0. -1.
       -1   -1    0    0    0  501  0.00000000000E+00  0.00000000000E+00 -0.93206198525E+03  0.93206198526E+03  0.50400001928E-02 0.  1.
    10030    2    1    2    0    0  0.00000000000E+00  0.00000000000E+00  0.77153505162E+03  0.26356590221E+04  0.25202047824E+04 0.  0.
        3    1    3    3  502    0 -0.28230732183E+03  0.10613750760E+04  0.10318416636E+04  0.15069544468E+04  0.10100000352E+00 0. -1.
       -3    1    3    3    0  502  0.28230732183E+03 -0.10613750760E+04 -0.26030661194E+03  0.11287045753E+04  0.10100000352E+00 0.  1.
</event>
<event>
 5   0  0.3481387E-06  0.2513632E+04  0.7818609E-02  0.8398145E-01
        1   -1    0    0  501    0  0.00000000000E+00  0.00000000000E+00  0.60039017951E+03  0.60039017953E+03  0.50400001928E-02 0.  1.
       -1   -1    0    0    0  501  0.00000000000E+00  0.00000000000E+00 -0.26309329012E+04  0.26309329012E+04  0.50400001928E-02 0. -1.
    10030    2    1    2    0    0  0.00000000000E+00  0.00000000000E+00 -0.20305427217E+04  0.32313230808E+04  0.25136318560E+04 0.  0.
        4    1    3    3  502    0  0.99108494954E+03  0.69855034506E+03 -0.59014960845E+03  0.13485177548E+04  0.12699999809E+01 0.  1.
       -4    1    3    3    0  502 -0.99108494954E+03 -0.69855034506E+03 -0.14403931133E+04  0.18828053260E+04  0.12699999809E+01 0. -1.
</event>
<event>
 5   0  0.3522870E-06  0.2498421E+04  0.7818609E-02  0.8403548E-01
       -1   -1    0    0    0  501  0.00000000000E+00  0.00000000000E+00  0.13906554053E+04  0.13906554053E+04  0.50400001928E-02 0. -1.
        1   -1    0    0  501    0  0.00000000000E+00  0.00000000000E+00 -0.11221521453E+04  0.11221521453E+04  0.50400001928E-02 0.  1.
    10030    2    1    2    0    0  0.00000000000E+00  0.00000000000E+00  0.26850326001E+03  0.25128075506E+04  0.24984210586E+04 0.  0.
        2    1    3    3  502    0 -0.78164353139E+02 -0.73779659615E+03 -0.87655964428E+03  0.11483946592E+04  0.25500000920E-02 0.  1.
       -2    1    3    3    0  502  0.78164353139E+02  0.73779659615E+03  0.11450629043E+04  0.13644128914E+04  0.25500000920E-02 0. -1.
</event>
<event>
 5   0  0.8056723E-06  0.2477941E+04  0.7818609E-02  0.8410887E-01
       -2   -1    0    0    0  501  0.00000000000E+00  0.00000000000E+00  0.27270031817E+04  0.27270031817E+04  0.25500000920E-02 0. -1.
        2   -1    0    0  501    0  0.00000000000E+00  0.00000000000E+00 -0.56290639991E+03  0.56290639992E+03  0.25500000920E-02 0.  1.
    10030    2    1    2    0    0  0.00000000000E+00  0.00000000000E+00  0.21640967817E+04  0.32899095816E+04  0.24779407124E+04 0.  0.
        2    1    3    3  502    0 -0.68569589224E+03  0.90629368845E+03  0.17372016769E+04  0.20759134791E+04  0.25500000920E-02 0. -1.
       -2    1    3    3    0  502  0.68569589224E+03 -0.90629368845E+03  0.42689510485E+03  0.12139961025E+04  0.25500000920E-02 0.  1.
</event>
<event>
 5   0  0.3642184E-06  0.2525317E+04  0.7818609E-02  0.8394021E-01
       -1   -1    0    0    0  501  0.00000000000E+00  0.00000000000E+00  0.10286052409E+04  0.10286052410E+04  0.50400001928E-02 0. -1.
        1   -1    0    0  501    0  0.00000000000E+00  0.00000000000E+00 -0.15499690942E+04  0.15499690942E+04  0.50400001928E-02 0.  1.
    10030    2    1    2    0    0  0.00000000000E+00  0.00000000000E+00 -0.52136385322E+03  0.25785743351E+04  0.25253168780E+04 0.  0.
        5    1    3    3  502    0  0.55152145948E+03  0.91226473725E+03  0.43025795682E+03  0.11495855212E+04  0.46999998093E+01 0. -1.
       -5    1    3    3    0  502 -0.55152145948E+03 -0.91226473725E+03 -0.95162181004E+03  0.14289888140E+04  0.46999998093E+01 0.  1.
</event>
<event>
 5   0  0.3484857E-06  0.2495555E+04  0.7818609E-02  0.8404571E-01
        1   -1    0    0  501    0  0.00000000000E+00  0.00000000000E+00  0.15990127580E+04  0.15990127580E+04  0.50400001928E-02 0. -1.
       -1   -1    0    0    0  501  0.00000000000E+00  0.00000000000E+00 -0.97369346371E+03  0.97369346373E+03  0.50400001928E-02 0.  1.
    10030    2    1    2    0    0  0.00000000000E+00  0.00000000000E+00  0.62531929426E+03  0.25727062217E+04  0.24955546645E+04 0.  0.
        3    1    3    3  502    0  0.57686994985E+03  0.10625163704E+04  0.63079071924E+03  0.13636777178E+04  0.10100000352E+00 0. -1.
       -3    1    3    3    0  502 -0.57686994985E+03 -0.10625163704E+04 -0.54714249810E+01  0.12090285039E+04  0.10100000352E+00 0.  1.
</event>
<event>
 5   0  0.8056723E-06  0.2495675E+04  0.7818609E-02  0.8404528E-01
       -2   -1    0    0    0  501  0.00000000000E+00  0.00000000000E+00  0.89463973155E+03  0.89463973155E+03  0.25500000920E-02 0.  1.
        2   -1    0    0  501    0  0.00000000000E+00  0.00000000000E+00 -0.17404747642E+04  0.17404747642E+04  0.25500000920E-02 0. -1.
    10030    2    1    2    0    0  0.00000000000E+00  0.00000000000E+00 -0.84583503263E+03  0.26351144957E+04  0.24956745587E+04 0.  0.
        2    1    3    3  502    0 -0.14615487709E+03 -0.12274460136E+04 -0.60307585041E+03  0.13753855626E+04  0.25500000920E-02 0. -1.
       -2    1    3    3    0  502  0.14615487709E+03  0.12274460136E+04 -0.24275918222E+03  0.12597289331E+04  0.25500000920E-02 0.  1.
</event>
<event>
 5   0  0.3522870E-06  0.2473913E+04  0.7818609E-02  0.8412339E-01
       -1   -1    0    0    0  501  0.00000000000E+00  0.00000000000E+00  0.12312018518E+04  0.12312018518E+04  0.50400001928E-02 0.  1.
        1   -1    0    0  501    0  0.00000000000E+00  0.00000000000E+00 -0.12427376691E+04  0.12427376691E+04  0.50400001928E-02 0. -1.
    10030    2    1    2    0    0  0.00000000000E+00  0.00000000000E+00 -0.11535817317E+02  0.24739395209E+04  0.24739126253E+04 0.  0.
        2    1    3    3  502    0  0.63986526076E+03  0.10288007920E+04 -0.25517450505E+03  0.12381327270E+04  0.25500000920E-02 0.  1.
       -2    1    3    3    0  502 -0.63986526076E+03 -0.10288007920E+04  0.24363868774E+03  0.12358067939E+04  0.25500000920E-02 0. -1.
</event>
<event>
 5   0  0.3642184E-06  0.2471188E+04  0.7818609E-02  0.8413322E-01
       -1   -1    0    0    0  501  0.00000000000E+00  0.00000000000E+00  0.72957526479E+03  0.72957526480E+03  0.50400001928E-02 0. -1.
        1   -1    0    0  501    0  0.00000000000E+00  0.00000000000E+00 -0.20925774463E+04  0.20925774463E+04  0.50400001928E-02 0.  1.
    10030    2    1    2    0    0  0.00000000000E+00  0.00000000000E+00 -0.13630021815E+04  0.28221527111E+04  0.24711881713E+04 0.  0.
        5    1    3    3  502    0  0.83942882895E+03  0.68742044617E+03 -0.63705764753E+01  0.10850116603E+04  0.46999998093E+01 0.  1.
       -5    1    3    3    0  502 -0.83942882895E+03 -0.68742044617E+03 -0.13566316050E+04  0.17371410508E+04  0.46999998093E+01 0. -1.
</event>
<event>
 5   0  0.8579923E-06  0.2499628E+04  0.7818609E-02  0.8403118E-01
        2   -1    0    0  501    0  0.00000000000E+00  0.00000000000E+00  0.18369058582E+04  0.18369058582E+04  0.25500000920E-02 0.  1.
       -2   -1    0    0    0  501  0.00000000000E+00  0.00000000000E+00 -0.85036237975E+03  0.85036237975E+03  0.25500000920E-02 0. -1.
    10030    2    1    2    0    0  0.00000000000E+00  0.00000000000E+00  0.98654347848E+03  0.26872682380E+04  0.24996284820E+04 0.  0.
        1    1    3    3  502    0 -0.12422547569E+04  0.11416735685E+03  0.41136481787E+03  0.13135646462E+04  0.50400001928E-02 0. -1.
       -1    1    3    3    0  502  0.12422547569E+04 -0.11416735685E+03  0.57517866061E+03  0.13737035918E+04  0.50400001928E-02 0.  1.
</event>
<event>
 5   0  0.8056723E-06  0.2505506E+04  0.7818609E-02  0.8401027E-01
        2   -1    0    0  501    0  0.00000000000E+00  0.00000000000E+00  0.14917051969E+04  0.14917051969E+04  0.25500000920E-02 0.  1.
       -2   -1    0    0    0  501  0.00000000000E+00  0.00000000000E+00 -0.10520780888E+04  0.10520780888E+04  0.25500000920E-02 0. -1.
    10030    2    1    2    0    0  0.00000000000E+00  0.00000000000E+00  0.43962710815E+03  0.25437832857E+04  0.25055062184E+04 0.  0.
        2    1    3    3  502    0  0.11505974291E+04  0.62841978360E+02 -0.27918954485E+03  0.11856518713E+04  0.25500000920E-02 0. -1.
       -2    1    3    3    0  502 -0.11505974291E+04 -0.62841978360E+02  0.71881665300E+03  0.13581314144E+04  0.25500000920E-02 0.  1.
</event>
<event>
 5   0  0.8948286E-06  0.2514504E+04  0.7818609E-02  0.8397836E-01
       -2   -1    0    0    0  501  0.00000000000E+00  0.00000000000E+00  0.11994674123E+04  0.11994674123E+04  0.25500000920E-02 0. -1.
        2   -1    0    0  501    0  0.00000000000E+00  0.00000000000E+00 -0.13178208896E+04  0.13178208896E+04  0.25500000920E-02 0.  1.
    10030    2    1    2    0    0  0.00000000000E+00  0.00000000000E+00 -0.11835347729E+03  0.25172883019E+04  0.25145044938E+04 0.  0.
        4    1    3    3  502    0 -0.71781661828E+03 -0.44415240479E+03 -0.99195370244E+03  0.13024998337E+04  0.12699999809E+01 0.  1.
       -4    1    3    3    0  502  0.71781661828E+03  0.44415240479E+03  0.87360022515E+03  0.12147884682E+04  0.12699999809E+01 0. -1.
</event>
<event>
 5   0  0.8407986E-06  0.2503068E+04  0.7818609E-02  0.8401894E-01
        2   -1    0    0  501    0  0.00000000000E+00  0.00000000000E+00  0.23535398010E+04  0.23535398010E+04  0.25500000920E-02 0. -1.
       -2   -1    0    0    0  501  0.00000000000E+00  0.00000000000E+00 -0.66552380861E+03  0.66552380862E+03  0.25500000920E-02 0.  1.
    10030    2    1    2    0    0  0.00000000000E+00  0.00000000000E+00  0.16880159924E+04  0.30190636096E+04  0.25030675357E+04 0.  0.
        5    1    3    3  502    0  0.59134828672E+03 -0.10532811313E+04  0.44906073660E+03  0.12887092662E+04  0.46999998093E+01 0.  1.
       -5    1    3    3    0  502 -0.59134828672E+03  0.10532811313E+04  0.12389552558E+04  0.17303543434E+04  0.46999998093E+01 0. -1.
</event>
<event>
 5   0  0.8948286E-06  0.2508258E+04  0.7818609E-02  0.8400049E-01
       -2   -1    0    0    0  501  0.00000000000E+00  0.00000000000E+00  0.92969376705E+03  0.92969376705E+03  0.25500000920E-02 0. -1.
        2   -1    0    0  501    0  0.00000000000E+00  0.00000000000E+00 -0.16917825661E+04  0.16917825661E+04  0.25500000920E-02 0.  1.
    10030    2    1    2    0    0  0.00000000000E+00  0.00000000000E+00 -0.76208879906E+03  0.26214763332E+04  0.25082581262E+04 0.  0.
        4    1    3    3  502    0  0.11175274706E+04  0.40834339696E+03  0.33371164167E+02  0.11902635107E+04  0.12699999809E+01 0. -1.
       -4    1    3    3    0  502 -0.11175274706E+04 -0.40834339696E+03 -0.79545996322E+03  0.14312128225E+04  0.12699999809E+01 0.  1.
</event>
<event>
 5   0  0.8579923E-06  0.2488686E+04  0.7818609E-02  0.8407027E-01
        2   -1    0    0  501    0  0.00000000000E+00  0.00000000000E+00  0.10398337424E+04  0.10398337424E+04  0.25500000920E-02 0.  1.
       -2   -1    0    0    0  501  0.00000000000E+00  0.00000000000E+00 -0.14890744082E+04  0.14890744082E+04  0.25500000920E-02 0. -1.
    10030    2    1    2    0    0  0.00000000000E+00  0.00000000000E+00 -0.44924066575E+03  0.25289081506E+04  0.24886862515E+04 0.  0.
        1    1    3    3  502    0 -0.32912140832E+03 -0.49546364002E+02 -0.14430039902E+04  0.14808903604E+04  0.50400001928E-02 0. -1.
       -1    1    3    3    0  502  0.32912140832E+03  0.49546364002E+02  0.99376332446E+03  0.10480177902E+04  0.50400001928E-02 0.  1.
</event>
<event>
 5   0  0.3522870E-06  0.2505946E+04  0.7818609E-02  0.8400870E-01
       -1   -1    0    0    0  501  0.00000000000E+00  0.00000000000E+00  0.11897684004E+04  0.11897684004E+04  0.50400001928E-02 0.  1.
        1   -1    0    0  501    0  0.00000000000E+00  0.00000000000E+00 -0.13195354843E+04  0.13195354843E+04  0.50400001928E-02 0. -1.
    10030    2    1    2    0    0  0.00000000000E+00  0.00000000000E+00 -0.12976708397E+03  0.25093038847E+04  0.25059462264E+04 0.  0.
        2    1    3    3  502    0 -0.63364982251E+02 -0.12388784163E+04  0.11172389071E+03  0.12455187992E+04  0.25500000920E-02 0.  1.
       -2    1    3    3    0  502  0.63364982251E+02  0.12388784163E+04 -0.24149097467E+03  0.12637850855E+04  0.25500000920E-02 0. -1.
</event>
<event>
 5   0  0.8056723E-06  0.2500570E+04  0.7818609E-02  0.8402783E-01
        2   -1    0    0  501    0  0.00000000000E+00  0.00000000000E+00  0.12201702175E+04  0.12201702175E+04  0.25500000920E-02 0.  1.
       -2   -1    0    0    0  501  0.00000000000E+00  0.00000000000E+00 -0.12811427312E+04  0.12811427312E+04  0.25500000920E-02 0. -1.
    10030    2    1    2    0    0  0.00000000000E+00  0.00000000000E+00 -0.60972513743E+02  0.25013129487E+04  0.25005696991E+04 0.  0.
        2    1    3    3  502    0  0.43320712565E+03 -0.97413726673E+03 -0.68382691320E+03  0.12665824392E+04  0.25500000920E-02 0. -1.
       -2    1    3    3    0  502 -0.43320712565E+03  0.97413726673E+03  0.62285439946E+03  0.12347305095E+04  0.25500000920E-02 0.  1.
</event>
<event>
 5   0  0.8354653E-06  0.2504449E+04  0.7818609E-02  0.8401402E-01
        2   -1    0    0  501    0  0.00000000000E+00  0.00000000000E+00  0.20627304574E+04  0.20627304574E+04  0.25500000920E-02 0. -1.
       -2   -1    0    0    0  501  0.00000000000E+00  0.00000000000E+00 -0.76018949511E+03  0.76018949511E+03  0.25500000920E-02 0.  1.
    10030    2    1    2    0    0  0.00000000000E+00  0.00000000000E+00  0.13025409623E+04  0.28229199525E+04  0.25044488615E+04 0.  0.
        3    1    3    3  502    0 -0.95259596679E+03  0.27954885865E+03 -0.20898345995E+03  0.10145248824E+04  0.10100000352E+00 0.  1.
       -3    1    3    3    0  502  0.95259596679E+03 -0.27954885865E+03  0.15115244223E+04  0.18083950701E+04  0.10100000352E+00 0. -1.
</event>
<event>
 5   0  0.8407986E-06  0.2500173E+04  0.7818609E-02  0.8402924E-01
       -2   -1    0    0    0  501  0.00000000000E+00  0.00000000000E+00  0.10504389123E+04  0.10504389123E+04  0.25500000920E-02 0. -1.
        2   -1    0    0  501    0  0.00000000000E+00  0.00000000000E+00 -0.14876790084E+04  0.14876790084E+04  0.25500000920E-02 0.  1.
    10030    2    1    2    0    0  0.00000000000E+00  0.00000000000E+00 -0.43724009614E+03  0.25381179207E+04  0.25001727295E+04 0.  0.
        5    1    3    3  502    0  0.12195999801E+03  0.45884182967E+03  0.95534067626E+03  0.10668214300E+04  0.46999998093E+01 0. -1.
       -5    1    3    3    0  502 -0.12195999801E+03 -0.45884182967E+03 -0.13925807724E+04  0.14712964907E+04  0.46999998093E+01 0.  1.
</event>
<event>
 5   0  0.8579923E-06  0.2474313E+04  0.7818609E-02  0.8412194E-01
        2   -1    0    0  501    0  0.00000000000E+00  0.00000000000E+00  0.17191061539E+04  0.17191061539E+04  0.25500000920E-02 0.  1.
       -2   -1    0    0    0  501  0.00000000000E+00  0.00000000000E+00 -0.89032064566E+03  0.89032064566E+03  0.25500000920E-02 0. -1.
    10030    2    1    2    0    0  0.00000000000E+00  0.00000000000E+00  0.82878550825E+03  0.26094267996E+04  0.24743125921E+04 0.  0.
        1    1    3    3  502    0  0.63742616045E+03 -0.45097411674E+03 -0.59762645836E+03  0.98328385920E+03  0.50400001928E-02 0. -1.
       -1    1    3    3    0  502 -0.63742616045E+03  0.45097411674E+03  0.14264119666E+04  0.16261429404E+04  0.50400001928E-02 0.  1.
</event>
<event>
 5   0  0.3424193E-06  0.2495536E+04  0.7818609E-02  0.8404578E-01
       -1   -1    0    0    0  501  0.00000000000E+00  0.00000000000E+00  0.10812340506E+04  0.10812340506E+04  0.50400001928E-02 0.  1.
        1   -1    0    0  501    0  0.00000000000E+00  0.00000000000E+00 -0.14399518235E+04  0.14399518236E+04  0.50400001928E-02 0. -1.
    10030    2    1    2    0    0  0.00000000000E+00  0.00000000000E+00 -0.35871777296E+03  0.25211858742E+04  0.24955359688E+04 0.  0.
        1    1    3    3  502    0  0.17321956010E+03  0.50193873212E+03  0.96139585030E+03  0.10982847936E+04  0.50400001928E-02 0.  1.
       -1    1    3    3    0  502 -0.17321956010E+03 -0.50193873212E+03 -0.13201136233E+04  0.14229010806E+04  0.50400001928E-02 0. -1.
</event>
<event>
 5   0  0.8056723E-06  0.2496316E+04  0.7818609E-02  0.8404299E-01
        2   -1    0    0  501    0  0.00000000000E+00  0.00000000000E+00  0.21344709221E+04  0.21344709221E+04  0.25500000920E-02 0.  1.
       -2   -1    0    0    0  501  0.00000000000E+00  0.00000000000E+00 -0.72987575577E+03  0.72987575577E+03  0.25500000920E-02 0. -1.
    10030    2    1    2    0    0  0.00000000000E+00  0.00000000000E+00  0.14045951664E+04  0.28643466779E+04  0.24963161478E+04 0.  0.
        2    1    3    3  502    0  0.60788335933E+03 -0.90170143962E+03 -0.64781230824E+00  0.10874686591E+04  0.25500000920E-02 0. -1.
       -2    1    3    3    0  502 -0.60788335933E+03  0.90170143962E+03  0.14052429787E+04  0.17768780189E+04  0.25500000920E-02 0.  1.
</event>
<event>
 5   0  0.3484857E-06  0.2494608E+04  0.7818609E-02  0.8404909E-01
       -1   -1    0    0    0  501  0.00000000000E+00  0.00000000000E+00  0.84480639658E+03  0.84480639659E+03  0.50400001928E-02 0. -1.
        1   -1    0    0  501    0  0.00000000000E+00  0.00000000000E+00 -0.18415666077E+04  0.18415666077E+04  0.50400001928E-02 0.  1.
    10030    2    1    2    0    0  0.00000000000E+00  0.00000000000E+00 -0.99676021107E+03  0.26863730042E+04  0.24946079852E+04 0.  0.
        3    1    3    3  502    0 -0.79237481125E+03 -0.54528174455E+02 -0.15340464559E+04  0.17274633722E+04  0.10100000352E+00 0.  1.
       -3    1    3    3    0  502  0.79237481125E+03  0.54528174455E+02  0.53728624482E+03  0.95890963203E+03  0.10100000352E+00 0. -1.
</event>
<event>
 5   0  0.8407986E-06  0.2502022E+04  0.7818609E-02  0.8402266E-01
        2   -1    0    0  501    0  0.00000000000E+00  0.00000000000E+00  0.21691165657E+04  0.21691165657E+04  0.25500000920E-02 0.  1.
       -2   -1    0    0    0  501  0.00000000000E+00  0.00000000000E+00 -0.72150507644E+03  0.72150507644E+03  0.25500000920E-02 0. -1.
    10030    2    1    2    0    0  0.00000000000E+00  0.00000000000E+00  0.14476114892E+04  0.28906216421E+04  0.25020220731E+04 0.  0.
        5    1    3    3  502    0 -0.58343600234E+03 -0.20796930546E+03  0.19795200027E+04  0.20741673828E+04  0.46999998093E+01 0.  1.
       -5    1    3    3    0  502  0.58343600234E+03  0.20796930546E+03 -0.53190851346E+03  0.81645425930E+03  0.46999998093E+01 0. -1.
</event>
<event>
 5   0  0.3481387E-06  0.2461039E+04  0.7818609E-02  0.8416999E-01
       -1   -1    0    0    0  501  0.00000000000E+00  0.00000000000E+00  0.13510951941E+04  0.13510951941E+04  0.50400001928E-02 0. -1.
        1   -1    0    0  501    0  0.00000000000E+00  0.00000000000E+00 -0.11207040485E+04  0.11207040485E+04  0.50400001928E-02 0.  1.
    10030    2    1    2    0    0  0.00000000000E+00  0.00000000000E+00  0.23039114561E+03  0.24717992426E+04  0.24610386864E+04 0.  0.
        4    1    3    3  502    0  0.85861727278E+03  0.27700974657E+01  0.10004943763E+04  0.13184164382E+04  0.12699999809E+01 0. -1.
       -4    1    3    3    0  502 -0.85861727278E+03 -0.27700974657E+01 -0.77010323073E+03  0.11533828044E+04  0.12699999809E+01 0.  1.
</event>
<event>
 5   0  0.8948286E-06  0.2489199E+04  0.7818609E-02  0.8406843E-01
       -2   -1    0    0    0  501  0.00000000000E+00  0.00000000000E+00  0.10945161521E+04  0.10945161521E+04  0.25500000920E-02 0. -1.
        2   -1    0    0  501    0  0.00000000000E+00  0.00000000000E+00 -0.14152631586E+04  0.14152631586E+04  0.25500000920E-02 0.  1.
    10030    2    1    2    0    0  0.00000000000E+00  0.00000000000E+00 -0.32074700646E+03  0.25097793107E+04  0.24891993786E+04 0.  0.
        4    1    3    3  502    0  0.37712309712E+03  0.79924647466E+03 -0.10439807987E+04  0.13678136856E+04  0.12699999809E+01 0.  1.
       -4    1    3    3    0  502 -0.37712309712E+03 -0.79924647466E+03  0.72323379225E+03  0.11419656250E+04  0.12699999809E+01 0. -1.
</event>
<event>
 5   0  0.3424193E-06  0.2500067E+04  0.7818609E-02  0.8402962E-01
       -1   -1    0    0    0  501  0.00000000000E+00  0.00000000000E+00  0.13987428654E+04  0.13987428654E+04  0.50400001928E-02 0.  1.
        1   -1    0    0  501    0  0.00000000000E+00  0.00000000000E+00 -0.11171345945E+04  0.11171345945E+04  0.50400001928E-02 0. -1.
    10030    2    1    2    0    0  0.00000000000E+00  0.00000000000E+00  0.28160827091E+03  0.25158774599E+04  0.25000672341E+04 0.  0.
        1    1    3    3  502    0  0.96843889404E+02 -0.65914170380E+03  0.12051968606E+04  0.13770787913E+04  0.50400001928E-02 0.  1.
       -1    1    3    3    0  502 -0.96843889404E+02  0.65914170380E+03 -0.92358858971E+03  0.11387986686E+04  0.50400001928E-02 0. -1.
</event>
<event>
 5   0  0.8579923E-06  0.2480172E+04  0.7818609E-02  0.8410084E-01
       -2   -1    0    0    0  501  0.00000000000E+00  0.00000000000E+00  0.92161511173E+03  0.92161511174E+03  0.25500000920E-02 0. -1.
        2   -1    0    0  501    0  0.00000000000E+00  0.00000000000E+00 -0.16686063574E+04  0.16686063574E+04  0.25500000920E-02 0.  1.
    10030    2    1    2    0    0  0.00000000000E+00  0.00000000000E+00 -0.74699124570E+03  0.25902214692E+04  0.24801716348E+04 0.  0.
        1    1    3    3  502    0  0.83111688551E+03 -0.63053877095E+02  0.58544123306E+03  0.10185639431E+04  0.50400001928E-02 0. -1.
       -1    1    3    3    0  502 -0.83111688551E+03  0.63053877095E+02 -0.13324324788E+04  0.15716575261E+04  0.50400001928E-02 0.  1.
</event>
<event>
 5   0  0.3481387E-06  0.2499308E+04  0.7818609E-02  0.8403232E-01
       -1   -1    0    0    0  501  0.00000000000E+00  0.00000000000E+00  0.96565756859E+03  0.96565756860E+03  0.50400001928E-02 0.  1.
        1   -1    0    0  501    0  0.00000000000E+00  0.00000000000E+00 -0.16171722625E+04  0.16171722625E+04  0.50400001928E-02 0. -1.
    10030    2    1    2    0    0  0.00000000000E+00  0.00000000000E+00 -0.65151469386E+03  0.25828298311E+04  0.24993076121E+04 0.  0.
        4    1    3    3  502    0 -0.13600854715E+03  0.10207830225E+04 -0.10573244940E+04  0.14759515583E+04  0.12699999809E+01 0. -1.
       -4    1    3    3    0  502  0.13600854715E+03 -0.10207830225E+04  0.40580980016E+03  0.11068782728E+04  0.12699999809E+01 0.  1.
</event>
<event>
 5   0  0.8354653E-06  0.2506142E+04  0.7818609E-02  0.8400801E-01
        2   -1    0    0  501    0  0.00000000000E+00  0.00000000000E+00  0.14155378039E+04  0.14155378039E+04  0.25500000920E-02 0.  1.
       -2   -1    0    0    0  501  0.00000000000E+00  0.00000000000E+00 -0.11092510516E+04  0.11092510516E+04  0.25500000920E-02 0. -1.
    10030    2    1    2    0    0  0.00000000000E+00  0.00000000000E+00  0.30628675228E+03  0.25247888554E+04  0.25061418934E+04 0.  0.
        3    1    3    3  502    0  0.11632253355E+04  0.33076451925E+02 -0.31507217687E+03  0.12055943429E+04  0.10100000352E+00 0.  1.
       -3    1    3    3    0  502 -0.11632253355E+04 -0.33076451925E+02  0.62135892915E+03  0.13191945125E+04  0.10100000352E+00 0. -1.
</event>
<event>
 5   0  0.3484857E-06  0.2527927E+04  0.7818609E-02  0.8393103E-01
       -1   -1    0    0    0  501  0.00000000000E+00  0.00000000000E+00  0.12521697461E+04  0.12521697462E+04  0.50400001928E-02 0.  1.
        1   -1    0    0  501    0  0.00000000000E+00  0.00000000000E+00 -0.12758685322E+04  0.12758685322E+04  0.50400001928E-02 0. -1.
    10030    2    1    2    0    0  0.00000000000E+00  0.00000000000E+00 -0.23698786031E+02  0.25280382783E+04  0.25279271952E+04 0.  0.
        3    1    3    3  502    0  0.10162900601E+04 -0.71205080278E+03  0.22845709607E+03  0.12617664153E+04  0.10100000352E+00 0.  1.
       -3    1    3    3    0  502 -0.10162900601E+04  0.71205080278E+03 -0.25215588210E+03  0.12662718630E+04  0.10100000352E+00 0. -1.
</event>
<event>
 5   0  0.8579923E-06  0.2497899E+04  0.7818609E-02  0.8403735E-01
       -2   -1    0    0    0  501  0.00000000000E+00  0.00000000000E+00  0.56939050910E+03  0.56939050911E+03  0.25500000920E-02 0.  1.
        2   -1    0    0  501    0  0.00000000000E+00  0.00000000000E+00 -0.27395511069E+04  0.27395511069E+04  0.25500000920E-02 0. -1.
    10030    2    1    2    0    0  0.00000000000E+00  0.00000000000E+00 -0.21701605978E+04  0.33089416160E+04  0.24978986364E+04 0.  0.
        1    1    3    3  502    0  0.53030308308E+03  0.10523830036E+04 -0.53706342466E+03  0.12950553920E+04  0.50400001928E-02 0.  1.
       -1    1    3    3    0  502 -0.53030308308E+03 -0.10523830036E+04 -0.16330971731E+04  0.20138862240E+04  0.50400001928E-02 0. -1.
</event>
<event>
 5   0  0.3481387E-06  0.2498355E+04  0.7818609E-02  0.8403572E-01
       -1   -1    0    0    0  501  0.00000000000E+00  0.00000000000E+00  0.81321148738E+03  0.81321148739E+03  0.50400001928E-02 0. -1.
        1   -1    0    0  501    0  0.00000000000E+00  0.00000000000E+00 -0.19188662882E+04  0.19188662882E+04  0.50400001928E-02 0.  1.
    10030    2    1    2    0    0  0.00000000000E+00  0.00000000000E+00 -0.11056548009E+04  0.27320777756E+04  0.24983547453E+04 0.  0.
        4    1    3    3  502    0  0.86923375175E+03 -0.64000423054E+03  0.13469325725E+03  0.10878035745E+04  0.12699999809E+01 0. -1.
       -4    1    3    3    0  502 -0.86923375175E+03  0.64000423054E+03 -0.12403480581E+04  0.16442742011E+04  0.12699999809E+01 0.  1.
</event>
<event>
 5   0  0.8354653E-06  0.2502301E+04  0.7818609E-02  0.8402166E-01
       -2   -1    0    0    0  501  0.00000000000E+00  0.00000000000E+00  0.10257935966E+04  0.10257935966E+04  0.25500000920E-02 0. -1.
        2   -1    0    0  501    0  0.00000000000E+00  0.00000000000E+00 -0.15260155203E+04  0.15260155203E+04  0.25500000920E-02 0.  1.
    10030    2    1    2    0    0  0.00000000000E+00  0.00000000000E+00 -0.50022192370E+03  0.25518091170E+04  0.25023005009E+04 0.  0.
        3    1    3    3  502    0 -0.85218251011E+02  0.47900708708E+03 -0.14255951619E+04  0.15063304802E+04  0.10100000352E+00 0.  1.
       -3    1    3    3    0  502  0.85218251011E+02 -0.47900708708E+03  0.92537323820E+03  0.10454786368E+04  0.10100000352E+00 0. -1.
</event>
<event>
 5   0  0.3481387E-06  0.2498663E+04  0.7818609E-02  0.8403462E-01
        1   -1    0    0  501    0  0.00000000000E+00  0.00000000000E+00  0.13452014687E+04  0.13452014688E+04  0.50400001928E-02 0. -1.
       -1   -1    0    0    0  501  0.00000000000E+00  0.00000000000E+00 -0.11602942614E+04  0.11602942614E+04  0.50400001928E-02 0.  1.
    10030    2    1    2    0    0  0.00000000000E+00  0.00000000000E+00  0.18490720734E+03  0.25054957302E+04  0.24986632784E+04 0.  0.
        4    1    3    3  502    0 -0.84912328928E+03 -0.22248820097E+03 -0.79897481861E+03  0.11869598703E+04  0.12699999809E+01 0.  1.
       -4    1    3    3    0  502  0.84912328928E+03  0.22248820097E+03  0.98388202595E+03  0.13185358599E+04  0.12699999809E+01 0. -1.
</event>
<event>
 5   0  0.2901250E-06  0.2489044E+04  0.7818609E-02  0.8406899E-01
        3   -1    0    0  501    0  0.00000000000E+00  0.00000000000E+00  0.99835317208E+03  0.99835317719E+03  0.10100000352E+00 0.  1.
       -3   -1    0    0    0  501  0.00000000000E+00  0.00000000000E+00 -0.15513892560E+04  0.15513892593E+04  0.10100000352E+00 0. -1.
    10030    2    1    2    0    0  0.00000000000E+00  0.00000000000E+00 -0.55303608389E+03  0.25497424364E+04  0.24890435075E+04 0.  0.
        4    1    3    3  502    0  0.66873726747E+03 -0.10121782896E+04 -0.56099213140E+03  0.13365733079E+04  0.12699999809E+01 0.  1.
       -4    1    3    3    0  502 -0.66873726747E+03  0.10121782896E+04  0.79560475154E+01  0.12131691286E+04  0.12699999809E+01 0. -1.
</event>
<event>
 5   0  0.3481387E-06  0.2507871E+04  0.7818609E-02  0.8400187E-01
       -1   -1    0    0    0  501  0.00000000000E+00  0.00000000000E+00  0.12317422495E+04  0.12317422495E+04  0.50400001928E-02 0. -1.
        1   -1    0    0  501    0  0.00000000000E+00  0.00000000000E+00 -0.12765284973E+04  0.12765284973E+04  0.50400001928E-02 0.  1.
    10030    2    1    2    0    0  0.00000000000E+00  0.00000000000E+00 -0.44786247761E+02  0.25082707468E+04  0.25078708761E+04 0.  0.
        4    1    3    3  502    0  0.10478684094E+04  0.67205897499E+03  0.12816659040E+03  0.12514470652E+04  0.12699999809E+01 0. -1.
       -4    1    3    3    0  502 -0.10478684094E+04 -0.67205897499E+03 -0.17295283816E+03  0.12568236815E+04  0.12699999809E+01 0.  1.
</event>
<event>
 5   0  0.3642184E-06  0.2495342E+04  0.7818609E-02  0.8404647E-01
       -1   -1    0    0    0  501  0.00000000000E+00  0.00000000000E+00  0.14439053069E+04  0.14439053069E+04  0.50400001928E-02 0.  1.
        1   -1    0    0  501    0  0.00000000000E+00  0.00000000000E+00 -0.10781056902E+04  0.10781056902E+04  0.50400001928E-02 0. -1.
    10030    2    1    2    0    0  0.00000000000E+00  0.00000000000E+00  0.36579961662E+03  0.25220109971E+04  0.24953416820E+04 0.  0.
        5    1    3    3  502    0 -0.30253024329E+03 -0.37027327293E+03  0.13476196801E+04  0.14299397669E+04  0.46999998093E+01 0.  1.
       -5    1    3    3    0  502  0.30253024329E+03  0.37027327293E+03 -0.98182006349E+03  0.10920712302E+04  0.46999998093E+01 0. -1.
</event>
<event>
 5   0  0.8056723E-06  0.2464976E+04  0.7818609E-02  0.8415570E-01
       -2   -1    0    0    0  501  0.00000000000E+00  0.00000000000E+00  0.89167375039E+03  0.89167375039E+03  0.25500000920E-02 0. -1.
        2   -1    0    0  501    0  0.00000000000E+00  0.00000000000E+00 -0.17035678624E+04  0.17035678624E+04  0.25500000920E-02 0.  1.
    10030    2    1    2    0    0  0.00000000000E+00  0.00000000000E+00 -0.81189411203E+03  0.25952416128E+04  0.24649760607E+04 0.  0.
        2    1    3    3  502    0 -0.12026616614E+04 -0.25710842277E+03 -0.32088818028E+03  0.12710110295E+04  0.25500000920E-02 0.  1.
       -2    1    3    3    0  502  0.12026616614E+04  0.25710842277E+03 -0.49100593175E+03  0.13242305833E+04  0.25500000920E-02 0. -1.
</event>
<event>
 5   0  0.8948286E-06  0.2500867E+04  0.7818609E-02  0.8402677E-01
        2   -1    0    0  501    0  0.00000000000E+00  0.00000000000E+00  0.12607455153E+04  0.12607455154E+04  0.25500000920E-02 0. -1.
       -2   -1    0    0    0  501  0.00000000000E+00  0.00000000000E+00 -0.12402060176E+04  0.12402060176E+04  0.25500000920E-02 0.  1.
    10030    2    1    2    0    0  0.00000000000E+00  0.00000000000E+00  0.20539497740E+02  0.25009515330E+04  0.25008671894E+04 0.  0.
        4    1    3    3  502    0  0.87227976761E+03 -0.50014861160E+03  0.75363991706E+03  0.12565808228E+04  0.12699999809E+01 0. -1.
       -4    1    3    3    0  502 -0.87227976761E+03  0.50014861160E+03 -0.73310041932E+03  0.12443707102E+04  0.12699999809E+01 0.  1.
</event>
<event>
 5   0  0.8407986E-06  0.2519679E+04  0.7818609E-02  0.8396008E-01
       -2   -1    0    0    0  501  0.00000000000E+00  0.00000000000E+00  0.11688463613E+04  0.11688463613E+04  0.25500000920E-02 0.  1.
        2   -1    0    0  501    0  0.00000000000E+00  0.00000000000E+00 -0.13579167317E+04  0.13579167317E+04  0.25500000920E-02 0. -1.
    10030    2    1    2    0    0  0.00000000000E+00  0.00000000000E+00 -0.18907037042E+03  0.25267630930E+04  0.25196793692E+04 0.  0.
        5    1    3    3  502    0 -0.36615576320E+03 -0.86767236330E+03 -0.93369631576E+03  0.13261735456E+04  0.46999998093E+01 0. -1.
       -5    1    3    3    0  502  0.36615576320E+03  0.86767236330E+03  0.74462594534E+03  0.12005895474E+04  0.46999998093E+01 0.  1.
</event>
<event>
 5   0  0.8407986E-06  0.2507645E+04  0.7818609E-02  0.8400267E-01
       -2   -1    0    0    0  501  0.00000000000E+00  0.00000000000E+00  0.72907481537E+03  0.72907481538E+03  0.25500000920E-02 0.  1.
        2   -1    0    0  501    0  0.00000000000E+00  0.00000000000E+00 -0.21562552735E+04  0.21562552735E+04  0.25500000920E-02 0. -1.
    10030    2    1    2    0    0  0.00000000000E+00  0.00000000000E+00 -0.14271804581E+04  0.28853300889E+04  0.25076454418E+04 0.  0.
        5    1    3    3  502    0  0.80951043522E+02 -0.38967471173E+03 -0.20816349757E+04  0.21193455864E+04  0.46999998093E+01 0. -1.
       -5    1    3    3    0  502 -0.80951043522E+02  0.38967471173E+03  0.65445451761E+03  0.76598450247E+03  0.46999998093E+01 0.  1.
</event>
<event>
 5   0  0.3481387E-06  0.2498051E+04  0.7818609E-02  0.8403680E-01
       -1   -1    0    0    0  501  0.00000000000E+00  0.00000000000E+00  0.10223844884E+04  0.10223844884E+04  0.50400001928E-02 0.  1.
        1   -1    0    0  501    0  0.00000000000E+00  0.00000000000E+00 -0.15259078884E+04  0.15259078884E+04  0.50400001928E-02 0. -1.
    10030    2    1    2    0    0  0.00000000000E+00  0.00000000000E+00 -0.50352339994E+03  0.25482923768E+04  0.24980508849E+04 0.  0.
        4    1    3    3  502    0  0.45414632818E+03  0.39527476860E+03  0.86458418359E+03  0.10535646414E+04  0.12699999809E+01 0.  1.
       -4    1    3    3    0  502 -0.45414632818E+03 -0.39527476860E+03 -0.13681075835E+04  0.14947277355E+04  0.12699999809E+01 0. -1.
</event>
<event>
 5   0  0.3424193E-06  0.2505660E+04  0.7818609E-02  0.8400972E-01
       -1   -1    0    0    0  501  0.00000000000E+00  0.00000000000E+00  0.16172541175E+04  0.16172541175E+04  0.50400001928E-02 0.  1.
        1   -1    0    0  501    0  0.00000000000E+00  0.00000000000E+00 -0.97052358027E+03  0.97052358028E+03  0.50400001928E-02 0. -1.
    10030    2    1    2    0    0  0.00000000000E+00  0.00000000000E+00  0.64673053726E+03  0.25877776978E+04  0.25056601975E+04 0.  0.
        1    1    3    3  502    0 -0.95540989847E+03  0.35132034935E+03 -0.43087655888E+03  0.11053907323E+04  0.50400001928E-02 0. -1.
       -1    1    3    3    0  502  0.95540989847E+03 -0.35132034935E+03  0.10776070961E+04  0.14823869655E+04  0.50400001928E-02 0.  1.
</event>
<event>
 5   0  0.8354653E-06  0.2499438E+04  0.7818609E-02  0.8403186E-01
       -2   -1    0    0    0  501  0.00000000000E+00  0.00000000000E+00  0.11487028335E+04  0.11487028335E+04  0.25500000920E-02 0. -1.
        2   -1    0    0  501    0  0.00000000000E+00  0.00000000000E+00 -0.13596189084E+04  0.13596189084E+04  0.25500000920E-02 0.  1.
    10030    2    1    2    0    0  0.00000000000E+00  0.00000000000E+00 -0.21091607481E+03  0.25083217419E+04  0.24994384110E+04 0.  0.
        3    1    3    3  502    0  0.34943624282E+03 -0.56504935573E+03  0.95679897096E+03  0.11648393637E+04  0.10100000352E+00 0. -1.
       -3    1    3    3    0  502 -0.34943624282E+03  0.56504935573E+03 -0.11677150458E+04  0.13434823782E+04  0.10100000352E+00 0.  1.
</event>
<event>
 5   0  0.8579923E-06  0.2501662E+04  0.7818609E-02  0.8402394E-01
        2   -1    0    0  501    0  0.00000000000E+00  0.00000000000E+00  0.13806000968E+04  0.13806000968E+04  0.25500000920E-02 0. -1.
       -2   -1    0    0    0  501  0.00000000000E+00  0.00000000000E+00 -0.11332592400E+04  0.11332592400E+04  0.25500000920E-02 0.  1.
    10030    2    1    2    0    0  0.00000000000E+00  0.00000000000E+00  0.24734085681E+03  0.25138593368E+04  0.25016617009E+04 0.  0.
        1    1    3    3  502    0  0.10184525926E+04 -0.26002198956E+02 -0.60557870066E+03  0.11851781977E+04  0.50400001928E-02 0.  1.
       -1    1    3    3    0  502 -0.10184525926E+04  0.26002198956E+02  0.85291955747E+03  0.13286811390E+04  0.50400001928E-02 0. -1.
</event>
<event>
 5   0  0.8407986E-06  0.2501992E+04  0.7818609E-02  0.8402276E-01
       -2   -1    0    0    0  501  0.00000000000E+00  0.00000000000E+00  0.10861583181E+04  0.10861583181E+04  0.25500000920E-02 0.  1.
        2   -1    0    0  501    0  0.00000000000E+00  0.00000000000E+00 -0.14408499851E+04  0.14408499851E+04  0.25500000920E-02 0. -1.
    10030    2    1    2    0    0  0.00000000000E+00  0.00000000000E+00 -0.35469166693E+03  0.25270083032E+04  0.25019921635E+04 0.  0.
        5    1    3    3  502    0 -0.10599393476E+04  0.57219704032E+03  0.16380084778E+03  0.12156206979E+04  0.46999998093E+01 0.  1.
       -5    1    3    3    0  502  0.10599393476E+04 -0.57219704032E+03 -0.51849251471E+03  0.13113876053E+04  0.46999998093E+01 0. -1.
</event>
<event>
 5   0  0.3484857E-06  0.2494804E+04  0.7818609E-02  0.8404839E-01
        1   -1    0    0  501    0  0.00000000000E+00  0.00000000000E+00  0.19556257804E+04  0.19556257804E+04  0.50400001928E-02 0.  1.
       -1   -1    0    0    0  501  0.00000000000E+00  0.00000000000E+00 -0.79565912133E+03  0.79565912135E+03  0.50400001928E-02 0. -1.
    10030    2    1    2    0    0  0.00000000000E+00  0.00000000000E+00  0.11599666591E+04  0.27512849018E+04  0.24948037920E+04 0.  0.
        3    1    3    3  502    0  0.82836603950E+03 -0.91977805521E+03  0.40974523135E+03  0.13038685252E+04  0.10100000352E+00 0. -1.
       -3    1    3    3    0  502 -0.82836603950E+03  0.91977805521E+03  0.75022142773E+03  0.14474163765E+04  0.10100000352E+00 0.  1.
</event>
<event>
 5   0  0.8056723E-06  0.2514624E+04  0.7818609E-02  0.8397794E-01
        2   -1    0    0  501    0  0.00000000000E+00  0.00000000000E+00  0.10632636442E+04  0.10632636442E+04  0.25500000920E-02 0. -1.
       -2   -1    0    0    0  501  0.00000000000E+00  0.00000000000E+00 -0.14867752285E+04  0.14867752285E+04  0.25500000920E-02 0.  1.
    10030    2    1    2    0    0  0.00000000000E+00  0.00000000000E+00 -0.42351158426E+03  0.25500388727E+04  0.25146244630E+04 0.  0.
        2    1    3    3  502    0  0.91377945790E+03  0.64462698997E+03 -0.79456459998E+03  0.13718125810E+04  0.25500000920E-02 0.  1.
       -2    1    3    3    0  502 -0.91377945790E+03 -0.64462698997E+03  0.37105301572E+03  0.11782262917E+04  0.25500000920E-02 0. -1.
</event>
<event>
 5   0  0.3424193E-06  0.2566856E+04  0.7818609E-02  0.8379547E-01
       -1   -1    0    0    0  501  0.00000000000E+00  0.00000000000E+00  0.11039466444E+04  0.11039466445E+04  0.50400001928E-02 0.  1.
        1   -1    0    0  501    0  0.00000000000E+00  0.00000000000E+00 -0.14920902815E+04  0.14920902815E+04  0.50400001928E-02 0. -1.
    10030    2    1    2    0    0  0.00000000000E+00  0.00000000000E+00 -0.38814363709E+03  0.25960369260E+04  0.25668564896E+04 0.  0.
        1    1    3    3  502    0  0.18081484475E+03 -0.11932384244E+04 -0.63570065519E+03  0.13640481181E+04  0.50400001928E-02 0. -1.
       -1    1    3    3    0  502 -0.18081484475E+03  0.11932384244E+04  0.24755701810E+03  0.12319888079E+04  0.50400001928E-02 0.  1.
</event>
<event>
 5   0  0.8354653E-06  0.2500411E+04  0.7818609E-02  0.8402839E-01
       -2   -1    0    0    0  501  0.00000000000E+00  0.00000000000E+00  0.64277078655E+03  0.64277078655E+03  0.25500000920E-02 0. -1.
        2   -1    0    0  501    0  0.00000000000E+00  0.00000000000E+00 -0.24316808669E+04  0.24316808669E+04  0.25500000920E-02 0.  1.
    10030    2    1    2    0    0  0.00000000000E+00  0.00000000000E+00 -0.17889100803E+04  0.30744516534E+04  0.25004107050E+04 0.  0.
        3    1    3    3  502    0  0.10591064360E+04 -0.62114466937E+03 -0.60482134511E+03  0.13686986566E+04  0.10100000352E+00 0. -1.
       -3    1    3    3    0  502 -0.10591064360E+04  0.62114466937E+03 -0.11840887352E+04  0.17057529968E+04  0.10100000352E+00 0.  1.
</event>
<event>
 5   0  0.8056723E-06  0.2503202E+04  0.7818609E-02  0.8401846E-01
        2   -1    0    0  501    0  0.00000000000E+00  0.00000000000E+00  0.20989813895E+04  0.20989813895E+04  0.25500000920E-02 0. -1.
       -2   -1    0    0    0  501  0.00000000000E+00  0.00000000000E+00 -0.74631654537E+03  0.74631654538E+03  0.25500000920E-02 0.  1.
    10030    2    1    2    0    0  0.00000000000E+00  0.00000000000E+00  0.13526648441E+04  0.28452979349E+04  0.25032015815E+04 0.  0.
        2    1    3    3  502    0  0.88533379607E+03  0.91622369337E+02  0.16765278321E+04  0.18981454530E+04  0.25500000920E-02 0. -1.
       -2    1    3    3    0  502 -0.88533379607E+03 -0.91622369337E+02 -0.32386298792E+03  0.94715248190E+03  0.25500000920E-02 0.  1.
</event>
<event>
 5   0  0.3424193E-06  0.2512136E+04  0.7818609E-02  0.8398675E-01
       -1   -1    0    0    0  501  0.00000000000E+00  0.00000000000E+00  0.13977095321E+04  0.13977095321E+04  0.50400001928E-02 0.  1.
        1   -1    0    0  501    0  0.00000000000E+00  0.00000000000E+00 -0.11287799509E+04  0.11287799509E+04  0.50400001928E-02 0. -1.
    10030    2    1    2    0    0  0.00000000000E+00  0.00000000000E+00  0.26892958124E+03  0.25264894830E+04  0.25121357424E+04 0.  0.
        1    1    3    3  502    0  0.54661524180E+03 -0.10405484363E+04 -0.31098492587E+03  0.12158293034E+04  0.50400001928E-02 0.  1.
       -1    1    3    3    0  502 -0.54661524180E+03  0.10405484363E+04  0.57991450710E+03  0.13106601796E+04  0.50400001928E-02 0. -1.
</event>
<event>
 5   0  0.8407986E-06  0.2513151E+04  0.7818609E-02  0.8398315E-01
        2   -1    0    0  501    0  0.00000000000E+00  0.00000000000E+00  0.17467306825E+04  0.17467306825E+04  0.25500000920E-02 0.  1.
       -2   -1    0    0    0  501  0.00000000000E+00  0.00000000000E+00 -0.90396398882E+03  0.90396398882E+03  0.25500000920E-02 0. -1.
    10030    2    1    2    0    0  0.00000000000E+00  0.00000000000E+00  0.84276669370E+03  0.26506946713E+04  0.25131507198E+04 0.  0.
        5    1    3    3  502    0 -0.11949097923E+04  0.21727619366E+03  0.81339429806E+02  0.12172331531E+04  0.46999998093E+01 0. -1.
       -5    1    3    3    0  502  0.11949097923E+04 -0.21727619366E+03  0.76142726390E+03  0.14334615183E+04  0.46999998093E+01 0.  1.
</event>
<event>
 5   0  0.8056723E-06  0.2432347E+04  0.7818609E-02  0.8427492E-01
        2   -1    0    0  501    0  0.00000000000E+00  0.00000000000E+00  0.99380272730E+03  0.99380272730E+03  0.25500000920E-02 0.  1.
       -2   -1    0    0    0  501  0.00000000000E+00  0.00000000000E+00 -0.14883019360E+04  0.14883019360E+04  0.25500000920E-02 0. -1.
    10030    2    1    2    0    0  0.00000000000E+00  0.00000000000E+00 -0.49449920866E+03  0.24821046633E+04  0.24323474448E+04 0.  0.
        2    1    3    3  502    0  0.42716858294E+03 -0.10462836387E+04 -0.70576974221E+03  0.13324013584E+04  0.25500000920E-02 0.  1.
       -2    1    3    3    0  502 -0.42716858294E+03  0.10462836387E+04  0.21127053356E+03  0.11497033049E+04  0.25500000920E-02 0. -1.
</event>
<event>
 5   0  0.8407986E-06  0.2488778E+04  0.7818609E-02  0.8406995E-01
       -2   -1    0    0    0  501  0.00000000000E+00  0.00000000000E+00  0.18252365062E+04  0.18252365062E+04  0.25500000920E-02 0. -1.
        2   -1    0    0  501    0  0.00000000000E+00  0.00000000000E+00 -0.84838510347E+03  0.84838510348E+03  0.25500000920E-02 0.  1.
    10030    2    1    2    0    0  0.00000000000E+00  0.00000000000E+00  0.97685140272E+03  0.26736216097E+04  0.24887775812E+04 0.  0.
        5    1    3    3  502    0 -0.44635834136E+03  0.58600738365E+03 -0.58897812361E+03  0.94316368816E+03  0.46999998093E+01 0.  1.
       -5    1    3    3    0  502  0.44635834136E+03 -0.58600738365E+03  0.15658295263E+04  0.17304579215E+04  0.46999998093E+01 0. -1.
</event>
<event>
 5   0  0.3424193E-06  0.2481508E+04  0.7818609E-02  0.8409603E-01
        1   -1    0    0  501    0  0.00000000000E+00  0.00000000000E+00  0.20888798313E+04  0.20888798313E+04  0.50400001928E-02 0.  1.
       -1   -1    0    0    0  501  0.00000000000E+00  0.00000000000E+00 -0.73698391831E+03  0.73698391832E+03  0.50400001928E-02 0. -1.
    10030    2    1    2    0    0  0.00000000000E+00  0.00000000000E+00  0.13518959130E+04  0.28258637496E+04  0.24815082857E+04 0.  0.
        1    1    3    3  502    0  0.20163562488E+03 -0.55470830099E+03  0.19187784531E+04  0.20075031697E+04  0.50400001928E-02 0.  1.
       -1    1    3    3    0  502 -0.20163562488E+03  0.55470830099E+03 -0.56688254011E+03  0.81836057989E+03  0.50400001928E-02 0. -1.
</event>
<event>
 5   0  0.8948286E-06  0.2496052E+04  0.7818609E-02  0.8404393E-01
        2   -1    0    0  501    0  0.00000000000E+00  0.00000000000E+00  0.23505359313E+04  0.23505359313E+04  0.25500000920E-02 0.  1.
       -2   -1    0    0    0  501  0.00000000000E+00  0.00000000000E+00 -0.66264397367E+03  0.66264397367E+03  0.25500000920E-02 0. -1.
    10030    2    1    2    0    0  0.00000000000E+00  0.00000000000E+00  0.16878919576E+04  0.30131799050E+04  0.24960516579E+04 0.  0.
        4    1    3    3  502    0  0.56437574943E+03  0.23470908897E+03  0.21574751910E+04  0.22423891624E+04  0.12699999809E+01 0.  1.
       -4    1    3    3    0  502 -0.56437574943E+03 -0.23470908897E+03 -0.46958323332E+03  0.77079074262E+03  0.12699999809E+01 0. -1.
</event>
<event>
 5   0  0.8354653E-06  0.2497007E+04  0.7818609E-02  0.8404053E-01
        2   -1    0    0  501    0  0.00000000000E+00  0.00000000000E+00  0.14561790084E+04  0.14561790084E+04  0.25500000920E-02 0.  1.
       -2   -1    0    0    0  501  0.00000000000E+00  0.00000000000E+00 -0.10704457286E+04  0.10704457286E+04  0.25500000920E-02 0. -1.
    10030    2    1    2    0    0  0.00000000000E+00  0.00000000000E+00  0.38573327983E+03  0.25266247371E+04  0.24970066878E+04 0.  0.
        3    1    3    3  502    0  0.68528304351E+03 -0.76636758458E+03 -0.52393449505E+03  0.11538801886E+04  0.10100000352E+00 0. -1.
       -3    1    3    3    0  502 -0.68528304351E+03  0.76636758458E+03  0.90966777487E+03  0.13727445484E+04  0.10100000352E+00 0.  1.
</event>
<event>
 5   0  0.8407986E-06  0.2493118E+04  0.7818609E-02  0.8405441E-01
       -2   -1    0    0    0  501  0.00000000000E+00  0.00000000000E+00  0.78008886477E+03  0.78008886477E+03  0.25500000920E-02 0.  1.
        2   -1    0    0  501    0  0.00000000000E+00  0.00000000000E+00 -0.19919647432E+04  0.19919647432E+04  0.25500000920E-02 0. -1.
    10030    2    1    2    0    0  0.00000000000E+00  0.00000000000E+00 -0.12118758784E+04  0.27720536079E+04  0.24931181401E+04 0.  0.
        5    1    3    3  502    0  0.16249782705E+03  0.91720470954E+03 -0.15270015608E+04  0.17886939033E+04  0.46999998093E+01 0. -1.
       -5    1    3    3    0  502 -0.16249782705E+03 -0.91720470954E+03  0.31512568241E+03  0.98335970464E+03  0.46999998093E+01 0.  1.
</event>
<event>
 5   0  0.8354653E-06  0.2491511E+04  0.7818609E-02  0.8406016E-01
        2   -1    0    0  501    0  0.00000000000E+00  0.00000000000E+00  0.81670749066E+03  0.81670749066E+03  0.25500000920E-02 0. -1.
       -2   -1    0    0    0  501  0.00000000000E+00  0.00000000000E+00 -0.19001993696E+04  0.19001993696E+04  0.25500000920E-02 0.  1.
    10030    2    1    2    0    0  0.00000000000E+00  0.00000000000E+00 -0.10834918789E+04  0.27169068602E+04  0.24915112353E+04 0.  0.
        3    1    3    3  502    0 -0.17421411579E+02  0.12273922624E+04 -0.31013617254E+03  0.12660883567E+04  0.10100000352E+00 0.  1.
       -3    1    3    3    0  502  0.17421411579E+02 -0.12273922624E+04 -0.77335570638E+03  0.14508185035E+04  0.10100000352E+00 0. -1.
</event>
<event>
 5   0  0.3484857E-06  0.2498721E+04  0.7818609E-02  0.8403441E-01
        1   -1    0    0  501    0  0.00000000000E+00  0.00000000000E+00  0.15721354898E+04  0.15721354898E+04  0.50400001928E-02 0. -1.
       -1   -1    0    0    0  501  0.00000000000E+00  0.00000000000E+00 -0.99285417009E+03  0.99285417010E+03  0.50400001928E-02 0.  1.
    10030    2    1    2    0    0  0.00000000000E+00  0.00000000000E+00  0.57928131973E+03  0.25649896599E+04  0.24987206943E+04 0.  0.
        3    1    3    3  502    0 -0.93514658223E+03 -0.45541241635E+03  0.10000954026E+04  0.14429450522E+04  0.10100000352E+00 0.  1.
       -3    1    3    3    0  502  0.93514658223E+03  0.45541241635E+03 -0.42081408284E+03  0.11220446077E+04  0.10100000352E+00 0. -1.
</event>
<event>
 5   0  0.3484857E-06  0.2559367E+04  0.7818609E-02  0.8382136E-01
        1   -1    0    0  501    0  0.00000000000E+00  0.00000000000E+00  0.13124967916E+04  0.13124967916E+04  0.50400001928E-02 0. -1.
       -1   -1    0    0    0  501  0.00000000000E+00  0.00000000000E+00 -0.12476902939E+04  0.12476902940E+04  0.50400001928E-02 0.  1.
    10030    2    1    2    0    0  0.00000000000E+00  0.00000000000E+00  0.64806497653E+02  0.25601870856E+04  0.25593667246E+04 0.  0.
        3    1    3    3  502    0  0.77123619666E+03 -0.34219322525E+03  0.99483846479E+03  0.13044558466E+04  0.10100000352E+00 0. -1.
       -3    1    3    3    0  502 -0.77123619666E+03  0.34219322525E+03 -0.93003196714E+03  0.12557312390E+04  0.10100000352E+00 0.  1.
</event>
<event>
 5   0  0.8948286E-06  0.2510494E+04  0.7818609E-02  0.8399256E-01
       -2   -1    0    0    0  501  0.00000000000E+00  0.00000000000E+00  0.79299400646E+03  0.79299400647E+03  0.25500000920E-02 0.  1.
        2   -1    0    0  501    0  0.00000000000E+00  0.00000000000E+00 -0.19869571640E+04  0.19869571640E+04  0.25500000920E-02 0. -1.
    10030    2    1    2    0    0  0.00000000000E+00  0.00000000000E+00 -0.11939631575E+04  0.27799511705E+04  0.25104940726E+04 0.  0.
        4    1    3    3  502    0  0.93608579488E+02  0.85131437036E+01  0.78909084293E+03  0.79467037888E+03  0.12699999809E+01 0.  1.
       -4    1    3    3    0  502 -0.93608579488E+02 -0.85131437036E+01 -0.19830540005E+04  0.19852807916E+04  0.12699999809E+01 0. -1.
</event>
<event>
 5   0  0.3642184E-06  0.2505613E+04  0.7818609E-02  0.8400988E-01
       -1   -1    0    0    0  501  0.00000000000E+00  0.00000000000E+00  0.17150424986E+04  0.17150424986E+04  0.50400001928E-02 0.  1.
        1   -1    0    0  501    0  0.00000000000E+00  0.00000000000E+00 -0.91515197967E+03  0.91515197968E+03  0.50400001928E-02 0. -1.
    10030    2    1    2    0    0  0.00000000000E+00  0.00000000000E+00  0.79989051895E+03  0.26301944783E+04  0.25056133284E+04 0.  0.
        5    1    3    3  502    0 -0.62506181848E+02  0.61268054469E+03  0.15451603539E+04  0.16633782137E+04  0.46999998093E+01 0.  1.
       -5    1    3    3    0  502  0.62506181848E+02 -0.61268054469E+03 -0.74526983494E+03  0.96681626459E+03  0.46999998093E+01 0. -1.
</event>
<event>
 5   0  0.3484857E-06  0.2501832E+04  0.7818609E-02  0.8402333E-01
        1   -1    0    0  501    0  0.00000000000E+00  0.00000000000E+00  0.15265971774E+04  0.15265971774E+04  0.50400001928E-02 0. -1.
       -1   -1    0    0    0  501  0.00000000000E+00  0.00000000000E+00 -0.10250187779E+04  0.10250187780E+04  0.50400001928E-02 0.  1.
    10030    2    1    2    0    0  0.00000000000E+00  0.00000000000E+00  0.50157839941E+03  0.25516159553E+04  0.25018319473E+04 0.  0.
        3    1    3    3  502    0  0.63555218554E+02  0.11314802322E+04 -0.28937611045E+03  0.11696261476E+04  0.10100000352E+00 0.  1.
       -3    1    3    3    0  502 -0.63555218554E+02 -0.11314802322E+04  0.79095450986E+03  0.13819898077E+04  0.10100000352E+00 0. -1.
</event>
<event>
 5   0  0.2901250E-06  0.2502737E+04  0.7818609E-02  0.8402011E-01
       -3   -1    0    0    0  501  0.00000000000E+00  0.00000000000E+00  0.71361329804E+03  0.71361330519E+03  0.10100000352E+00 0.  1.
        3   -1    0    0  501    0  0.00000000000E+00  0.00000000000E+00 -0.21943580885E+04  0.21943580908E+04  0.10100000352E+00 0. -1.
    10030    2    1    2    0    0  0.00000000000E+00  0.00000000000E+00 -0.14807447904E+04  0.29079713960E+04  0.25027370029E+04 0.  0.
        1    1    3    3  502    0  0.85540780334E+03  0.42022496650E+03  0.20186350277E+03  0.97419731382E+03  0.50400001928E-02 0.  1.
       -1    1    3    3    0  502 -0.85540780334E+03 -0.42022496650E+03 -0.16826082932E+04  0.19337740822E+04  0.50400001928E-02 0. -1.
</event>
<event>
 5   0  0.3484857E-06  0.2559289E+04  0.7818609E-02  0.8382163E-01
        1   -1    0    0  501    0  0.00000000000E+00  0.00000000000E+00  0.60239164511E+03  0.60239164513E+03  0.50400001928E-02 0. -1.
       -1   -1    0    0    0  501  0.00000000000E+00  0.00000000000E+00 -0.27183144331E+04  0.27183144331E+04  0.50400001928E-02 0.  1.
    10030    2    1    2    0    0  0.00000000000E+00  0.00000000000E+00 -0.21159227879E+04  0.33207060782E+04  0.25592888882E+04 0.  0.
        3    1    3    3  502    0 -0.89908969174E+03  0.44413535576E+03 -0.20893574754E+04  0.23175489549E+04  0.10100000352E+00 0.  1.
       -3    1    3    3    0  502  0.89908969174E+03 -0.44413535576E+03 -0.26565312556E+02  0.10031571233E+04  0.10100000352E+00 0. -1.
</event>
<event>
 5   0  0.8579923E-06  0.2501622E+04  0.7818609E-02  0.8402408E-01
        2   -1    0    0  501    0  0.00000000000E+00  0.00000000000E+00  0.17160530454E+04  0.17160530454E+04  0.25500000920E-02 0. -1.
       -2   -1    0    0    0  501  0.00000000000E+00  0.00000000000E+00 -0.91170150025E+03  0.91170150026E+03  0.25500000920E-02 0.  1.
    10030    2    1    2    0    0  0.00000000000E+00  0.00000000000E+00  0.80435154513E+03  0.26277545456E+04  0.25016219826E+04 0.  0.
        1    1    3    3  502    0 -0.74014419216E+02 -0.84161745071E+03 -0.56667971383E+03  0.10173121280E+04  0.50400001928E-02 0.  1.
       -1    1    3    3    0  502  0.74014419216E+02  0.84161745071E+03  0.13710312590E+04  0.16104424177E+04  0.50400001928E-02 0. -1.
</event>
<event>
 5   0  0.3522870E-06  0.2504014E+04  0.7818609E-02  0.8401557E-01
       -1   -1    0    0    0  501  0.00000000000E+00  0.00000000000E+00  0.16631259784E+04  0.16631259784E+04  0.50400001928E-02 0.  1.
        1   -1    0    0  501    0  0.00000000000E+00  0.00000000000E+00 -0.94251544371E+03  0.94251544372E+03  0.50400001928E-02 0. -1.
    10030    2    1    2    0    0  0.00000000000E+00  0.00000000000E+00  0.72061053466E+03  0.26056414221E+04  0.25040143126E+04 0.  0.
        2    1    3    3  502    0  0.11415528707E+04 -0.51238330453E+03  0.31564107800E+03  0.12904684798E+04  0.25500000920E-02 0.  1.
       -2    1    3    3    0  502 -0.11415528707E+04  0.51238330453E+03  0.40496945667E+03  0.13151729423E+04  0.25500000920E-02 0. -1.
</event>
<event>
 5   0  0.3484857E-06  0.2496968E+04  0.7818609E-02  0.8404066E-01
        1   -1    0    0  501    0  0.00000000000E+00  0.00000000000E+00  0.13183107674E+04  0.13183107674E+04  0.50400001928E-02 0.  1.
       -1   -1    0    0    0  501  0.00000000000E+00  0.00000000000E+00 -0.11823560606E+04  0.11823560606E+04  0.50400001928E-02 0. -1.
    10030    2    1    2    0    0  0.00000000000E+00  0.00000000000E+00  0.13595470673E+03  0.25006668280E+04  0.24969683423E+04 0.  0.
        3    1    3    3  502    0 -0.80050290827E+03 -0.14991642073E+03  0.10156521150E+04  0.13018560090E+04  0.10100000352E+00 0.  1.
       -3    1    3    3    0  502  0.80050290827E+03  0.14991642073E+03 -0.87969740828E+03  0.11988108190E+04  0.10100000352E+00 0. -1.
</event>
<event>
 5   0  0.3522870E-06  0.2480625E+04  0.7818609E-02  0.8409921E-01
        1   -1    0    0  501    0  0.00000000000E+00  0.00000000000E+00  0.14817110608E+04  0.14817110608E+04  0.50400001928E-02 0. -1.
       -1   -1    0    0    0  501  0.00000000000E+00  0.00000000000E+00 -0.10382421885E+04  0.10382421885E+04  0.50400001928E-02 0.  1.
    10030    2    1    2    0    0  0.00000000000E+00  0.00000000000E+00  0.44346887231E+03  0.25199532493E+04  0.24806248685E+04 0.  0.
        2    1    3    3  502    0 -0.94071355936E+03  0.61131604880E+03  0.75901052723E+03  0.13545280701E+04  0.25500000920E-02 0. -1.
       -2    1    3    3    0  502  0.94071355936E+03 -0.61131604880E+03 -0.31554165493E+03  0.11654251792E+04  0.25500000920E-02 0.  1.
</event>
<event>
 5   0  0.3484857E-06  0.2517302E+04  0.7818609E-02  0.8396848E-01
        1   -1    0    0  501    0  0.00000000000E+00  0.00000000000E+00  0.16559722805E+04  0.16559722806E+04  0.50400001928E-02 0. -1.
       -1   -1    0    0    0  501  0.00000000000E+00  0.00000000000E+00 -0.95665960525E+03  0.95665960526E+03  0.50400001928E-02 0.  1.
    10030    2    1    2    0    0  0.00000000000E+00  0.00000000000E+00  0.69931267530E+03  0.26126318858E+04  0.25173015618E+04 0.  0.
        3    1    3    3  502    0  0.73268727709E+03 -0.75180952958E+03  0.10703250505E+04  0.14992144405E+04  0.10100000352E+00 0. -1.
       -3    1    3    3    0  502 -0.73268727709E+03  0.75180952958E+03 -0.37101237517E+03  0.11134174453E+04  0.10100000352E+00 0.  1.
</event>
<event>
 5   0  0.8407986E-06  0.2499270E+04  0.7818609E-02  0.8403246E-01
       -2   -1    0    0    0  501  0.00000000000E+00  0.00000000000E+00  0.10203816897E+04  0.10203816897E+04  0.25500000920E-02 0.  1.
        2   -1    0    0  501    0  0.00000000000E+00  0.00000000000E+00 -0.15303959976E+04  0.15303959976E+04  0.25500000920E-02 0. -1.
    10030    2    1    2    0    0  0.00000000000E+00  0.00000000000E+00 -0.51001430790E+03  0.25507776872E+04  0.24992703366E+04 0.  0.
        5    1    3    3  502    0  0.37049835298E+03 -0.11213107894E+04  0.16202001950E+03  0.11920064986E+04  0.46999998093E+01 0. -1.
       -5    1    3    3    0  502 -0.37049835298E+03  0.11213107894E+04 -0.67203432740E+03  0.13587711887E+04  0.46999998093E+01 0.  1.
</event>
<event>
 5   0  0.8579923E-06  0.2518941E+04  0.7818609E-02  0.8396269E-01
        2   -1    0    0  501    0  0.00000000000E+00  0.00000000000E+00  0.14822935636E+04  0.14822935636E+04  0.25500000920E-02 0.  1.
       -2   -1    0    0    0  501  0.00000000000E+00  0.00000000000E+00 -0.10701425075E+04  0.10701425075E+04  0.25500000920E-02 0. -1.
    10030    2    1    2    0    0  0.00000000000E+00  0.00000000000E+00  0.41215105610E+03  0.25524360711E+04  0.25189405321E+04 0.  0.
        1    1    3    3  502    0 -0.99658710324E+03  0.67013084134E+03  0.59060042641E+03  0.13383086574E+04  0.50400001928E-02 0.  1.
       -1    1    3    3    0  502  0.99658710324E+03 -0.67013084134E+03 -0.17844937031E+03  0.12141274137E+04  0.50400001928E-02 0. -1.
</event>
<event>
 5   0  0.3424193E-06  0.2494575E+04  0.7818609E-02  0.8404921E-01
       -1   -1    0    0    0  501  0.00000000000E+00  0.00000000000E+00  0.80413754680E+03  0.80413754682E+03  0.50400001928E-02 0.  1.
        1   -1    0    0  501    0  0.00000000000E+00  0.00000000000E+00 -0.19346523030E+04  0.19346523030E+04  0.50400001928E-02 0. -1.
    10030    2    1    2    0    0  0.00000000000E+00  0.00000000000E+00 -0.11305147562E+04  0.27387898498E+04  0.24945753601E+04 0.  0.
        1    1    3    3  502    0 -0.93614444027E+03 -0.34056415188E+03 -0.13893221148E+04  0.17095514889E+04  0.50400001928E-02 0. -1.
       -1    1    3    3    0  502  0.93614444027E+03  0.34056415188E+03  0.25880735862E+03  0.10292383609E+04  0.50400001928E-02 0.  1.
</event>
<event>
 5   0  0.8056723E-06  0.2506263E+04  0.7818609E-02  0.8400758E-01
        2   -1    0    0  501    0  0.00000000000E+00  0.00000000000E+00  0.12104782274E+04  0.12104782274E+04  0.25500000920E-02 0. -1.
       -2   -1    0    0    0  501  0.00000000000E+00  0.00000000000E+00 -0.12972877960E+04  0.12972877960E+04  0.25500000920E-02 0.  1.
    10030    2    1    2    0    0  0.00000000000E+00  0.00000000000E+00 -0.86809568640E+02  0.25077660234E+04  0.25062630602E+04 0.  0.
        2    1    3    3  502    0  0.23300793805E+03  0.12309672941E+04 -0.15721366429E+02  0.12529247143E+04  0.25500000920E-02 0.  1.
       -2    1    3    3    0  502 -0.23300793805E+03 -0.12309672941E+04 -0.71088202212E+02  0.12548413091E+04  0.25500000920E-02 0. -1.
</event>
<event>
 5   0  0.8407986E-06  0.2497964E+04  0.7818609E-02  0.8403711E-01
       -2   -1    0    0    0  501  0.00000000000E+00  0.00000000000E+00  0.50283874876E+03  0.50283874877E+03  0.25500000920E-02 0.  1.
        2   -1    0    0  501    0  0.00000000000E+00  0.00000000000E+00 -0.31022979609E+04  0.31022979609E+04  0.25500000920E-02 0. -1.
    10030    2    1    2    0    0  0.00000000000E+00  0.00000000000E+00 -0.25994592122E+04  0.36051367097E+04  0.24979636706E+04 0.  0.
        5    1    3    3  502    0 -0.56399388626E+03 -0.70551394815E+03 -0.54786032916E+02  0.90491029068E+03  0.46999998093E+01 0.  1.
       -5    1    3    3    0  502  0.56399388626E+03  0.70551394815E+03 -0.25446731792E+04  0.27002264190E+04  0.46999998093E+01 0. -1.
</event>
<event>
 5   0  0.3522870E-06  0.2480367E+04  0.7818609E-02  0.8410014E-01
        1   -1    0    0  501    0  0.00000000000E+00  0.00000000000E+00  0.15966413998E+04  0.15966413998E+04  0.50400001928E-02 0.  1.
       -1   -1    0    0    0  501  0.00000000000E+00  0.00000000000E+00 -0.96330636057E+03  0.96330636058E+03  0.50400001928E-02 0. -1.
    10030    2    1    2    0    0  0.00000000000E+00  0.00000000000E+00  0.63333503924E+03  0.25599477604E+04  0.24803667600E+04 0.  0.
        2    1    3    3  502    0  0.45185537261E+03  0.35596270013E+03  0.14506328953E+04  0.15605186698E+04  0.25500000920E-02 0.  1.
       -2    1    3    3    0  502 -0.45185537261E+03 -0.35596270013E+03 -0.81729785609E+03  0.99942909064E+03  0.25500000920E-02 0. -1.
</event>
<event>
 5   0  0.8056723E-06  0.2516788E+04  0.7818609E-02  0.8397029E-01
        2   -1    0    0  501    0  0.00000000000E+00  0.00000000000E+00  0.22966243716E+04  0.22966243716E+04  0.25500000920E-02 0. -1.
       -2   -1    0    0    0  501  0.00000000000E+00  0.00000000000E+00 -0.68951448671E+03  0.68951448672E+03  0.25500000920E-02 0.  1.
    10030    2    1    2    0    0  0.00000000000E+00  0.00000000000E+00  0.16071098849E+04  0.29861388583E+04  0.25167882507E+04 0.  0.
        2    1    3    3  502    0 -0.55318634078E+03 -0.11283943334E+04  0.88105790518E+03  0.15347807438E+04  0.25500000920E-02 0. -1.
       -2    1    3    3    0  502  0.55318634078E+03  0.11283943334E+04  0.72605197968E+03  0.14513581145E+04  0.25500000920E-02 0.  1.
</event>
<event>
 5   0  0.8354653E-06  0.2494508E+04  0.7818609E-02  0.8404945E-01
       -2   -1    0    0    0  501  0.00000000000E+00  0.00000000000E+00  0.88931697078E+03  0.88931697079E+03  0.25500000920E-02 0.  1.
        2   -1    0    0  501    0  0.00000000000E+00  0.00000000000E+00 -0.17492559203E+04  0.17492559203E+04  0.25500000920E-02 0. -1.
    10030    2    1    2    0    0  0.00000000000E+00  0.00000000000E+00 -0.85993894954E+03  0.26385728911E+04  0.24945083493E+04 0.  0.
        3    1    3    3  502    0  0.31696272107E+02  0.11777589392E+04 -0.86290209472E+03  0.14603837879E+04  0.10100000352E+00 0.  1.
       -3    1    3    3    0  502 -0.31696272107E+02 -0.11777589392E+04  0.29631451809E+01  0.11781891032E+04  0.10100000352E+00 0. -1.
</event>
<event>
 5   0  0.2901250E-06  0.2509160E+04  0.7818609E-02  0.8399729E-01
        3   -1    0    0  501    0  0.00000000000E+00  0.00000000000E+00  0.16592415430E+04  0.16592415461E+04  0.10100000352E+00 0.  1.
       -3   -1    0    0    0  501  0.00000000000E+00  0.00000000000E+00 -0.94860890213E+03  0.94860890751E+03  0.10100000352E+00 0. -1.
    10030    2    1    2    0    0  0.00000000000E+00  0.00000000000E+00  0.71063264088E+03  0.26078504536E+04  0.25091602655E+04 0.  0.
        2    1    3    3  502    0  0.63243314102E+02  0.50208437046E+03  0.15484598476E+04  0.16290538148E+04  0.25500000920E-02 0.  1.
       -2    1    3    3    0  502 -0.63243314102E+02 -0.50208437046E+03 -0.83782720671E+03  0.97879663881E+03  0.25500000920E-02 0. -1.
</event>
<event>
 5   0  0.3642184E-06  0.2545070E+04  0.7818609E-02  0.8387103E-01
       -1   -1    0    0    0  501  0.00000000000E+00  0.00000000000E+00  0.15304234201E+04  0.15304234201E+04  0.50400001928E-02 0. -1.
        1   -1    0    0  501    0  0.00000000000E+00  0.00000000000E+00 -0.10581025354E+04  0.10581025354E+04  0.50400001928E-02 0.  1.
    10030    2    1    2    0    0  0.00000000000E+00  0.00000000000E+00  0.47232088468E+03  0.25885259555E+04  0.25450696659E+04 0.  0.
        5    1    3    3  502    0 -0.52480938930E+03 -0.25927999412E+03 -0.91303126173E+03  0.10845732734E+04  0.46999998093E+01 0.  1.
       -5    1    3    3    0  502  0.52480938930E+03  0.25927999412E+03  0.13853521464E+04  0.15039526821E+04  0.46999998093E+01 0. -1.
</event>
<event>
 5   0  0.8579923E-06  0.2505423E+04  0.7818609E-02  0.8401056E-01
       -2   -1    0    0    0  501  0.00000000000E+00  0.00000000000E+00  0.13978357116E+04  0.13978357116E+04  0.25500000920E-02 0. -1.
        2   -1    0    0  501    0  0.00000000000E+00  0.00000000000E+00 -0.11226545067E+04  0.11226545067E+04  0.25500000920E-02 0.  1.
    10030    2    1    2    0    0  0.00000000000E+00  0.00000000000E+00  0.27518120487E+03  0.25204902183E+04  0.25054233664E+04 0.  0.
        1    1    3    3  502    0  0.28066702166E+03  0.28276200451E+03 -0.10572209221E+04  0.11297983919E+04  0.50400001928E-02 0.  1.
       -1    1    3    3    0  502 -0.28066702166E+03 -0.28276200451E+03  0.13324021269E+04  0.13906918264E+04  0.50400001928E-02 0. -1.
</event>
<event>
 5   0  0.3481387E-06  0.2481132E+04  0.7818609E-02  0.8409738E-01
        1   -1    0    0  501    0  0.00000000000E+00  0.00000000000E+00  0.12663570235E+04  0.12663570236E+04  0.50400001928E-02 0. -1.
       -1   -1    0    0    0  501  0.00000000000E+00  0.00000000000E+00 -0.12153005088E+04  0.12153005088E+04  0.50400001928E-02 0.  1.
    10030    2    1    2    0    0  0.00000000000E+00  0.00000000000E+00  0.51056514782E+02  0.24816575323E+04  0.24811322698E+04 0.  0.
        4    1    3    3  502    0 -0.86083754788E+03  0.83378797155E+03  0.34615665620E+03  0.12474252318E+04  0.12699999809E+01 0.  1.
       -4    1    3    3    0  502  0.86083754788E+03 -0.83378797155E+03 -0.29510014142E+03  0.12342323005E+04  0.12699999809E+01 0. -1.
</event>
<event>
 5   0  0.3522870E-06  0.2471143E+04  0.7818609E-02  0.8413339E-01
        1   -1    0    0  501    0  0.00000000000E+00  0.00000000000E+00  0.14169803080E+04  0.14169803080E+04  0.50400001928E-02 0. -1.
       -1   -1    0    0    0  501  0.00000000000E+00  0.00000000000E+00 -0.10773876689E+04  0.10773876689E+04  0.50400001928E-02 0.  1.
    10030    2    1    2    0    0  0.00000000000E+00  0.00000000000E+00  0.33959263912E+03  0.24943679769E+04  0.24711431451E+04 0.  0.
        2    1    3    3  502    0  0.42375533020E+03 -0.79360554909E+03 -0.68507461331E+03  0.11307986440E+04  0.25500000920E-02 0.  1.
       -2    1    3    3    0  502 -0.42375533020E+03  0.79360554909E+03  0.10246672524E+04  0.13635693329E+04  0.25500000920E-02 0. -1.
</event>
<event>
 5   0  0.8948286E-06  0.2496088E+04  0.7818609E-02  0.8404380E-01
        2   -1    0    0  501    0  0.00000000000E+00  0.00000000000E+00  0.21865103009E+04  0.21865103009E+04  0.25500000920E-02 0. -1.
       -2   -1    0    0    0  501  0.00000000000E+00  0.00000000000E+00 -0.71237452155E+03  0.71237452156E+03  0.25500000920E-02 0.  1.
    10030    2    1    2    0    0  0.00000000000E+00  0.00000000000E+00  0.14741357794E+04  0.28988848225E+04  0.24960883234E+04 0.  0.
        4    1    3    3  502    0  0.53659834118E+03  0.66679086689E+03 -0.31784120174E+03  0.91300190709E+03  0.12699999809E+01 0.  1.
       -4    1    3    3    0  502 -0.53659834118E+03 -0.66679086689E+03  0.17919769811E+04  0.19858829154E+04  0.12699999809E+01 0. -1.
</event>
<event>
 5   0  0.8056723E-06  0.2502756E+04  0.7818609E-02  0.8402004E-01
       -2   -1    0    0    0  501  0.00000000000E+00  0.00000000000E+00  0.80179796115E+03  0.80179796116E+03  0.25500000920E-02 0. -1.
        2   -1    0    0  501    0  0.00000000000E+00  0.00000000000E+00 -0.19530443153E+04  0.19530443153E+04  0.25500000920E-02 0.  1.
    10030    2    1    2    0    0  0.00000000000E+00  0.00000000000E+00 -0.11512463541E+04  0.27548422765E+04  0.25027560409E+04 0.  0.
        2    1    3    3  502    0  0.78038311051E+02  0.12369494308E+04 -0.38556715845E+03  0.12979968821E+04  0.25500000920E-02 0.  1.
       -2    1    3    3    0  502 -0.78038311051E+02 -0.12369494308E+04 -0.76567919570E+03  0.14568453943E+04  0.25500000920E-02 0. -1.
</event>
<event>
 5   0  0.8354653E-06  0.2495639E+04  0.7818609E-02  0.8404541E-01
       -2   -1    0    0    0  501  0.00000000000E+00  0.00000000000E+00  0.14291944832E+04  0.14291944832E+04  0.25500000920E-02 0. -1.
        2   -1    0    0  501    0  0.00000000000E+00  0.00000000000E+00 -0.10894620011E+04  0.10894620011E+04  0.25500000920E-02 0.  1.
    10030    2    1    2    0    0  0.00000000000E+00  0.00000000000E+00  0.33973248205E+03  0.25186564843E+04  0.24956386611E+04 0.  0.
        3    1    3    3  502    0  0.87949761567E+03  0.88292598590E+03  0.10620737999E+03  0.12507415282E+04  0.10100000352E+00 0. -1.
       -3    1    3    3    0  502 -0.87949761567E+03 -0.88292598590E+03  0.23352510206E+03  0.12679149562E+04  0.10100000352E+00 0.  1.
</event>
<event>
 5   0  0.2901250E-06  0.2497082E+04  0.7818609E-02  0.8404026E-01
       -4   -1    0    0    0  501  0.00000000000E+00  0.00000000000E+00  0.14856459064E+04  0.14856464492E+04  0.12699999809E+01 0. -1.
        4   -1    0    0  501    0  0.00000000000E+00  0.00000000000E+00 -0.10492765906E+04  0.10492773592E+04  0.12699999809E+01 0.  1.
    10030    2    1    2    0    0  0.00000000000E+00  0.00000000000E+00  0.43636931580E+03  0.25349238084E+04  0.24970824044E+04 0.  0.
        5    1    3    3  502    0  0.37976218611E+03 -0.80205052777E+03 -0.67337780426E+03  0.11139856931E+04  0.46999998093E+01 0.  1.
       -5    1    3    3    0  502 -0.37976218611E+03  0.80205052777E+03  0.11097471201E+04  0.14209381153E+04  0.46999998093E+01 0. -1.
</event>
<event>
 5   0  0.8948286E-06  0.2511487E+04  0.7818609E-02  0.8398905E-01
       -2   -1    0    0    0  501  0.00000000000E+00  0.00000000000E+00  0.96869263038E+03  0.96869263038E+03  0.25500000920E-02 0. -1.
        2   -1    0    0  501    0  0.00000000000E+00  0.00000000000E+00 -0.16278552581E+04  0.16278552581E+04  0.25500000920E-02 0.  1.
    10030    2    1    2    0    0  0.00000000000E+00  0.00000000000E+00 -0.65916262768E+03  0.25965478884E+04  0.25114867245E+04 0.  0.
        4    1    3    3  502    0  0.11809651664E+04 -0.38943030015E+03 -0.51030175432E+03  0.13441518427E+04  0.12699999809E+01 0.  1.
       -4    1    3    3    0  502 -0.11809651664E+04  0.38943030015E+03 -0.14886087336E+03  0.12523960457E+04  0.12699999809E+01 0. -1.
</event>
<event>
 5   0  0.8354653E-06  0.2511039E+04  0.7818609E-02  0.8399063E-01
        2   -1    0    0  501    0  0.00000000000E+00  0.00000000000E+00  0.12279994250E+04  0.12279994250E+04  0.25500000920E-02 0. -1.
       -2   -1    0    0    0  501  0.00000000000E+00  0.00000000000E+00 -0.12836560055E+04  0.12836560055E+04  0.25500000920E-02 0.  1.
    10030    2    1    2    0    0  0.00000000000E+00  0.00000000000E+00 -0.55656580515E+02  0.25116554305E+04  0.25110386988E+04 0.  0.
        3    1    3    3  502    0  0.83792479157E+03 -0.28106386842E+03  0.86413843679E+03  0.12360623377E+04  0.10100000352E+00 0. -1.
       -3    1    3    3    0  502 -0.83792479157E+03  0.28106386842E+03 -0.91979501730E+03  0.12755930928E+04  0.10100000352E+00 0.  1.
</event>
<event>
 5   0  0.3484857E-06  0.2498585E+04  0.7818609E-02  0.8403490E-01
        1   -1    0    0  501    0  0.00000000000E+00  0.00000000000E+00  0.33937565340E+04  0.33937565340E+04  0.50400001928E-02 0.  1.
       -1   -1    0    0    0  501  0.00000000000E+00  0.00000000000E+00 -0.45988335225E+03  0.45988335228E+03  0.50400001928E-02 0. -1.
    10030    2    1    2    0    0  0.00000000000E+00  0.00000000000E+00  0.29338731817E+04  0.38536398862E+04  0.24985853050E+04 0.  0.
        3    1    3    3  502    0  0.74451857782E+03 -0.99508072416E+03  0.16634764856E+04  0.20764507190E+04  0.10100000352E+00 0.  1.
       -3    1    3    3    0  502 -0.74451857782E+03  0.99508072416E+03  0.12703966961E+04  0.17771891672E+04  0.10100000352E+00 0. -1.
</event>
<event>
 5   0  0.8354653E-06  0.2495562E+04  0.7818609E-02  0.8404568E-01
        2   -1    0    0  501    0  0.00000000000E+00  0.00000000000E+00  0.19430879963E+04  0.19430879963E+04  0.25500000920E-02 0.  1.
       -2   -1    0    0    0  501  0.00000000000E+00  0.00000000000E+00 -0.80128013552E+03  0.80128013553E+03  0.25500000920E-02 0. -1.
    10030    2    1    2    0    0  0.00000000000E+00  0.00000000000E+00  0.11418078608E+04  0.27443681318E+04  0.24955623118E+04 0.  0.
        3    1    3    3  502    0 -0.10426419547E+04 -0.60058924227E+03  0.93421788355E+03  0.15233426233E+04  0.10100000352E+00 0.  1.
       -3    1    3    3    0  502  0.10426419547E+04  0.60058924227E+03  0.20758997721E+03  0.12210255086E+04  0.10100000352E+00 0. -1.
</event>
<event>
 5   0  0.3522870E-06  0.2495570E+04  0.7818609E-02  0.8404565E-01
        1   -1    0    0  501    0  0.00000000000E+00  0.00000000000E+00  0.13981906377E+04  0.13981906378E+04  0.50400001928E-02 0.  1.
       -1   -1    0    0    0  501  0.00000000000E+00  0.00000000000E+00 -0.11135586038E+04  0.11135586038E+04  0.50400001928E-02 0. -1.
    10030    2    1    2    0    0  0.00000000000E+00  0.00000000000E+00  0.28463203398E+03  0.25117492415E+04  0.24955698463E+04 0.  0.
        2    1    3    3  502    0  0.16598612343E+03  0.12315969042E+04  0.25522570486E+03  0.12686695740E+04  0.25500000920E-02 0. -1.
       -2    1    3    3    0  502 -0.16598612343E+03 -0.12315969042E+04  0.29406329116E+02  0.12430796675E+04  0.25500000920E-02 0.  1.
</event>
<event>
 5   0  0.3424193E-06  0.2462535E+04  0.7818609E-02  0.8416456E-01
       -1   -1    0    0    0  501  0.00000000000E+00  0.00000000000E+00  0.54100950054E+03  0.54100950057E+03  0.50400001928E-02 0.  1.
        1   -1    0    0  501    0  0.00000000000E+00  0.00000000000E+00 -0.28022050467E+04  0.28022050467E+04  0.50400001928E-02 0. -1.
    10030    2    1    2    0    0  0.00000000000E+00  0.00000000000E+00 -0.22611955461E+04  0.33432145473E+04  0.24625349157E+04 0.  0.
        1    1    3    3  502    0  0.11513187006E+04  0.27913072298E+03 -0.15861045135E+04  0.19796909452E+04  0.50400001928E-02 0. -1.
       -1    1    3    3    0  502 -0.11513187006E+04 -0.27913072298E+03 -0.67509103266E+03  0.13635236020E+04  0.50400001928E-02 0.  1.
</event>
<event>
 5   0  0.8948286E-06  0.2497008E+04  0.7818609E-02  0.8404052E-01
        2   -1    0    0  501    0  0.00000000000E+00  0.00000000000E+00  0.21113419409E+04  0.21113419409E+04  0.25500000920E-02 0. -1.
       -2   -1    0    0    0  501  0.00000000000E+00  0.00000000000E+00 -0.73828005196E+03  0.73828005196E+03  0.25500000920E-02 0.  1.
    10030    2    1    2    0    0  0.00000000000E+00  0.00000000000E+00  0.13730618889E+04  0.28496219928E+04  0.24970075193E+04 0.  0.
        4    1    3    3  502    0 -0.10547212937E+04  0.66780953272E+03  0.66507593910E+03  0.14144731164E+04  0.12699999809E+01 0. -1.
       -4    1    3    3    0  502  0.10547212937E+04 -0.66780953272E+03  0.70798594981E+03  0.14351488764E+04  0.12699999809E+01 0.  1.
</event>
<event>
 5   0  0.8948286E-06  0.2495011E+04  0.7818609E-02  0.8404765E-01
       -2   -1    0    0    0  501  0.00000000000E+00  0.00000000000E+00  0.13910615284E+04  0.13910615284E+04  0.25500000920E-02 0. -1.
        2   -1    0    0  501    0  0.00000000000E+00  0.00000000000E+00 -0.11187643387E+04  0.11187643387E+04  0.25500000920E-02 0.  1.
    10030    2    1    2    0    0  0.00000000000E+00  0.00000000000E+00  0.27229718965E+03  0.25098258671E+04  0.24950110468E+04 0.  0.
        4    1    3    3  502    0  0.73947372981E+03 -0.80072742654E+02 -0.87131472593E+03  0.11456107566E+04  0.12699999809E+01 0.  1.
       -4    1    3    3    0  502 -0.73947372981E+03  0.80072742654E+02  0.11436119156E+04  0.13642151104E+04  0.12699999809E+01 0. -1.
</event>
<event>
 5   0  0.8948286E-06  0.2490609E+04  0.7818609E-02  0.8406339E-01
        2   -1    0    0  501    0  0.00000000000E+00  0.00000000000E+00  0.83256901149E+03  0.83256901150E+03  0.25500000920E-02 0. -1.
       -2   -1    0    0    0  501  0.00000000000E+00  0.00000000000E+00 -0.18626478864E+04  0.18626478864E+04  0.25500000920E-02 0.  1.
    10030    2    1    2    0    0  0.00000000000E+00  0.00000000000E+00 -0.10300788749E+04  0.26952168979E+04  0.24906086883E+04 0.  0.
        4    1    3    3  502    0 -0.10250074164E+04 -0.54510007740E+03 -0.27461857627E+02  0.11612622720E+04  0.12699999809E+01 0. -1.
       -4    1    3    3    0  502  0.10250074164E+04  0.54510007740E+03 -0.10026170173E+04  0.15339546259E+04  0.12699999809E+01 0.  1.
</event>
<event>
 5   0  0.3424193E-06  0.2444358E+04  0.7818609E-02  0.8423081E-01
        1   -1    0    0  501    0  0.00000000000E+00  0.00000000000E+00  0.96804586476E+03  0.96804586477E+03  0.50400001928E-02 0. -1.
       -1   -1    0    0    0  501  0.00000000000E+00  0.00000000000E+00 -0.15430275263E+04  0.15430275263E+04  0.50400001928E-02 0.  1.
    10030    2    1    2    0    0  0.00000000000E+00  0.00000000000E+00 -0.57498166150E+03  0.25110733910E+04  0.24443579247E+04 0.  0.
        1    1    3    3  502    0  0.62667488459E+02  0.61733690275E+03  0.79419102397E+03  0.10078548746E+04  0.50400001928E-02 0. -1.
       -1    1    3    3    0  502 -0.62667488459E+02 -0.61733690275E+03 -0.13691726855E+04  0.15032185165E+04  0.50400001928E-02 0.  1.
</event>
<event>
 5   0  0.8354653E-06  0.2509687E+04  0.7818609E-02  0.8399542E-01
       -2   -1    0    0    0  501  0.00000000000E+00  0.00000000000E+00  0.86637644093E+03  0.86637644094E+03  0.25500000920E-02 0.  1.
        2   -1    0    0  501    0  0.00000000000E+00  0.00000000000E+00 -0.18174924494E+04  0.18174924494E+04  0.25500000920E-02 0. -1.
    10030    2    1    2    0    0  0.00000000000E+00  0.00000000000E+00 -0.95111600845E+03  0.26838688903E+04  0.25096873429E+04 0.  0.
        3    1    3    3  502    0  0.37293534025E+03  0.45111834673E+03 -0.16625691649E+04  0.17625903577E+04  0.10100000352E+00 0. -1.
       -3    1    3    3    0  502 -0.37293534025E+03 -0.45111834673E+03  0.71145315642E+03  0.92127853266E+03  0.10100000352E+00 0.  1.
</event>
<event>
 5   0  0.8579923E-06  0.2549846E+04  0.7818609E-02  0.8385440E-01
        2   -1    0    0  501    0  0.00000000000E+00  0.00000000000E+00  0.23402024092E+04  0.23402024092E+04  0.25500000920E-02 0. -1.
       -2   -1    0    0    0  501  0.00000000000E+00  0.00000000000E+00 -0.69456741371E+03  0.69456741372E+03  0.25500000920E-02 0.  1.
    10030    2    1    2    0    0  0.00000000000E+00  0.00000000000E+00  0.16456349955E+04  0.30347698230E+04  0.25498457482E+04 0.  0.
        1    1    3    3  502    0 -0.21464883667E+03 -0.19573747008E+03 -0.65465345899E+03  0.71621116416E+03  0.50400001928E-02 0.  1.
       -1    1    3    3    0  502  0.21464883667E+03  0.19573747008E+03  0.23002884545E+04  0.23185586588E+04  0.50400001928E-02 0. -1.
</event>
<event>
 5   0  0.3522870E-06  0.2502635E+04  0.7818609E-02  0.8402048E-01
        1   -1    0    0  501    0  0.00000000000E+00  0.00000000000E+00  0.24621403973E+04  0.24621403973E+04  0.50400001928E-02 0. -1.
       -1   -1    0    0    0  501  0.00000000000E+00  0.00000000000E+00 -0.63594869885E+03  0.63594869887E+03  0.50400001928E-02 0.  1.
    10030    2    1    2    0    0  0.00000000000E+00  0.00000000000E+00  0.18261916984E+04  0.30980890961E+04  0.25026345974E+04 0.  0.
        2    1    3    3  502    0  0.29268913752E+03 -0.85340348254E+03  0.19864831247E+04  0.21817606743E+04  0.25500000920E-02 0. -1.
       -2    1    3    3    0  502 -0.29268913752E+03  0.85340348254E+03 -0.16029142631E+03  0.91632842180E+03  0.25500000920E-02 0.  1.
</event>
<event>
 5   0  0.3424193E-06  0.2504537E+04  0.7818609E-02  0.8401371E-01
        1   -1    0    0  501    0  0.00000000000E+00  0.00000000000E+00  0.18128168614E+04  0.18128168614E+04  0.50400001928E-02 0. -1.
       -1   -1    0    0    0  501  0.00000000000E+00  0.00000000000E+00 -0.86504951228E+03  0.86504951230E+03  0.50400001928E-02 0.  1.
    10030    2    1    2    0    0  0.00000000000E+00  0.00000000000E+00  0.94776734907E+03  0.26778663737E+04  0.25045369566E+04 0.  0.
        1    1    3    3  502    0 -0.10031139040E+03 -0.10599516099E+04 -0.23099535139E+03  0.10894579582E+04  0.50400001928E-02 0.  1.
       -1    1    3    3    0  502  0.10031139040E+03  0.10599516099E+04  0.11787627005E+04  0.15884084155E+04  0.50400001928E-02 0. -1.
</event>
<event>
 5   0  0.3522870E-06  0.2495152E+04  0.7818609E-02  0.8404715E-01
       -1   -1    0    0    0  501  0.00000000000E+00  0.00000000000E+00  0.13877888449E+04  0.13877888449E+04  0.50400001928E-02 0. -1.
        1   -1    0    0  501    0  0.00000000000E+00  0.00000000000E+00 -0.11215290230E+04  0.11215290230E+04  0.50400001928E-02 0.  1.
    10030    2    1    2    0    0  0.00000000000E+00  0.00000000000E+00  0.26625982188E+03  0.25093178678E+04  0.24951516726E+04 0.  0.
        2    1    3    3  502    0  0.10194759003E+04 -0.64396444061E+03  0.45498466186E+03  0.12888104417E+04  0.25500000920E-02 0.  1.
       -2    1    3    3    0  502 -0.10194759003E+04  0.64396444061E+03 -0.18872483998E+03  0.12205074262E+04  0.25500000920E-02 0. -1.
</event>
<event>
 5   0  0.8354653E-06  0.2513476E+04  0.7818609E-02  0.8398200E-01
       -2   -1    0    0    0  501  0.00000000000E+00  0.00000000000E+00  0.14660185706E+04  0.14660185706E+04  0.25500000920E-02 0.  1.
        2   -1    0    0  501    0  0.00000000000E+00  0.00000000000E+00 -0.10773328974E+04  0.10773328974E+04  0.25500000920E-02 0. -1.
    10030    2    1    2    0    0  0.00000000000E+00  0.00000000000E+00  0.38868567326E+03  0.25433514680E+04  0.25134757085E+04 0.  0.
        3    1    3    3  502    0  0.11532198891E+04  0.48447102072E+03  0.31728489722E+03  0.12904642570E+04  0.10100000352E+00 0.  1.
       -3    1    3    3    0  502 -0.11532198891E+04 -0.48447102072E+03  0.71400776035E+02  0.12528872110E+04  0.10100000352E+00 0. -1.
</event>
<event>
 5   0  0.3522870E-06  0.2422233E+04  0.7818609E-02  0.8431226E-01
        1   -1    0    0  501    0  0.00000000000E+00  0.00000000000E+00  0.79308559019E+03  0.79308559021E+03  0.50400001928E-02 0. -1.
       -1   -1    0    0    0  501  0.00000000000E+00  0.00000000000E+00 -0.18494894412E+04  0.18494894412E+04  0.50400001928E-02 0.  1.
    10030    2    1    2    0    0  0.00000000000E+00  0.00000000000E+00 -0.10564038510E+04  0.26425750314E+04  0.24222332052E+04 0.  0.
        2    1    3    3  502    0 -0.12172958994E+03  0.91737462821E+03 -0.13805596120E+04  0.16620286230E+04  0.25500000920E-02 0.  1.
       -2    1    3    3    0  502  0.12172958994E+03 -0.91737462821E+03  0.32415576100E+03  0.98054640836E+03  0.25500000920E-02 0. -1.
</event>
<event>
 5   0  0.8056723E-06  0.2493818E+04  0.7818609E-02  0.8405191E-01
        2   -1    0    0  501    0  0.00000000000E+00  0.00000000000E+00  0.11911381937E+04  0.11911381938E+04  0.25500000920E-02 0.  1.
       -2   -1    0    0    0  501  0.00000000000E+00  0.00000000000E+00 -0.13052913657E+04  0.13052913657E+04  0.25500000920E-02 0. -1.
    10030    2    1    2    0    0  0.00000000000E+00  0.00000000000E+00 -0.11415317198E+03  0.24964295595E+04  0.24938182770E+04 0.  0.
        2    1    3    3  502    0  0.52004204959E+03 -0.75907879344E+02 -0.11890022297E+04  0.12999738619E+04  0.25500000920E-02 0. -1.
       -2    1    3    3    0  502 -0.52004204959E+03  0.75907879344E+02  0.10748490577E+04  0.11964556976E+04  0.25500000920E-02 0.  1.
</event>
<event>
 5   0  0.3484857E-06  0.2500611E+04  0.7818609E-02  0.8402768E-01
        1   -1    0    0  501    0  0.00000000000E+00  0.00000000000E+00  0.18954116285E+04  0.18954116285E+04  0.50400001928E-02 0.  1.
       -1   -1    0    0    0  501  0.00000000000E+00  0.00000000000E+00 -0.82476216842E+03  0.82476216844E+03  0.50400001928E-02 0. -1.
    10030    2    1    2    0    0  0.00000000000E+00  0.00000000000E+00  0.10706494601E+04  0.27201737969E+04  0.25006109692E+04 0.  0.
        3    1    3    3  502    0 -0.76593253779E+03 -0.98550936171E+03  0.45551788813E+03  0.13286752467E+04  0.10100000352E+00 0.  1.
       -3    1    3    3    0  502  0.76593253779E+03  0.98550936171E+03  0.61513157194E+03  0.13914985503E+04  0.10100000352E+00 0. -1.
</event>
<event>
 5   0  0.3424193E-06  0.2498622E+04  0.7818609E-02  0.8403477E-01
       -1   -1    0    0    0  501  0.00000000000E+00  0.00000000000E+00  0.10184614348E+04  0.10184614348E+04  0.50400001928E-02 0.  1.
        1   -1    0    0  501    0  0.00000000000E+00  0.00000000000E+00 -0.15324861863E+04  0.15324861863E+04  0.50400001928E-02 0. -1.
    10030    2    1    2    0    0  0.00000000000E+00  0.00000000000E+00 -0.51402475156E+03  0.25509476211E+04  0.24986220844E+04 0.  0.
        1    1    3    3  502    0 -0.91222444793E+03 -0.12604687418E+02 -0.11283882639E+04  0.14510590600E+04  0.50400001928E-02 0. -1.
       -1    1    3    3    0  502  0.91222444793E+03  0.12604687418E+02  0.61436351233E+03  0.10998885611E+04  0.50400001928E-02 0.  1.
</event>
<event>
 5   0  0.8948286E-06  0.2504653E+04  0.7818609E-02  0.8401330E-01
        2   -1    0    0  501    0  0.00000000000E+00  0.00000000000E+00  0.16518566629E+04  0.16518566629E+04  0.25500000920E-02 0. -1.
       -2   -1    0    0    0  501  0.00000000000E+00  0.00000000000E+00 -0.94942991559E+03  0.94942991560E+03  0.25500000920E-02 0.  1.
    10030    2    1    2    0    0  0.00000000000E+00  0.00000000000E+00  0.70242674732E+03  0.26012865785E+04  0.25046533749E+04 0.  0.
        4    1    3    3  502    0 -0.10851165335E+04  0.57256108791E+03  0.90497507325E+02  0.12302420503E+04  0.12699999809E+01 0.  1.
       -4    1    3    3    0  502  0.10851165335E+04 -0.57256108791E+03  0.61192924000E+03  0.13710445282E+04  0.12699999809E+01 0. -1.
</event>
<event>
 5   0  0.8407986E-06  0.2501028E+04  0.7818609E-02  0.8402619E-01
        2   -1    0    0  501    0  0.00000000000E+00  0.00000000000E+00  0.24832682600E+04  0.24832682600E+04  0.25500000920E-02 0.  1.
       -2   -1    0    0    0  501  0.00000000000E+00  0.00000000000E+00 -0.62972882424E+03  0.62972882424E+03  0.25500000920E-02 0. -1.
    10030    2    1    2    0    0  0.00000000000E+00  0.00000000000E+00  0.18535394357E+04  0.31129970842E+04  0.25010282698E+04 0.  0.
        5    1    3    3  502    0  0.95138261647E+03 -0.55098564807E+03  0.16684291629E+04  0.19980971020E+04  0.46999998093E+01 0.  1.
       -5    1    3    3    0  502 -0.95138261647E+03  0.55098564807E+03  0.18511027284E+03  0.11148999822E+04  0.46999998093E+01 0. -1.
</event>
<event>
 5   0  0.3522870E-06  0.2453187E+04  0.7818609E-02  0.8419855E-01
        1   -1    0    0  501    0  0.00000000000E+00  0.00000000000E+00  0.96694882888E+03  0.96694882889E+03  0.50400001928E-02 0. -1.
       -1   -1    0    0    0  501  0.00000000000E+00  0.00000000000E+00 -0.15559578609E+04  0.15559578609E+04  0.50400001928E-02 0.  1.
    10030    2    1    2    0    0  0.00000000000E+00  0.00000000000E+00 -0.58900903204E+03  0.25229066898E+04  0.24531870140E+04 0.  0.
        2    1    3    3  502    0  0.47140231738E+03 -0.35363073136E+02  0.86950203900E+03  0.98969919046E+03  0.25500000920E-02 0. -1.
       -2    1    3    3    0  502 -0.47140231738E+03  0.35363073136E+02 -0.14585110710E+04  0.15332074994E+04  0.25500000920E-02 0.  1.
</event>
<event>
 5   0  0.3522870E-06  0.2502813E+04  0.7818609E-02  0.8401984E-01
        1   -1    0    0  501    0  0.00000000000E+00  0.00000000000E+00  0.14094703559E+04  0.14094703559E+04  0.50400001928E-02 0. -1.
       -1   -1    0    0    0  501  0.00000000000E+00  0.00000000000E+00 -0.11110685107E+04  0.11110685107E+04  0.50400001928E-02 0.  1.
    10030    2    1    2    0    0  0.00000000000E+00  0.00000000000E+00  0.29840184522E+03  0.25205388666E+04  0.25028129209E+04 0.  0.
        2    1    3    3  502    0 -0.18895906478E+03 -0.10781363077E+04  0.76007315744E+03  0.13325894457E+04  0.25500000920E-02 0. -1.
       -2    1    3    3    0  502  0.18895906478E+03  0.10781363077E+04 -0.46167131222E+03  0.11879494209E+04  0.25500000920E-02 0.  1.
</event>
<event>
 5   0  0.3424193E-06  0.2523414E+04  0.7818609E-02  0.8394691E-01
        1   -1    0    0  501    0  0.00000000000E+00  0.00000000000E+00  0.18245042946E+04  0.18245042946E+04  0.50400001928E-02 0.  1.
       -1   -1    0    0    0  501  0.00000000000E+00  0.00000000000E+00 -0.87251344914E+03  0.87251344916E+03  0.50400001928E-02 0. -1.
    10030    2    1    2    0    0  0.00000000000E+00  0.00000000000E+00  0.95199084542E+03  0.26970177437E+04  0.25234139851E+04 0.  0.
        1    1    3    3  502    0 -0.41966516935E+03 -0.57236966852E+03 -0.63892891837E+03  0.95496390223E+03  0.50400001928E-02 0. -1.
       -1    1    3    3    0  502  0.41966516935E+03  0.57236966852E+03  0.15909197638E+04  0.17420538415E+04  0.50400001928E-02 0.  1.
</event>
<event>
 5   0  0.3642184E-06  0.2493083E+04  0.7818609E-02  0.8405454E-01
       -1   -1    0    0    0  501  0.00000000000E+00  0.00000000000E+00  0.87425420051E+03  0.87425420053E+03  0.50400001928E-02 0.  1.
        1   -1    0    0  501    0  0.00000000000E+00  0.00000000000E+00 -0.17773608716E+04  0.17773608716E+04  0.50400001928E-02 0. -1.
    10030    2    1    2    0    0  0.00000000000E+00  0.00000000000E+00 -0.90310667106E+03  0.26516150721E+04  0.24930825962E+04 0.  0.
        5    1    3    3  502    0  0.10021010562E+04 -0.74074903880E+03 -0.41916268529E+03  0.13147756889E+04  0.46999998093E+01 0.  1.
       -5    1    3    3    0  502 -0.10021010562E+04  0.74074903880E+03 -0.48394398577E+03  0.13368393833E+04  0.46999998093E+01 0. -1.
</event>
<event>
 5   0  0.3484857E-06  0.2503533E+04  0.7818609E-02  0.8401728E-01
        1   -1    0    0  501    0  0.00000000000E+00  0.00000000000E+00  0.24642859912E+04  0.24642859912E+04  0.50400001928E-02 0. -1.
       -1   -1    0    0    0  501  0.00000000000E+00  0.00000000000E+00 -0.63585101853E+03  0.63585101855E+03  0.50400001928E-02 0.  1.
    10030    2    1    2    0    0  0.00000000000E+00  0.00000000000E+00  0.18284349727E+04  0.31001370098E+04  0.25035325103E+04 0.  0.
        3    1    3    3  502    0  0.97555895351E+03 -0.52607031740E+03  0.16346232107E+04  0.19749577974E+04  0.10100000352E+00 0. -1.
       -3    1    3    3    0  502 -0.97555895351E+03  0.52607031740E+03  0.19381176205E+03  0.11251792124E+04  0.10100000352E+00 0.  1.
</event>
<event>
 5   0  0.8579923E-06  0.2499517E+04  0.7818609E-02  0.8403157E-01
       -2   -1    0    0    0  501  0.00000000000E+00  0.00000000000E+00  0.10140126274E+04  0.10140126274E+04  0.25500000920E-02 0.  1.
        2   -1    0    0  501    0  0.00000000000E+00  0.00000000000E+00 -0.15403130394E+04  0.15403130394E+04  0.25500000920E-02 0. -1.
    10030    2    1    2    0    0  0.00000000000E+00  0.00000000000E+00 -0.52630041199E+03  0.25543256668E+04  0.24995174511E+04 0.  0.
        1    1    3    3  502    0  0.62594394694E+03  0.15129350957E+03 -0.13577110636E+04  0.15026892170E+04  0.50400001928E-02 0. -1.
       -1    1    3    3    0  502 -0.62594394694E+03 -0.15129350957E+03  0.83141065162E+03  0.10516364497E+04  0.50400001928E-02 0.  1.
</event>
<event>
 5   0  0.3642184E-06  0.2500889E+04  0.7818609E-02  0.8402669E-01
       -1   -1    0    0    0  501  0.00000000000E+00  0.00000000000E+00  0.10327517059E+04  0.10327517059E+04  0.50400001928E-02 0.  1.
        1   -1    0    0  501    0  0.00000000000E+00  0.00000000000E+00 -0.15140250511E+04  0.15140250511E+04  0.50400001928E-02 0. -1.
    10030    2    1    2    0    0  0.00000000000E+00  0.00000000000E+00 -0.48127334524E+03  0.25467767570E+04  0.25008894052E+04 0.  0.
        5    1    3    3  502    0 -0.93746126999E+03  0.44222607728E+02  0.60084243092E+03  0.11143711180E+04  0.46999998093E+01 0.  1.
       -5    1    3    3    0  502  0.93746126999E+03 -0.44222607728E+02 -0.10821157762E+04  0.14324056390E+04  0.46999998093E+01 0. -1.
</event>
<event>
 5   0  0.3424193E-06  0.2503049E+04  0.7818609E-02  0.8401900E-01
        1   -1    0    0  501    0  0.00000000000E+00  0.00000000000E+00  0.23963247875E+04  0.23963247875E+04  0.50400001928E-02 0.  1.
       -1   -1    0    0    0  501  0.00000000000E+00  0.00000000000E+00 -0.65363144977E+03  0.65363144979E+03  0.50400001928E-02 0. -1.
    10030    2    1    2    0    0  0.00000000000E+00  0.00000000000E+00  0.17426933377E+04  0.30499562373E+04  0.25030487370E+04 0.  0.
        1    1    3    3  502    0 -0.65486507942E+03 -0.91491272190E+03  0.15391891453E+04  0.19065719986E+04  0.50400001928E-02 0.  1.
       -1    1    3    3    0  502  0.65486507942E+03  0.91491272190E+03  0.20350419249E+03  0.11433842387E+04  0.50400001928E-02 0. -1.
</event>
<event>
 5   0  0.3424193E-06  0.2504968E+04  0.7818609E-02  0.8401218E-01
       -1   -1    0    0    0  501  0.00000000000E+00  0.00000000000E+00  0.91111778334E+03  0.91111778336E+03  0.50400001928E-02 0. -1.
        1   -1    0    0  501    0  0.00000000000E+00  0.00000000000E+00 -0.17217492773E+04  0.17217492773E+04  0.50400001928E-02 0.  1.
    10030    2    1    2    0    0  0.00000000000E+00  0.00000000000E+00 -0.81063149392E+03  0.26328670606E+04  0.25049681715E+04 0.  0.
        1    1    3    3  502    0 -0.27379580134E+02 -0.12031404731E+04 -0.77004917755E+03  0.14287310368E+04  0.50400001928E-02 0. -1.
       -1    1    3    3    0  502  0.27379580134E+02  0.12031404731E+04 -0.40582316367E+02  0.12041360239E+04  0.50400001928E-02 0.  1.
</event>
<event>
 5   0  0.3481387E-06  0.2507554E+04  0.7818609E-02  0.8400299E-01
        1   -1    0    0  501    0  0.00000000000E+00  0.00000000000E+00  0.20575227132E+04  0.20575227132E+04  0.50400001928E-02 0.  1.
       -1   -1    0    0    0  501  0.00000000000E+00  0.00000000000E+00 -0.76400433056E+03  0.76400433058E+03  0.50400001928E-02 0. -1.
    10030    2    1    2    0    0  0.00000000000E+00  0.00000000000E+00  0.12935183826E+04  0.28215270438E+04  0.25075535991E+04 0.  0.
        4    1    3    3  502    0 -0.19884840801E+03  0.11238473960E+04  0.12307654022E+04  0.16784989565E+04  0.12699999809E+01 0.  1.
       -4    1    3    3    0  502  0.19884840801E+03 -0.11238473960E+04  0.62752980432E+02  0.11430280873E+04  0.12699999809E+01 0. -1.
</event>
<event>
 5   0  0.3484857E-06  0.2512837E+04  0.7818609E-02  0.8398427E-01
       -1   -1    0    0    0  501  0.00000000000E+00  0.00000000000E+00  0.58507332200E+03  0.58507332202E+03  0.50400001928E-02 0. -1.
        1   -1    0    0  501    0  0.00000000000E+00  0.00000000000E+00 -0.26981019532E+04  0.26981019532E+04  0.50400001928E-02 0.  1.
    10030    2    1    2    0    0  0.00000000000E+00  0.00000000000E+00 -0.21130286312E+04  0.32831752752E+04  0.25128370205E+04 0.  0.
        3    1    3    3  502    0 -0.94043009218E+03 -0.64867025604E+03 -0.17396916546E+04  0.20812757921E+04  0.10100000352E+00 0.  1.
       -3    1    3    3    0  502  0.94043009218E+03  0.64867025604E+03 -0.37333697659E+03  0.12018994832E+04  0.10100000352E+00 0. -1.
</event>
<event>
 5   0  0.8579923E-06  0.2509380E+04  0.7818609E-02  0.8399651E-01
        2   -1    0    0  501    0  0.00000000000E+00  0.00000000000E+00  0.31747816022E+04  0.31747816022E+04  0.25500000920E-02 0. -1.
       -2   -1    0    0    0  501  0.00000000000E+00  0.00000000000E+00 -0.49585996744E+03  0.49585996745E+03  0.25500000920E-02 0.  1.
    10030    2    1    2    0    0  0.00000000000E+00  0.00000000000E+00  0.26789216347E+04  0.36706415696E+04  0.25093800843E+04 0.  0.
        1    1    3    3  502    0 -0.10671745859E+04 -0.65772551026E+02  0.37907855494E+03  0.11344109380E+04  0.50400001928E-02 0.  1.
       -1    1    3    3    0  502  0.10671745859E+04  0.65772551026E+02  0.22998430798E+04  0.25362306317E+04  0.50400001928E-02 0. -1.
</event>
<event>
 5   0  0.8354653E-06  0.2502849E+04  0.7818609E-02  0.8401971E-01
       -2   -1    0    0    0  501  0.00000000000E+00  0.00000000000E+00  0.66346609873E+03  0.66346609874E+03  0.25500000920E-02 0.  1.
        2   -1    0    0  501    0  0.00000000000E+00  0.00000000000E+00 -0.23604264740E+04  0.23604264740E+04  0.25500000920E-02 0. -1.
    10030    2    1    2    0    0  0.00000000000E+00  0.00000000000E+00 -0.16969603753E+04  0.30238925728E+04  0.25028487322E+04 0.  0.
        3    1    3    3  502    0 -0.41285551208E+03 -0.10219355062E+04 -0.13242454277E+03  0.11101072572E+04  0.10100000352E+00 0.  1.
       -3    1    3    3    0  502  0.41285551208E+03  0.10219355062E+04 -0.15645358325E+04  0.19137853156E+04  0.10100000352E+00 0. -1.
</event>
<event>
 5   0  0.3484857E-06  0.2496592E+04  0.7818609E-02  0.8404200E-01
       -1   -1    0    0    0  501  0.00000000000E+00  0.00000000000E+00  0.16228131159E+04  0.16228131159E+04  0.50400001928E-02 0.  1.
        1   -1    0    0  501    0  0.00000000000E+00  0.00000000000E+00 -0.96021126291E+03  0.96021126292E+03  0.50400001928E-02 0. -1.
    10030    2    1    2    0    0  0.00000000000E+00  0.00000000000E+00  0.66260185297E+03  0.25830243788E+04  0.24965924229E+04 0.  0.
        3    1    3    3  502    0 -0.11107374202E+03  0.11515409559E+04 -0.15382384061E+03  0.11670671504E+04  0.10100000352E+00 0. -1.
       -3    1    3    3    0  502  0.11107374202E+03 -0.11515409559E+04  0.81642569358E+03  0.14159572284E+04  0.10100000352E+00 0.  1.
</event>
<event>
 5   0  0.8407986E-06  0.2490832E+04  0.7818609E-02  0.8406259E-01
       -2   -1    0    0    0  501  0.00000000000E+00  0.00000000000E+00  0.61550011687E+03  0.61550011688E+03  0.25500000920E-02 0. -1.
        2   -1    0    0  501    0  0.00000000000E+00  0.00000000000E+00 -0.25200021355E+04  0.25200021355E+04  0.25500000920E-02 0.  1.
    10030    2    1    2    0    0  0.00000000000E+00  0.00000000000E+00 -0.19045020187E+04  0.31355022524E+04  0.24908324785E+04 0.  0.
        5    1    3    3  502    0  0.10613112902E+04 -0.48813424238E+03 -0.14957084545E+04  0.18978468232E+04  0.46999998093E+01 0.  1.
       -5    1    3    3    0  502 -0.10613112902E+04  0.48813424238E+03 -0.40879356416E+03  0.12376554292E+04  0.46999998093E+01 0. -1.
</event>
<event>
 5   0  0.3481387E-06  0.2484349E+04  0.7818609E-02  0.8408583E-01
        1   -1    0    0  501    0  0.00000000000E+00  0.00000000000E+00  0.89191992026E+03  0.89191992028E+03  0.50400001928E-02 0. -1.
       -1   -1    0    0    0  501  0.00000000000E+00  0.00000000000E+00 -0.17299728241E+04  0.17299728241E+04  0.50400001928E-02 0.  1.
    10030    2    1    2    0    0  0.00000000000E+00  0.00000000000E+00 -0.83805290379E+03  0.26218927443E+04  0.24843487866E+04 0.  0.
        4    1    3    3  502    0  0.71036792402E+03  0.38427546599E+03  0.57699660910E+03  0.99258093929E+03  0.12699999809E+01 0. -1.
       -4    1    3    3    0  502 -0.71036792402E+03 -0.38427546599E+03 -0.14150495129E+04  0.16293118050E+04  0.12699999809E+01 0.  1.
</event>
<event>
 5   0  0.3522870E-06  0.2487560E+04  0.7818609E-02  0.8407431E-01
       -1   -1    0    0    0  501  0.00000000000E+00  0.00000000000E+00  0.18080494507E+04  0.18080494507E+04  0.50400001928E-02 0. -1.
        1   -1    0    0  501    0  0.00000000000E+00  0.00000000000E+00 -0.85561164111E+03  0.85561164112E+03  0.50400001928E-02 0.  1.
    10030    2    1    2    0    0  0.00000000000E+00  0.00000000000E+00  0.95243780956E+03  0.26636610918E+04  0.24875595733E+04 0.  0.
        2    1    3    3  502    0 -0.42806741291E+02 -0.97185257309E+03  0.13061064066E+04  0.16285710873E+04  0.25500000920E-02 0. -1.
       -2    1    3    3    0  502  0.42806741291E+02  0.97185257309E+03 -0.35366859704E+03  0.10350900045E+04  0.25500000920E-02 0.  1.
</event>
<event>
 5   0  0.3424193E-06  0.2496714E+04  0.7818609E-02  0.8404157E-01
       -1   -1    0    0    0  501  0.00000000000E+00  0.00000000000E+00  0.11544304696E+04  0.11544304696E+04  0.50400001928E-02 0.  1.
        1   -1    0    0  501    0  0.00000000000E+00  0.00000000000E+00 -0.13499256929E+04  0.13499256929E+04  0.50400001928E-02 0. -1.
    10030    2    1    2    0    0  0.00000000000E+00  0.00000000000E+00 -0.19549522328E+03  0.25043561625E+04  0.24967141218E+04 0.  0.
        1    1    3    3  502    0 -0.55129320053E+02  0.12346150843E+04 -0.27458727504E+03  0.12659825512E+04  0.50400001928E-02 0. -1.
       -1    1    3    3    0  502  0.55129320053E+02 -0.12346150843E+04  0.79092051759E+02  0.12383736112E+04  0.50400001928E-02 0.  1.
</event>
<event>
 5   0  0.3642184E-06  0.2493459E+04  0.7818609E-02  0.8405319E-01
       -1   -1    0    0    0  501  0.00000000000E+00  0.00000000000E+00  0.79004682045E+03  0.79004682047E+03  0.50400001928E-02 0.  1.
        1   -1    0    0  501    0  0.00000000000E+00  0.00000000000E+00 -0.19673960109E+04  0.19673960109E+04  0.50400001928E-02 0. -1.
    10030    2    1    2    0    0  0.00000000000E+00  0.00000000000E+00 -0.11773491905E+04  0.27574428314E+04  0.24934594146E+04 0.  0.
        5    1    3    3  502    0 -0.98788316621E+01 -0.54017606027E+03  0.65385580984E+03  0.84819648517E+03  0.46999998093E+01 0.  1.
       -5    1    3    3    0  502  0.98788316621E+01  0.54017606027E+03 -0.18312050003E+04  0.19092463462E+04  0.46999998093E+01 0. -1.
</event>
<event>
 5   0  0.8407986E-06  0.2499116E+04  0.7818609E-02  0.8403301E-01
       -2   -1    0    0    0  501  0.00000000000E+00  0.00000000000E+00  0.85756961286E+03  0.85756961286E+03  0.25500000920E-02 0.  1.
        2   -1    0    0  501    0  0.00000000000E+00  0.00000000000E+00 -0.18207212264E+04  0.18207212264E+04  0.25500000920E-02 0. -1.
    10030    2    1    2    0    0  0.00000000000E+00  0.00000000000E+00 -0.96315161357E+03  0.26782908393E+04  0.24991160015E+04 0.  0.
        5    1    3    3  502    0  0.92482114104E+03 -0.36944384743E+03  0.32724548986E+03  0.10482817369E+04  0.46999998093E+01 0.  1.
       -5    1    3    3    0  502 -0.92482114104E+03  0.36944384743E+03 -0.12903971034E+04  0.16300091024E+04  0.46999998093E+01 0. -1.
</event>
<event>
 5   0  0.8948286E-06  0.2500300E+04  0.7818609E-02  0.8402879E-01
        2   -1    0    0  501    0  0.00000000000E+00  0.00000000000E+00  0.22320810456E+04  0.22320810456E+04  0.25500000920E-02 0. -1.
       -2   -1    0    0    0  501  0.00000000000E+00  0.00000000000E+00 -0.70018749647E+03  0.70018749648E+03  0.25500000920E-02 0.  1.
    10030    2    1    2    0    0  0.00000000000E+00  0.00000000000E+00  0.15318935491E+04  0.29322685420E+04  0.25003001734E+04 0.  0.
        4    1    3    3  502    0 -0.11615575825E+04  0.25052029135E+03  0.12215136827E+04  0.17041343033E+04  0.12699999809E+01 0. -1.
       -4    1    3    3    0  502  0.11615575825E+04 -0.25052029135E+03  0.31037986641E+03  0.12281342387E+04  0.12699999809E+01 0.  1.
</event>
<event>
 5   0  0.3642184E-06  0.2490788E+04  0.7818609E-02  0.8406275E-01
        1   -1    0    0  501    0  0.00000000000E+00  0.00000000000E+00  0.17071941962E+04  0.17071941962E+04  0.50400001928E-02 0.  1.
       -1   -1    0    0    0  501  0.00000000000E+00  0.00000000000E+00 -0.90851212689E+03  0.90851212690E+03  0.50400001928E-02 0. -1.
    10030    2    1    2    0    0  0.00000000000E+00  0.00000000000E+00  0.79868206929E+03  0.26157063231E+04  0.24907883332E+04 0.  0.
        5    1    3    3  502    0 -0.11373860013E+04  0.42582623541E+03  0.68886632204E+03  0.13962570674E+04  0.46999998093E+01 0.  1.
       -5    1    3    3    0  502  0.11373860013E+04 -0.42582623541E+03  0.10981574725E+03  0.12194492556E+04  0.46999998093E+01 0. -1.
</event>
<event>
 5   0  0.2901250E-06  0.2503030E+04  0.7818609E-02  0.8401907E-01
        3   -1    0    0  501    0  0.00000000000E+00  0.00000000000E+00  0.11974313855E+04  0.11974313897E+04  0.10100000352E+00 0.  1.
       -3   -1    0    0    0  501  0.00000000000E+00  0.00000000000E+00 -0.13080415123E+04  0.13080415162E+04  0.10100000352E+00 0. -1.
    10030    2    1    2    0    0  0.00000000000E+00  0.00000000000E+00 -0.11061012687E+03  0.25054729059E+04  0.25030301401E+04 0.  0.
        4    1    3    3  502    0 -0.38167617757E+03  0.16689554502E+03  0.11259981602E+04  0.12005849812E+04  0.12699999809E+01 0.  1.
       -4    1    3    3    0  502  0.38167617757E+03 -0.16689554502E+03 -0.12366082871E+04  0.13048879247E+04  0.12699999809E+01 0. -1.
</event>
<event>
 5   0  0.8579923E-06  0.2498638E+04  0.7818609E-02  0.8403471E-01
        2   -1    0    0  501    0  0.00000000000E+00  0.00000000000E+00  0.15170387225E+04  0.15170387225E+04  0.25500000920E-02 0. -1.
       -2   -1    0    0    0  501  0.00000000000E+00  0.00000000000E+00 -0.10288448005E+04  0.10288448005E+04  0.25500000920E-02 0.  1.
    10030    2    1    2    0    0  0.00000000000E+00  0.00000000000E+00  0.48819392202E+03  0.25458835230E+04  0.24986375502E+04 0.  0.
        1    1    3    3  502    0 -0.95469478453E+03  0.59434720945E+03 -0.31034917259E+03  0.11666221950E+04  0.50400001928E-02 0. -1.
       -1    1    3    3    0  502  0.95469478453E+03 -0.59434720945E+03  0.79854309461E+03  0.13792613280E+04  0.50400001928E-02 0.  1.
</event>
<event>
 5   0  0.8948286E-06  0.2402240E+04  0.7818609E-02  0.8438665E-01
        2   -1    0    0  501    0  0.00000000000E+00  0.00000000000E+00  0.23930010559E+04  0.23930010559E+04  0.25500000920E-02 0.  1.
       -2   -1    0    0    0  501  0.00000000000E+00  0.00000000000E+00 -0.60287882810E+03  0.60287882811E+03  0.25500000920E-02 0. -1.
    10030    2    1    2    0    0  0.00000000000E+00  0.00000000000E+00  0.17901222278E+04  0.29958798840E+04  0.24022403479E+04 0.  0.
        4    1    3    3  502    0  0.31761830675E+03  0.85936937945E+03  0.18637210588E+04  0.20767414179E+04  0.12699999809E+01 0.  1.
       -4    1    3    3    0  502 -0.31761830675E+03 -0.85936937945E+03 -0.73598830918E+02  0.91913846614E+03  0.12699999809E+01 0. -1.
</event>
<event>
 5   0  0.8948286E-06  0.2519684E+04  0.7818609E-02  0.8396007E-01
       -2   -1    0    0    0  501  0.00000000000E+00  0.00000000000E+00  0.14660713351E+04  0.14660713351E+04  0.25500000920E-02 0.  1.
        2   -1    0    0  501    0  0.00000000000E+00  0.00000000000E+00 -0.10826222017E+04  0.10826222017E+04  0.25500000920E-02 0. -1.
    10030    2    1    2    0    0  0.00000000000E+00  0.00000000000E+00  0.38344913344E+03  0.25486935369E+04  0.25196836125E+04 0.  0.
        4    1    3    3  502    0  0.32459866687E+03  0.10856042006E+04 -0.36534199132E+03  0.11905365002E+04  0.12699999809E+01 0. -1.
       -4    1    3    3    0  502 -0.32459866687E+03 -0.10856042006E+04  0.74879112476E+03  0.13581570367E+04  0.12699999809E+01 0.  1.
</event>
<event>
 5   0  0.3481387E-06  0.2502539E+04  0.7818609E-02  0.8402082E-01
       -1   -1    0    0    0  501  0.00000000000E+00  0.00000000000E+00  0.14733282618E+04  0.14733282619E+04  0.50400001928E-02 0.  1.
        1   -1    0    0  501    0  0.00000000000E+00  0.00000000000E+00 -0.10626791199E+04  0.10626791199E+04  0.50400001928E-02 0. -1.
    10030    2    1    2    0    0  0.00000000000E+00  0.00000000000E+00  0.41064914193E+03  0.25360073818E+04  0.25025388554E+04 0.  0.
        4    1    3    3  502    0  0.14010740354E+03  0.10333232122E+04  0.90615637331E+03  0.13814875791E+04  0.12699999809E+01 0.  1.
       -4    1    3    3    0  502 -0.14010740354E+03 -0.10333232122E+04 -0.49550723139E+03  0.11545198027E+04  0.12699999809E+01 0. -1.
</event>
<event>
 5   0  0.3484857E-06  0.2488307E+04  0.7818609E-02  0.8407163E-01
       -1   -1    0    0    0  501  0.00000000000E+00  0.00000000000E+00  0.17338419245E+04  0.17338419245E+04  0.50400001928E-02 0. -1.
        1   -1    0    0  501    0  0.00000000000E+00  0.00000000000E+00 -0.89276770113E+03  0.89276770115E+03  0.50400001928E-02 0.  1.
    10030    2    1    2    0    0  0.00000000000E+00  0.00000000000E+00  0.84107422334E+03  0.26266096256E+04  0.24883071105E+04 0.  0.
        3    1    3    3  502    0 -0.38701795437E+03 -0.19159666637E+03 -0.81111640668E+03  0.91891349700E+03  0.10100000352E+00 0.  1.
       -3    1    3    3    0  502  0.38701795437E+03  0.19159666637E+03  0.16521906300E+04  0.17076961286E+04  0.10100000352E+00 0. -1.
</event>
<event>
 5   0  0.3484857E-06  0.2473676E+04  0.7818609E-02  0.8412424E-01
       -1   -1    0    0    0  501  0.00000000000E+00  0.00000000000E+00  0.76430383311E+03  0.76430383312E+03  0.50400001928E-02 0. -1.
        1   -1    0    0  501    0  0.00000000000E+00  0.00000000000E+00 -0.20015189181E+04  0.20015189181E+04  0.50400001928E-02 0.  1.
    10030    2    1    2    0    0  0.00000000000E+00  0.00000000000E+00 -0.12372150850E+04  0.27658227512E+04  0.24736762772E+04 0.  0.
        3    1    3    3  502    0 -0.58253904441E+03  0.10127978051E+04 -0.16490401232E+03  0.11799595229E+04  0.10100000352E+00 0.  1.
       -3    1    3    3    0  502  0.58253904441E+03 -0.10127978051E+04 -0.10723110726E+04  0.15858632283E+04  0.10100000352E+00 0. -1.
</event>
<event>
 5   0  0.8948286E-06  0.2486570E+04  0.7818609E-02  0.8407786E-01
       -2   -1    0    0    0  501  0.00000000000E+00  0.00000000000E+00  0.50100623166E+03  0.50100623166E+03  0.25500000920E-02 0. -1.
        2   -1    0    0  501    0  0.00000000000E+00  0.00000000000E+00 -0.30853055563E+04  0.30853055563E+04  0.25500000920E-02 0.  1.
    10030    2    1    2    0    0  0.00000000000E+00  0.00000000000E+00 -0.25842993246E+04  0.35863117879E+04  0.24865697740E+04 0.  0.
        4    1    3    3  502    0  0.12250087905E+04 -0.20121358885E+03 -0.13902056707E+04  0.18638151370E+04  0.12699999809E+01 0.  1.
       -4    1    3    3    0  502 -0.12250087905E+04  0.20121358885E+03 -0.11940936539E+04  0.17224966509E+04  0.12699999809E+01 0. -1.
</event>
<event>
 5   0  0.3481387E-06  0.2494069E+04  0.7818609E-02  0.8405102E-01
       -1   -1    0    0    0  501  0.00000000000E+00  0.00000000000E+00  0.19386939138E+04  0.19386939138E+04  0.50400001928E-02 0.  1.
        1   -1    0    0  501    0  0.00000000000E+00  0.00000000000E+00 -0.80213534977E+03  0.80213534978E+03  0.50400001928E-02 0. -1.
    10030    2    1    2    0    0  0.00000000000E+00  0.00000000000E+00  0.11365585640E+04  0.27408292636E+04  0.24940689009E+04 0.  0.
        4    1    3    3  502    0  0.53791952712E+03 -0.34576203153E+03 -0.60824474966E+03  0.88253730147E+03  0.12699999809E+01 0. -1.
       -4    1    3    3    0  502 -0.53791952712E+03  0.34576203153E+03  0.17448033137E+04  0.18582919621E+04  0.12699999809E+01 0.  1.
</event>
<event>
 5   0  0.8579923E-06  0.2503613E+04  0.7818609E-02  0.8401700E-01
        2   -1    0    0  501    0  0.00000000000E+00  0.00000000000E+00  0.14521608690E+04  0.14521608690E+04  0.25500000920E-02 0.  1.
       -2   -1    0    0    0  501  0.00000000000E+00  0.00000000000E+00 -0.10790950273E+04  0.10790950273E+04  0.25500000920E-02 0. -1.
    10030    2    1    2    0    0  0.00000000000E+00  0.00000000000E+00  0.37306584176E+03  0.25312558963E+04  0.25036130472E+04 0.  0.
        1    1    3    3  502    0  0.36087539637E+03 -0.22401580094E+03 -0.10040106557E+04  0.10901612392E+04  0.50400001928E-02 0. -1.
       -1    1    3    3    0  502 -0.36087539637E+03  0.22401580094E+03  0.13770764975E+04  0.14410946571E+04  0.50400001928E-02 0.  1.
</event>
<event>
 5   0  0.3642184E-06  0.2512689E+04  0.7818609E-02  0.8398479E-01
        1   -1    0    0  501    0  0.00000000000E+00  0.00000000000E+00  0.12876243904E+04  0.12876243904E+04  0.50400001928E-02 0.  1.
       -1   -1    0    0    0  501  0.00000000000E+00  0.00000000000E+00 -0.12258241848E+04  0.12258241848E+04  0.50400001928E-02 0. -1.
    10030    2    1    2    0    0  0.00000000000E+00  0.00000000000E+00  0.61800205642E+02  0.25134485752E+04  0.25126886944E+04 0.  0.
        5    1    3    3  502    0  0.36151540320E+02  0.14649584512E+03  0.12785186713E+04  0.12874005007E+04  0.46999998093E+01 0.  1.
       -5    1    3    3    0  502 -0.36151540320E+02 -0.14649584512E+03 -0.12167184656E+04  0.12260480745E+04  0.46999998093E+01 0. -1.
</event>
<event>
 5   0  0.8354653E-06  0.2486231E+04  0.7818609E-02  0.8407907E-01
       -2   -1    0    0    0  501  0.00000000000E+00  0.00000000000E+00  0.12826447018E+04  0.12826447018E+04  0.25500000920E-02 0. -1.
        2   -1    0    0  501    0  0.00000000000E+00  0.00000000000E+00 -0.12048040880E+04  0.12048040880E+04  0.25500000920E-02 0.  1.
    10030    2    1    2    0    0  0.00000000000E+00  0.00000000000E+00  0.77840613745E+02  0.24874487898E+04  0.24862305445E+04 0.  0.
        3    1    3    3  502    0 -0.47318697823E+03  0.55584781387E+03  0.10456254831E+04  0.12752275756E+04  0.10100000352E+00 0. -1.
       -3    1    3    3    0  502  0.47318697823E+03 -0.55584781387E+03 -0.96778486932E+03  0.12122212142E+04  0.10100000352E+00 0.  1.
</event>
<event>
 5   0  0.8579923E-06  0.2498122E+04  0.7818609E-02  0.8403655E-01
        2   -1    0    0  501    0  0.00000000000E+00  0.00000000000E+00  0.16889165078E+04  0.16889165078E+04  0.25500000920E-02 0.  1.
       -2   -1    0    0    0  501  0.00000000000E+00  0.00000000000E+00 -0.92376017572E+03  0.92376017572E+03  0.25500000920E-02 0. -1.
    10030    2    1    2    0    0  0.00000000000E+00  0.00000000000E+00  0.76515633206E+03  0.26126766835E+04  0.24981223429E+04 0.  0.
        1    1    3    3  502    0 -0.68130905132E+03 -0.76867091840E+03  0.11258845707E+04  0.15240252855E+04  0.50400001928E-02 0. -1.
       -1    1    3    3    0  502  0.68130905132E+03  0.76867091840E+03 -0.36072823866E+03  0.10886513980E+04  0.50400001928E-02 0.  1.
</event>
<event>
 5   0  0.3642184E-06  0.2501953E+04  0.7818609E-02  0.8402290E-01
       -1   -1    0    0    0  501  0.00000000000E+00  0.00000000000E+00  0.56712471320E+03  0.56712471323E+03  0.50400001928E-02 0.  1.
        1   -1    0    0  501    0  0.00000000000E+00  0.00000000000E+00 -0.27594331968E+04  0.27594331968E+04  0.50400001928E-02 0. -1.
    10030    2    1    2    0    0  0.00000000000E+00  0.00000000000E+00 -0.21923084836E+04  0.33265579100E+04  0.25019534451E+04 0.  0.
        5    1    3    3  502    0  0.11664660874E+04  0.29094608436E+02 -0.49646746206E+03  0.12680661103E+04  0.46999998093E+01 0.  1.
       -5    1    3    3    0  502 -0.11664660874E+04 -0.29094608436E+02 -0.16958410215E+04  0.20584917997E+04  0.46999998093E+01 0. -1.
</event>
<event>
 5   0  0.3522870E-06  0.2498857E+04  0.7818609E-02  0.8403393E-01
       -1   -1    0    0    0  501  0.00000000000E+00  0.00000000000E+00  0.76753223426E+03  0.76753223428E+03  0.50400001928E-02 0.  1.
        1   -1    0    0  501    0  0.00000000000E+00  0.00000000000E+00 -0.20338845275E+04  0.20338845275E+04  0.50400001928E-02 0. -1.
    10030    2    1    2    0    0  0.00000000000E+00  0.00000000000E+00 -0.12663522932E+04  0.28014167618E+04  0.24988572874E+04 0.  0.
        2    1    3    3  502    0  0.12347137715E+03 -0.11787071932E+04 -0.18971019023E+03  0.12002440521E+04  0.25500000920E-02 0.  1.
       -2    1    3    3    0  502 -0.12347137715E+03  0.11787071932E+04 -0.10766421030E+04  0.16011727097E+04  0.25500000920E-02 0. -1.
</event>
<event>
 5   0  0.8056723E-06  0.2498490E+04  0.7818609E-02  0.8403524E-01
        2   -1    0    0  501    0  0.00000000000E+00  0.00000000000E+00  0.23213016985E+04  0.23213016985E+04  0.25500000920E-02 0. -1.
       -2   -1    0    0    0  501  0.00000000000E+00  0.00000000000E+00 -0.67230073614E+03  0.67230073615E+03  0.25500000920E-02 0.  1.
    10030    2    1    2    0    0  0.00000000000E+00  0.00000000000E+00  0.16490009624E+04  0.29936024347E+04  0.24984898164E+04 0.  0.
        2    1    3    3  502    0 -0.91250770679E+03 -0.44626769629E+01  0.18467552481E+04  0.20599017396E+04  0.25500000920E-02 0. -1.
       -2    1    3    3    0  502  0.91250770679E+03  0.44626769629E+01 -0.19775428572E+03  0.93370069507E+03  0.25500000920E-02 0.  1.
</event>
<event>
 5   0  0.8056723E-06  0.2497718E+04  0.7818609E-02  0.8403799E-01
        2   -1    0    0  501    0  0.00000000000E+00  0.00000000000E+00  0.23176630791E+04  0.23176630791E+04  0.25500000920E-02 0. -1.
       -2   -1    0    0    0  501  0.00000000000E+00  0.00000000000E+00 -0.67294020417E+03  0.67294020417E+03  0.25500000920E-02 0.  1.
    10030    2    1    2    0    0  0.00000000000E+00  0.00000000000E+00  0.16447228750E+04  0.29906032833E+04  0.24977178909E+04 0.  0.
        2    1    3    3  502    0 -0.17971955321E+03  0.53039707329E+03 -0.51417070538E+03  0.76025764543E+03  0.25500000920E-02 0.  1.
       -2    1    3    3    0  502  0.17971955321E+03 -0.53039707329E+03  0.21588935804E+04  0.22303456379E+04  0.25500000920E-02 0. -1.
</event>
<event>
 5   0  0.3484857E-06  0.2452504E+04  0.7818609E-02  0.8420104E-01
       -1   -1    0    0    0  501  0.00000000000E+00  0.00000000000E+00  0.11514763639E+04  0.11514763639E+04  0.50400001928E-02 0. -1.
        1   -1    0    0  501    0  0.00000000000E+00  0.00000000000E+00 -0.13058832020E+04  0.13058832020E+04  0.50400001928E-02 0.  1.
    10030    2    1    2    0    0  0.00000000000E+00  0.00000000000E+00 -0.15440683804E+03  0.24573595659E+04  0.24525037339E+04 0.  0.
        3    1    3    3  502    0 -0.67902919176E+03  0.10200361939E+04 -0.30860890400E+02  0.12257678756E+04  0.10100000352E+00 0. -1.
       -3    1    3    3    0  502  0.67902919176E+03 -0.10200361939E+04 -0.12354594764E+03  0.12315916903E+04  0.10100000352E+00 0.  1.
</event>
<event>
 5   0  0.3522870E-06  0.2498480E+04  0.7818609E-02  0.8403527E-01
       -1   -1    0    0    0  501  0.00000000000E+00  0.00000000000E+00  0.95921177354E+03  0.95921177356E+03  0.50400001928E-02 0.  1.
        1   -1    0    0  501    0  0.00000000000E+00  0.00000000000E+00 -0.16269609792E+04  0.16269609792E+04  0.50400001928E-02 0. -1.
    10030    2    1    2    0    0  0.00000000000E+00  0.00000000000E+00 -0.66774920563E+03  0.25861727527E+04  0.24984796388E+04 0.  0.
        2    1    3    3  502    0 -0.10507989529E+04 -0.50750832650E+02  0.36345161252E+03  0.11130369091E+04  0.25500000920E-02 0.  1.
       -2    1    3    3    0  502  0.10507989529E+04  0.50750832650E+02 -0.10312008182E+04  0.14731358436E+04  0.25500000920E-02 0. -1.
</event>
<event>
 5   0  0.8579923E-06  0.2501673E+04  0.7818609E-02  0.8402390E-01
        2   -1    0    0  501    0  0.00000000000E+00  0.00000000000E+00  0.20469703850E+04  0.20469703850E+04  0.25500000920E-02 0.  1.
       -2   -1    0    0    0  501  0.00000000000E+00  0.00000000000E+00 -0.76434498531E+03  0.76434498531E+03  0.25500000920E-02 0. -1.
    10030    2    1    2    0    0  0.00000000000E+00  0.00000000000E+00  0.12826253997E+04  0.28113153703E+04  0.25016726795E+04 0.  0.
        1    1    3    3  502    0  0.55402870656E+03  0.72820726563E+03  0.15997267399E+04  0.18429213960E+04  0.50400001928E-02 0.  1.
       -1    1    3    3    0  502 -0.55402870656E+03 -0.72820726563E+03 -0.31710134026E+03  0.96839397428E+03  0.50400001928E-02 0. -1.
</event>
<event>
 5   0  0.3481387E-06  0.2494532E+04  0.7818609E-02  0.8404936E-01
       -1   -1    0    0    0  501  0.00000000000E+00  0.00000000000E+00  0.10348420583E+04  0.10348420583E+04  0.50400001928E-02 0.  1.
        1   -1    0    0  501    0  0.00000000000E+00  0.00000000000E+00 -0.15032940014E+04  0.15032940014E+04  0.50400001928E-02 0. -1.
    10030    2    1    2    0    0  0.00000000000E+00  0.00000000000E+00 -0.46845194307E+03  0.25381360598E+04  0.24945315061E+04 0.  0.
        4    1    3    3  502    0 -0.64284366987E+03 -0.13983968557E+03 -0.13124030360E+04  0.14680621456E+04  0.12699999809E+01 0. -1.
       -4    1    3    3    0  502  0.64284366987E+03  0.13983968557E+03  0.84395109294E+03  0.10700739141E+04  0.12699999809E+01 0.  1.
</event>
<event>
 5   0  0.8579923E-06  0.2502648E+04  0.7818609E-02  0.8402043E-01
        2   -1    0    0  501    0  0.00000000000E+00  0.00000000000E+00  0.14113213626E+04  0.14113213626E+04  0.25500000920E-02 0. -1.
       -2   -1    0    0    0  501  0.00000000000E+00  0.00000000000E+00 -0.11094652622E+04  0.11094652622E+04  0.25500000920E-02 0.  1.
    10030    2    1    2    0    0  0.00000000000E+00  0.00000000000E+00  0.30185610047E+03  0.25207866248E+04  0.25026482179E+04 0.  0.
        1    1    3    3  502    0 -0.13831755445E+03  0.51913041762E+03 -0.98738835233E+03  0.11240835800E+04  0.50400001928E-02 0.  1.
       -1    1    3    3    0  502  0.13831755445E+03 -0.51913041762E+03  0.12892444528E+04  0.13967030448E+04  0.50400001928E-02 0. -1.
</event>
<event>
 5   0  0.3424193E-06  0.2504438E+04  0.7818609E-02  0.8401406E-01
       -1   -1    0    0    0  501  0.00000000000E+00  0.00000000000E+00  0.97494331722E+03  0.97494331724E+03  0.50400001928E-02 0.  1.
        1   -1    0    0  501    0  0.00000000000E+00  0.00000000000E+00 -0.16083523950E+04  0.16083523950E+04  0.50400001928E-02 0. -1.
    10030    2    1    2    0    0  0.00000000000E+00  0.00000000000E+00 -0.63340907778E+03  0.25832957122E+04  0.25044379963E+04 0.  0.
        1    1    3    3  502    0  0.12665237209E+03  0.12445929777E+04 -0.26020845234E+03  0.12777953444E+04  0.50400001928E-02 0.  1.
       -1    1    3    3    0  502 -0.12665237209E+03 -0.12445929777E+04 -0.37320062544E+03  0.13055003678E+04  0.50400001928E-02 0. -1.
</event>
<event>
 5   0  0.8948286E-06  0.2494789E+04  0.7818609E-02  0.8404844E-01
       -2   -1    0    0    0  501  0.00000000000E+00  0.00000000000E+00  0.25484178293E+04  0.25484178294E+04  0.25500000920E-02 0. -1.
        2   -1    0    0  501    0  0.00000000000E+00  0.00000000000E+00 -0.61057196333E+03  0.61057196333E+03  0.25500000920E-02 0.  1.
    10030    2    1    2    0    0  0.00000000000E+00  0.00000000000E+00  0.19378458660E+04  0.31589897927E+04  0.24947885501E+04 0.  0.
        4    1    3    3  502    0  0.11220624954E+04  0.87072567965E+02  0.16500881769E+04  0.19973478616E+04  0.12699999809E+01 0. -1.
       -4    1    3    3    0  502 -0.11220624954E+04 -0.87072567965E+02  0.28775768911E+03  0.11616419311E+04  0.12699999809E+01 0.  1.
</event>
<event>
 5   0  0.2901250E-06  0.2506552E+04  0.7818609E-02  0.8400655E-01
        3   -1    0    0  501    0  0.00000000000E+00  0.00000000000E+00  0.12511337935E+04  0.12511337975E+04  0.10100000352E+00 0.  1.
       -3   -1    0    0    0  501  0.00000000000E+00  0.00000000000E+00 -0.12554215205E+04  0.12554215245E+04  0.10100000352E+00 0. -1.
    10030    2    1    2    0    0  0.00000000000E+00  0.00000000000E+00 -0.42877270075E+01  0.25065553221E+04  0.25065516548E+04 0.  0.
        4    1    3    3  502    0 -0.76954319136E+03 -0.88392898112E+03  0.44189678389E+03  0.12525180827E+04  0.12699999809E+01 0. -1.
       -4    1    3    3    0  502  0.76954319136E+03  0.88392898112E+03 -0.44618451090E+03  0.12540372394E+04  0.12699999809E+01 0.  1.
</event>
<event>
 5   0  0.8354653E-06  0.2500651E+04  0.7818609E-02  0.8402754E-01
        2   -1    0    0  501    0  0.00000000000E+00  0.00000000000E+00  0.82496591280E+03  0.82496591280E+03  0.25500000920E-02 0. -1.
       -2   -1    0    0    0  501  0.00000000000E+00  0.00000000000E+00 -0.18950036081E+04  0.18950036081E+04  0.25500000920E-02 0.  1.
    10030    2    1    2    0    0  0.00000000000E+00  0.00000000000E+00 -0.10700376953E+04  0.27199695209E+04  0.25006506204E+04 0.  0.
        3    1    3    3  502    0  0.46127390276E+03  0.70943094773E+03  0.46617037083E+03  0.96611630139E+03  0.10100000352E+00 0. -1.
       -3    1    3    3    0  502 -0.46127390276E+03 -0.70943094773E+03 -0.15362080661E+04  0.17538532195E+04  0.10100000352E+00 0.  1.
</event>
<event>
 5   0  0.8056723E-06  0.2534121E+04  0.7818609E-02  0.8390930E-01
        2   -1    0    0  501    0  0.00000000000E+00  0.00000000000E+00  0.11759286390E+04  0.11759286390E+04  0.25500000920E-02 0. -1.
       -2   -1    0    0    0  501  0.00000000000E+00  0.00000000000E+00 -0.13652545679E+04  0.13652545679E+04  0.25500000920E-02 0.  1.
    10030    2    1    2    0    0  0.00000000000E+00  0.00000000000E+00 -0.18932592888E+03  0.25411832069E+04  0.25341207121E+04 0.  0.
        2    1    3    3  502    0 -0.34601915793E+02  0.12634060734E+04 -0.18463339353E+03  0.12772946758E+04  0.25500000920E-02 0. -1.
       -2    1    3    3    0  502  0.34601915793E+02 -0.12634060734E+04 -0.46925353475E+01  0.12638885310E+04  0.25500000920E-02 0.  1.
</event>
<event>
 5   0  0.8579923E-06  0.2493391E+04  0.7818609E-02  0.8405344E-01
        2   -1    0    0  501    0  0.00000000000E+00  0.00000000000E+00  0.14311873311E+04  0.14311873311E+04  0.25500000920E-02 0. -1.
       -2   -1    0    0    0  501  0.00000000000E+00  0.00000000000E+00 -0.10859864211E+04  0.10859864211E+04  0.25500000920E-02 0.  1.
    10030    2    1    2    0    0  0.00000000000E+00  0.00000000000E+00  0.34520090998E+03  0.25171737521E+04  0.24933912710E+04 0.  0.
        1    1    3    3  502    0 -0.75284222234E+03 -0.14305624618E+03 -0.82014756534E+03  0.11224431078E+04  0.50400001928E-02 0.  1.
       -1    1    3    3    0  502  0.75284222234E+03  0.14305624618E+03  0.11653484753E+04  0.13947306443E+04  0.50400001928E-02 0. -1.
</event>
<event>
 5   0  0.3522870E-06  0.2487078E+04  0.7818609E-02  0.8407603E-01
       -1   -1    0    0    0  501  0.00000000000E+00  0.00000000000E+00  0.10134223426E+04  0.10134223426E+04  0.50400001928E-02 0.  1.
        1   -1    0    0  501    0  0.00000000000E+00  0.00000000000E+00 -0.15259085823E+04  0.15259085823E+04  0.50400001928E-02 0. -1.
    10030    2    1    2    0    0  0.00000000000E+00  0.00000000000E+00 -0.51248623970E+03  0.25393309250E+04  0.24870784870E+04 0.  0.
        2    1    3    3  502    0 -0.87519579475E+03  0.51482742659E+03 -0.98922196279E+03  0.14175948116E+04  0.25500000920E-02 0. -1.
       -2    1    3    3    0  502  0.87519579475E+03 -0.51482742659E+03  0.47673572309E+03  0.11217361133E+04  0.25500000920E-02 0.  1.
</event>
<event>
 5   0  0.8056723E-06  0.2505604E+04  0.7818609E-02  0.8400992E-01
       -2   -1    0    0    0  501  0.00000000000E+00  0.00000000000E+00  0.88028281762E+03  0.88028281763E+03  0.25500000920E-02 0. -1.
        2   -1    0    0  501    0  0.00000000000E+00  0.00000000000E+00 -0.17829643313E+04  0.17829643313E+04  0.25500000920E-02 0.  1.
    10030    2    1    2    0    0  0.00000000000E+00  0.00000000000E+00 -0.90268151366E+03  0.26632471489E+04  0.25056040112E+04 0.  0.
        2    1    3    3  502    0  0.95365029441E+03 -0.42424966580E+03 -0.11878091690E+04  0.15812423232E+04  0.25500000920E-02 0.  1.
       -2    1    3    3    0  502 -0.95365029441E+03  0.42424966580E+03  0.28512765529E+03  0.10820048257E+04  0.25500000920E-02 0. -1.
</event>
<event>
 5   0  0.3484857E-06  0.2476305E+04  0.7818609E-02  0.8411476E-01
        1   -1    0    0  501    0  0.00000000000E+00  0.00000000000E+00  0.79278956958E+03  0.79278956959E+03  0.50400001928E-02 0.  1.
       -1   -1    0    0    0  501  0.00000000000E+00  0.00000000000E+00 -0.19337053720E+04  0.19337053720E+04  0.50400001928E-02 0. -1.
    10030    2    1    2    0    0  0.00000000000E+00  0.00000000000E+00 -0.11409158025E+04  0.27264949416E+04  0.24763048678E+04 0.  0.
        3    1    3    3  502    0  0.11837840259E+04 -0.23179054130E+03 -0.26305458721E+03  0.12346129763E+04  0.10100000352E+00 0.  1.
       -3    1    3    3    0  502 -0.11837840259E+04  0.23179054130E+03 -0.87786121525E+03  0.14918819654E+04  0.10100000352E+00 0. -1.
</event>
<event>
 5   0  0.3481387E-06  0.2494687E+04  0.7818609E-02  0.8404881E-01
       -1   -1    0    0    0  501  0.00000000000E+00  0.00000000000E+00  0.74724245690E+03  0.74724245692E+03  0.50400001928E-02 0.  1.
        1   -1    0    0  501    0  0.00000000000E+00  0.00000000000E+00 -0.20821437533E+04  0.20821437533E+04  0.50400001928E-02 0. -1.
    10030    2    1    2    0    0  0.00000000000E+00  0.00000000000E+00 -0.13349012964E+04  0.28293862102E+04  0.24946873262E+04 0.  0.
        4    1    3    3  502    0  0.83400521353E+03 -0.84434747882E+03 -0.11028535520E+04  0.16201157154E+04  0.12699999809E+01 0. -1.
       -4    1    3    3    0  502 -0.83400521353E+03  0.84434747882E+03 -0.23204774444E+03  0.12092704949E+04  0.12699999809E+01 0.  1.
</event>
<event>
 5   0  0.3522870E-06  0.2488516E+04  0.7818609E-02  0.8407088E-01
       -1   -1    0    0    0  501  0.00000000000E+00  0.00000000000E+00  0.62162827473E+03  0.62162827475E+03  0.50400001928E-02 0. -1.
        1   -1    0    0  501    0  0.00000000000E+00  0.00000000000E+00 -0.24905207158E+04  0.24905207158E+04  0.50400001928E-02 0.  1.
    10030    2    1    2    0    0  0.00000000000E+00  0.00000000000E+00 -0.18688924411E+04  0.31121489906E+04  0.24885161007E+04 0.  0.
        2    1    3    3  502    0 -0.74543146658E+03 -0.63829174451E+03  0.22158734772E+02  0.98161878140E+03  0.25500000920E-02 0. -1.
       -2    1    3    3    0  502  0.74543146658E+03  0.63829174451E+03 -0.18910511759E+04  0.21305302092E+04  0.25500000920E-02 0.  1.
</event>
<event>
 5   0  0.3642184E-06  0.2499118E+04  0.7818609E-02  0.8403300E-01
       -1   -1    0    0    0  501  0.00000000000E+00  0.00000000000E+00  0.81654274602E+03  0.81654274604E+03  0.50400001928E-02 0. -1.
        1   -1    0    0  501    0  0.00000000000E+00  0.00000000000E+00 -0.19122054684E+04  0.19122054684E+04  0.50400001928E-02 0.  1.
    10030    2    1    2    0    0  0.00000000000E+00  0.00000000000E+00 -0.10956627224E+04  0.27287482145E+04  0.24991178477E+04 0.  0.
        5    1    3    3  502    0  0.49637597981E+02 -0.10390664012E+04 -0.13037219509E+04  0.16678836568E+04  0.46999998093E+01 0.  1.
       -5    1    3    3    0  502 -0.49637597981E+02  0.10390664012E+04  0.20805922853E+03  0.10608645577E+04  0.46999998093E+01 0. -1.
</event>
<event>
 5   0  0.8579923E-06  0.2507983E+04  0.7818609E-02  0.8400147E-01
       -2   -1    0    0    0  501  0.00000000000E+00  0.00000000000E+00  0.61973432757E+03  0.61973432757E+03  0.25500000920E-02 0. -1.
        2   -1    0    0  501    0  0.00000000000E+00  0.00000000000E+00 -0.25373694993E+04  0.25373694993E+04  0.25500000920E-02 0.  1.
    10030    2    1    2    0    0  0.00000000000E+00  0.00000000000E+00 -0.19176351717E+04  0.31571038269E+04  0.25079832379E+04 0.  0.
        1    1    3    3  502    0  0.90306990449E+03  0.67299558245E+03 -0.16529258602E+04  0.20001555454E+04  0.50400001928E-02 0. -1.
       -1    1    3    3    0  502 -0.90306990449E+03 -0.67299558245E+03 -0.26470931153E+03  0.11569482815E+04  0.50400001928E-02 0.  1.
</event>
<event>
 5   0  0.8948286E-06  0.2488354E+04  0.7818609E-02  0.8407146E-01
        2   -1    0    0  501    0  0.00000000000E+00  0.00000000000E+00  0.14890846894E+04  0.14890846894E+04  0.25500000920E-02 0.  1.
       -2   -1    0    0    0  501  0.00000000000E+00  0.00000000000E+00 -0.10395493506E+04  0.10395493506E+04  0.25500000920E-02 0. -1.
    10030    2    1    2    0    0  0.00000000000E+00  0.00000000000E+00  0.44953533881E+03  0.25286340400E+04  0.24883544939E+04 0.  0.
        4    1    3    3  502    0 -0.71835614085E+03 -0.10127446987E+04  0.30534842699E+03  0.12786425007E+04  0.12699999809E+01 0.  1.
       -4    1    3    3    0  502  0.71835614085E+03  0.10127446987E+04  0.14418691182E+03  0.12499915393E+04  0.12699999809E+01 0. -1.
</event>
<event>
 5   0  0.8354653E-06  0.2508269E+04  0.7818609E-02  0.8400045E-01
       -2   -1    0    0    0  501  0.00000000000E+00  0.00000000000E+00  0.14257837524E+04  0.14257837524E+04  0.25500000920E-02 0.  1.
        2   -1    0    0  501    0  0.00000000000E+00  0.00000000000E+00 -0.11031502848E+04  0.11031502848E+04  0.25500000920E-02 0. -1.
    10030    2    1    2    0    0  0.00000000000E+00  0.00000000000E+00  0.32263346758E+03  0.25289340372E+04  0.25082693256E+04 0.  0.
        3    1    3    3  502    0 -0.10615302839E+03  0.86174285316E+03 -0.75111668692E+03  0.11480616264E+04  0.10100000352E+00 0. -1.
       -3    1    3    3    0  502  0.10615302839E+03 -0.86174285316E+03  0.10737501545E+04  0.13808724108E+04  0.10100000352E+00 0.  1.
</event>
<event>
 5   0  0.3522870E-06  0.2521030E+04  0.7818609E-02  0.8395532E-01
        1   -1    0    0  501    0  0.00000000000E+00  0.00000000000E+00  0.25162879044E+04  0.25162879044E+04  0.50400001928E-02 0. -1.
       -1   -1    0    0    0  501  0.00000000000E+00  0.00000000000E+00 -0.63144502660E+03  0.63144502662E+03  0.50400001928E-02 0.  1.
    10030    2    1    2    0    0  0.00000000000E+00  0.00000000000E+00  0.18848428778E+04  0.31477329310E+04  0.25210295379E+04 0.  0.
        2    1    3    3  502    0 -0.11615337538E+04 -0.48525707292E+03  0.10239381747E+04  0.16226781793E+04  0.25500000920E-02 0. -1.
       -2    1    3    3    0  502  0.11615337538E+04  0.48525707292E+03  0.86090470312E+03  0.15250547517E+04  0.25500000920E-02 0.  1.
</event>
<event>
 5   0  0.3522870E-06  0.2511254E+04  0.7818609E-02  0.8398987E-01
       -1   -1    0    0    0  501  0.00000000000E+00  0.00000000000E+00  0.84031578637E+03  0.84031578638E+03  0.50400001928E-02 0. -1.
        1   -1    0    0  501    0  0.00000000000E+00  0.00000000000E+00 -0.18761979140E+04  0.18761979140E+04  0.50400001928E-02 0.  1.
    10030    2    1    2    0    0  0.00000000000E+00  0.00000000000E+00 -0.10358821276E+04  0.27165137004E+04  0.25112536515E+04 0.  0.
        2    1    3    3  502    0 -0.11421445504E+04 -0.23325270170E+03 -0.13223675274E+02  0.11657940910E+04  0.25500000920E-02 0. -1.
       -2    1    3    3    0  502  0.11421445504E+04  0.23325270170E+03 -0.10226584523E+04  0.15507196094E+04  0.25500000920E-02 0.  1.
</event>
<event>
 5   0  0.2901250E-06  0.2507530E+04  0.7818609E-02  0.8400308E-01
       -3   -1    0    0    0  501  0.00000000000E+00  0.00000000000E+00  0.21311626054E+04  0.21311626078E+04  0.10100000352E+00 0. -1.
        3   -1    0    0  501    0  0.00000000000E+00  0.00000000000E+00 -0.73759134394E+03  0.73759135085E+03  0.10100000352E+00 0.  1.
    10030    2    1    2    0    0  0.00000000000E+00  0.00000000000E+00  0.13935712615E+04  0.28687539587E+04  0.25075303417E+04 0.  0.
        3    1    3    3  502    0 -0.25798882485E+03  0.72920157046E+03  0.18256582914E+04  0.19827560040E+04  0.10100000352E+00 0. -1.
       -3    1    3    3    0  502  0.25798882485E+03 -0.72920157046E+03 -0.43208702991E+03  0.88599795470E+03  0.10100000352E+00 0.  1.
</event>
<event>
 5   0  0.2901250E-06  0.2483521E+04  0.7818609E-02  0.8408880E-01
        3   -1    0    0  501    0  0.00000000000E+00  0.00000000000E+00  0.18076713783E+04  0.18076713811E+04  0.10100000352E+00 0. -1.
       -3   -1    0    0    0  501  0.00000000000E+00  0.00000000000E+00 -0.85301410307E+03  0.85301410904E+03  0.10100000352E+00 0.  1.
    10030    2    1    2    0    0  0.00000000000E+00  0.00000000000E+00  0.95465727524E+03  0.26606854902E+04  0.24835210417E+04 0.  0.
        4    1    3    3  502    0  0.11318497832E+04  0.37453052597E+03  0.10526407018E+03  0.11968455138E+04  0.12699999809E+01 0. -1.
       -4    1    3    3    0  502 -0.11318497832E+04 -0.37453052597E+03  0.84939320506E+03  0.14638399763E+04  0.12699999809E+01 0.  1.
</event>
<event>
 5   0  0.3481387E-06  0.2496185E+04  0.7818609E-02  0.8404346E-01
       -1   -1    0    0    0  501  0.00000000000E+00  0.00000000000E+00  0.13175525554E+04  0.13175525554E+04  0.50400001928E-02 0.  1.
        1   -1    0    0  501    0  0.00000000000E+00  0.00000000000E+00 -0.11822946761E+04  0.11822946761E+04  0.50400001928E-02 0. -1.
    10030    2    1    2    0    0  0.00000000000E+00  0.00000000000E+00  0.13525787929E+03  0.24998472315E+04  0.24961853871E+04 0.  0.
        4    1    3    3  502    0 -0.57904902651E+03 -0.20729529077E+03 -0.10199958474E+04  0.11910760909E+04  0.12699999809E+01 0. -1.
       -4    1    3    3    0  502  0.57904902651E+03  0.20729529077E+03  0.11552537267E+04  0.13087711406E+04  0.12699999809E+01 0.  1.
</event>
<event>
 5   0  0.3424193E-06  0.2506433E+04  0.7818609E-02  0.8400697E-01
       -1   -1    0    0    0  501  0.00000000000E+00  0.00000000000E+00  0.56673040793E+03  0.56673040795E+03  0.50400001928E-02 0.  1.
        1   -1    0    0  501    0  0.00000000000E+00  0.00000000000E+00 -0.27712497834E+04  0.27712497834E+04  0.50400001928E-02 0. -1.
    10030    2    1    2    0    0  0.00000000000E+00  0.00000000000E+00 -0.22045193755E+04  0.33379801914E+04  0.25064329397E+04 0.  0.
        1    1    3    3  502    0  0.90977432003E+03  0.64343200129E+03 -0.18659750368E+04  0.21733745401E+04  0.50400001928E-02 0. -1.
       -1    1    3    3    0  502 -0.90977432003E+03 -0.64343200129E+03 -0.33854433871E+03  0.11646056513E+04  0.50400001928E-02 0.  1.
</event>
<event>
 5   0  0.8948286E-06  0.2506614E+04  0.7818609E-02  0.8400633E-01
       -2   -1    0    0    0  501  0.00000000000E+00  0.00000000000E+00  0.70208532774E+03  0.70208532774E+03  0.25500000920E-02 0.  1.
        2   -1    0    0  501    0  0.00000000000E+00  0.00000000000E+00 -0.22373043267E+04  0.22373043267E+04  0.25500000920E-02 0. -1.
    10030    2    1    2    0    0  0.00000000000E+00  0.00000000000E+00 -0.15352189989E+04  0.29393896544E+04  0.25066140839E+04 0.  0.
        4    1    3    3  502    0  0.83556730935E+03  0.49178115727E+03  0.16371323919E+03  0.98327263396E+03  0.12699999809E+01 0.  1.
       -4    1    3    3    0  502 -0.83556730935E+03 -0.49178115727E+03 -0.16989322381E+04  0.19561170204E+04  0.12699999809E+01 0. -1.
</event>
<event>
 5   0  0.8407986E-06  0.2491309E+04  0.7818609E-02  0.8406088E-01
        2   -1    0    0  501    0  0.00000000000E+00  0.00000000000E+00  0.15032400494E+04  0.15032400494E+04  0.25500000920E-02 0. -1.
       -2   -1    0    0    0  501  0.00000000000E+00  0.00000000000E+00 -0.10322071056E+04  0.10322071056E+04  0.25500000920E-02 0.  1.
    10030    2    1    2    0    0  0.00000000000E+00  0.00000000000E+00  0.47103294389E+03  0.25354471550E+04  0.24913089414E+04 0.  0.
        5    1    3    3  502    0  0.36442001922E+03  0.10515047622E+04 -0.33401298247E+03  0.11619169410E+04  0.46999998093E+01 0.  1.
       -5    1    3    3    0  502 -0.36442001922E+03 -0.10515047622E+04  0.80504592636E+03  0.13735302140E+04  0.46999998093E+01 0. -1.
</event>
<event>
 5   0  0.3642184E-06  0.2497753E+04  0.7818609E-02  0.8403786E-01
        1   -1    0    0  501    0  0.00000000000E+00  0.00000000000E+00  0.29680356879E+04  0.29680356879E+04  0.50400001928E-02 0.  1.
       -1   -1    0    0    0  501  0.00000000000E+00  0.00000000000E+00 -0.52549664479E+03  0.52549664481E+03  0.50400001928E-02 0. -1.
    10030    2    1    2    0    0  0.00000000000E+00  0.00000000000E+00  0.24425390431E+04  0.34935323327E+04  0.24977532269E+04 0.  0.
        5    1    3    3  502    0 -0.12415958443E+03  0.15946223882E+03  0.29450000689E+04  0.29519300981E+04  0.46999998093E+01 0.  1.
       -5    1    3    3    0  502  0.12415958443E+03 -0.15946223882E+03 -0.50246102585E+03  0.54160223459E+03  0.46999998093E+01 0. -1.
</event>
<event>
 5   0  0.8579923E-06  0.2499591E+04  0.7818609E-02  0.8403131E-01
       -2   -1    0    0    0  501  0.00000000000E+00  0.00000000000E+00  0.86756194318E+03  0.86756194318E+03  0.25500000920E-02 0. -1.
        2   -1    0    0  501    0  0.00000000000E+00  0.00000000000E+00 -0.18004343126E+04  0.18004343126E+04  0.25500000920E-02 0.  1.
    10030    2    1    2    0    0  0.00000000000E+00  0.00000000000E+00 -0.93287236938E+03  0.26679962557E+04  0.24995905991E+04 0.  0.
        1    1    3    3  502    0 -0.12422008424E+04 -0.56417552513E+02 -0.33251414671E+03  0.12871719119E+04  0.50400001928E-02 0.  1.
       -1    1    3    3    0  502  0.12422008424E+04  0.56417552513E+02 -0.60035822268E+03  0.13808243438E+04  0.50400001928E-02 0. -1.
</event>
<event>
 5   0  0.8056723E-06  0.2511672E+04  0.7818609E-02  0.8398839E-01
        2   -1    0    0  501    0  0.00000000000E+00  0.00000000000E+00  0.79506225458E+03  0.79506225458E+03  0.25500000920E-02 0.  1.
       -2   -1    0    0    0  501  0.00000000000E+00  0.00000000000E+00 -0.19836486978E+04  0.19836486978E+04  0.25500000920E-02 0. -1.
    10030    2    1    2    0    0  0.00000000000E+00  0.00000000000E+00 -0.11885864432E+04  0.27787109524E+04  0.25116721171E+04 0.  0.
        2    1    3    3  502    0  0.10878993167E+04 -0.37409166940E+03 -0.37105047632E+02  0.11510196718E+04  0.25500000920E-02 0.  1.
       -2    1    3    3    0  502 -0.10878993167E+04  0.37409166940E+03 -0.11514813956E+04  0.16276912805E+04  0.25500000920E-02 0. -1.
</event>
<event>
 5   0  0.8056723E-06  0.2500091E+04  0.7818609E-02  0.8402953E-01
       -2   -1    0    0    0  501  0.00000000000E+00  0.00000000000E+00  0.85482096232E+03  0.85482096232E+03  0.25500000920E-02 0.  1.
        2   -1    0    0  501    0  0.00000000000E+00  0.00000000000E+00 -0.18280013432E+04  0.18280013432E+04  0.25500000920E-02 0. -1.
    10030    2    1    2    0    0  0.00000000000E+00  0.00000000000E+00 -0.97318038090E+03  0.26828223055E+04  0.25000910922E+04 0.  0.
        2    1    3    3  502    0  0.33124796423E+03  0.58626960921E+03  0.64356068284E+03  0.93145457269E+03  0.25500000920E-02 0.  1.
       -2    1    3    3    0  502 -0.33124796423E+03 -0.58626960921E+03 -0.16167410637E+04  0.17513677328E+04  0.25500000920E-02 0. -1.
</event>
<event>
 5   0  0.3481387E-06  0.2470684E+04  0.7818609E-02  0.8413505E-01
        1   -1    0    0  501    0  0.00000000000E+00  0.00000000000E+00  0.23848173276E+04  0.23848173276E+04  0.50400001928E-02 0. -1.
       -1   -1    0    0    0  501  0.00000000000E+00  0.00000000000E+00 -0.63991054331E+03  0.63991054333E+03  0.50400001928E-02 0.  1.
    10030    2    1    2    0    0  0.00000000000E+00  0.00000000000E+00  0.17449067843E+04  0.30247278709E+04  0.24706839149E+04 0.  0.
        4    1    3    3  502    0 -0.30870415164E+03 -0.11160542654E+04  0.13992962841E+04  0.18162893713E+04  0.12699999809E+01 0.  1.
       -4    1    3    3    0  502  0.30870415164E+03  0.11160542654E+04  0.34561050013E+03  0.12084384996E+04  0.12699999809E+01 0. -1.
</event>
<event>
 5   0  0.3424193E-06  0.2509837E+04  0.7818609E-02  0.8399490E-01
        1   -1    0    0  501    0  0.00000000000E+00  0.00000000000E+00  0.89292844580E+03  0.89292844582E+03  0.50400001928E-02 0.  1.
       -1   -1    0    0    0  501  0.00000000000E+00  0.00000000000E+00 -0.17636574324E+04  0.17636574324E+04  0.50400001928E-02 0. -1.
    10030    2    1    2    0    0  0.00000000000E+00  0.00000000000E+00 -0.87072898658E+03  0.26565858782E+04  0.25098365605E+04 0.  0.
        1    1    3    3  502    0 -0.10433650429E+03 -0.97275291711E+03 -0.12672472798E+04  0.16009528450E+04  0.50400001928E-02 0.  1.
       -1    1    3    3    0  502  0.10433650429E+03  0.97275291711E+03  0.39651829319E+03  0.10556330332E+04  0.50400001928E-02 0. -1.
</event>
<event>
 5   0  0.8407986E-06  0.2495887E+04  0.7818609E-02  0.8404452E-01
        2   -1    0    0  501    0  0.00000000000E+00  0.00000000000E+00  0.21810763743E+04  0.21810763744E+04  0.25500000920E-02 0. -1.
       -2   -1    0    0    0  501  0.00000000000E+00  0.00000000000E+00 -0.71403420436E+03  0.71403420437E+03  0.25500000920E-02 0.  1.
    10030    2    1    2    0    0  0.00000000000E+00  0.00000000000E+00  0.14670421700E+04  0.28951105787E+04  0.24958871237E+04 0.  0.
        5    1    3    3  502    0  0.50405749800E+03  0.57948875437E+03  0.18744450292E+04  0.20256967777E+04  0.46999998093E+01 0. -1.
       -5    1    3    3    0  502 -0.50405749800E+03 -0.57948875437E+03 -0.40740285919E+03  0.86941380102E+03  0.46999998093E+01 0.  1.
</event>
<event>
 5   0  0.3642184E-06  0.2507933E+04  0.7818609E-02  0.8400165E-01
        1   -1    0    0  501    0  0.00000000000E+00  0.00000000000E+00  0.10808870695E+04  0.10808870695E+04  0.50400001928E-02 0. -1.
       -1   -1    0    0    0  501  0.00000000000E+00  0.00000000000E+00 -0.14547610480E+04  0.14547610480E+04  0.50400001928E-02 0.  1.
    10030    2    1    2    0    0  0.00000000000E+00  0.00000000000E+00 -0.37387397848E+03  0.25356481175E+04  0.25079333372E+04 0.  0.
        5    1    3    3  502    0 -0.92498677443E+03 -0.25817625905E+03 -0.10021692989E+04  0.13880277041E+04  0.46999998093E+01 0.  1.
       -5    1    3    3    0  502  0.92498677443E+03  0.25817625905E+03  0.62829532045E+03  0.11476204134E+04  0.46999998093E+01 0. -1.
</event>
<event>
 5   0  0.8056723E-06  0.2477030E+04  0.7818609E-02  0.8411215E-01
       -2   -1    0    0    0  501  0.00000000000E+00  0.00000000000E+00  0.68969162885E+03  0.68969162885E+03  0.25500000920E-02 0.  1.
        2   -1    0    0  501    0  0.00000000000E+00  0.00000000000E+00 -0.22240650313E+04  0.22240650313E+04  0.25500000920E-02 0. -1.
    10030    2    1    2    0    0  0.00000000000E+00  0.00000000000E+00 -0.15343734025E+04  0.29137566602E+04  0.24770297004E+04 0.  0.
        2    1    3    3  502    0 -0.60489482226E+03  0.10762296015E+04 -0.65102857345E+03  0.13957098927E+04  0.25500000920E-02 0. -1.
       -2    1    3    3    0  502  0.60489482226E+03 -0.10762296015E+04 -0.88334482903E+03  0.15180467675E+04  0.25500000920E-02 0.  1.
</event>
<event>
 5   0  0.8948286E-06  0.2477509E+04  0.7818609E-02  0.8411042E-01
       -2   -1    0    0    0  501  0.00000000000E+00  0.00000000000E+00  0.10258215074E+04  0.10258215074E+04  0.25500000920E-02 0.  1.
        2   -1    0    0  501    0  0.00000000000E+00  0.00000000000E+00 -0.14958863932E+04  0.14958863932E+04  0.25500000920E-02 0. -1.
    10030    2    1    2    0    0  0.00000000000E+00  0.00000000000E+00 -0.47006488580E+03  0.25217079005E+04  0.24775087767E+04 0.  0.
        4    1    3    3  502    0 -0.53899965584E+03  0.12338509025E+03 -0.13633055212E+04  0.14711723442E+04  0.12699999809E+01 0. -1.
       -4    1    3    3    0  502  0.53899965584E+03 -0.12338509025E+03  0.89324063535E+03  0.10505355563E+04  0.12699999809E+01 0.  1.
</event>
<event>
 5   0  0.3481387E-06  0.2417033E+04  0.7818609E-02  0.8433154E-01
       -1   -1    0    0    0  501  0.00000000000E+00  0.00000000000E+00  0.10284579105E+04  0.10284579105E+04  0.50400001928E-02 0. -1.
        1   -1    0    0  501    0  0.00000000000E+00  0.00000000000E+00 -0.14200991548E+04  0.14200991548E+04  0.50400001928E-02 0.  1.
    10030    2    1    2    0    0  0.00000000000E+00  0.00000000000E+00 -0.39164124432E+03  0.24485570654E+04  0.24170330652E+04 0.  0.
        4    1    3    3  502    0 -0.39188937643E+03  0.11429769167E+04 -0.21929789400E+03  0.12280336700E+04  0.12699999809E+01 0.  1.
       -4    1    3    3    0  502  0.39188937643E+03 -0.11429769167E+04 -0.17234335032E+03  0.12205233954E+04  0.12699999809E+01 0. -1.
</event>
<event>
 5   0  0.8407986E-06  0.2484729E+04  0.7818609E-02  0.8408446E-01
        2   -1    0    0  501    0  0.00000000000E+00  0.00000000000E+00  0.19355289869E+04  0.19355289869E+04  0.25500000920E-02 0. -1.
       -2   -1    0    0    0  501  0.00000000000E+00  0.00000000000E+00 -0.79744086402E+03  0.79744086403E+03  0.25500000920E-02 0.  1.
    10030    2    1    2    0    0  0.00000000000E+00  0.00000000000E+00  0.11380881229E+04  0.27329698510E+04  0.24847292872E+04 0.  0.
        5    1    3    3  502    0 -0.83105324285E+03 -0.21203347613E+03 -0.41955108386E+03  0.95480515783E+03  0.46999998093E+01 0.  1.
       -5    1    3    3    0  502  0.83105324285E+03  0.21203347613E+03  0.15576392068E+04  0.17781646931E+04  0.46999998093E+01 0. -1.
</event>
<event>
 5   0  0.8354653E-06  0.2480735E+04  0.7818609E-02  0.8409881E-01
       -2   -1    0    0    0  501  0.00000000000E+00  0.00000000000E+00  0.78296354382E+03  0.78296354382E+03  0.25500000920E-02 0. -1.
        2   -1    0    0  501    0  0.00000000000E+00  0.00000000000E+00 -0.19649845187E+04  0.19649845187E+04  0.25500000920E-02 0.  1.
    10030    2    1    2    0    0  0.00000000000E+00  0.00000000000E+00 -0.11820209748E+04  0.27479480625E+04  0.24807347640E+04 0.  0.
        3    1    3    3  502    0  0.65134089693E+03  0.59807029595E+03 -0.15545179794E+04  0.17884236639E+04  0.10100000352E+00 0.  1.
       -3    1    3    3    0  502 -0.65134089693E+03 -0.59807029595E+03  0.37249700459E+03  0.95952439862E+03  0.10100000352E+00 0. -1.
</event>
<event>
 5   0  0.8948286E-06  0.2508487E+04  0.7818609E-02  0.8399968E-01
        2   -1    0    0  501    0  0.00000000000E+00  0.00000000000E+00  0.18078580597E+04  0.18078580597E+04  0.25500000920E-02 0. -1.
       -2   -1    0    0    0  501  0.00000000000E+00  0.00000000000E+00 -0.87016033385E+03  0.87016033385E+03  0.25500000920E-02 0.  1.
    10030    2    1    2    0    0  0.00000000000E+00  0.00000000000E+00  0.93769772584E+03  0.26780183935E+04  0.25084866934E+04 0.  0.
        4    1    3    3  502    0  0.94053610486E+02 -0.71179146218E+03  0.15667644772E+04  0.17234400794E+04  0.12699999809E+01 0. -1.
       -4    1    3    3    0  502 -0.94053610486E+02  0.71179146218E+03 -0.62906675137E+03  0.95457831416E+03  0.12699999809E+01 0.  1.
</event>
<event>
 5   0  0.3522870E-06  0.2499556E+04  0.7818609E-02  0.8403144E-01
       -1   -1    0    0    0  501  0.00000000000E+00  0.00000000000E+00  0.98638725972E+03  0.98638725973E+03  0.50400001928E-02 0.  1.
        1   -1    0    0  501    0  0.00000000000E+00  0.00000000000E+00 -0.15835002289E+04  0.15835002289E+04  0.50400001928E-02 0. -1.
    10030    2    1    2    0    0  0.00000000000E+00  0.00000000000E+00 -0.59711296917E+03  0.25698874886E+04  0.24995555217E+04 0.  0.
        2    1    3    3  502    0 -0.93366679971E+03 -0.59924684290E+03 -0.89017271613E+03  0.14224056862E+04  0.25500000920E-02 0. -1.
       -2    1    3    3    0  502  0.93366679971E+03  0.59924684290E+03  0.29305974696E+03  0.11474818024E+04  0.25500000920E-02 0.  1.
</event>
<event>
 5   0  0.8354653E-06  0.2519014E+04  0.7818609E-02  0.8396243E-01
       -2   -1    0    0    0  501  0.00000000000E+00  0.00000000000E+00  0.15485009589E+04  0.15485009589E+04  0.25500000920E-02 0.  1.
        2   -1    0    0  501    0  0.00000000000E+00  0.00000000000E+00 -0.10244477371E+04  0.10244477371E+04  0.25500000920E-02 0. -1.
    10030    2    1    2    0    0  0.00000000000E+00  0.00000000000E+00  0.52405322182E+03  0.25729486960E+04  0.25190143336E+04 0.  0.
        3    1    3    3  502    0  0.10701495672E+04  0.59614485116E+03  0.56112654651E+03  0.13473944453E+04  0.10100000352E+00 0.  1.
       -3    1    3    3    0  502 -0.10701495672E+04 -0.59614485116E+03 -0.37073324688E+02  0.12255542507E+04  0.10100000352E+00 0. -1.
</event>
<event>
 5   0  0.3484857E-06  0.2500320E+04  0.7818609E-02  0.8402872E-01
       -1   -1    0    0    0  501  0.00000000000E+00  0.00000000000E+00  0.14611614172E+04  0.14611614172E+04  0.50400001928E-02 0. -1.
        1   -1    0    0  501    0  0.00000000000E+00  0.00000000000E+00 -0.10696285471E+04  0.10696285471E+04  0.50400001928E-02 0.  1.
    10030    2    1    2    0    0  0.00000000000E+00  0.00000000000E+00  0.39153287009E+03  0.25307899643E+04  0.25003199505E+04 0.  0.
        3    1    3    3  502    0  0.99518196485E+03 -0.24259703901E+03 -0.52966801231E+03  0.11531646370E+04  0.10100000352E+00 0.  1.
       -3    1    3    3    0  502 -0.99518196485E+03  0.24259703901E+03  0.92120088241E+03  0.13776253273E+04  0.10100000352E+00 0. -1.
</event>
<event>
 5   0  0.8948286E-06  0.2502658E+04  0.7818609E-02  0.8402039E-01
        2   -1    0    0  501    0  0.00000000000E+00  0.00000000000E+00  0.16222194545E+04  0.16222194545E+04  0.25500000920E-02 0.  1.
       -2   -1    0    0    0  501  0.00000000000E+00  0.00000000000E+00 -0.96523559670E+03  0.96523559670E+03  0.25500000920E-02 0. -1.
    10030    2    1    2    0    0  0.00000000000E+00  0.00000000000E+00  0.65698385783E+03  0.25874550512E+04  0.25026577578E+04 0.  0.
        4    1    3    3  502    0 -0.39542794251E+03 -0.97636786378E+03  0.10267762283E+04  0.14710297410E+04  0.12699999809E+01 0.  1.
       -4    1    3    3    0  502  0.39542794251E+03  0.97636786378E+03 -0.36979237045E+03  0.11164253102E+04  0.12699999809E+01 0. -1.
</event>
<event>
 5   0  0.3424193E-06  0.2502034E+04  0.7818609E-02  0.8402261E-01
        1   -1    0    0  501    0  0.00000000000E+00  0.00000000000E+00  0.89295561009E+03  0.89295561011E+03  0.50400001928E-02 0. -1.
       -1   -1    0    0    0  501  0.00000000000E+00  0.00000000000E+00 -0.17526555444E+04  0.17526555444E+04  0.50400001928E-02 0.  1.
    10030    2    1    2    0    0  0.00000000000E+00  0.00000000000E+00 -0.85969993431E+03  0.26456111545E+04  0.25020340533E+04 0.  0.
        1    1    3    3  502    0  0.10045224167E+04  0.61779654928E+03 -0.87130720320E+03  0.14662585394E+04  0.50400001928E-02 0.  1.
       -1    1    3    3    0  502 -0.10045224167E+04 -0.61779654928E+03  0.11607268896E+02  0.11793526151E+04  0.50400001928E-02 0. -1.
</event>
<event>
 5   0  0.8407986E-06  0.2445509E+04  0.7818609E-02  0.8422660E-01
       -2   -1    0    0    0  501  0.00000000000E+00  0.00000000000E+00  0.10650949422E+04  0.10650949422E+04  0.25500000920E-02 0.  1.
        2   -1    0    0  501    0  0.00000000000E+00  0.00000000000E+00 -0.14037513030E+04  0.14037513030E+04  0.25500000920E-02 0. -1.
    10030    2    1    2    0    0  0.00000000000E+00  0.00000000000E+00 -0.33865636082E+03  0.24688462452E+04  0.24455088738E+04 0.  0.
        5    1    3    3  502    0 -0.99924636280E+03  0.10120501167E+02  0.54203120400E+03  0.11368445955E+04  0.46999998093E+01 0.  1.
       -5    1    3    3    0  502  0.99924636280E+03 -0.10120501167E+02 -0.88068756482E+03  0.13320016498E+04  0.46999998093E+01 0. -1.
</event>
<event>
 5   0  0.3642184E-06  0.2501907E+04  0.7818609E-02  0.8402307E-01
       -1   -1    0    0    0  501  0.00000000000E+00  0.00000000000E+00  0.94739396696E+03  0.94739396697E+03  0.50400001928E-02 0.  1.
        1   -1    0    0  501    0  0.00000000000E+00  0.00000000000E+00 -0.16517777588E+04  0.16517777588E+04  0.50400001928E-02 0. -1.
    10030    2    1    2    0    0  0.00000000000E+00  0.00000000000E+00 -0.70438379183E+03  0.25991717258E+04  0.25019066997E+04 0.  0.
        5    1    3    3  502    0 -0.38050228002E+03  0.54834372233E+03 -0.14513404505E+04  0.15974586117E+04  0.46999998093E+01 0. -1.
       -5    1    3    3    0  502  0.38050228002E+03 -0.54834372233E+03  0.74695665866E+03  0.10017131140E+04  0.46999998093E+01 0.  1.
</event>
<event>
 5   0  0.3642184E-06  0.2502134E+04  0.7818609E-02  0.8402226E-01
        1   -1    0    0  501    0  0.00000000000E+00  0.00000000000E+00  0.12320535642E+04  0.12320535642E+04  0.50400001928E-02 0. -1.
       -1   -1    0    0    0  501  0.00000000000E+00  0.00000000000E+00 -0.12703738717E+04  0.12703738717E+04  0.50400001928E-02 0.  1.
    10030    2    1    2    0    0  0.00000000000E+00  0.00000000000E+00 -0.38320307502E+02  0.25024274359E+04  0.25021340144E+04 0.  0.
        5    1    3    3  502    0 -0.10384615931E+04 -0.61418790485E+03  0.31181264117E+03  0.12461454474E+04  0.46999998093E+01 0.  1.
       -5    1    3    3    0  502  0.10384615931E+04  0.61418790485E+03 -0.35013294867E+03  0.12562819885E+04  0.46999998093E+01 0. -1.
</event>
<event>
 5   0  0.8407986E-06  0.2493172E+04  0.7818609E-02  0.8405422E-01
       -2   -1    0    0    0  501  0.00000000000E+00  0.00000000000E+00  0.15546285150E+04  0.15546285150E+04  0.25500000920E-02 0.  1.
        2   -1    0    0  501    0  0.00000000000E+00  0.00000000000E+00 -0.99958034463E+03  0.99958034463E+03  0.25500000920E-02 0. -1.
    10030    2    1    2    0    0  0.00000000000E+00  0.00000000000E+00  0.55504817040E+03  0.25542088597E+04  0.24931715599E+04 0.  0.
        5    1    3    3  502    0 -0.10892459731E+04 -0.14647280180E+03  0.88017974929E+03  0.14080658907E+04  0.46999998093E+01 0.  1.
       -5    1    3    3    0  502  0.10892459731E+04  0.14647280180E+03 -0.32513157889E+03  0.11461429689E+04  0.46999998093E+01 0. -1.
</event>
<event>
 5   0  0.3481387E-06  0.2356681E+04  0.7818609E-02  0.8455902E-01
       -1   -1    0    0    0  501  0.00000000000E+00  0.00000000000E+00  0.53596846779E+03  0.53596846782E+03  0.50400001928E-02 0.  1.
        1   -1    0    0  501    0  0.00000000000E+00  0.00000000000E+00 -0.25906129419E+04  0.25906129419E+04  0.50400001928E-02 0. -1.
    10030    2    1    2    0    0  0.00000000000E+00  0.00000000000E+00 -0.20546444741E+04  0.31265814097E+04  0.23566814372E+04 0.  0.
        4    1    3    3  502    0 -0.23133293702E+03  0.11382394228E+04 -0.12905999044E+04  0.17363045924E+04  0.12699999809E+01 0.  1.
       -4    1    3    3    0  502  0.23133293702E+03 -0.11382394228E+04 -0.76404456971E+03  0.13902768173E+04  0.12699999809E+01 0. -1.
</event>
<event>
 5   0  0.3481387E-06  0.2527375E+04  0.7818609E-02  0.8393297E-01
        1   -1    0    0  501    0  0.00000000000E+00  0.00000000000E+00  0.15468829958E+04  0.15468829958E+04  0.50400001928E-02 0.  1.
       -1   -1    0    0    0  501  0.00000000000E+00  0.00000000000E+00 -0.10323381208E+04  0.10323381208E+04  0.50400001928E-02 0. -1.
    10030    2    1    2    0    0  0.00000000000E+00  0.00000000000E+00  0.51454487499E+03  0.25792211165E+04  0.25273751482E+04 0.  0.
        4    1    3    3  502    0 -0.91394153798E+03 -0.81961967503E+03  0.56315281879E+03  0.13506325395E+04  0.12699999809E+01 0.  1.
       -4    1    3    3    0  502  0.91394153798E+03  0.81961967503E+03 -0.48607943795E+02  0.12285885770E+04  0.12699999809E+01 0. -1.
</event>
<event>
 5   0  0.3642184E-06  0.2461770E+04  0.7818609E-02  0.8416733E-01
        1   -1    0    0  501    0  0.00000000000E+00  0.00000000000E+00  0.11703376313E+04  0.11703376313E+04  0.50400001928E-02 0. -1.
       -1   -1    0    0    0  501  0.00000000000E+00  0.00000000000E+00 -0.12945642888E+04  0.12945642888E+04  0.50400001928E-02 0.  1.
    10030    2    1    2    0    0  0.00000000000E+00  0.00000000000E+00 -0.12422665749E+03  0.24649019201E+04  0.24617695289E+04 0.  0.
        5    1    3    3  502    0  0.12152711126E+04 -0.52520709835E+02 -0.25053596144E+03  0.12419471245E+04  0.46999998093E+01 0. -1.
       -5    1    3    3    0  502 -0.12152711126E+04  0.52520709835E+02  0.12630930395E+03  0.12229547957E+04  0.46999998093E+01 0.  1.
</event>
<event>
 5   0  0.3481387E-06  0.2481777E+04  0.7818609E-02  0.8409506E-01
        1   -1    0    0  501    0  0.00000000000E+00  0.00000000000E+00  0.13511228565E+04  0.13511228565E+04  0.50400001928E-02 0.  1.
       -1   -1    0    0    0  501  0.00000000000E+00  0.00000000000E+00 -0.11396481199E+04  0.11396481199E+04  0.50400001928E-02 0. -1.
    10030    2    1    2    0    0  0.00000000000E+00  0.00000000000E+00  0.21147473657E+03  0.24907709764E+04  0.24817772850E+04 0.  0.
        4    1    3    3  502    0 -0.57667571796E+03  0.93854188444E+03  0.67911083116E+03  0.12940668014E+04  0.12699999809E+01 0.  1.
       -4    1    3    3    0  502  0.57667571796E+03 -0.93854188444E+03 -0.46763609458E+03  0.11967041750E+04  0.12699999809E+01 0. -1.
</event>
<event>
 5   0  0.3481387E-06  0.2570257E+04  0.7818609E-02  0.8378375E-01
       -1   -1    0    0    0  501  0.00000000000E+00  0.00000000000E+00  0.19295886657E+04  0.19295886657E+04  0.50400001928E-02 0.  1.
        1   -1    0    0  501    0  0.00000000000E+00  0.00000000000E+00 -0.85591053889E+03  0.85591053890E+03  0.50400001928E-02 0. -1.
    10030    2    1    2    0    0  0.00000000000E+00  0.00000000000E+00  0.10736781268E+04  0.27854992046E+04  0.25702570103E+04 0.  0.
        4    1    3    3  502    0 -0.42992817952E+03  0.99703871745E+03  0.12818913805E+04  0.16799320129E+04  0.12699999809E+01 0.  1.
       -4    1    3    3    0  502  0.42992817952E+03 -0.99703871745E+03 -0.20821325362E+03  0.11055671918E+04  0.12699999809E+01 0. -1.
</event>
<event>
 5   0  0.3481387E-06  0.2493158E+04  0.7818609E-02  0.8405427E-01
        1   -1    0    0  501    0  0.00000000000E+00  0.00000000000E+00  0.18755129197E+04  0.18755129197E+04  0.50400001928E-02 0.  1.
       -1   -1    0    0    0  501  0.00000000000E+00  0.00000000000E+00 -0.82855187666E+03  0.82855187667E+03  0.50400001928E-02 0. -1.
    10030    2    1    2    0    0  0.00000000000E+00  0.00000000000E+00  0.10469610431E+04  0.27040647964E+04  0.24931584381E+04 0.  0.
        4    1    3    3  502    0 -0.30259112304E+03 -0.96657365795E+03  0.13116842835E+04  0.16572094908E+04  0.12699999809E+01 0.  1.
       -4    1    3    3    0  502  0.30259112304E+03  0.96657365795E+03 -0.26472324040E+03  0.10468553056E+04  0.12699999809E+01 0. -1.
</event>
<event>
 5   0  0.3424193E-06  0.2441915E+04  0.7818609E-02  0.8423976E-01
        1   -1    0    0  501    0  0.00000000000E+00  0.00000000000E+00  0.14374601281E+04  0.14374601281E+04  0.50400001928E-02 0. -1.
       -1   -1    0    0    0  501  0.00000000000E+00  0.00000000000E+00 -0.10370635834E+04  0.10370635834E+04  0.50400001928E-02 0.  1.
    10030    2    1    2    0    0  0.00000000000E+00  0.00000000000E+00  0.40039654470E+03  0.24745237115E+04  0.24419152740E+04 0.  0.
        1    1    3    3  502    0 -0.63716026005E+03 -0.63744443197E+03 -0.63446867226E+03  0.11022064675E+04  0.50400001928E-02 0.  1.
       -1    1    3    3    0  502  0.63716026005E+03  0.63744443197E+03  0.10348652170E+04  0.13723172440E+04  0.50400001928E-02 0. -1.
</event>
<event>
 5   0  0.8056723E-06  0.2501899E+04  0.7818609E-02  0.8402309E-01
        2   -1    0    0  501    0  0.00000000000E+00  0.00000000000E+00  0.19176084485E+04  0.19176084485E+04  0.25500000920E-02 0. -1.
       -2   -1    0    0    0  501  0.00000000000E+00  0.00000000000E+00 -0.81605559750E+03  0.81605559751E+03  0.25500000920E-02 0.  1.
    10030    2    1    2    0    0  0.00000000000E+00  0.00000000000E+00  0.11015528510E+04  0.27336640460E+04  0.25018993650E+04 0.  0.
        2    1    3    3  502    0 -0.10157029457E+04 -0.72999944319E+03  0.53112577307E+03  0.13589136278E+04  0.25500000920E-02 0.  1.
       -2    1    3    3    0  502  0.10157029457E+04  0.72999944319E+03  0.57042707791E+03  0.13747504182E+04  0.25500000920E-02 0. -1.
</event>
<event>
 5   0  0.3424193E-06  0.2487963E+04  0.7818609E-02  0.8407286E-01
        1   -1    0    0  501    0  0.00000000000E+00  0.00000000000E+00  0.18265343161E+04  0.18265343161E+04  0.50400001928E-02 0. -1.
       -1   -1    0    0    0  501  0.00000000000E+00  0.00000000000E+00 -0.84722771109E+03  0.84722771111E+03  0.50400001928E-02 0.  1.
    10030    2    1    2    0    0  0.00000000000E+00  0.00000000000E+00  0.97930660498E+03  0.26737620272E+04  0.24879634144E+04 0.  0.
        1    1    3    3  502    0 -0.11567918839E+04 -0.40499480615E+03  0.71839143052E+03  0.14206598830E+04  0.50400001928E-02 0.  1.
       -1    1    3    3    0  502  0.11567918839E+04  0.40499480615E+03  0.26091517447E+03  0.12531021442E+04  0.50400001928E-02 0. -1.
</event>
<event>
 5   0  0.3481387E-06  0.2510161E+04  0.7818609E-02  0.8399374E-01
        1   -1    0    0  501    0  0.00000000000E+00  0.00000000000E+00  0.13861439347E+04  0.13861439347E+04  0.50400001928E-02 0. -1.
       -1   -1    0    0    0  501  0.00000000000E+00  0.00000000000E+00 -0.11364096487E+04  0.11364096487E+04  0.50400001928E-02 0.  1.
    10030    2    1    2    0    0  0.00000000000E+00  0.00000000000E+00  0.24973428601E+03  0.25225535834E+04  0.25101612234E+04 0.  0.
        4    1    3    3  502    0  0.46350339739E+03  0.20357591371E+03 -0.10292568912E+04  0.11470178346E+04  0.12699999809E+01 0.  1.
       -4    1    3    3    0  502 -0.46350339739E+03 -0.20357591371E+03  0.12789911772E+04  0.13755357488E+04  0.12699999809E+01 0. -1.
</event>
<event>
 5   0  0.8407986E-06  0.2493539E+04  0.7818609E-02  0.8405291E-01
       -2   -1    0    0    0  501  0.00000000000E+00  0.00000000000E+00  0.10133948180E+04  0.10133948180E+04  0.25500000920E-02 0. -1.
        2   -1    0    0  501    0  0.00000000000E+00  0.00000000000E+00 -0.15338883458E+04  0.15338883458E+04  0.25500000920E-02 0.  1.
    10030    2    1    2    0    0  0.00000000000E+00  0.00000000000E+00 -0.52049352785E+03  0.25472831638E+04  0.24935392526E+04 0.  0.
        5    1    3    3  502    0  0.56603217864E+03  0.84776474258E+03 -0.99357325938E+03  0.14234842457E+04  0.46999998093E+01 0.  1.
       -5    1    3    3    0  502 -0.56603217864E+03 -0.84776474258E+03  0.47307973153E+03  0.11237989181E+04  0.46999998093E+01 0. -1.
</event>
<event>
 5   0  0.8407986E-06  0.2507087E+04  0.7818609E-02  0.8400465E-01
       -2   -1    0    0    0  501  0.00000000000E+00  0.00000000000E+00  0.90342602824E+03  0.90342602824E+03  0.25500000920E-02 0.  1.
        2   -1    0    0  501    0  0.00000000000E+00  0.00000000000E+00 -0.17393467077E+04  0.17393467077E+04  0.25500000920E-02 0. -1.
    10030    2    1    2    0    0  0.00000000000E+00  0.00000000000E+00 -0.83592067950E+03  0.26427727360E+04  0.25070868257E+04 0.  0.
        5    1    3    3  502    0  0.11026510916E+04  0.37564038812E+03 -0.90605802708E+03  0.14757738206E+04  0.46999998093E+01 0.  1.
       -5    1    3    3    0  502 -0.11026510916E+04 -0.37564038812E+03  0.70137347578E+02  0.11669989154E+04  0.46999998093E+01 0. -1.
</event>
<event>
 5   0  0.3484857E-06  0.2515959E+04  0.7818609E-02  0.8397322E-01
       -1   -1    0    0    0  501  0.00000000000E+00  0.00000000000E+00  0.10212054207E+04  0.10212054207E+04  0.50400001928E-02 0.  1.
        1   -1    0    0  501    0  0.00000000000E+00  0.00000000000E+00 -0.15496519673E+04  0.15496519673E+04  0.50400001928E-02 0. -1.
    10030    2    1    2    0    0  0.00000000000E+00  0.00000000000E+00 -0.52844654663E+03  0.25708573880E+04  0.25159594506E+04 0.  0.
        3    1    3    3  502    0 -0.59280594224E+03 -0.10139130350E+04  0.19624741800E+03  0.11907777236E+04  0.10100000352E+00 0.  1.
       -3    1    3    3    0  502  0.59280594224E+03  0.10139130350E+04 -0.72469396463E+03  0.13800796645E+04  0.10100000352E+00 0. -1.
</event>
<event>
 5   0  0.3481387E-06  0.2494773E+04  0.7818609E-02  0.8404850E-01
       -1   -1    0    0    0  501  0.00000000000E+00  0.00000000000E+00  0.20607032391E+04  0.20607032391E+04  0.50400001928E-02 0.  1.
        1   -1    0    0  501    0  0.00000000000E+00  0.00000000000E+00 -0.75506906733E+03  0.75506906735E+03  0.50400001928E-02 0. -1.
    10030    2    1    2    0    0  0.00000000000E+00  0.00000000000E+00  0.13056341718E+04  0.28157723065E+04  0.24947731543E+04 0.  0.
        4    1    3    3  502    0  0.67159591847E+03  0.55674278765E+03  0.16591491456E+04  0.18745082314E+04  0.12699999809E+01 0.  1.
       -4    1    3    3    0  502 -0.67159591847E+03 -0.55674278765E+03 -0.35351497387E+03  0.94126407504E+03  0.12699999809E+01 0. -1.
</event>
<event>
 5   0  0.3481387E-06  0.2508505E+04  0.7818609E-02  0.8399962E-01
       -1   -1    0    0    0  501  0.00000000000E+00  0.00000000000E+00  0.98608785145E+03  0.98608785146E+03  0.50400001928E-02 0. -1.
        1   -1    0    0  501    0  0.00000000000E+00  0.00000000000E+00 -0.15953444814E+04  0.15953444814E+04  0.50400001928E-02 0.  1.
    10030    2    1    2    0    0  0.00000000000E+00  0.00000000000E+00 -0.60925662999E+03  0.25814323329E+04  0.25085053813E+04 0.  0.
        4    1    3    3  502    0 -0.13878812050E+03 -0.12320815620E+04 -0.10975274497E+03  0.12447226180E+04  0.12699999809E+01 0.  1.
       -4    1    3    3    0  502  0.13878812050E+03  0.12320815620E+04 -0.49950388502E+03  0.13367097149E+04  0.12699999809E+01 0. -1.
</event>
<event>
 5   0  0.8948286E-06  0.2499727E+04  0.7818609E-02  0.8403083E-01
        2   -1    0    0  501    0  0.00000000000E+00  0.00000000000E+00  0.15921271670E+04  0.15921271670E+04  0.25500000920E-02 0. -1.
       -2   -1    0    0    0  501  0.00000000000E+00  0.00000000000E+00 -0.98117685595E+03  0.98117685595E+03  0.25500000920E-02 0.  1.
    10030    2    1    2    0    0  0.00000000000E+00  0.00000000000E+00  0.61095031110E+03  0.25733040230E+04  0.24997266475E+04 0.  0.
        4    1    3    3  502    0 -0.88163661708E+03  0.74844114596E+03 -0.18251295326E+03  0.11707945441E+04  0.12699999809E+01 0.  1.
       -4    1    3    3    0  502  0.88163661708E+03 -0.74844114596E+03  0.79346326436E+03  0.14025094789E+04  0.12699999809E+01 0. -1.
</event>
<event>
 5   0  0.2901250E-06  0.2521908E+04  0.7818609E-02  0.8395222E-01
        3   -1    0    0  501    0  0.00000000000E+00  0.00000000000E+00  0.20364411781E+04  0.20364411806E+04  0.10100000352E+00 0.  1.
       -3   -1    0    0    0  501  0.00000000000E+00  0.00000000000E+00 -0.78077646394E+03  0.78077647048E+03  0.10100000352E+00 0. -1.
    10030    2    1    2    0    0  0.00000000000E+00  0.00000000000E+00  0.12556647141E+04  0.28172176511E+04  0.25219082892E+04 0.  0.
        3    1    3    3  502    0  0.96995979266E+03  0.32116769303E+03 -0.19763749458E+03  0.10406878859E+04  0.10100000352E+00 0. -1.
       -3    1    3    3    0  502 -0.96995979266E+03 -0.32116769303E+03  0.14533022087E+04  0.17765297652E+04  0.10100000352E+00 0.  1.
</event>
<event>
 5   0  0.3484857E-06  0.2560355E+04  0.7818609E-02  0.8381794E-01
        1   -1    0    0  501    0  0.00000000000E+00  0.00000000000E+00  0.19390703698E+04  0.19390703698E+04  0.50400001928E-02 0.  1.
       -1   -1    0    0    0  501  0.00000000000E+00  0.00000000000E+00 -0.84517551229E+03  0.84517551231E+03  0.50400001928E-02 0. -1.
    10030    2    1    2    0    0  0.00000000000E+00  0.00000000000E+00  0.10938948575E+04  0.27842458821E+04  0.25603552825E+04 0.  0.
        3    1    3    3  502    0 -0.81448491177E+03 -0.30660882244E+03  0.15679073457E+04  0.17932451300E+04  0.10100000352E+00 0.  1.
       -3    1    3    3    0  502  0.81448491177E+03  0.30660882244E+03 -0.47401248818E+03  0.99100075209E+03  0.10100000352E+00 0. -1.
</event>
<event>
 5   0  0.8056723E-06  0.2491489E+04  0.7818609E-02  0.8406024E-01
        2   -1    0    0  501    0  0.00000000000E+00  0.00000000000E+00  0.11065137259E+04  0.11065137259E+04  0.25500000920E-02 0.  1.
       -2   -1    0    0    0  501  0.00000000000E+00  0.00000000000E+00 -0.14024939879E+04  0.14024939879E+04  0.25500000920E-02 0. -1.
    10030    2    1    2    0    0  0.00000000000E+00  0.00000000000E+00 -0.29598026200E+03  0.25090077137E+04  0.24914885896E+04 0.  0.
        2    1    3    3  502    0  0.51322566491E+01  0.11622693442E+04  0.30347290078E+03  0.12012460906E+04  0.25500000920E-02 0.  1.
       -2    1    3    3    0  502 -0.51322566491E+01 -0.11622693442E+04 -0.59945316278E+03  0.13077616232E+04  0.25500000920E-02 0. -1.
</event>
<event>
 5   0  0.8407986E-06  0.2501597E+04  0.7818609E-02  0.8402417E-01
        2   -1    0    0  501    0  0.00000000000E+00  0.00000000000E+00  0.14975648461E+04  0.14975648461E+04  0.25500000920E-02 0. -1.
       -2   -1    0    0    0  501  0.00000000000E+00  0.00000000000E+00 -0.10446936602E+04  0.10446936602E+04  0.25500000920E-02 0.  1.
    10030    2    1    2    0    0  0.00000000000E+00  0.00000000000E+00  0.45287118595E+03  0.25422585063E+04  0.25015966904E+04 0.  0.
        5    1    3    3  502    0 -0.11747704052E+04  0.39583831397E+03  0.57294307313E+02  0.12409988732E+04  0.46999998093E+01 0. -1.
       -5    1    3    3    0  502  0.11747704052E+04 -0.39583831397E+03  0.39557687864E+03  0.13012596330E+04  0.46999998093E+01 0.  1.
</event>
<event>
 5   0  0.8354653E-06  0.2504914E+04  0.7818609E-02  0.8401237E-01
       -2   -1    0    0    0  501  0.00000000000E+00  0.00000000000E+00  0.10898752945E+04  0.10898752945E+04  0.25500000920E-02 0. -1.
        2   -1    0    0  501    0  0.00000000000E+00  0.00000000000E+00 -0.14392917911E+04  0.14392917911E+04  0.25500000920E-02 0.  1.
    10030    2    1    2    0    0  0.00000000000E+00  0.00000000000E+00 -0.34941649654E+03  0.25291670856E+04  0.25049140222E+04 0.  0.
        3    1    3    3  502    0 -0.20517659481E+03 -0.51465551797E+03  0.95941289608E+03  0.11078992971E+04  0.10100000352E+00 0. -1.
       -3    1    3    3    0  502  0.20517659481E+03  0.51465551797E+03 -0.13088293926E+04  0.14212677884E+04  0.10100000352E+00 0.  1.
</event>
<event>
 5   0  0.3522870E-06  0.2499299E+04  0.7818609E-02  0.8403235E-01
        1   -1    0    0  501    0  0.00000000000E+00  0.00000000000E+00  0.72925828371E+03  0.72925828373E+03  0.50400001928E-02 0. -1.
       -1   -1    0    0    0  501  0.00000000000E+00  0.00000000000E+00 -0.21413863194E+04  0.21413863194E+04  0.50400001928E-02 0.  1.
    10030    2    1    2    0    0  0.00000000000E+00  0.00000000000E+00 -0.14121280357E+04  0.28706446031E+04  0.24992988713E+04 0.  0.
        2    1    3    3  502    0 -0.61982590310E+03  0.88494280238E+03 -0.14273098628E+04  0.17901176939E+04  0.25500000920E-02 0.  1.
       -2    1    3    3    0  502  0.61982590310E+03 -0.88494280238E+03  0.15181827112E+02  0.10805269092E+04  0.25500000920E-02 0. -1.
</event>
<event>
 5   0  0.8354653E-06  0.2501476E+04  0.7818609E-02  0.8402460E-01
        2   -1    0    0  501    0  0.00000000000E+00  0.00000000000E+00  0.20357552852E+04  0.20357552852E+04  0.25500000920E-02 0.  1.
       -2   -1    0    0    0  501  0.00000000000E+00  0.00000000000E+00 -0.76843483117E+03  0.76843483117E+03  0.25500000920E-02 0. -1.
    10030    2    1    2    0    0  0.00000000000E+00  0.00000000000E+00  0.12673204540E+04  0.28041901164E+04  0.25014757795E+04 0.  0.
        3    1    3    3  502    0  0.11617775564E+03  0.53032377961E+03 -0.62946209122E+03  0.83124191221E+03  0.10100000352E+00 0. -1.
       -3    1    3    3    0  502 -0.11617775564E+03 -0.53032377961E+03  0.18967825452E+04  0.19729482041E+04  0.10100000352E+00 0.  1.
</event>
<event>
 5   0  0.3642184E-06  0.2510796E+04  0.7818609E-02  0.8399150E-01
       -1   -1    0    0    0  501  0.00000000000E+00  0.00000000000E+00  0.96457165712E+03  0.96457165714E+03  0.50400001928E-02 0. -1.
        1   -1    0    0  501    0  0.00000000000E+00  0.00000000000E+00 -0.16339104471E+04  0.16339104471E+04  0.50400001928E-02 0.  1.
    10030    2    1    2    0    0  0.00000000000E+00  0.00000000000E+00 -0.66933878997E+03  0.25984821042E+04  0.25107956568E+04 0.  0.
        5    1    3    3  502    0  0.74722614335E+03 -0.87131922146E+03 -0.86081136917E+03  0.14347691097E+04  0.46999998093E+01 0.  1.
       -5    1    3    3    0  502 -0.74722614335E+03  0.87131922146E+03  0.19147257920E+03  0.11637129945E+04  0.46999998093E+01 0. -1.
</event>
<event>
 5   0  0.3484857E-06  0.2334446E+04  0.7818609E-02  0.8464462E-01
       -1   -1    0    0    0  501  0.00000000000E+00  0.00000000000E+00  0.77653792515E+03  0.77653792516E+03  0.50400001928E-02 0. -1.
        1   -1    0    0  501    0  0.00000000000E+00  0.00000000000E+00 -0.17544660841E+04  0.17544660841E+04  0.50400001928E-02 0.  1.
    10030    2    1    2    0    0  0.00000000000E+00  0.00000000000E+00 -0.97792815899E+03  0.25310040093E+04  0.23344459323E+04 0.  0.
        3    1    3    3  502    0  0.41139131363E+03  0.35561636839E+03 -0.16087394204E+04  0.16981602832E+04  0.10100000352E+00 0.  1.
       -3    1    3    3    0  502 -0.41139131363E+03 -0.35561636839E+03  0.63081126143E+03  0.83284372612E+03  0.10100000352E+00 0. -1.
</event>
<event>
 5   0  0.3481387E-06  0.2493816E+04  0.7818609E-02  0.8405192E-01
        1   -1    0    0  501    0  0.00000000000E+00  0.00000000000E+00  0.16164686767E+04  0.16164686767E+04  0.50400001928E-02 0.  1.
       -1   -1    0    0    0  501  0.00000000000E+00  0.00000000000E+00 -0.96183737800E+03  0.96183737801E+03  0.50400001928E-02 0. -1.
    10030    2    1    2    0    0  0.00000000000E+00  0.00000000000E+00  0.65463129870E+03  0.25783060547E+04  0.24938163474E+04 0.  0.
        4    1    3    3  502    0 -0.75052522924E+03 -0.74688743821E+03  0.10081467460E+04  0.14620158821E+04  0.12699999809E+01 0.  1.
       -4    1    3    3    0  502  0.75052522924E+03  0.74688743821E+03 -0.35351544733E+03  0.11162901726E+04  0.12699999809E+01 0. -1.
</event>
<event>
 5   0  0.8948286E-06  0.2503436E+04  0.7818609E-02  0.8401763E-01
        2   -1    0    0  501    0  0.00000000000E+00  0.00000000000E+00  0.98528866978E+03  0.98528866978E+03  0.25500000920E-02 0.  1.
       -2   -1    0    0    0  501  0.00000000000E+00  0.00000000000E+00 -0.15901914358E+04  0.15901914358E+04  0.25500000920E-02 0. -1.
    10030    2    1    2    0    0  0.00000000000E+00  0.00000000000E+00 -0.60490276606E+03  0.25754801056E+04  0.25034357228E+04 0.  0.
        4    1    3    3  502    0 -0.11303900101E+04  0.23706630634E+03  0.19394234422E+03  0.11711521056E+04  0.12699999809E+01 0.  1.
       -4    1    3    3    0  502  0.11303900101E+04 -0.23706630634E+03 -0.79884511028E+03  0.14043280001E+04  0.12699999809E+01 0. -1.
</event>
<event>
 5   0  0.3481387E-06  0.2501477E+04  0.7818609E-02  0.8402460E-01
        1   -1    0    0  501    0  0.00000000000E+00  0.00000000000E+00  0.98640748039E+03  0.98640748040E+03  0.50400001928E-02 0. -1.
       -1   -1    0    0    0  501  0.00000000000E+00  0.00000000000E+00 -0.15859032859E+04  0.15859032860E+04  0.50400001928E-02 0.  1.
    10030    2    1    2    0    0  0.00000000000E+00  0.00000000000E+00 -0.59949580555E+03  0.25723107664E+04  0.25014770552E+04 0.  0.
        4    1    3    3  502    0  0.11066834207E+03 -0.79216388189E+03  0.68902780047E+03  0.10557139861E+04  0.12699999809E+01 0. -1.
       -4    1    3    3    0  502 -0.11066834207E+03  0.79216388189E+03 -0.12885236060E+04  0.15165967803E+04  0.12699999809E+01 0.  1.
</event>
<event>
 5   0  0.8407986E-06  0.2498160E+04  0.7818609E-02  0.8403641E-01
       -2   -1    0    0    0  501  0.00000000000E+00  0.00000000000E+00  0.83206297246E+03  0.83206297246E+03  0.25500000920E-02 0. -1.
        2   -1    0    0  501    0  0.00000000000E+00  0.00000000000E+00 -0.18750994192E+04  0.18750994192E+04  0.25500000920E-02 0.  1.
    10030    2    1    2    0    0  0.00000000000E+00  0.00000000000E+00 -0.10430364467E+04  0.27071623916E+04  0.24981599599E+04 0.  0.
        5    1    3    3  502    0 -0.74023177125E+03  0.98210152727E+03 -0.75822401439E+03  0.14447810322E+04  0.46999998093E+01 0.  1.
       -5    1    3    3    0  502  0.74023177125E+03 -0.98210152727E+03 -0.28481243232E+03  0.12623813594E+04  0.46999998093E+01 0. -1.
</event>
<event>
 5   0  0.3484857E-06  0.2486263E+04  0.7818609E-02  0.8407896E-01
       -1   -1    0    0    0  501  0.00000000000E+00  0.00000000000E+00  0.15031628245E+04  0.15031628245E+04  0.50400001928E-02 0. -1.
        1   -1    0    0  501    0  0.00000000000E+00  0.00000000000E+00 -0.10280832672E+04  0.10280832672E+04  0.50400001928E-02 0.  1.
    10030    2    1    2    0    0  0.00000000000E+00  0.00000000000E+00  0.47507955725E+03  0.25312460917E+04  0.24862634999E+04 0.  0.
        3    1    3    3  502    0 -0.93021941208E+03  0.45854453835E+03 -0.46028464686E+03  0.11346511422E+04  0.10100000352E+00 0.  1.
       -3    1    3    3    0  502  0.93021941208E+03 -0.45854453835E+03  0.93536420411E+03  0.13965949494E+04  0.10100000352E+00 0. -1.
</event>
<event>
 5   0  0.8056723E-06  0.2505533E+04  0.7818609E-02  0.8401017E-01
        2   -1    0    0  501    0  0.00000000000E+00  0.00000000000E+00  0.11517249901E+04  0.11517249901E+04  0.25500000920E-02 0.  1.
       -2   -1    0    0    0  501  0.00000000000E+00  0.00000000000E+00 -0.13626722410E+04  0.13626722410E+04  0.25500000920E-02 0. -1.
    10030    2    1    2    0    0  0.00000000000E+00  0.00000000000E+00 -0.21094725096E+03  0.25143972311E+04  0.25055328162E+04 0.  0.
        2    1    3    3  502    0  0.14175360424E+02  0.64828221450E+03  0.97021086730E+03  0.11669532542E+04  0.25500000920E-02 0.  1.
       -2    1    3    3    0  502 -0.14175360424E+02 -0.64828221450E+03 -0.11811581183E+04  0.13474439769E+04  0.25500000920E-02 0. -1.
</event>
<event>
 5   0  0.8948286E-06  0.2503345E+04  0.7818609E-02  0.8401795E-01
       -2   -1    0    0    0  501  0.00000000000E+00  0.00000000000E+00  0.94337918363E+03  0.94337918363E+03  0.25500000920E-02 0. -1.
        2   -1    0    0  501    0  0.00000000000E+00  0.00000000000E+00 -0.16607145275E+04  0.16607145275E+04  0.25500000920E-02 0.  1.
    10030    2    1    2    0    0  0.00000000000E+00  0.00000000000E+00 -0.71733534382E+03  0.26040937111E+04  0.25033445749E+04 0.  0.
        4    1    3    3  502    0 -0.11548436179E+04 -0.34705627959E+03 -0.70768534900E+03  0.13981888317E+04  0.12699999809E+01 0.  1.
       -4    1    3    3    0  502  0.11548436179E+04  0.34705627959E+03 -0.96499948272E+01  0.12059048794E+04  0.12699999809E+01 0. -1.
</event>
<event>
 5   0  0.8056723E-06  0.2502169E+04  0.7818609E-02  0.8402213E-01
        2   -1    0    0  501    0  0.00000000000E+00  0.00000000000E+00  0.17752408874E+04  0.17752408874E+04  0.25500000920E-02 0.  1.
       -2   -1    0    0    0  501  0.00000000000E+00  0.00000000000E+00 -0.88168991284E+03  0.88168991284E+03  0.25500000920E-02 0. -1.
    10030    2    1    2    0    0  0.00000000000E+00  0.00000000000E+00  0.89355097457E+03  0.26569308002E+04  0.25021686460E+04 0.  0.
        2    1    3    3  502    0 -0.86662321746E+03 -0.31739221465E+03  0.13436710910E+04  0.16300998803E+04  0.25500000920E-02 0.  1.
       -2    1    3    3    0  502  0.86662321746E+03  0.31739221465E+03 -0.45012011642E+03  0.10268309200E+04  0.25500000920E-02 0. -1.
</event>
<event>
 5   0  0.3481387E-06  0.2497908E+04  0.7818609E-02  0.8403731E-01
       -1   -1    0    0    0  501  0.00000000000E+00  0.00000000000E+00  0.12872754094E+04  0.12872754094E+04  0.50400001928E-02 0. -1.
        1   -1    0    0  501    0  0.00000000000E+00  0.00000000000E+00 -0.12117732159E+04  0.12117732159E+04  0.50400001928E-02 0.  1.
    10030    2    1    2    0    0  0.00000000000E+00  0.00000000000E+00  0.75502193542E+02  0.24990486254E+04  0.24979078147E+04 0.  0.
        4    1    3    3  502    0 -0.10058915506E+04  0.39945120891E+03  0.66133759169E+03  0.12683643415E+04  0.12699999809E+01 0. -1.
       -4    1    3    3    0  502  0.10058915506E+04 -0.39945120891E+03 -0.58583539815E+03  0.12306842838E+04  0.12699999809E+01 0.  1.
</event>
<event>
 5   0  0.8407986E-06  0.2503197E+04  0.7818609E-02  0.8401848E-01
       -2   -1    0    0    0  501  0.00000000000E+00  0.00000000000E+00  0.86857016818E+03  0.86857016818E+03  0.25500000920E-02 0.  1.
        2   -1    0    0  501    0  0.00000000000E+00  0.00000000000E+00 -0.18035372801E+04  0.18035372801E+04  0.25500000920E-02 0. -1.
    10030    2    1    2    0    0  0.00000000000E+00  0.00000000000E+00 -0.93496711188E+03  0.26721074482E+04  0.25031968989E+04 0.  0.
        5    1    3    3  502    0 -0.46325935572E+03 -0.35796059010E+03  0.71338616882E+03  0.92286885882E+03  0.46999998093E+01 0.  1.
       -5    1    3    3    0  502  0.46325935572E+03  0.35796059010E+03 -0.16483532807E+04  0.17492385894E+04  0.46999998093E+01 0. -1.
</event>
<event>
 5   0  0.3522870E-06  0.2502387E+04  0.7818609E-02  0.8402136E-01
        1   -1    0    0  501    0  0.00000000000E+00  0.00000000000E+00  0.14068958181E+04  0.14068958181E+04  0.50400001928E-02 0. -1.
       -1   -1    0    0    0  501  0.00000000000E+00  0.00000000000E+00 -0.11127224939E+04  0.11127224939E+04  0.50400001928E-02 0.  1.
    10030    2    1    2    0    0  0.00000000000E+00  0.00000000000E+00  0.29417332423E+03  0.25196183120E+04  0.25023865596E+04 0.  0.
        2    1    3    3  502    0 -0.12143685711E+03 -0.12259226865E+04 -0.73169027578E+02  0.12340936149E+04  0.25500000920E-02 0.  1.
       -2    1    3    3    0  502  0.12143685711E+03  0.12259226865E+04  0.36734235181E+03  0.12855246972E+04  0.25500000920E-02 0. -1.
</event>
<event>
 5   0  0.3424193E-06  0.2503170E+04  0.7818609E-02  0.8401857E-01
        1   -1    0    0  501    0  0.00000000000E+00  0.00000000000E+00  0.12334211560E+04  0.12334211560E+04  0.50400001928E-02 0.  1.
       -1   -1    0    0    0  501  0.00000000000E+00  0.00000000000E+00 -0.12700160634E+04  0.12700160634E+04  0.50400001928E-02 0. -1.
    10030    2    1    2    0    0  0.00000000000E+00  0.00000000000E+00 -0.36594907391E+02  0.25034372194E+04  0.25031697354E+04 0.  0.
        1    1    3    3  502    0 -0.88350443017E+03 -0.32525504713E+03  0.80646864166E+03  0.12396622902E+04  0.50400001928E-02 0.  1.
       -1    1    3    3    0  502  0.88350443017E+03  0.32525504713E+03 -0.84306354905E+03  0.12637749292E+04  0.50400001928E-02 0. -1.
</event>
<event>
 5   0  0.3642184E-06  0.2479511E+04  0.7818609E-02  0.8410322E-01
       -1   -1    0    0    0  501  0.00000000000E+00  0.00000000000E+00  0.72746510295E+03  0.72746510296E+03  0.50400001928E-02 0. -1.
        1   -1    0    0  501    0  0.00000000000E+00  0.00000000000E+00 -0.21128066560E+04  0.21128066560E+04  0.50400001928E-02 0.  1.
    10030    2    1    2    0    0  0.00000000000E+00  0.00000000000E+00 -0.13853415531E+04  0.28402717590E+04  0.24795105255E+04 0.  0.
        5    1    3    3  502    0 -0.16073361769E+03  0.12289562580E+04 -0.72511568202E+03  0.14359608708E+04  0.46999998093E+01 0. -1.
       -5    1    3    3    0  502  0.16073361769E+03 -0.12289562580E+04 -0.66022587107E+03  0.14043108882E+04  0.46999998093E+01 0.  1.
</event>
<event>
 5   0  0.3481387E-06  0.2492715E+04  0.7818609E-02  0.8405586E-01
       -1   -1    0    0    0  501  0.00000000000E+00  0.00000000000E+00  0.83630995098E+03  0.83630995100E+03  0.50400001928E-02 0.  1.
        1   -1    0    0  501    0  0.00000000000E+00  0.00000000000E+00 -0.18574529609E+04  0.18574529609E+04  0.50400001928E-02 0. -1.
    10030    2    1    2    0    0  0.00000000000E+00  0.00000000000E+00 -0.10211430099E+04  0.26937629119E+04  0.24927145001E+04 0.  0.
        4    1    3    3  502    0  0.74604283385E+03 -0.18097893240E+03  0.55049217984E+03  0.94465683551E+03  0.12699999809E+01 0.  1.
       -4    1    3    3    0  502 -0.74604283385E+03  0.18097893240E+03 -0.15716351897E+04  0.17491060764E+04  0.12699999809E+01 0. -1.
</event>
<event>
 5   0  0.8579923E-06  0.2499297E+04  0.7818609E-02  0.8403236E-01
       -2   -1    0    0    0  501  0.00000000000E+00  0.00000000000E+00  0.73815785948E+03  0.73815785948E+03  0.25500000920E-02 0. -1.
        2   -1    0    0  501    0  0.00000000000E+00  0.00000000000E+00 -0.21155660390E+04  0.21155660390E+04  0.25500000920E-02 0.  1.
    10030    2    1    2    0    0  0.00000000000E+00  0.00000000000E+00 -0.13774081795E+04  0.28537238985E+04  0.24992972604E+04 0.  0.
        1    1    3    3  502    0  0.80956101760E+03  0.30753540674E+03  0.33997443806E+03  0.93034922807E+03  0.50400001928E-02 0. -1.
       -1    1    3    3    0  502 -0.80956101760E+03 -0.30753540674E+03 -0.17173826176E+04  0.19233746704E+04  0.50400001928E-02 0.  1.
</event>
<event>
 5   0  0.3424193E-06  0.2500042E+04  0.7818609E-02  0.8402970E-01
        1   -1    0    0  501    0  0.00000000000E+00  0.00000000000E+00  0.12753367251E+04  0.12753367251E+04  0.50400001928E-02 0. -1.
       -1   -1    0    0    0  501  0.00000000000E+00  0.00000000000E+00 -0.12252080189E+04  0.12252080189E+04  0.50400001928E-02 0.  1.
    10030    2    1    2    0    0  0.00000000000E+00  0.00000000000E+00  0.50128706197E+02  0.25005447441E+04  0.25000422257E+04 0.  0.
        1    1    3    3  502    0  0.19081874977E+03  0.35569650833E+03 -0.11582292269E+04  0.12265507504E+04  0.50400001928E-02 0.  1.
       -1    1    3    3    0  502 -0.19081874977E+03 -0.35569650833E+03  0.12083579331E+04  0.12739939936E+04  0.50400001928E-02 0. -1.
</event>
<event>
 5   0  0.8354653E-06  0.2504169E+04  0.7818609E-02  0.8401502E-01
        2   -1    0    0  501    0  0.00000000000E+00  0.00000000000E+00  0.78261354632E+03  0.78261354633E+03  0.25500000920E-02 0.  1.
       -2   -1    0    0    0  501  0.00000000000E+00  0.00000000000E+00 -0.20031793140E+04  0.20031793140E+04  0.25500000920E-02 0. -1.
    10030    2    1    2    0    0  0.00000000000E+00  0.00000000000E+00 -0.12205657677E+04  0.27857928603E+04  0.25041687378E+04 0.  0.
        3    1    3    3  502    0 -0.64427696011E+02  0.62705948498E+02 -0.19995838602E+04  0.20016040038E+04  0.10100000352E+00 0. -1.
       -3    1    3    3    0  502  0.64427696011E+02 -0.62705948498E+02  0.77901809252E+03  0.78418885650E+03  0.10100000352E+00 0.  1.
</event>
<event>
 5   0  0.8579923E-06  0.2514845E+04  0.7818609E-02  0.8397716E-01
       -2   -1    0    0    0  501  0.00000000000E+00  0.00000000000E+00  0.13164037309E+04  0.13164037309E+04  0.25500000920E-02 0.  1.
        2   -1    0    0  501    0  0.00000000000E+00  0.00000000000E+00 -0.12010834520E+04  0.12010834520E+04  0.25500000920E-02 0. -1.
    10030    2    1    2    0    0  0.00000000000E+00  0.00000000000E+00  0.11532027887E+03  0.25174871828E+04  0.25148445179E+04 0.  0.
        1    1    3    3  502    0  0.52762443966E+03  0.10980091567E+04 -0.25427455786E+03  0.12444545827E+04  0.50400001928E-02 0. -1.
       -1    1    3    3    0  502 -0.52762443966E+03 -0.10980091567E+04  0.36959483673E+03  0.12730326001E+04  0.50400001928E-02 0.  1.
</event>
<event>
 5   0  0.8579923E-06  0.2506938E+04  0.7818609E-02  0.8400518E-01
        2   -1    0    0  501    0  0.00000000000E+00  0.00000000000E+00  0.18908495874E+04  0.18908495874E+04  0.25500000920E-02 0. -1.
       -2   -1    0    0    0  501  0.00000000000E+00  0.00000000000E+00 -0.83094110220E+03  0.83094110221E+03  0.25500000920E-02 0.  1.
    10030    2    1    2    0    0  0.00000000000E+00  0.00000000000E+00  0.10599084852E+04  0.27217906897E+04  0.25069380848E+04 0.  0.
        1    1    3    3  502    0 -0.48444956079E+03  0.10100811138E+04  0.11404916003E+04  0.15986482802E+04  0.50400001928E-02 0.  1.
       -1    1    3    3    0  502  0.48444956079E+03 -0.10100811138E+04 -0.80583115041E+02  0.11231424095E+04  0.50400001928E-02 0. -1.
</event>
<event>
 5   0  0.8407986E-06  0.2504240E+04  0.7818609E-02  0.8401477E-01
       -2   -1    0    0    0  501  0.00000000000E+00  0.00000000000E+00  0.10592194636E+04  0.10592194636E+04  0.25500000920E-02 0. -1.
        2   -1    0    0  501    0  0.00000000000E+00  0.00000000000E+00 -0.14801509145E+04  0.14801509145E+04  0.25500000920E-02 0.  1.
    10030    2    1    2    0    0  0.00000000000E+00  0.00000000000E+00 -0.42093145091E+03  0.25393703781E+04  0.25042401304E+04 0.  0.
        5    1    3    3  502    0  0.39699857381E+03 -0.11781150555E+04 -0.59312175008E+02  0.12446296541E+04  0.46999998093E+01 0. -1.
       -5    1    3    3    0  502 -0.39699857381E+03  0.11781150555E+04 -0.36161927591E+03  0.12947407240E+04  0.46999998093E+01 0.  1.
</event>
<event>
 5   0  0.3642184E-06  0.2498879E+04  0.7818609E-02  0.8403385E-01
        1   -1    0    0  501    0  0.00000000000E+00  0.00000000000E+00  0.21568909831E+04  0.21568909831E+04  0.50400001928E-02 0.  1.
       -1   -1    0    0    0  501  0.00000000000E+00  0.00000000000E+00 -0.72377274229E+03  0.72377274231E+03  0.50400001928E-02 0. -1.
    10030    2    1    2    0    0  0.00000000000E+00  0.00000000000E+00  0.14331182408E+04  0.28806637254E+04  0.24988788700E+04 0.  0.
        5    1    3    3  502    0  0.10031387063E+03 -0.52385689981E+02 -0.71784215721E+03  0.72672318376E+03  0.46999998093E+01 0. -1.
       -5    1    3    3    0  502 -0.10031387063E+03  0.52385689981E+02  0.21509603980E+04  0.21539405417E+04  0.46999998093E+01 0.  1.
</event>
<event>
 5   0  0.8354653E-06  0.2478784E+04  0.7818609E-02  0.8410583E-01
       -2   -1    0    0    0  501  0.00000000000E+00  0.00000000000E+00  0.44852474132E+03  0.44852474133E+03  0.25500000920E-02 0. -1.
        2   -1    0    0  501    0  0.00000000000E+00  0.00000000000E+00 -0.34247663888E+04  0.34247663888E+04  0.25500000920E-02 0.  1.
    10030    2    1    2    0    0  0.00000000000E+00  0.00000000000E+00 -0.29762416474E+04  0.38732911301E+04  0.24787839427E+04 0.  0.
        3    1    3    3  502    0 -0.11100179442E+04 -0.42699529180E+03 -0.20330719996E+04  0.23553867159E+04  0.10100000352E+00 0.  1.
       -3    1    3    3    0  502  0.11100179442E+04  0.42699529180E+03 -0.94316964783E+03  0.15179044142E+04  0.10100000352E+00 0. -1.
</event>
<event>
 5   0  0.3522870E-06  0.2495089E+04  0.7818609E-02  0.8404737E-01
        1   -1    0    0  501    0  0.00000000000E+00  0.00000000000E+00  0.11410187271E+04  0.11410187271E+04  0.50400001928E-02 0.  1.
       -1   -1    0    0    0  501  0.00000000000E+00  0.00000000000E+00 -0.13640154688E+04  0.13640154688E+04  0.50400001928E-02 0. -1.
    10030    2    1    2    0    0  0.00000000000E+00  0.00000000000E+00 -0.22299674170E+03  0.25050341960E+04  0.24950889315E+04 0.  0.
        2    1    3    3  502    0 -0.19486745213E+02 -0.34279308692E+03  0.10926488774E+04  0.11453245841E+04  0.25500000920E-02 0.  1.
       -2    1    3    3    0  502  0.19486745213E+02  0.34279308692E+03 -0.13156456191E+04  0.13597096119E+04  0.25500000920E-02 0. -1.
</event>
<event>
 5   0  0.3424193E-06  0.2485590E+04  0.7818609E-02  0.8408137E-01
        1   -1    0    0  501    0  0.00000000000E+00  0.00000000000E+00  0.20506209447E+04  0.20506209447E+04  0.50400001928E-02 0. -1.
       -1   -1    0    0    0  501  0.00000000000E+00  0.00000000000E+00 -0.75320592408E+03  0.75320592410E+03  0.50400001928E-02 0.  1.
    10030    2    1    2    0    0  0.00000000000E+00  0.00000000000E+00  0.12974150206E+04  0.28038268688E+04  0.24855903473E+04 0.  0.
        1    1    3    3  502    0 -0.26267422447E+03 -0.10209350869E+04 -0.93769015060E+02  0.10583472152E+04  0.50400001928E-02 0. -1.
       -1    1    3    3    0  502  0.26267422447E+03  0.10209350869E+04  0.13911840357E+04  0.17454796535E+04  0.50400001928E-02 0.  1.
</event>
<event>
 5   0  0.3484857E-06  0.2489927E+04  0.7818609E-02  0.8406583E-01
       -1   -1    0    0    0  501  0.00000000000E+00  0.00000000000E+00  0.10143763276E+04  0.10143763276E+04  0.50400001928E-02 0. -1.
        1   -1    0    0  501    0  0.00000000000E+00  0.00000000000E+00 -0.15279674533E+04  0.15279674534E+04  0.50400001928E-02 0.  1.
    10030    2    1    2    0    0  0.00000000000E+00  0.00000000000E+00 -0.51359112575E+03  0.25423437810E+04  0.24899269178E+04 0.  0.
        3    1    3    3  502    0  0.26199701592E+03  0.11607556440E+03  0.98024455794E+03  0.10212714510E+04  0.10100000352E+00 0. -1.
       -3    1    3    3    0  502 -0.26199701592E+03 -0.11607556440E+03 -0.14938356837E+04  0.15210723300E+04  0.10100000352E+00 0.  1.
</event>
<event>
 5   0  0.3484857E-06  0.2502426E+04  0.7818609E-02  0.8402122E-01
       -1   -1    0    0    0  501  0.00000000000E+00  0.00000000000E+00  0.94684145160E+03  0.94684145161E+03  0.50400001928E-02 0.  1.
        1   -1    0    0  501    0  0.00000000000E+00  0.00000000000E+00 -0.16534273541E+04  0.16534273541E+04  0.50400001928E-02 0. -1.
    10030    2    1    2    0    0  0.00000000000E+00  0.00000000000E+00 -0.70658590250E+03  0.26002688057E+04  0.25024256681E+04 0.  0.
        3    1    3    3  502    0  0.26125881655E+03  0.99813289814E+03 -0.10887874541E+04  0.14999945273E+04  0.10100000352E+00 0. -1.
       -3    1    3    3    0  502 -0.26125881655E+03 -0.99813289814E+03  0.38220155156E+03  0.11002742784E+04  0.10100000352E+00 0.  1.
</event>
<event>
 5   0  0.8056723E-06  0.2370743E+04  0.7818609E-02  0.8450539E-01
        2   -1    0    0  501    0  0.00000000000E+00  0.00000000000E+00  0.19680122072E+04  0.19680122072E+04  0.25500000920E-02 0. -1.
       -2   -1    0    0    0  501  0.00000000000E+00  0.00000000000E+00 -0.71397170277E+03  0.71397170277E+03  0.25500000920E-02 0.  1.
    10030    2    1    2    0    0  0.00000000000E+00  0.00000000000E+00  0.12540405045E+04  0.26819839100E+04  0.23707425222E+04 0.  0.
        2    1    3    3  502    0 -0.23732627425E+03 -0.21077671060E+02 -0.68660353617E+03  0.72676849447E+03  0.25500000920E-02 0.  1.
       -2    1    3    3    0  502  0.23732627425E+03  0.21077671060E+02  0.19406440406E+04  0.19552154155E+04  0.25500000920E-02 0. -1.
</event>
<event>
 5   0  0.3642184E-06  0.2499777E+04  0.7818609E-02  0.8403065E-01
        1   -1    0    0  501    0  0.00000000000E+00  0.00000000000E+00  0.11280181323E+04  0.11280181323E+04  0.50400001928E-02 0.  1.
       -1   -1    0    0    0  501  0.00000000000E+00  0.00000000000E+00 -0.13849258046E+04  0.13849258046E+04  0.50400001928E-02 0. -1.
    10030    2    1    2    0    0  0.00000000000E+00  0.00000000000E+00 -0.25690767230E+03  0.25129439369E+04  0.24997771257E+04 0.  0.
        5    1    3    3  502    0  0.80968611008E+03  0.85491890020E+03  0.29294549861E+03  0.12133907359E+04  0.46999998093E+01 0.  1.
       -5    1    3    3    0  502 -0.80968611008E+03 -0.85491890020E+03 -0.54985317091E+03  0.12995532010E+04  0.46999998093E+01 0. -1.
</event>
<event>
 5   0  0.8407986E-06  0.2503781E+04  0.7818609E-02  0.8401640E-01
        2   -1    0    0  501    0  0.00000000000E+00  0.00000000000E+00  0.20440352614E+04  0.20440352614E+04  0.25500000920E-02 0. -1.
       -2   -1    0    0    0  501  0.00000000000E+00  0.00000000000E+00 -0.76673330179E+03  0.76673330179E+03  0.25500000920E-02 0.  1.
    10030    2    1    2    0    0  0.00000000000E+00  0.00000000000E+00  0.12773019596E+04  0.28107685632E+04  0.25037810647E+04 0.  0.
        5    1    3    3  502    0  0.11638029392E+04  0.18948021219E+01  0.12082860249E+03  0.11700694478E+04  0.46999998093E+01 0.  1.
       -5    1    3    3    0  502 -0.11638029392E+04 -0.18948021219E+01  0.11564733571E+04  0.16406991154E+04  0.46999998093E+01 0. -1.
</event>
<event>
 5   0  0.3522870E-06  0.2472668E+04  0.7818609E-02  0.8412788E-01
        1   -1    0    0  501    0  0.00000000000E+00  0.00000000000E+00  0.11312824128E+04  0.11312824128E+04  0.50400001928E-02 0.  1.
       -1   -1    0    0    0  501  0.00000000000E+00  0.00000000000E+00 -0.13511407749E+04  0.13511407749E+04  0.50400001928E-02 0. -1.
    10030    2    1    2    0    0  0.00000000000E+00  0.00000000000E+00 -0.21985836207E+03  0.24824231877E+04  0.24726680293E+04 0.  0.
        2    1    3    3  502    0 -0.10462749368E+03 -0.10295721819E+04 -0.78902668720E+03  0.13013565627E+04  0.25500000920E-02 0.  1.
       -2    1    3    3    0  502  0.10462749368E+03  0.10295721819E+04  0.56916832512E+03  0.11810666249E+04  0.25500000920E-02 0. -1.
</event>
<event>
 5   0  0.2901250E-06  0.2500878E+04  0.7818609E-02  0.8402673E-01
       -4   -1    0    0    0  501  0.00000000000E+00  0.00000000000E+00  0.99740762803E+03  0.99740843658E+03  0.12699999809E+01 0. -1.
        4   -1    0    0  501    0  0.00000000000E+00  0.00000000000E+00 -0.15676594408E+04  0.15676599553E+04  0.12699999809E+01 0.  1.
    10030    2    1    2    0    0  0.00000000000E+00  0.00000000000E+00 -0.57025181279E+03  0.25650683918E+04  0.25008775909E+04 0.  0.
        4    1    3    3  502    0  0.35664243275E+03  0.16442715020E+03 -0.15027642770E+04  0.15532328215E+04  0.12699999809E+01 0.  1.
       -4    1    3    3    0  502 -0.35664243275E+03 -0.16442715020E+03  0.93251246423E+03  0.10118355703E+04  0.12699999809E+01 0. -1.
</event>
<event>
 5   0  0.3424193E-06  0.2502932E+04  0.7818609E-02  0.8401942E-01
        1   -1    0    0  501    0  0.00000000000E+00  0.00000000000E+00  0.10656111259E+04  0.10656111259E+04  0.50400001928E-02 0. -1.
       -1   -1    0    0    0  501  0.00000000000E+00  0.00000000000E+00 -0.14697361896E+04  0.14697361896E+04  0.50400001928E-02 0.  1.
    10030    2    1    2    0    0  0.00000000000E+00  0.00000000000E+00 -0.40412506365E+03  0.25353473155E+04  0.25029320693E+04 0.  0.
        1    1    3    3  502    0 -0.88666668533E+03 -0.57652035726E+03  0.47564152455E+03  0.11596501167E+04  0.50400001928E-02 0. -1.
       -1    1    3    3    0  502  0.88666668533E+03  0.57652035726E+03 -0.87976658821E+03  0.13756971989E+04  0.50400001928E-02 0.  1.
</event>
<event>
 5   0  0.3522870E-06  0.2495632E+04  0.7818609E-02  0.8404543E-01
       -1   -1    0    0    0  501  0.00000000000E+00  0.00000000000E+00  0.73238287034E+03  0.73238287036E+03  0.50400001928E-02 0. -1.
        1   -1    0    0  501    0  0.00000000000E+00  0.00000000000E+00 -0.21259985812E+04  0.21259985812E+04  0.50400001928E-02 0.  1.
    10030    2    1    2    0    0  0.00000000000E+00  0.00000000000E+00 -0.13936157109E+04  0.28583814516E+04  0.24956321390E+04 0.  0.
        2    1    3    3  502    0 -0.58115361169E+03  0.61899836720E+03 -0.17441312116E+04  0.19398175642E+04  0.25500000920E-02 0.  1.
       -2    1    3    3    0  502  0.58115361169E+03 -0.61899836720E+03  0.35051550074E+03  0.91856388740E+03  0.25500000920E-02 0. -1.
</event>
<event>
 5   0  0.8579923E-06  0.2500896E+04  0.7818609E-02  0.8402666E-01
       -2   -1    0    0    0  501  0.00000000000E+00  0.00000000000E+00  0.89910688342E+03  0.89910688342E+03  0.25500000920E-02 0.  1.
        2   -1    0    0  501    0  0.00000000000E+00  0.00000000000E+00 -0.17390814183E+04  0.17390814183E+04  0.25500000920E-02 0. -1.
    10030    2    1    2    0    0  0.00000000000E+00  0.00000000000E+00 -0.83997453486E+03  0.26381883017E+04  0.25008958987E+04 0.  0.
        1    1    3    3  502    0  0.92011984686E+03 -0.63262501964E+03 -0.10137221526E+04  0.15081337974E+04  0.50400001928E-02 0. -1.
       -1    1    3    3    0  502 -0.92011984686E+03  0.63262501964E+03  0.17374761776E+03  0.11300545043E+04  0.50400001928E-02 0.  1.
</event>
<event>
 5   0  0.8579923E-06  0.2507417E+04  0.7818609E-02  0.8400348E-01
       -2   -1    0    0    0  501  0.00000000000E+00  0.00000000000E+00  0.12548369725E+04  0.12548369725E+04  0.25500000920E-02 0. -1.
        2   -1    0    0  501    0  0.00000000000E+00  0.00000000000E+00 -0.12525811308E+04  0.12525811308E+04  0.25500000920E-02 0.  1.
    10030    2    1    2    0    0  0.00000000000E+00  0.00000000000E+00  0.22558417584E+01  0.25074181033E+04  0.25074170886E+04 0.  0.
        1    1    3    3  502    0  0.84255009649E+03 -0.88888921146E+03  0.26902804547E+03  0.12539500726E+04  0.50400001928E-02 0. -1.
       -1    1    3    3    0  502 -0.84255009649E+03  0.88888921146E+03 -0.26677220371E+03  0.12534680307E+04  0.50400001928E-02 0.  1.
</event>
<event>
 5   0  0.2901250E-06  0.2502537E+04  0.7818609E-02  0.8402082E-01
        3   -1    0    0  501    0  0.00000000000E+00  0.00000000000E+00  0.10717984360E+04  0.10717984408E+04  0.10100000352E+00 0.  1.
       -3   -1    0    0    0  501  0.00000000000E+00  0.00000000000E+00 -0.14607898944E+04  0.14607898979E+04  0.10100000352E+00 0. -1.
    10030    2    1    2    0    0  0.00000000000E+00  0.00000000000E+00 -0.38899145842E+03  0.25325883387E+04  0.25025365809E+04 0.  0.
        3    1    3    3  502    0 -0.75799472309E+03  0.43239684636E+03 -0.11020080087E+04  0.14056829992E+04  0.10100000352E+00 0. -1.
       -3    1    3    3    0  502  0.75799472309E+03 -0.43239684636E+03  0.71301655026E+03  0.11269053395E+04  0.10100000352E+00 0.  1.
</event>
<event>
 5   0  0.3481387E-06  0.2503513E+04  0.7818609E-02  0.8401735E-01
       -1   -1    0    0    0  501  0.00000000000E+00  0.00000000000E+00  0.99598704510E+03  0.99598704512E+03  0.50400001928E-02 0.  1.
        1   -1    0    0  501    0  0.00000000000E+00  0.00000000000E+00 -0.15732079900E+04  0.15732079900E+04  0.50400001928E-02 0. -1.
    10030    2    1    2    0    0  0.00000000000E+00  0.00000000000E+00 -0.57722094487E+03  0.25691950351E+04  0.25035133531E+04 0.  0.
        4    1    3    3  502    0 -0.54207409251E+03  0.68559446312E+03 -0.12082283142E+04  0.14912080209E+04  0.12699999809E+01 0. -1.
       -4    1    3    3    0  502  0.54207409251E+03 -0.68559446312E+03  0.63100736932E+03  0.10779870141E+04  0.12699999809E+01 0.  1.
</event>
<event>
 5   0  0.8407986E-06  0.2502980E+04  0.7818609E-02  0.8401924E-01
       -2   -1    0    0    0  501  0.00000000000E+00  0.00000000000E+00  0.99641468976E+03  0.99641468977E+03  0.25500000920E-02 0. -1.
        2   -1    0    0  501    0  0.00000000000E+00  0.00000000000E+00 -0.15718634380E+04  0.15718634380E+04  0.25500000920E-02 0.  1.
    10030    2    1    2    0    0  0.00000000000E+00  0.00000000000E+00 -0.57544874823E+03  0.25682781278E+04  0.25029804793E+04 0.  0.
        5    1    3    3  502    0 -0.18980791069E+03  0.92350344056E+03 -0.11321892040E+04  0.14733499690E+04  0.46999998093E+01 0.  1.
       -5    1    3    3    0  502  0.18980791069E+03 -0.92350344056E+03  0.55674045574E+03  0.10949281587E+04  0.46999998093E+01 0. -1.
</event>
<event>
 5   0  0.3642184E-06  0.2495606E+04  0.7818609E-02  0.8404553E-01
       -1   -1    0    0    0  501  0.00000000000E+00  0.00000000000E+00  0.18970939689E+04  0.18970939689E+04  0.50400001928E-02 0.  1.
        1   -1    0    0  501    0  0.00000000000E+00  0.00000000000E+00 -0.82073534394E+03  0.82073534396E+03  0.50400001928E-02 0. -1.
    10030    2    1    2    0    0  0.00000000000E+00  0.00000000000E+00  0.10763586250E+04  0.27178293129E+04  0.24956057951E+04 0.  0.
        5    1    3    3  502    0 -0.30840405280E+02 -0.77385696538E+02  0.18940525521E+04  0.18958894579E+04  0.46999998093E+01 0.  1.
       -5    1    3    3    0  502  0.30840405280E+02  0.77385696538E+02 -0.81769392714E+03  0.82193985492E+03  0.46999998093E+01 0. -1.
</event>
<event>
 5   0  0.3522870E-06  0.2493401E+04  0.7818609E-02  0.8405340E-01
       -1   -1    0    0    0  501  0.00000000000E+00  0.00000000000E+00  0.85171358437E+03  0.85171358438E+03  0.50400001928E-02 0. -1.
        1   -1    0    0  501    0  0.00000000000E+00  0.00000000000E+00 -0.18248653107E+04  0.18248653107E+04  0.50400001928E-02 0.  1.
    10030    2    1    2    0    0  0.00000000000E+00  0.00000000000E+00 -0.97315172637E+03  0.26765788951E+04  0.24934013514E+04 0.  0.
        2    1    3    3  502    0 -0.25610060414E+03  0.24849546845E+03 -0.17688723161E+04  0.18045073532E+04  0.25500000920E-02 0.  1.
       -2    1    3    3    0  502  0.25610060414E+03 -0.24849546845E+03  0.79572058971E+03  0.87207154189E+03  0.25500000920E-02 0. -1.
</event>
<event>
 5   0  0.8407986E-06  0.2496071E+04  0.7818609E-02  0.8404387E-01
       -2   -1    0    0    0  501  0.00000000000E+00  0.00000000000E+00  0.17776471010E+04  0.17776471010E+04  0.25500000920E-02 0. -1.
        2   -1    0    0  501    0  0.00000000000E+00  0.00000000000E+00 -0.87620998563E+03  0.87620998564E+03  0.25500000920E-02 0.  1.
    10030    2    1    2    0    0  0.00000000000E+00  0.00000000000E+00  0.90143711537E+03  0.26538570866E+04  0.24960706247E+04 0.  0.
        5    1    3    3  502    0  0.45050285337E+03  0.11538836454E+04  0.61255691312E+03  0.13819002677E+04  0.46999998093E+01 0. -1.
       -5    1    3    3    0  502 -0.45050285337E+03 -0.11538836454E+04  0.28888020225E+03  0.12719568190E+04  0.46999998093E+01 0.  1.
</event>
<event>
 5   0  0.8579923E-06  0.2509412E+04  0.7818609E-02  0.8399640E-01
        2   -1    0    0  501    0  0.00000000000E+00  0.00000000000E+00  0.11964570628E+04  0.11964570628E+04  0.25500000920E-02 0. -1.
       -2   -1    0    0    0  501  0.00000000000E+00  0.00000000000E+00 -0.13157902593E+04  0.13157902593E+04  0.25500000920E-02 0.  1.
    10030    2    1    2    0    0  0.00000000000E+00  0.00000000000E+00 -0.11933319646E+03  0.25122473222E+04  0.25094115238E+04 0.  0.
        1    1    3    3  502    0 -0.12486467627E+03 -0.83985739883E+03 -0.98447179335E+03  0.13000524411E+04  0.50400001928E-02 0.  1.
       -1    1    3    3    0  502  0.12486467627E+03  0.83985739883E+03  0.86513859689E+03  0.12121948810E+04  0.50400001928E-02 0. -1.
</event>
<event>
 5   0  0.3522870E-06  0.2493499E+04  0.7818609E-02  0.8405305E-01
        1   -1    0    0  501    0  0.00000000000E+00  0.00000000000E+00  0.20230081514E+04  0.20230081514E+04  0.50400001928E-02 0.  1.
       -1   -1    0    0    0  501  0.00000000000E+00  0.00000000000E+00 -0.76835290174E+03  0.76835290175E+03  0.50400001928E-02 0. -1.
    10030    2    1    2    0    0  0.00000000000E+00  0.00000000000E+00  0.12546552496E+04  0.27913610531E+04  0.24934988938E+04 0.  0.
        2    1    3    3  502    0 -0.10246382169E+04 -0.19052700427E+03  0.13933167741E+04  0.17399757607E+04  0.25500000920E-02 0.  1.
       -2    1    3    3    0  502  0.10246382169E+04  0.19052700427E+03 -0.13866152446E+03  0.10513852924E+04  0.25500000920E-02 0. -1.
</event>
<event>
 5   0  0.3642184E-06  0.2506980E+04  0.7818609E-02  0.8400503E-01
        1   -1    0    0  501    0  0.00000000000E+00  0.00000000000E+00  0.78735772107E+03  0.78735772109E+03  0.50400001928E-02 0. -1.
       -1   -1    0    0    0  501  0.00000000000E+00  0.00000000000E+00 -0.19955816512E+04  0.19955816512E+04  0.50400001928E-02 0.  1.
    10030    2    1    2    0    0  0.00000000000E+00  0.00000000000E+00 -0.12082239302E+04  0.27829393723E+04  0.25069795541E+04 0.  0.
        5    1    3    3  502    0  0.10305663825E+04  0.67804402459E+03 -0.85084822019E+03  0.14985911890E+04  0.46999998093E+01 0. -1.
       -5    1    3    3    0  502 -0.10305663825E+04 -0.67804402459E+03 -0.35737570996E+03  0.12843481833E+04  0.46999998093E+01 0.  1.
</event>
<event>
 5   0  0.3484857E-06  0.2510091E+04  0.7818609E-02  0.8399399E-01
       -1   -1    0    0    0  501  0.00000000000E+00  0.00000000000E+00  0.12245334192E+04  0.12245334192E+04  0.50400001928E-02 0. -1.
        1   -1    0    0  501    0  0.00000000000E+00  0.00000000000E+00 -0.12863180557E+04  0.12863180557E+04  0.50400001928E-02 0.  1.
    10030    2    1    2    0    0  0.00000000000E+00  0.00000000000E+00 -0.61784636527E+02  0.25108514749E+04  0.25100911911E+04 0.  0.
        3    1    3    3  502    0  0.60245362858E+03 -0.53712276161E+02  0.10691243811E+04  0.12283575765E+04  0.10100000352E+00 0. -1.
       -3    1    3    3    0  502 -0.60245362858E+03  0.53712276161E+02 -0.11309090176E+04  0.12824938984E+04  0.10100000352E+00 0.  1.
</event>
<event>
 5   0  0.3484857E-06  0.2495638E+04  0.7818609E-02  0.8404541E-01
        1   -1    0    0  501    0  0.00000000000E+00  0.00000000000E+00  0.16104797836E+04  0.16104797836E+04  0.50400001928E-02 0.  1.
       -1   -1    0    0    0  501  0.00000000000E+00  0.00000000000E+00 -0.96682508825E+03  0.96682508826E+03  0.50400001928E-02 0. -1.
    10030    2    1    2    0    0  0.00000000000E+00  0.00000000000E+00  0.64365469530E+03  0.25773048718E+04  0.24956380017E+04 0.  0.
        3    1    3    3  502    0 -0.60352868195E+03 -0.90582566777E+03 -0.30829098138E+03  0.11312870324E+04  0.10100000352E+00 0. -1.
       -3    1    3    3    0  502  0.60352868195E+03  0.90582566777E+03  0.95194567668E+03  0.14460178394E+04  0.10100000352E+00 0.  1.
</event>
<event>
 5   0  0.3642184E-06  0.2483270E+04  0.7818609E-02  0.8408970E-01
       -1   -1    0    0    0  501  0.00000000000E+00  0.00000000000E+00  0.99814813851E+03  0.99814813852E+03  0.50400001928E-02 0. -1.
        1   -1    0    0  501    0  0.00000000000E+00  0.00000000000E+00 -0.15445171716E+04  0.15445171716E+04  0.50400001928E-02 0.  1.
    10030    2    1    2    0    0  0.00000000000E+00  0.00000000000E+00 -0.54636903310E+03  0.25426653101E+04  0.24832695704E+04 0.  0.
        5    1    3    3  502    0 -0.11784716146E+02  0.12914353170E+03 -0.15375549297E+04  0.15430211220E+04  0.46999998093E+01 0.  1.
       -5    1    3    3    0  502  0.11784716146E+02 -0.12914353170E+03  0.99118589655E+03  0.99964418811E+03  0.46999998093E+01 0. -1.
</event>
<event>
 5   0  0.3481387E-06  0.2517534E+04  0.7818609E-02  0.8396765E-01
       -1   -1    0    0    0  501  0.00000000000E+00  0.00000000000E+00  0.60471397460E+03  0.60471397462E+03  0.50400001928E-02 0. -1.
        1   -1    0    0  501    0  0.00000000000E+00  0.00000000000E+00 -0.26202378961E+04  0.26202378961E+04  0.50400001928E-02 0.  1.
    10030    2    1    2    0    0  0.00000000000E+00  0.00000000000E+00 -0.20155239215E+04  0.32249518707E+04  0.25175340892E+04 0.  0.
        4    1    3    3  502    0 -0.11889102395E+04  0.25293205614E+02 -0.15364667951E+04  0.19429048173E+04  0.12699999809E+01 0.  1.
       -4    1    3    3    0  502  0.11889102395E+04 -0.25293205614E+02 -0.47905712642E+03  0.12820470534E+04  0.12699999809E+01 0. -1.
</event>
<event>
 5   0  0.3642184E-06  0.2494684E+04  0.7818609E-02  0.8404882E-01
       -1   -1    0    0    0  501  0.00000000000E+00  0.00000000000E+00  0.13001513150E+04  0.13001513150E+04  0.50400001928E-02 0.  1.
        1   -1    0    0  501    0  0.00000000000E+00  0.00000000000E+00 -0.11966777776E+04  0.11966777776E+04  0.50400001928E-02 0. -1.
    10030    2    1    2    0    0  0.00000000000E+00  0.00000000000E+00  0.10347353746E+03  0.24968290926E+04  0.24946840972E+04 0.  0.
        5    1    3    3  502    0  0.53112785400E+03 -0.75157394087E+03  0.89441076370E+03  0.12833366238E+04  0.46999998093E+01 0.  1.
       -5    1    3    3    0  502 -0.53112785400E+03  0.75157394087E+03 -0.79093722624E+03  0.12134924688E+04  0.46999998093E+01 0. -1.
</event>
<event>
 5   0  0.8948286E-06  0.2492970E+04  0.7818609E-02  0.8405494E-01
        2   -1    0    0  501    0  0.00000000000E+00  0.00000000000E+00  0.17835830986E+04  0.17835830986E+04  0.25500000920E-02 0.  1.
       -2   -1    0    0    0  501  0.00000000000E+00  0.00000000000E+00 -0.87112572831E+03  0.87112572832E+03  0.25500000920E-02 0. -1.
    10030    2    1    2    0    0  0.00000000000E+00  0.00000000000E+00  0.91245737027E+03  0.26547088269E+04  0.24929702170E+04 0.  0.
        4    1    3    3  502    0 -0.69422741281E+03 -0.23381088702E+03  0.15301749328E+04  0.16964834716E+04  0.12699999809E+01 0.  1.
       -4    1    3    3    0  502  0.69422741281E+03  0.23381088702E+03 -0.61771756252E+03  0.95822535530E+03  0.12699999809E+01 0. -1.
</event>
<event>
 5   0  0.3642184E-06  0.2500436E+04  0.7818609E-02  0.8402830E-01
        1   -1    0    0  501    0  0.00000000000E+00  0.00000000000E+00  0.10526691009E+04  0.10526691009E+04  0.50400001928E-02 0.  1.
       -1   -1    0    0    0  501  0.00000000000E+00  0.00000000000E+00 -0.14848402825E+04  0.14848402826E+04  0.50400001928E-02 0. -1.
    10030    2    1    2    0    0  0.00000000000E+00  0.00000000000E+00 -0.43217118165E+03  0.25375093835E+04  0.25004363501E+04 0.  0.
        5    1    3    3  502    0 -0.64773713730E+03  0.13024172755E+03 -0.12931877336E+04  0.14521993359E+04  0.46999998093E+01 0. -1.
       -5    1    3    3    0  502  0.64773713730E+03 -0.13024172755E+03  0.86101655199E+03  0.10853100476E+04  0.46999998093E+01 0.  1.
</event>
<event>
 5   0  0.8354653E-06  0.2558810E+04  0.7818609E-02  0.8382329E-01
       -2   -1    0    0    0  501  0.00000000000E+00  0.00000000000E+00  0.11640534859E+04  0.11640534859E+04  0.25500000920E-02 0. -1.
        2   -1    0    0  501    0  0.00000000000E+00  0.00000000000E+00 -0.14061876665E+04  0.14061876665E+04  0.25500000920E-02 0.  1.
    10030    2    1    2    0    0  0.00000000000E+00  0.00000000000E+00 -0.24213418056E+03  0.25702411524E+04  0.25588103916E+04 0.  0.
        3    1    3    3  502    0  0.10440054385E+04 -0.24165197666E+03 -0.82314197280E+03  0.13512608005E+04  0.10100000352E+00 0.  1.
       -3    1    3    3    0  502 -0.10440054385E+04  0.24165197666E+03  0.58100779224E+03  0.12189803519E+04  0.10100000352E+00 0. -1.
</event>
<event>
 5   0  0.8354653E-06  0.2490860E+04  0.7818609E-02  0.8406249E-01
        2   -1    0    0  501    0  0.00000000000E+00  0.00000000000E+00  0.11802373418E+04  0.11802373418E+04  0.25500000920E-02 0.  1.
       -2   -1    0    0    0  501  0.00000000000E+00  0.00000000000E+00 -0.13142235059E+04  0.13142235059E+04  0.25500000920E-02 0. -1.
    10030    2    1    2    0    0  0.00000000000E+00  0.00000000000E+00 -0.13398616407E+03  0.24944608477E+04  0.24908598171E+04 0.  0.
        3    1    3    3  502    0  0.52451787806E+03  0.78662922901E+01 -0.11981900609E+04  0.13079909462E+04  0.10100000352E+00 0. -1.
       -3    1    3    3    0  502 -0.52451787806E+03 -0.78662922901E+01  0.10642038969E+04  0.11864699015E+04  0.10100000352E+00 0.  1.
</event>
<event>
 5   0  0.2901250E-06  0.2517859E+04  0.7818609E-02  0.8396651E-01
        4   -1    0    0  501    0  0.00000000000E+00  0.00000000000E+00  0.17651009179E+04  0.17651013748E+04  0.12699999809E+01 0.  1.
       -4   -1    0    0    0  501  0.00000000000E+00  0.00000000000E+00 -0.89790992731E+03  0.89791082546E+03  0.12699999809E+01 0. -1.
    10030    2    1    2    0    0  0.00000000000E+00  0.00000000000E+00  0.86719099059E+03  0.26630122003E+04  0.25178589644E+04 0.  0.
        3    1    3    3  502    0 -0.12378507354E+04  0.14350641991E+03  0.24429427621E+03  0.12698615039E+04  0.10100000352E+00 0. -1.
       -3    1    3    3    0  502  0.12378507354E+04 -0.14350641991E+03  0.62289671438E+03  0.13931506963E+04  0.10100000352E+00 0.  1.
</event>
<event>
 5   0  0.8407986E-06  0.2509403E+04  0.7818609E-02  0.8399643E-01
       -2   -1    0    0    0  501  0.00000000000E+00  0.00000000000E+00  0.11592274799E+04  0.11592274799E+04  0.25500000920E-02 0.  1.
        2   -1    0    0  501    0  0.00000000000E+00  0.00000000000E+00 -0.13580382726E+04  0.13580382726E+04  0.25500000920E-02 0. -1.
    10030    2    1    2    0    0  0.00000000000E+00  0.00000000000E+00 -0.19881079273E+03  0.25172657525E+04  0.25094025459E+04 0.  0.
        5    1    3    3  502    0  0.63135508421E+03  0.80921504073E+03  0.62453108458E+03  0.12014571945E+04  0.46999998093E+01 0.  1.
       -5    1    3    3    0  502 -0.63135508421E+03 -0.80921504073E+03 -0.82334187731E+03  0.13158085580E+04  0.46999998093E+01 0. -1.
</event>
<event>
 5   0  0.3642184E-06  0.2502273E+04  0.7818609E-02  0.8402176E-01
       -1   -1    0    0    0  501  0.00000000000E+00  0.00000000000E+00  0.66765841956E+03  0.66765841958E+03  0.50400001928E-02 0. -1.
        1   -1    0    0  501    0  0.00000000000E+00  0.00000000000E+00 -0.23445260772E+04  0.23445260772E+04  0.50400001928E-02 0.  1.
    10030    2    1    2    0    0  0.00000000000E+00  0.00000000000E+00 -0.16768676576E+04  0.30121844968E+04  0.25022730270E+04 0.  0.
        5    1    3    3  502    0  0.79535960395E+03 -0.32780705841E+03  0.25512935840E+03  0.89731123176E+03  0.46999998093E+01 0. -1.
       -5    1    3    3    0  502 -0.79535960395E+03  0.32780705841E+03 -0.19319970160E+04  0.21148732650E+04  0.46999998093E+01 0.  1.
</event>
<event>
 5   0  0.3522870E-06  0.2484600E+04  0.7818609E-02  0.8408493E-01
       -1   -1    0    0    0  501  0.00000000000E+00  0.00000000000E+00  0.71966604889E+03  0.71966604891E+03  0.50400001928E-02 0. -1.
        1   -1    0    0  501    0  0.00000000000E+00  0.00000000000E+00 -0.21444795647E+04  0.21444795647E+04  0.50400001928E-02 0.  1.
    10030    2    1    2    0    0  0.00000000000E+00  0.00000000000E+00 -0.14248135158E+04  0.28641456137E+04  0.24845998755E+04 0.  0.
        2    1    3    3  502    0 -0.55399790844E+03 -0.24033804189E+03  0.53908486634E+03  0.80949895000E+03  0.25500000920E-02 0. -1.
       -2    1    3    3    0  502  0.55399790844E+03  0.24033804189E+03 -0.19638983822E+04  0.20546466637E+04  0.25500000920E-02 0.  1.
</event>
<event>
 5   0  0.8407986E-06  0.2507848E+04  0.7818609E-02  0.8400195E-01
       -2   -1    0    0    0  501  0.00000000000E+00  0.00000000000E+00  0.65671002090E+03  0.65671002091E+03  0.25500000920E-02 0. -1.
        2   -1    0    0  501    0  0.00000000000E+00  0.00000000000E+00 -0.23942466558E+04  0.23942466558E+04  0.25500000920E-02 0.  1.
    10030    2    1    2    0    0  0.00000000000E+00  0.00000000000E+00 -0.17375366349E+04  0.30509566767E+04  0.25078482979E+04 0.  0.
        5    1    3    3  502    0 -0.10415311710E+04 -0.66756245647E+03 -0.11177239031E+04  0.16672599158E+04  0.46999998093E+01 0.  1.
       -5    1    3    3    0  502  0.10415311710E+04  0.66756245647E+03 -0.61981273179E+03  0.13836967608E+04  0.46999998093E+01 0. -1.
</event>
<event>
 5   0  0.8579923E-06  0.2496671E+04  0.7818609E-02  0.8404173E-01
       -2   -1    0    0    0  501  0.00000000000E+00  0.00000000000E+00  0.12001044842E+04  0.12001044842E+04  0.25500000920E-02 0. -1.
        2   -1    0    0  501    0  0.00000000000E+00  0.00000000000E+00 -0.12985043737E+04  0.12985043737E+04  0.25500000920E-02 0.  1.
    10030    2    1    2    0    0  0.00000000000E+00  0.00000000000E+00 -0.98399889539E+02  0.24986088579E+04  0.24966705202E+04 0.  0.
        1    1    3    3  502    0 -0.93007229603E+03 -0.78424988416E+03  0.23076456572E+03  0.12382789029E+04  0.50400001928E-02 0. -1.
       -1    1    3    3    0  502  0.93007229603E+03  0.78424988416E+03 -0.32916445526E+03  0.12603299549E+04  0.50400001928E-02 0.  1.
</event>
<event>
 5   0  0.3522870E-06  0.2497678E+04  0.7818609E-02  0.8403813E-01
       -1   -1    0    0    0  501  0.00000000000E+00  0.00000000000E+00  0.88786729840E+03  0.88786729842E+03  0.50400001928E-02 0. -1.
        1   -1    0    0  501    0  0.00000000000E+00  0.00000000000E+00 -0.17565670663E+04  0.17565670663E+04  0.50400001928E-02 0.  1.
    10030    2    1    2    0    0  0.00000000000E+00  0.00000000000E+00 -0.86869976786E+03  0.26444343647E+04  0.24976776859E+04 0.  0.
        2    1    3    3  502    0  0.11912780432E+04  0.37187155492E+03 -0.48363188908E+03  0.13384063784E+04  0.25500000920E-02 0.  1.
       -2    1    3    3    0  502 -0.11912780432E+04 -0.37187155492E+03 -0.38506787878E+03  0.13060279863E+04  0.25500000920E-02 0. -1.
</event>
<event>
 5   0  0.8579923E-06  0.2496729E+04  0.7818609E-02  0.8404152E-01
        2   -1    0    0  501    0  0.00000000000E+00  0.00000000000E+00  0.28353820116E+04  0.28353820116E+04  0.25500000920E-02 0. -1.
       -2   -1    0    0    0  501  0.00000000000E+00  0.00000000000E+00 -0.54963106141E+03  0.54963106142E+03  0.25500000920E-02 0.  1.
    10030    2    1    2    0    0  0.00000000000E+00  0.00000000000E+00  0.22857509502E+04  0.33850130731E+04  0.24967290799E+04 0.  0.
        1    1    3    3  502    0 -0.11247429222E+04 -0.29873835904E+02  0.18760937131E+04  0.21876166729E+04  0.50400001928E-02 0. -1.
       -1    1    3    3    0  502  0.11247429222E+04  0.29873835904E+02  0.40965723717E+03  0.11973964002E+04  0.50400001928E-02 0.  1.
</event>
<event>
 5   0  0.3481387E-06  0.2501134E+04  0.7818609E-02  0.8402582E-01
        1   -1    0    0  501    0  0.00000000000E+00  0.00000000000E+00  0.19424536477E+04  0.19424536477E+04  0.50400001928E-02 0.  1.
       -1   -1    0    0    0  501  0.00000000000E+00  0.00000000000E+00 -0.80512492728E+03  0.80512492730E+03  0.50400001928E-02 0. -1.
    10030    2    1    2    0    0  0.00000000000E+00  0.00000000000E+00  0.11373287204E+04  0.27475785750E+04  0.25011340243E+04 0.  0.
        4    1    3    3  502    0  0.35473005216E+03 -0.11992000633E+04  0.57023236476E+03  0.13744383451E+04  0.12699999809E+01 0.  1.
       -4    1    3    3    0  502 -0.35473005216E+03  0.11992000633E+04  0.56709635566E+03  0.13731402300E+04  0.12699999809E+01 0. -1.
</event>
<event>
 5   0  0.8354653E-06  0.2498666E+04  0.7818609E-02  0.8403461E-01
        2   -1    0    0  501    0  0.00000000000E+00  0.00000000000E+00  0.12047676329E+04  0.12047676329E+04  0.25500000920E-02 0. -1.
       -2   -1    0    0    0  501  0.00000000000E+00  0.00000000000E+00 -0.12955470018E+04  0.12955470018E+04  0.25500000920E-02 0.  1.
    10030    2    1    2    0    0  0.00000000000E+00  0.00000000000E+00 -0.90779368875E+02  0.25003146347E+04  0.24986661199E+04 0.  0.
        3    1    3    3  502    0 -0.76114643834E+03  0.28204135577E+03 -0.99572245600E+03  0.12846612186E+04  0.10100000352E+00 0.  1.
       -3    1    3    3    0  502  0.76114643834E+03 -0.28204135577E+03  0.90494308712E+03  0.12156534161E+04  0.10100000352E+00 0. -1.
</event>
<event>
 5   0  0.3481387E-06  0.2434138E+04  0.7818609E-02  0.8426832E-01
       -1   -1    0    0    0  501  0.00000000000E+00  0.00000000000E+00  0.74717375650E+03  0.74717375652E+03  0.50400001928E-02 0. -1.
        1   -1    0    0  501    0  0.00000000000E+00  0.00000000000E+00 -0.19824793341E+04  0.19824793341E+04  0.50400001928E-02 0.  1.
    10030    2    1    2    0    0  0.00000000000E+00  0.00000000000E+00 -0.12353055776E+04  0.27296530907E+04  0.24341376554E+04 0.  0.
        4    1    3    3  502    0  0.20900279663E+03 -0.81074116617E+03 -0.16082228477E+04  0.18131094143E+04  0.12699999809E+01 0.  1.
       -4    1    3    3    0  502 -0.20900279663E+03  0.81074116617E+03  0.37291727003E+03  0.91654367638E+03  0.12699999809E+01 0. -1.
</event>
<event>
 5   0  0.8354653E-06  0.2499136E+04  0.7818609E-02  0.8403293E-01
       -2   -1    0    0    0  501  0.00000000000E+00  0.00000000000E+00  0.65469464347E+03  0.65469464348E+03  0.25500000920E-02 0.  1.
        2   -1    0    0  501    0  0.00000000000E+00  0.00000000000E+00 -0.23849603300E+04  0.23849603300E+04  0.25500000920E-02 0. -1.
    10030    2    1    2    0    0  0.00000000000E+00  0.00000000000E+00 -0.17302656866E+04  0.30396549735E+04  0.24991364532E+04 0.  0.
        3    1    3    3  502    0 -0.64773942245E+01  0.20860108204E+03  0.63334665330E+03  0.66684658019E+03  0.10100000352E+00 0.  1.
       -3    1    3    3    0  502  0.64773942245E+01 -0.20860108204E+03 -0.23636123399E+04  0.23728083933E+04  0.10100000352E+00 0. -1.
</event>
<event>
 5   0  0.8948286E-06  0.2498954E+04  0.7818609E-02  0.8403358E-01
        2   -1    0    0  501    0  0.00000000000E+00  0.00000000000E+00  0.28595946649E+04  0.28595946649E+04  0.25500000920E-02 0.  1.
       -2   -1    0    0    0  501  0.00000000000E+00  0.00000000000E+00 -0.54594905257E+03  0.54594905257E+03  0.25500000920E-02 0. -1.
    10030    2    1    2    0    0  0.00000000000E+00  0.00000000000E+00  0.23136456123E+04  0.34055437175E+04  0.24989541797E+04 0.  0.
        4    1    3    3  502    0  0.22479627348E+03  0.10842581026E+04  0.19456430437E+04  0.22386776150E+04  0.12699999809E+01 0. -1.
       -4    1    3    3    0  502 -0.22479627348E+03 -0.10842581026E+04  0.36800256861E+03  0.11668661024E+04  0.12699999809E+01 0.  1.
</event>
<event>
 5   0  0.8056723E-06  0.2497747E+04  0.7818609E-02  0.8403789E-01
       -2   -1    0    0    0  501  0.00000000000E+00  0.00000000000E+00  0.20579364174E+04  0.20579364174E+04  0.25500000920E-02 0.  1.
        2   -1    0    0  501    0  0.00000000000E+00  0.00000000000E+00 -0.75788774432E+03  0.75788774433E+03  0.25500000920E-02 0. -1.
    10030    2    1    2    0    0  0.00000000000E+00  0.00000000000E+00  0.13000486731E+04  0.28158241617E+04  0.24977468161E+04 0.  0.
        2    1    3    3  502    0  0.10339116244E+04  0.22164135401E+03  0.13991679579E+04  0.17537870769E+04  0.25500000920E-02 0.  1.
       -2    1    3    3    0  502 -0.10339116244E+04 -0.22164135401E+03 -0.99119284781E+02  0.10620370848E+04  0.25500000920E-02 0. -1.
</event>
<event>
 5   0  0.8056723E-06  0.2507650E+04  0.7818609E-02  0.8400265E-01
       -2   -1    0    0    0  501  0.00000000000E+00  0.00000000000E+00  0.15914910535E+04  0.15914910535E+04  0.25500000920E-02 0. -1.
        2   -1    0    0  501    0  0.00000000000E+00  0.00000000000E+00 -0.98780169492E+03  0.98780169492E+03  0.25500000920E-02 0.  1.
    10030    2    1    2    0    0  0.00000000000E+00  0.00000000000E+00  0.60368935862E+03  0.25792927485E+04  0.25076503426E+04 0.  0.
        2    1    3    3  502    0 -0.12001555980E+03 -0.20725489895E+03  0.15677456329E+04  0.15859333836E+04  0.25500000920E-02 0. -1.
       -2    1    3    3    0  502  0.12001555980E+03  0.20725489895E+03 -0.96405627429E+03  0.99335936485E+03  0.25500000920E-02 0.  1.
</event>
<event>
 5   0  0.3481387E-06  0.2489790E+04  0.7818609E-02  0.8406632E-01
        1   -1    0    0  501    0  0.00000000000E+00  0.00000000000E+00  0.18495060859E+04  0.18495060859E+04  0.50400001928E-02 0. -1.
       -1   -1    0    0    0  501  0.00000000000E+00  0.00000000000E+00 -0.83793398388E+03  0.83793398390E+03  0.50400001928E-02 0.  1.
    10030    2    1    2    0    0  0.00000000000E+00  0.00000000000E+00  0.10115721020E+04  0.26874400698E+04  0.24897903549E+04 0.  0.
        4    1    3    3  502    0 -0.20079961782E+03 -0.36236076810E+03  0.17729188653E+04  0.18206780958E+04  0.12699999809E+01 0. -1.
       -4    1    3    3    0  502  0.20079961782E+03  0.36236076810E+03 -0.76134676325E+03  0.86676197401E+03  0.12699999809E+01 0.  1.
</event>
<event>
 5   0  0.8056723E-06  0.2492436E+04  0.7818609E-02  0.8405685E-01
       -2   -1    0    0    0  501  0.00000000000E+00  0.00000000000E+00  0.97508943992E+03  0.97508943992E+03  0.25500000920E-02 0. -1.
        2   -1    0    0  501    0  0.00000000000E+00  0.00000000000E+00 -0.15927355567E+04  0.15927355567E+04  0.25500000920E-02 0.  1.
    10030    2    1    2    0    0  0.00000000000E+00  0.00000000000E+00 -0.61764611678E+03  0.25678249966E+04  0.24924362555E+04 0.  0.
        2    1    3    3  502    0  0.10134937648E+04  0.41844495900E+02  0.43704948485E+03  0.11045056927E+04  0.25500000920E-02 0. -1.
       -2    1    3    3    0  502 -0.10134937648E+04 -0.41844495900E+02 -0.10546956016E+04  0.14633193039E+04  0.25500000920E-02 0.  1.
</event>
<event>
 5   0  0.8407986E-06  0.2423946E+04  0.7818609E-02  0.8430593E-01
        2   -1    0    0  501    0  0.00000000000E+00  0.00000000000E+00  0.14210875768E+04  0.14210875768E+04  0.25500000920E-02 0. -1.
       -2   -1    0    0    0  501  0.00000000000E+00  0.00000000000E+00 -0.10336297337E+04  0.10336297337E+04  0.25500000920E-02 0.  1.
    10030    2    1    2    0    0  0.00000000000E+00  0.00000000000E+00  0.38745784307E+03  0.24547173105E+04  0.24239458522E+04 0.  0.
        5    1    3    3  502    0 -0.27600585866E+02  0.72338178714E+03  0.11780835008E+04  0.13827312925E+04  0.46999998093E+01 0. -1.
       -5    1    3    3    0  502  0.27600585866E+02 -0.72338178714E+03 -0.79062565772E+03  0.10719860181E+04  0.46999998093E+01 0.  1.
</event>
<event>
 5   0  0.8407986E-06  0.2497739E+04  0.7818609E-02  0.8403791E-01
        2   -1    0    0  501    0  0.00000000000E+00  0.00000000000E+00  0.12634963342E+04  0.12634963342E+04  0.25500000920E-02 0.  1.
       -2   -1    0    0    0  501  0.00000000000E+00  0.00000000000E+00 -0.12344119570E+04  0.12344119570E+04  0.25500000920E-02 0. -1.
    10030    2    1    2    0    0  0.00000000000E+00  0.00000000000E+00  0.29084377192E+02  0.24979082912E+04  0.24977389636E+04 0.  0.
        5    1    3    3  502    0 -0.98520725173E+03 -0.10630786185E+03  0.77467147668E+03  0.12578047055E+04  0.46999998093E+01 0.  1.
       -5    1    3    3    0  502  0.98520725173E+03  0.10630786185E+03 -0.74558709949E+03  0.12401035857E+04  0.46999998093E+01 0. -1.
</event>
<event>
 5   0  0.8354653E-06  0.2504443E+04  0.7818609E-02  0.8401404E-01
       -2   -1    0    0    0  501  0.00000000000E+00  0.00000000000E+00  0.10753009825E+04  0.10753009825E+04  0.25500000920E-02 0. -1.
        2   -1    0    0  501    0  0.00000000000E+00  0.00000000000E+00 -0.14582512151E+04  0.14582512151E+04  0.25500000920E-02 0.  1.
    10030    2    1    2    0    0  0.00000000000E+00  0.00000000000E+00 -0.38295023261E+03  0.25335521976E+04  0.25044432230E+04 0.  0.
        3    1    3    3  502    0  0.10790224524E+04 -0.36572702800E+03 -0.71714270182E+03  0.13462315465E+04  0.10100000352E+00 0.  1.
       -3    1    3    3    0  502 -0.10790224524E+04  0.36572702800E+03  0.33419246922E+03  0.11873206511E+04  0.10100000352E+00 0. -1.
</event>
<event>
 5   0  0.3642184E-06  0.2493905E+04  0.7818609E-02  0.8405160E-01
        1   -1    0    0  501    0  0.00000000000E+00  0.00000000000E+00  0.97251170094E+03  0.97251170095E+03  0.50400001928E-02 0.  1.
       -1   -1    0    0    0  501  0.00000000000E+00  0.00000000000E+00 -0.15988393008E+04  0.15988393008E+04  0.50400001928E-02 0. -1.
    10030    2    1    2    0    0  0.00000000000E+00  0.00000000000E+00 -0.62632759986E+03  0.25713510018E+04  0.24939045114E+04 0.  0.
        5    1    3    3  502    0 -0.10775263884E+04  0.59973021998E+03 -0.12268817687E+03  0.12392796025E+04  0.46999998093E+01 0. -1.
       -5    1    3    3    0  502  0.10775263884E+04 -0.59973021998E+03 -0.50363942300E+03  0.13320713993E+04  0.46999998093E+01 0.  1.
</event>
<event>
 5   0  0.3424193E-06  0.2500426E+04  0.7818609E-02  0.8402834E-01
        1   -1    0    0  501    0  0.00000000000E+00  0.00000000000E+00  0.15806600032E+04  0.15806600032E+04  0.50400001928E-02 0.  1.
       -1   -1    0    0    0  501  0.00000000000E+00  0.00000000000E+00 -0.98884813247E+03  0.98884813248E+03  0.50400001928E-02 0. -1.
    10030    2    1    2    0    0  0.00000000000E+00  0.00000000000E+00  0.59181187075E+03  0.25695081357E+04  0.25004261175E+04 0.  0.
        1    1    3    3  502    0 -0.37161408882E+03  0.11470336067E+04 -0.43755180041E+02  0.12065229553E+04  0.50400001928E-02 0. -1.
       -1    1    3    3    0  502  0.37161408882E+03 -0.11470336067E+04  0.63556705079E+03  0.13629851804E+04  0.50400001928E-02 0.  1.
</event>
<event>
 5   0  0.8354653E-06  0.2664581E+04  0.7818609E-02  0.8346590E-01
       -2   -1    0    0    0  501  0.00000000000E+00  0.00000000000E+00  0.94097766245E+03  0.94097766246E+03  0.25500000920E-02 0. -1.
        2   -1    0    0  501    0  0.00000000000E+00  0.00000000000E+00 -0.18863337106E+04  0.18863337106E+04  0.25500000920E-02 0.  1.
    10030    2    1    2    0    0  0.00000000000E+00  0.00000000000E+00 -0.94535604813E+03  0.28273113730E+04  0.26645809319E+04 0.  0.
        3    1    3    3  502    0 -0.34282551273E+03 -0.78824096246E+03  0.60739951654E+03  0.10525147647E+04  0.10100000352E+00 0. -1.
       -3    1    3    3    0  502  0.34282551273E+03  0.78824096246E+03 -0.15527555647E+04  0.17747966083E+04  0.10100000352E+00 0.  1.
</event>
<event>
 5   0  0.3522870E-06  0.2505612E+04  0.7818609E-02  0.8400989E-01
       -1   -1    0    0    0  501  0.00000000000E+00  0.00000000000E+00  0.16272162016E+04  0.16272162016E+04  0.50400001928E-02 0. -1.
        1   -1    0    0  501    0  0.00000000000E+00  0.00000000000E+00 -0.96454497433E+03  0.96454497435E+03  0.50400001928E-02 0.  1.
    10030    2    1    2    0    0  0.00000000000E+00  0.00000000000E+00  0.66267122727E+03  0.25917611760E+04  0.25056122680E+04 0.  0.
        2    1    3    3  502    0 -0.48804481481E+01  0.44784564775E+03  0.15415778778E+04  0.16053198735E+04  0.25500000920E-02 0. -1.
       -2    1    3    3    0  502  0.48804481481E+01 -0.44784564775E+03 -0.87890665048E+03  0.98644130249E+03  0.25500000920E-02 0.  1.
</event>
<event>
 5   0  0.8948286E-06  0.2506860E+04  0.7818609E-02  0.8400546E-01
        2   -1    0    0  501    0  0.00000000000E+00  0.00000000000E+00  0.21095892780E+04  0.21095892780E+04  0.25500000920E-02 0.  1.
       -2   -1    0    0    0  501  0.00000000000E+00  0.00000000000E+00 -0.74473583589E+03  0.74473583590E+03  0.25500000920E-02 0. -1.
    10030    2    1    2    0    0  0.00000000000E+00  0.00000000000E+00  0.13648534422E+04  0.28543251139E+04  0.25068599757E+04 0.  0.
        4    1    3    3  502    0 -0.10433510783E+04 -0.16416195672E+03 -0.86072679572E+02  0.10596889825E+04  0.12699999809E+01 0.  1.
       -4    1    3    3    0  502  0.10433510783E+04  0.16416195672E+03  0.14509261217E+04  0.17946361314E+04  0.12699999809E+01 0. -1.
</event>
<event>
 5   0  0.3481387E-06  0.2498712E+04  0.7818609E-02  0.8403445E-01
        1   -1    0    0  501    0  0.00000000000E+00  0.00000000000E+00  0.62317377543E+03  0.62317377545E+03  0.50400001928E-02 0. -1.
       -1   -1    0    0    0  501  0.00000000000E+00  0.00000000000E+00 -0.25047433686E+04  0.25047433686E+04  0.50400001928E-02 0.  1.
    10030    2    1    2    0    0  0.00000000000E+00  0.00000000000E+00 -0.18815695932E+04  0.31279171441E+04  0.24987119734E+04 0.  0.
        4    1    3    3  502    0 -0.10265667767E+04 -0.20467879955E+03 -0.87019768784E+02  0.10503841255E+04  0.12699999809E+01 0. -1.
       -4    1    3    3    0  502  0.10265667767E+04  0.20467879955E+03 -0.17945498244E+04  0.20775330186E+04  0.12699999809E+01 0.  1.
</event>
<event>
 5   0  0.8948286E-06  0.2497181E+04  0.7818609E-02  0.8403990E-01
        2   -1    0    0  501    0  0.00000000000E+00  0.00000000000E+00  0.21698428158E+04  0.21698428158E+04  0.25500000920E-02 0. -1.
       -2   -1    0    0    0  501  0.00000000000E+00  0.00000000000E+00 -0.71847522120E+03  0.71847522120E+03  0.25500000920E-02 0.  1.
    10030    2    1    2    0    0  0.00000000000E+00  0.00000000000E+00  0.14513675946E+04  0.28883180371E+04  0.24971810484E+04 0.  0.
        4    1    3    3  502    0 -0.16100782276E+03 -0.43557863744E+03  0.20662412649E+04  0.21177834748E+04  0.12699999809E+01 0. -1.
       -4    1    3    3    0  502  0.16100782276E+03  0.43557863744E+03 -0.61487367025E+03  0.77053456227E+03  0.12699999809E+01 0.  1.
</event>
<event>
 5   0  0.8579923E-06  0.2499303E+04  0.7818609E-02  0.8403234E-01
        2   -1    0    0  501    0  0.00000000000E+00  0.00000000000E+00  0.15097730767E+04  0.15097730767E+04  0.25500000920E-02 0.  1.
       -2   -1    0    0    0  501  0.00000000000E+00  0.00000000000E+00 -0.10343468489E+04  0.10343468489E+04  0.25500000920E-02 0. -1.
    10030    2    1    2    0    0  0.00000000000E+00  0.00000000000E+00  0.47542622780E+03  0.25441199256E+04  0.24993031224E+04 0.  0.
        1    1    3    3  502    0 -0.87959886542E+03  0.76124456158E+03 -0.22702771006E+03  0.11852126509E+04  0.50400001928E-02 0.  1.
       -1    1    3    3    0  502  0.87959886542E+03 -0.76124456158E+03  0.70245393786E+03  0.13589072748E+04  0.50400001928E-02 0. -1.
</event>
<event>
 5   0  0.8056723E-06  0.2473714E+04  0.7818609E-02  0.8412410E-01
        2   -1    0    0  501    0  0.00000000000E+00  0.00000000000E+00  0.93051928804E+03  0.93051928804E+03  0.25500000920E-02 0.  1.
       -2   -1    0    0    0  501  0.00000000000E+00  0.00000000000E+00 -0.16440443788E+04  0.16440443788E+04  0.25500000920E-02 0. -1.
    10030    2    1    2    0    0  0.00000000000E+00  0.00000000000E+00 -0.71352509078E+03  0.25745636669E+04  0.24737138112E+04 0.  0.
        2    1    3    3  502    0 -0.81692754962E+03  0.91274231641E+03 -0.17847233006E+03  0.12378697549E+04  0.25500000920E-02 0.  1.
       -2    1    3    3    0  502  0.81692754962E+03 -0.91274231641E+03 -0.53505276072E+03  0.13366939120E+04  0.25500000920E-02 0. -1.
</event>
<event>
 5   0  0.3484857E-06  0.2489264E+04  0.7818609E-02  0.8406820E-01
        1   -1    0    0  501    0  0.00000000000E+00  0.00000000000E+00  0.16108328590E+04  0.16108328591E+04  0.50400001928E-02 0. -1.
       -1   -1    0    0    0  501  0.00000000000E+00  0.00000000000E+00 -0.96168227143E+03  0.96168227144E+03  0.50400001928E-02 0.  1.
    10030    2    1    2    0    0  0.00000000000E+00  0.00000000000E+00  0.64915058762E+03  0.25725151305E+04  0.24892644719E+04 0.  0.
        3    1    3    3  502    0  0.82065195056E+03  0.16766322108E+03  0.12759774534E+04  0.15263351701E+04  0.10100000352E+00 0. -1.
       -3    1    3    3    0  502 -0.82065195056E+03 -0.16766322108E+03 -0.62682686579E+03  0.10461799604E+04  0.10100000352E+00 0.  1.
</event>
<event>
 5   0  0.3424193E-06  0.2610335E+04  0.7818609E-02  0.8364699E-01
       -1   -1    0    0    0  501  0.00000000000E+00  0.00000000000E+00  0.87704259737E+03  0.87704259739E+03  0.50400001928E-02 0. -1.
        1   -1    0    0  501    0  0.00000000000E+00  0.00000000000E+00 -0.19422799848E+04  0.19422799848E+04  0.50400001928E-02 0.  1.
    10030    2    1    2    0    0  0.00000000000E+00  0.00000000000E+00 -0.10652373874E+04  0.28193225822E+04  0.26103350610E+04 0.  0.
        1    1    3    3  502    0 -0.37612050004E+03 -0.11864863861E+04 -0.10843393784E+03  0.12493896485E+04  0.50400001928E-02 0. -1.
       -1    1    3    3    0  502  0.37612050004E+03  0.11864863861E+04 -0.95680344958E+03  0.15699329336E+04  0.50400001928E-02 0.  1.
</event>
<event>
 5   0  0.3522870E-06  0.2494550E+04  0.7818609E-02  0.8404930E-01
       -1   -1    0    0    0  501  0.00000000000E+00  0.00000000000E+00  0.61266362193E+03  0.61266362195E+03  0.50400001928E-02 0. -1.
        1   -1    0    0  501    0  0.00000000000E+00  0.00000000000E+00 -0.25392327719E+04  0.25392327719E+04  0.50400001928E-02 0.  1.
    10030    2    1    2    0    0  0.00000000000E+00  0.00000000000E+00 -0.19265691500E+04  0.31518963939E+04  0.24945504982E+04 0.  0.
        2    1    3    3  502    0  0.33257096629E+03 -0.28043392137E+02 -0.24817649768E+04  0.25041060840E+04  0.25500000920E-02 0.  1.
       -2    1    3    3    0  502 -0.33257096629E+03  0.28043392137E+02  0.55519582685E+03  0.64779030991E+03  0.25500000920E-02 0. -1.
</event>
<event>
 5   0  0.8056723E-06  0.2502749E+04  0.7818609E-02  0.8402007E-01
       -2   -1    0    0    0  501  0.00000000000E+00  0.00000000000E+00  0.98919195541E+03  0.98919195541E+03  0.25500000920E-02 0.  1.
        2   -1    0    0  501    0  0.00000000000E+00  0.00000000000E+00 -0.15830483013E+04  0.15830483013E+04  0.25500000920E-02 0. -1.
    10030    2    1    2    0    0  0.00000000000E+00  0.00000000000E+00 -0.59385634591E+03  0.25722402567E+04  0.25027494039E+04 0.  0.
        2    1    3    3  502    0  0.22034116128E+02 -0.14353684464E+03 -0.15743589264E+04  0.15810421744E+04  0.25500000920E-02 0. -1.
       -2    1    3    3    0  502 -0.22034116128E+02  0.14353684464E+03  0.98050258051E+03  0.99119808234E+03  0.25500000920E-02 0.  1.
</event>
<event>
 5   0  0.8407986E-06  0.2516955E+04  0.7818609E-02  0.8396970E-01
       -2   -1    0    0    0  501  0.00000000000E+00  0.00000000000E+00  0.77281852339E+03  0.77281852339E+03  0.25500000920E-02 0.  1.
        2   -1    0    0  501    0  0.00000000000E+00  0.00000000000E+00 -0.20493362748E+04  0.20493362748E+04  0.25500000920E-02 0. -1.
    10030    2    1    2    0    0  0.00000000000E+00  0.00000000000E+00 -0.12765177514E+04  0.28221547982E+04  0.25169545358E+04 0.  0.
        5    1    3    3  502    0  0.15611193478E+03  0.83164940457E+03  0.40621621275E+03  0.93864017057E+03  0.46999998093E+01 0.  1.
       -5    1    3    3    0  502 -0.15611193478E+03 -0.83164940457E+03 -0.16827339642E+04  0.18835146276E+04  0.46999998093E+01 0. -1.
</event>
<event>
 5   0  0.3424193E-06  0.2498530E+04  0.7818609E-02  0.8403510E-01
       -1   -1    0    0    0  501  0.00000000000E+00  0.00000000000E+00  0.11800068218E+04  0.11800068219E+04  0.50400001928E-02 0. -1.
        1   -1    0    0  501    0  0.00000000000E+00  0.00000000000E+00 -0.13225876839E+04  0.13225876839E+04  0.50400001928E-02 0.  1.
    10030    2    1    2    0    0  0.00000000000E+00  0.00000000000E+00 -0.14258086207E+03  0.25025945058E+04  0.24985295592E+04 0.  0.
        1    1    3    3  502    0 -0.92416347465E+03  0.21656552611E+03 -0.88482101222E+03  0.12976467080E+04  0.50400001928E-02 0.  1.
       -1    1    3    3    0  502  0.92416347465E+03 -0.21656552611E+03  0.74224015014E+03  0.12049477978E+04  0.50400001928E-02 0. -1.
</event>
<event>
 5   0  0.8579923E-06  0.2478360E+04  0.7818609E-02  0.8410736E-01
       -2   -1    0    0    0  501  0.00000000000E+00  0.00000000000E+00  0.92115799568E+03  0.92115799568E+03  0.25500000920E-02 0. -1.
        2   -1    0    0  501    0  0.00000000000E+00  0.00000000000E+00 -0.16669965533E+04  0.16669965533E+04  0.25500000920E-02 0.  1.
    10030    2    1    2    0    0  0.00000000000E+00  0.00000000000E+00 -0.74583855763E+03  0.25881545490E+04  0.24783601061E+04 0.  0.
        1    1    3    3  502    0 -0.29931387286E+03 -0.11808301395E+04 -0.13565690577E+03  0.12257044541E+04  0.50400001928E-02 0.  1.
       -1    1    3    3    0  502  0.29931387286E+03  0.11808301395E+04 -0.61018165187E+03  0.13624500949E+04  0.50400001928E-02 0. -1.
</event>
<event>
 5   0  0.3424193E-06  0.2475819E+04  0.7818609E-02  0.8411651E-01
       -1   -1    0    0    0  501  0.00000000000E+00  0.00000000000E+00  0.97206518669E+03  0.97206518670E+03  0.50400001928E-02 0.  1.
        1   -1    0    0  501    0  0.00000000000E+00  0.00000000000E+00 -0.15764579597E+04  0.15764579597E+04  0.50400001928E-02 0. -1.
    10030    2    1    2    0    0  0.00000000000E+00  0.00000000000E+00 -0.60439277297E+03  0.25485231464E+04  0.24758189763E+04 0.  0.
        1    1    3    3  502    0  0.66875878384E+02  0.24709096726E+03 -0.15489165907E+04  0.15699264105E+04  0.50400001928E-02 0. -1.
       -1    1    3    3    0  502 -0.66875878384E+02 -0.24709096726E+03  0.94452381775E+03  0.97859673591E+03  0.50400001928E-02 0.  1.
</event>
<event>
 5   0  0.8407986E-06  0.2545347E+04  0.7818609E-02  0.8387006E-01
        2   -1    0    0  501    0  0.00000000000E+00  0.00000000000E+00  0.12139167163E+04  0.12139167163E+04  0.25500000920E-02 0. -1.
       -2   -1    0    0    0  501  0.00000000000E+00  0.00000000000E+00 -0.13342742438E+04  0.13342742438E+04  0.25500000920E-02 0.  1.
    10030    2    1    2    0    0  0.00000000000E+00  0.00000000000E+00 -0.12035752750E+03  0.25481909601E+04  0.25453469773E+04 0.  0.
        5    1    3    3  502    0 -0.56652200536E+03  0.13972378943E+03  0.10721047591E+04  0.12206148550E+04  0.46999998093E+01 0. -1.
       -5    1    3    3    0  502  0.56652200536E+03 -0.13972378943E+03 -0.11924622866E+04  0.13275761051E+04  0.46999998093E+01 0.  1.
</event>
<event>
 5   0  0.8579923E-06  0.2496550E+04  0.7818609E-02  0.8404216E-01
       -2   -1    0    0    0  501  0.00000000000E+00  0.00000000000E+00  0.10318057555E+04  0.10318057555E+04  0.25500000920E-02 0.  1.
        2   -1    0    0  501    0  0.00000000000E+00  0.00000000000E+00 -0.15101585072E+04  0.15101585072E+04  0.25500000920E-02 0. -1.
    10030    2    1    2    0    0  0.00000000000E+00  0.00000000000E+00 -0.47835275172E+03  0.25419642626E+04  0.24965498107E+04 0.  0.
        1    1    3    3  502    0 -0.36979949886E+03  0.32993631884E+03 -0.14056963912E+04  0.14905005830E+04  0.50400001928E-02 0. -1.
       -1    1    3    3    0  502  0.36979949886E+03 -0.32993631884E+03  0.92734363946E+03  0.10514636796E+04  0.50400001928E-02 0.  1.
</event>
<event>
 5   0  0.8407986E-06  0.2505250E+04  0.7818609E-02  0.8401118E-01
        2   -1    0    0  501    0  0.00000000000E+00  0.00000000000E+00  0.20869541589E+04  0.20869541589E+04  0.25500000920E-02 0. -1.
       -2   -1    0    0    0  501  0.00000000000E+00  0.00000000000E+00 -0.75184638380E+03  0.75184638380E+03  0.25500000920E-02 0.  1.
    10030    2    1    2    0    0  0.00000000000E+00  0.00000000000E+00  0.13351077751E+04  0.28388005427E+04  0.25052496383E+04 0.  0.
        5    1    3    3  502    0 -0.63781193106E+03  0.42992827347E+03 -0.45271179276E+03  0.89253147678E+03  0.46999998093E+01 0.  1.
       -5    1    3    3    0  502  0.63781193106E+03 -0.42992827347E+03  0.17878195678E+04  0.19462690659E+04  0.46999998093E+01 0. -1.
</event>
<event>
 5   0  0.8407986E-06  0.2493533E+04  0.7818609E-02  0.8405293E-01
        2   -1    0    0  501    0  0.00000000000E+00  0.00000000000E+00  0.22986605762E+04  0.22986605762E+04  0.25500000920E-02 0. -1.
       -2   -1    0    0    0  501  0.00000000000E+00  0.00000000000E+00 -0.67623142160E+03  0.67623142161E+03  0.25500000920E-02 0.  1.
    10030    2    1    2    0    0  0.00000000000E+00  0.00000000000E+00  0.16224291546E+04  0.29748919978E+04  0.24935328426E+04 0.  0.
        5    1    3    3  502    0 -0.32376247404E+03  0.99778326544E+03  0.73382875191E+01  0.10490326615E+04  0.46999998093E+01 0.  1.
       -5    1    3    3    0  502  0.32376247404E+03 -0.99778326544E+03  0.16150908671E+04  0.19258593363E+04  0.46999998093E+01 0. -1.
</event>
<event>
 5   0  0.2901250E-06  0.2500762E+04  0.7818609E-02  0.8402714E-01
        4   -1    0    0  501    0  0.00000000000E+00  0.00000000000E+00  0.11026271929E+04  0.11026279243E+04  0.12699999809E+01 0.  1.
       -4   -1    0    0    0  501  0.00000000000E+00  0.00000000000E+00 -0.14179327529E+04  0.14179333216E+04  0.12699999809E+01 0. -1.
    10030    2    1    2    0    0  0.00000000000E+00  0.00000000000E+00 -0.31530555999E+03  0.25205612459E+04  0.25007621635E+04 0.  0.
        3    1    3    3  502    0  0.68876698252E+03  0.75210482235E+03  0.57153281565E+03  0.11690643223E+04  0.10100000352E+00 0. -1.
       -3    1    3    3    0  502 -0.68876698252E+03 -0.75210482235E+03 -0.88683837564E+03  0.13514969237E+04  0.10100000352E+00 0.  1.
</event>
<event>
 5   0  0.8579923E-06  0.2502637E+04  0.7818609E-02  0.8402047E-01
       -2   -1    0    0    0  501  0.00000000000E+00  0.00000000000E+00  0.64595651435E+03  0.64595651435E+03  0.25500000920E-02 0. -1.
        2   -1    0    0  501    0  0.00000000000E+00  0.00000000000E+00 -0.24239988157E+04  0.24239988157E+04  0.25500000920E-02 0.  1.
    10030    2    1    2    0    0  0.00000000000E+00  0.00000000000E+00 -0.17780423013E+04  0.30699553300E+04  0.25026368700E+04 0.  0.
        1    1    3    3  502    0  0.11035513847E+04  0.25971099716E+03 -0.15387287755E+04  0.19112722740E+04  0.50400001928E-02 0.  1.
       -1    1    3    3    0  502 -0.11035513847E+04 -0.25971099716E+03 -0.23931352582E+03  0.11586830560E+04  0.50400001928E-02 0. -1.
</event>
<event>
 5   0  0.3522870E-06  0.2500315E+04  0.7818609E-02  0.8402873E-01
       -1   -1    0    0    0  501  0.00000000000E+00  0.00000000000E+00  0.13218914720E+04  0.13218914720E+04  0.50400001928E-02 0.  1.
        1   -1    0    0  501    0  0.00000000000E+00  0.00000000000E+00 -0.11823164626E+04  0.11823164626E+04  0.50400001928E-02 0. -1.
    10030    2    1    2    0    0  0.00000000000E+00  0.00000000000E+00  0.13957500933E+03  0.25042079346E+04  0.25003152194E+04 0.  0.
        2    1    3    3  502    0  0.62825684907E+03  0.87429432081E+03  0.70622692393E+03  0.12875766757E+04  0.25500000920E-02 0.  1.
       -2    1    3    3    0  502 -0.62825684907E+03 -0.87429432081E+03 -0.56665191460E+03  0.12166312589E+04  0.25500000920E-02 0. -1.
</event>
<event>
 5   0  0.8948286E-06  0.2338457E+04  0.7818609E-02  0.8462910E-01
       -2   -1    0    0    0  501  0.00000000000E+00  0.00000000000E+00  0.12392971502E+04  0.12392971502E+04  0.25500000920E-02 0. -1.
        2   -1    0    0  501    0  0.00000000000E+00  0.00000000000E+00 -0.11031218881E+04  0.11031218881E+04  0.25500000920E-02 0.  1.
    10030    2    1    2    0    0  0.00000000000E+00  0.00000000000E+00  0.13617526208E+03  0.23424190383E+04  0.23384574508E+04 0.  0.
        4    1    3    3  502    0  0.82566477384E+03  0.61358245940E+03 -0.48863124795E+03  0.11388449687E+04  0.12699999809E+01 0.  1.
       -4    1    3    3    0  502 -0.82566477384E+03 -0.61358245940E+03  0.62480651003E+03  0.12035740696E+04  0.12699999809E+01 0. -1.
</event>
<event>
 5   0  0.3484857E-06  0.2494164E+04  0.7818609E-02  0.8405068E-01
       -1   -1    0    0    0  501  0.00000000000E+00  0.00000000000E+00  0.77870860291E+03  0.77870860293E+03  0.50400001928E-02 0.  1.
        1   -1    0    0  501    0  0.00000000000E+00  0.00000000000E+00 -0.19971704142E+04  0.19971704142E+04  0.50400001928E-02 0. -1.
    10030    2    1    2    0    0  0.00000000000E+00  0.00000000000E+00 -0.12184618113E+04  0.27758790171E+04  0.24941642151E+04 0.  0.
        3    1    3    3  502    0 -0.34953753293E+03  0.36085634868E+03  0.66110243202E+03  0.83033139597E+03  0.10100000352E+00 0.  1.
       -3    1    3    3    0  502  0.34953753293E+03 -0.36085634868E+03 -0.18795642433E+04  0.19455476211E+04  0.10100000352E+00 0. -1.
</event>
<event>
 5   0  0.8354653E-06  0.2524283E+04  0.7818609E-02  0.8394385E-01
       -2   -1    0    0    0  501  0.00000000000E+00  0.00000000000E+00  0.11172861138E+04  0.11172861138E+04  0.25500000920E-02 0. -1.
        2   -1    0    0  501    0  0.00000000000E+00  0.00000000000E+00 -0.14257768911E+04  0.14257768911E+04  0.25500000920E-02 0.  1.
    10030    2    1    2    0    0  0.00000000000E+00  0.00000000000E+00 -0.30849077726E+03  0.25430630049E+04  0.25242826480E+04 0.  0.
        3    1    3    3  502    0  0.19778483115E+03  0.12281927866E+04 -0.36896094181E+03  0.12975779542E+04  0.10100000352E+00 0. -1.
       -3    1    3    3    0  502 -0.19778483115E+03 -0.12281927866E+04  0.60470164555E+02  0.12454850507E+04  0.10100000352E+00 0.  1.
</event>
<event>
 5   0  0.3481387E-06  0.2494094E+04  0.7818609E-02  0.8405092E-01
        1   -1    0    0  501    0  0.00000000000E+00  0.00000000000E+00  0.17754014755E+04  0.17754014755E+04  0.50400001928E-02 0. -1.
       -1   -1    0    0    0  501  0.00000000000E+00  0.00000000000E+00 -0.87592951778E+03  0.87592951779E+03  0.50400001928E-02 0.  1.
    10030    2    1    2    0    0  0.00000000000E+00  0.00000000000E+00  0.89947195769E+03  0.26513309933E+04  0.24940942711E+04 0.  0.
        4    1    3    3  502    0  0.10149429816E+04  0.23878490933E+02 -0.32010543150E+03  0.10644944990E+04  0.12699999809E+01 0.  1.
       -4    1    3    3    0  502 -0.10149429816E+04 -0.23878490933E+02  0.12195773892E+04  0.15868364942E+04  0.12699999809E+01 0. -1.
</event>
<event>
 5   0  0.8579923E-06  0.2506327E+04  0.7818609E-02  0.8400735E-01
        2   -1    0    0  501    0  0.00000000000E+00  0.00000000000E+00  0.15049075922E+04  0.15049075922E+04  0.25500000920E-02 0.  1.
       -2   -1    0    0    0  501  0.00000000000E+00  0.00000000000E+00 -0.10435318610E+04  0.10435318610E+04  0.25500000920E-02 0. -1.
    10030    2    1    2    0    0  0.00000000000E+00  0.00000000000E+00  0.46137573117E+03  0.25484394532E+04  0.25063272096E+04 0.  0.
        1    1    3    3  502    0 -0.40974474657E+03 -0.91159441317E+03  0.99938231462E+03  0.14133860556E+04  0.50400001928E-02 0.  1.
       -1    1    3    3    0  502  0.40974474657E+03  0.91159441317E+03 -0.53800658345E+03  0.11350533976E+04  0.50400001928E-02 0. -1.
</event>
<event>
 5   0  0.3642184E-06  0.2460782E+04  0.7818609E-02  0.8417092E-01
       -1   -1    0    0    0  501  0.00000000000E+00  0.00000000000E+00  0.89623162792E+03  0.89623162794E+03  0.50400001928E-02 0.  1.
        1   -1    0    0  501    0  0.00000000000E+00  0.00000000000E+00 -0.16891408887E+04  0.16891408887E+04  0.50400001928E-02 0. -1.
    10030    2    1    2    0    0  0.00000000000E+00  0.00000000000E+00 -0.79290926079E+03  0.25853725167E+04  0.24607815738E+04 0.  0.
        5    1    3    3  502    0  0.29973172793E+03  0.11740549977E+04 -0.62079601515E+03  0.13614896359E+04  0.46999998093E+01 0.  1.
       -5    1    3    3    0  502 -0.29973172793E+03 -0.11740549977E+04 -0.17211324564E+03  0.12238828807E+04  0.46999998093E+01 0. -1.
</event>
<event>
 5   0  0.3481387E-06  0.2502581E+04  0.7818609E-02  0.8402067E-01
        1   -1    0    0  501    0  0.00000000000E+00  0.00000000000E+00  0.10794017310E+04  0.10794017310E+04  0.50400001928E-02 0. -1.
       -1   -1    0    0    0  501  0.00000000000E+00  0.00000000000E+00 -0.14505515888E+04  0.14505515888E+04  0.50400001928E-02 0.  1.
    10030    2    1    2    0    0  0.00000000000E+00  0.00000000000E+00 -0.37114985784E+03  0.25299533198E+04  0.25025809844E+04 0.  0.
        4    1    3    3  502    0 -0.63153041572E+03 -0.10350363958E+03  0.90144519674E+03  0.11055083559E+04  0.12699999809E+01 0. -1.
       -4    1    3    3    0  502  0.63153041572E+03  0.10350363958E+03 -0.12725950546E+04  0.14244449639E+04  0.12699999809E+01 0.  1.
</event>
<event>
 5   0  0.8354653E-06  0.2498299E+04  0.7818609E-02  0.8403592E-01
        2   -1    0    0  501    0  0.00000000000E+00  0.00000000000E+00  0.30205511488E+04  0.30205511488E+04  0.25500000920E-02 0.  1.
       -2   -1    0    0    0  501  0.00000000000E+00  0.00000000000E+00 -0.51658606637E+03  0.51658606638E+03  0.25500000920E-02 0. -1.
    10030    2    1    2    0    0  0.00000000000E+00  0.00000000000E+00  0.25039650825E+04  0.35371372152E+04  0.24982991304E+04 0.  0.
        3    1    3    3  502    0 -0.55128845239E+02 -0.12389812277E+04  0.10407409859E+04  0.16190291789E+04  0.10100000352E+00 0.  1.
       -3    1    3    3    0  502  0.55128845239E+02  0.12389812277E+04  0.14632240966E+04  0.19181080364E+04  0.10100000352E+00 0. -1.
</event>
<event>
 5   0  0.3642184E-06  0.2509083E+04  0.7818609E-02  0.8399757E-01
       -1   -1    0    0    0  501  0.00000000000E+00  0.00000000000E+00  0.14960670544E+04  0.14960670544E+04  0.50400001928E-02 0.  1.
        1   -1    0    0  501    0  0.00000000000E+00  0.00000000000E+00 -0.10520077207E+04  0.10520077207E+04  0.50400001928E-02 0. -1.
    10030    2    1    2    0    0  0.00000000000E+00  0.00000000000E+00  0.44405933373E+03  0.25480747751E+04  0.25090827742E+04 0.  0.
        5    1    3    3  502    0 -0.81851855690E+03  0.59819894221E+03  0.97245653410E+03  0.14048161457E+04  0.46999998093E+01 0.  1.
       -5    1    3    3    0  502  0.81851855690E+03 -0.59819894221E+03 -0.52839720037E+03  0.11432586294E+04  0.46999998093E+01 0. -1.
</event>
<event>
 5   0  0.3484857E-06  0.2455014E+04  0.7818609E-02  0.8419189E-01
       -1   -1    0    0    0  501  0.00000000000E+00  0.00000000000E+00  0.29565152403E+04  0.29565152403E+04  0.50400001928E-02 0. -1.
        1   -1    0    0  501    0  0.00000000000E+00  0.00000000000E+00 -0.50964519103E+03  0.50964519105E+03  0.50400001928E-02 0.  1.
    10030    2    1    2    0    0  0.00000000000E+00  0.00000000000E+00  0.24468700492E+04  0.34661604313E+04  0.24550142765E+04 0.  0.
        3    1    3    3  502    0  0.10805153591E+04  0.57851290253E+03  0.13190170913E+04  0.18005545582E+04  0.10100000352E+00 0.  1.
       -3    1    3    3    0  502 -0.10805153591E+04 -0.57851290253E+03  0.11278529579E+04  0.16656058731E+04  0.10100000352E+00 0. -1.
</event>
<event>
 5   0  0.3522870E-06  0.2511328E+04  0.7818609E-02  0.8398961E-01
       -1   -1    0    0    0  501  0.00000000000E+00  0.00000000000E+00  0.10866435396E+04  0.10866435396E+04  0.50400001928E-02 0.  1.
        1   -1    0    0  501    0  0.00000000000E+00  0.00000000000E+00 -0.14509749992E+04  0.14509749992E+04  0.50400001928E-02 0. -1.
    10030    2    1    2    0    0  0.00000000000E+00  0.00000000000E+00 -0.36433145959E+03  0.25376185388E+04  0.25113284205E+04 0.  0.
        2    1    3    3  502    0 -0.87677430500E+03 -0.75033189158E+03  0.31795139424E+03  0.11970063569E+04  0.25500000920E-02 0.  1.
       -2    1    3    3    0  502  0.87677430500E+03  0.75033189158E+03 -0.68228285382E+03  0.13406121818E+04  0.25500000920E-02 0. -1.
</event>
<event>
 5   0  0.8056723E-06  0.2460564E+04  0.7818609E-02  0.8417171E-01
        2   -1    0    0  501    0  0.00000000000E+00  0.00000000000E+00  0.21977823340E+04  0.21977823340E+04  0.25500000920E-02 0. -1.
       -2   -1    0    0    0  501  0.00000000000E+00  0.00000000000E+00 -0.68869167123E+03  0.68869167123E+03  0.25500000920E-02 0.  1.
    10030    2    1    2    0    0  0.00000000000E+00  0.00000000000E+00  0.15090906628E+04  0.28864740052E+04  0.24605644788E+04 0.  0.
        2    1    3    3  502    0  0.87952550428E+01 -0.60120418064E+03 -0.50459008854E+03  0.78494266083E+03  0.25500000920E-02 0.  1.
       -2    1    3    3    0  502 -0.87952550428E+01  0.60120418064E+03  0.20136807513E+04  0.21015313444E+04  0.25500000920E-02 0. -1.
</event>
<event>
 5   0  0.3522870E-06  0.2498613E+04  0.7818609E-02  0.8403480E-01
        1   -1    0    0  501    0  0.00000000000E+00  0.00000000000E+00  0.10660806185E+04  0.10660806185E+04  0.50400001928E-02 0. -1.
       -1   -1    0    0    0  501  0.00000000000E+00  0.00000000000E+00 -0.14640232475E+04  0.14640232475E+04  0.50400001928E-02 0.  1.
    10030    2    1    2    0    0  0.00000000000E+00  0.00000000000E+00 -0.39794262894E+03  0.25301038660E+04  0.24986130626E+04 0.  0.
        2    1    3    3  502    0 -0.60789130133E+03  0.87174017422E+03 -0.86398580564E+03  0.13696474867E+04  0.25500000920E-02 0.  1.
       -2    1    3    3    0  502  0.60789130133E+03 -0.87174017422E+03  0.46604317670E+03  0.11604563792E+04  0.25500000920E-02 0. -1.
</event>
<event>
 5   0  0.3522870E-06  0.2496162E+04  0.7818609E-02  0.8404354E-01
       -1   -1    0    0    0  501  0.00000000000E+00  0.00000000000E+00  0.13658040539E+04  0.13658040539E+04  0.50400001928E-02 0. -1.
        1   -1    0    0  501    0  0.00000000000E+00  0.00000000000E+00 -0.11405045559E+04  0.11405045559E+04  0.50400001928E-02 0.  1.
    10030    2    1    2    0    0  0.00000000000E+00  0.00000000000E+00  0.22529949807E+03  0.25063086098E+04  0.24961616502E+04 0.  0.
        2    1    3    3  502    0  0.77789352713E+03 -0.81001510860E+03 -0.43404768793E+03  0.12040100544E+04  0.25500000920E-02 0.  1.
       -2    1    3    3    0  502 -0.77789352713E+03  0.81001510860E+03  0.65934718600E+03  0.13022985554E+04  0.25500000920E-02 0. -1.
</event>
<event>
 5   0  0.3484857E-06  0.2507943E+04  0.7818609E-02  0.8400161E-01
        1   -1    0    0  501    0  0.00000000000E+00  0.00000000000E+00  0.13210206574E+04  0.13210206574E+04  0.50400001928E-02 0.  1.
       -1   -1    0    0    0  501  0.00000000000E+00  0.00000000000E+00 -0.11903259040E+04  0.11903259040E+04  0.50400001928E-02 0. -1.
    10030    2    1    2    0    0  0.00000000000E+00  0.00000000000E+00  0.13069475340E+03  0.25113465615E+04  0.25079434669E+04 0.  0.
        3    1    3    3  502    0 -0.90146866002E+03 -0.11969348397E+03 -0.79923188459E+03  0.12106791031E+04  0.10100000352E+00 0. -1.
       -3    1    3    3    0  502  0.90146866002E+03  0.11969348397E+03  0.92992663799E+03  0.13006674584E+04  0.10100000352E+00 0.  1.
</event>
<event>
 5   0  0.8579923E-06  0.2501120E+04  0.7818609E-02  0.8402587E-01
       -2   -1    0    0    0  501  0.00000000000E+00  0.00000000000E+00  0.95895266426E+03  0.95895266427E+03  0.25500000920E-02 0.  1.
        2   -1    0    0  501    0  0.00000000000E+00  0.00000000000E+00 -0.16308420148E+04  0.16308420148E+04  0.25500000920E-02 0. -1.
    10030    2    1    2    0    0  0.00000000000E+00  0.00000000000E+00 -0.67188935058E+03  0.25897946791E+04  0.25011199852E+04 0.  0.
        1    1    3    3  502    0  0.84305505439E+03  0.92228568757E+03 -0.28368161965E+03  0.12813383533E+04  0.50400001928E-02 0. -1.
       -1    1    3    3    0  502 -0.84305505439E+03 -0.92228568757E+03 -0.38820773093E+03  0.13084563258E+04  0.50400001928E-02 0.  1.
</event>
<event>
 5   0  0.8948286E-06  0.2493405E+04  0.7818609E-02  0.8405339E-01
        2   -1    0    0  501    0  0.00000000000E+00  0.00000000000E+00  0.15462119225E+04  0.15462119225E+04  0.25500000920E-02 0. -1.
       -2   -1    0    0    0  501  0.00000000000E+00  0.00000000000E+00 -0.10052095029E+04  0.10052095029E+04  0.25500000920E-02 0.  1.
    10030    2    1    2    0    0  0.00000000000E+00  0.00000000000E+00  0.54100241957E+03  0.25514214253E+04  0.24934048351E+04 0.  0.
        4    1    3    3  502    0 -0.62491830183E+03  0.96068034159E+02 -0.82898270767E+03  0.10425765649E+04  0.12699999809E+01 0.  1.
       -4    1    3    3    0  502  0.62491830183E+03 -0.96068034159E+02  0.13699851272E+04  0.15088448605E+04  0.12699999809E+01 0. -1.
</event>
<event>
 5   0  0.3424193E-06  0.2501531E+04  0.7818609E-02  0.8402440E-01
       -1   -1    0    0    0  501  0.00000000000E+00  0.00000000000E+00  0.88647874628E+03  0.88647874630E+03  0.50400001928E-02 0. -1.
        1   -1    0    0  501    0  0.00000000000E+00  0.00000000000E+00 -0.17647510441E+04  0.17647510441E+04  0.50400001928E-02 0.  1.
    10030    2    1    2    0    0  0.00000000000E+00  0.00000000000E+00 -0.87827229778E+03  0.26512297904E+04  0.25015309657E+04 0.  0.
        1    1    3    3  502    0  0.80550097487E+03 -0.50174005717E+03  0.42438503508E+03  0.10395564263E+04  0.50400001928E-02 0. -1.
       -1    1    3    3    0  502 -0.80550097487E+03  0.50174005717E+03 -0.13026573329E+04  0.16116733640E+04  0.50400001928E-02 0.  1.
</event>
<event>
 5   0  0.8579923E-06  0.2478806E+04  0.7818609E-02  0.8410575E-01
        2   -1    0    0  501    0  0.00000000000E+00  0.00000000000E+00  0.18979000879E+04  0.18979000879E+04  0.25500000920E-02 0.  1.
       -2   -1    0    0    0  501  0.00000000000E+00  0.00000000000E+00 -0.80937853164E+03  0.80937853164E+03  0.25500000920E-02 0. -1.
    10030    2    1    2    0    0  0.00000000000E+00  0.00000000000E+00  0.10885215562E+04  0.27072786195E+04  0.24788058305E+04 0.  0.
        1    1    3    3  502    0  0.39366727724E+03 -0.19021970440E+03 -0.72235668592E+03  0.84436759935E+03  0.50400001928E-02 0. -1.
       -1    1    3    3    0  502 -0.39366727724E+03  0.19021970440E+03  0.18108782421E+04  0.18629110201E+04  0.50400001928E-02 0.  1.
</event>
<event>
 5   0  0.8948286E-06  0.2466326E+04  0.7818609E-02  0.8415081E-01
        2   -1    0    0  501    0  0.00000000000E+00  0.00000000000E+00  0.11208418227E+04  0.11208418227E+04  0.25500000920E-02 0.  1.
       -2   -1    0    0    0  501  0.00000000000E+00  0.00000000000E+00 -0.13567402733E+04  0.13567402733E+04  0.25500000920E-02 0. -1.
    10030    2    1    2    0    0  0.00000000000E+00  0.00000000000E+00 -0.23589845063E+03  0.24775820960E+04  0.24663262078E+04 0.  0.
        4    1    3    3  502    0  0.61234139696E+03  0.95520275638E+03 -0.60318094038E+03  0.12849914988E+04  0.12699999809E+01 0. -1.
       -4    1    3    3    0  502 -0.61234139696E+03 -0.95520275638E+03  0.36728248976E+03  0.11925905972E+04  0.12699999809E+01 0.  1.
</event>
<event>
 5   0  0.8407986E-06  0.2500950E+04  0.7818609E-02  0.8402647E-01
       -2   -1    0    0    0  501  0.00000000000E+00  0.00000000000E+00  0.62729514326E+03  0.62729514327E+03  0.25500000920E-02 0. -1.
        2   -1    0    0  501    0  0.00000000000E+00  0.00000000000E+00 -0.24927464946E+04  0.24927464946E+04  0.25500000920E-02 0.  1.
    10030    2    1    2    0    0  0.00000000000E+00  0.00000000000E+00 -0.18654513513E+04  0.31200416378E+04  0.25009500350E+04 0.  0.
        5    1    3    3  502    0  0.83991914504E+03 -0.75826870815E+02 -0.20845607242E+04  0.22486950410E+04  0.46999998093E+01 0. -1.
       -5    1    3    3    0  502 -0.83991914504E+03  0.75826870815E+02  0.21910937289E+03  0.87134659684E+03  0.46999998093E+01 0.  1.
</event>
<event>
 5   0  0.8579923E-06  0.2499973E+04  0.7818609E-02  0.8402995E-01
        2   -1    0    0  501    0  0.00000000000E+00  0.00000000000E+00  0.18009151378E+04  0.18009151378E+04  0.25500000920E-02 0.  1.
       -2   -1    0    0    0  501  0.00000000000E+00  0.00000000000E+00 -0.86759548115E+03  0.86759548115E+03  0.25500000920E-02 0. -1.
    10030    2    1    2    0    0  0.00000000000E+00  0.00000000000E+00  0.93331965669E+03  0.26685106190E+04  0.24999726683E+04 0.  0.
        1    1    3    3  502    0 -0.15754247718E+03 -0.87328263329E+03 -0.47304433541E+03  0.10055909372E+04  0.50400001928E-02 0.  1.
       -1    1    3    3    0  502  0.15754247718E+03  0.87328263329E+03  0.14063639921E+04  0.16629196818E+04  0.50400001928E-02 0. -1.
</event>
<event>
 5   0  0.8407986E-06  0.2501190E+04  0.7818609E-02  0.8402562E-01
       -2   -1    0    0    0  501  0.00000000000E+00  0.00000000000E+00  0.67290268354E+03  0.67290268354E+03  0.25500000920E-02 0.  1.
        2   -1    0    0  501    0  0.00000000000E+00  0.00000000000E+00 -0.23242410493E+04  0.23242410493E+04  0.25500000920E-02 0. -1.
    10030    2    1    2    0    0  0.00000000000E+00  0.00000000000E+00 -0.16513383657E+04  0.29971437328E+04  0.25011901481E+04 0.  0.
        5    1    3    3  502    0  0.11883872961E+04 -0.38852032365E+03 -0.79277534288E+03  0.14804483245E+04  0.46999998093E+01 0. -1.
       -5    1    3    3    0  502 -0.11883872961E+04  0.38852032365E+03 -0.85856302286E+03  0.15166954083E+04  0.46999998093E+01 0.  1.
</event>
<event>
 5   0  0.8579923E-06  0.2509417E+04  0.7818609E-02  0.8399638E-01
        2   -1    0    0  501    0  0.00000000000E+00  0.00000000000E+00  0.10489021509E+04  0.10489021509E+04  0.25500000920E-02 0. -1.
       -2   -1    0    0    0  501  0.00000000000E+00  0.00000000000E+00 -0.15008963826E+04  0.15008963826E+04  0.25500000920E-02 0.  1.
    10030    2    1    2    0    0  0.00000000000E+00  0.00000000000E+00 -0.45199423164E+03  0.25497985335E+04  0.25094170192E+04 0.  0.
        1    1    3    3  502    0  0.20359925526E+03  0.88313858083E+03 -0.11076623281E+04  0.14311891010E+04  0.50400001928E-02 0.  1.
       -1    1    3    3    0  502 -0.20359925526E+03 -0.88313858083E+03  0.65566809649E+03  0.11186094325E+04  0.50400001928E-02 0. -1.
</event>
<event>
 5   0  0.3481387E-06  0.2503368E+04  0.7818609E-02  0.8401787E-01
        1   -1    0    0  501    0  0.00000000000E+00  0.00000000000E+00  0.17381364162E+04  0.17381364162E+04  0.50400001928E-02 0. -1.
       -1   -1    0    0    0  501  0.00000000000E+00  0.00000000000E+00 -0.90137514408E+03  0.90137514410E+03  0.50400001928E-02 0.  1.
    10030    2    1    2    0    0  0.00000000000E+00  0.00000000000E+00  0.83676127207E+03  0.26395115603E+04  0.25033681012E+04 0.  0.
        4    1    3    3  502    0 -0.67286970100E+03 -0.10550435737E+04  0.38780762752E+03  0.13100637182E+04  0.12699999809E+01 0.  1.
       -4    1    3    3    0  502  0.67286970100E+03  0.10550435737E+04  0.44895364455E+03  0.13294478421E+04  0.12699999809E+01 0. -1.
</event>
<event>
 5   0  0.3484857E-06  0.2500139E+04  0.7818609E-02  0.8402936E-01
       -1   -1    0    0    0  501  0.00000000000E+00  0.00000000000E+00  0.84335813697E+03  0.84335813698E+03  0.50400001928E-02 0.  1.
        1   -1    0    0  501    0  0.00000000000E+00  0.00000000000E+00 -0.18529182951E+04  0.18529182951E+04  0.50400001928E-02 0. -1.
    10030    2    1    2    0    0  0.00000000000E+00  0.00000000000E+00 -0.10095601582E+04  0.26962764321E+04  0.25001389732E+04 0.  0.
        3    1    3    3  502    0 -0.91948483495E+03 -0.65614226462E+03 -0.10822283838E+04  0.15643507657E+04  0.10100000352E+00 0. -1.
       -3    1    3    3    0  502  0.91948483495E+03  0.65614226462E+03  0.72668225656E+02  0.11319256664E+04  0.10100000352E+00 0.  1.
</event>
<event>
 5   0  0.8579923E-06  0.2502772E+04  0.7818609E-02  0.8401999E-01
       -2   -1    0    0    0  501  0.00000000000E+00  0.00000000000E+00  0.87939992686E+03  0.87939992686E+03  0.25500000920E-02 0. -1.
        2   -1    0    0  501    0  0.00000000000E+00  0.00000000000E+00 -0.17807221954E+04  0.17807221954E+04  0.25500000920E-02 0.  1.
    10030    2    1    2    0    0  0.00000000000E+00  0.00000000000E+00 -0.90132226853E+03  0.26601221223E+04  0.25027720379E+04 0.  0.
        1    1    3    3  502    0 -0.24533744176E+03 -0.44739897834E+03 -0.16651320668E+04  0.17415570924E+04  0.50400001928E-02 0.  1.
       -1    1    3    3    0  502  0.24533744176E+03  0.44739897834E+03  0.76380979826E+03  0.91856502987E+03  0.50400001928E-02 0. -1.
</event>
<event>
 5   0  0.3522870E-06  0.2509941E+04  0.7818609E-02  0.8399453E-01
        1   -1    0    0  501    0  0.00000000000E+00  0.00000000000E+00  0.17989692377E+04  0.17989692377E+04  0.50400001928E-02 0. -1.
       -1   -1    0    0    0  501  0.00000000000E+00  0.00000000000E+00 -0.87547394074E+03  0.87547394075E+03  0.50400001928E-02 0.  1.
    10030    2    1    2    0    0  0.00000000000E+00  0.00000000000E+00  0.92349529700E+03  0.26744431785E+04  0.25099407864E+04 0.  0.
        2    1    3    3  502    0 -0.69752878523E+03 -0.97307509868E+03  0.86260774246E+03  0.14756400887E+04  0.25500000920E-02 0. -1.
       -2    1    3    3    0  502  0.69752878523E+03  0.97307509868E+03  0.60887554535E+02  0.11988030898E+04  0.25500000920E-02 0.  1.
</event>
<event>
 5   0  0.8056723E-06  0.2495494E+04  0.7818609E-02  0.8404593E-01
       -2   -1    0    0    0  501  0.00000000000E+00  0.00000000000E+00  0.11886984840E+04  0.11886984840E+04  0.25500000920E-02 0. -1.
        2   -1    0    0  501    0  0.00000000000E+00  0.00000000000E+00 -0.13097282916E+04  0.13097282916E+04  0.25500000920E-02 0.  1.
    10030    2    1    2    0    0  0.00000000000E+00  0.00000000000E+00 -0.12102980760E+03  0.24984267755E+04  0.24954935661E+04 0.  0.
        2    1    3    3  502    0 -0.29185178225E+03 -0.93392127351E+03 -0.83568954783E+03  0.12867647136E+04  0.25500000920E-02 0.  1.
       -2    1    3    3    0  502  0.29185178225E+03  0.93392127351E+03  0.71465974023E+03  0.12116620619E+04  0.25500000920E-02 0. -1.
</event>
<event>
 5   0  0.3481387E-06  0.2498717E+04  0.7818609E-02  0.8403443E-01
       -1   -1    0    0    0  501  0.00000000000E+00  0.00000000000E+00  0.17404571672E+04  0.17404571672E+04  0.50400001928E-02 0. -1.
        1   -1    0    0  501    0  0.00000000000E+00  0.00000000000E+00 -0.89683116966E+03  0.89683116967E+03  0.50400001928E-02 0.  1.
    10030    2    1    2    0    0  0.00000000000E+00  0.00000000000E+00  0.84362599752E+03  0.26372883369E+04  0.24987166602E+04 0.  0.
        4    1    3    3  502    0 -0.24489568938E+03  0.58200911012E+02 -0.86978944303E+03  0.90548138182E+03  0.12699999809E+01 0.  1.
       -4    1    3    3    0  502  0.24489568938E+03 -0.58200911012E+02  0.17134154405E+04  0.17318069550E+04  0.12699999809E+01 0. -1.
</event>
<event>
 5   0  0.8407986E-06  0.2487037E+04  0.7818609E-02  0.8407618E-01
       -2   -1    0    0    0  501  0.00000000000E+00  0.00000000000E+00  0.23162118461E+04  0.23162118461E+04  0.25500000920E-02 0. -1.
        2   -1    0    0  501    0  0.00000000000E+00  0.00000000000E+00 -0.66761529090E+03  0.66761529091E+03  0.25500000920E-02 0.  1.
    10030    2    1    2    0    0  0.00000000000E+00  0.00000000000E+00  0.16485965552E+04  0.29838271370E+04  0.24870371493E+04 0.  0.
        5    1    3    3  502    0 -0.11425927426E+04  0.44163831171E+03  0.56766977839E+03  0.13501235652E+04  0.46999998093E+01 0.  1.
       -5    1    3    3    0  502  0.11425927426E+04 -0.44163831171E+03  0.10809267768E+04  0.16337035719E+04  0.46999998093E+01 0. -1.
</event>
<event>
 5   0  0.3481387E-06  0.2500639E+04  0.7818609E-02  0.8402758E-01
       -1   -1    0    0    0  501  0.00000000000E+00  0.00000000000E+00  0.13722820585E+04  0.13722820585E+04  0.50400001928E-02 0. -1.
        1   -1    0    0  501    0  0.00000000000E+00  0.00000000000E+00 -0.11391964454E+04  0.11391964454E+04  0.50400001928E-02 0.  1.
    10030    2    1    2    0    0  0.00000000000E+00  0.00000000000E+00  0.23308561309E+03  0.25114785040E+04  0.25006389929E+04 0.  0.
        4    1    3    3  502    0 -0.11389129574E+03 -0.12301191100E+03 -0.11278574985E+04  0.11402487918E+04  0.12699999809E+01 0.  1.
       -4    1    3    3    0  502  0.11389129574E+03  0.12301191100E+03  0.13609431116E+04  0.13712297121E+04  0.12699999809E+01 0. -1.
</event>
<event>
 5   0  0.8579923E-06  0.2531669E+04  0.7818609E-02  0.8391789E-01
        2   -1    0    0  501    0  0.00000000000E+00  0.00000000000E+00  0.14542384843E+04  0.14542384843E+04  0.25500000920E-02 0.  1.
       -2   -1    0    0    0  501  0.00000000000E+00  0.00000000000E+00 -0.11018392273E+04  0.11018392273E+04  0.25500000920E-02 0. -1.
    10030    2    1    2    0    0  0.00000000000E+00  0.00000000000E+00  0.35239925702E+03  0.25560777116E+04  0.25316690209E+04 0.  0.
        1    1    3    3  502    0 -0.85242464793E+03  0.83269603511E+03  0.60731357448E+03  0.13374753250E+04  0.50400001928E-02 0.  1.
       -1    1    3    3    0  502  0.85242464793E+03 -0.83269603511E+03 -0.25491431746E+03  0.12186023866E+04  0.50400001928E-02 0. -1.
</event>
<event>
 5   0  0.3522870E-06  0.2495291E+04  0.7818609E-02  0.8404665E-01
       -1   -1    0    0    0  501  0.00000000000E+00  0.00000000000E+00  0.83604542945E+03  0.83604542947E+03  0.50400001928E-02 0. -1.
        1   -1    0    0  501    0  0.00000000000E+00  0.00000000000E+00 -0.18618833374E+04  0.18618833374E+04  0.50400001928E-02 0.  1.
    10030    2    1    2    0    0  0.00000000000E+00  0.00000000000E+00 -0.10258379079E+04  0.26979287669E+04  0.24952908083E+04 0.  0.
        2    1    3    3  502    0 -0.81916143541E+03  0.94101950316E+03 -0.52233799887E+03  0.13525458024E+04  0.25500000920E-02 0.  1.
       -2    1    3    3    0  502  0.81916143541E+03 -0.94101950316E+03 -0.50349990908E+03  0.13453829645E+04  0.25500000920E-02 0. -1.
</event>
<event>
 5   0  0.3522870E-06  0.2496058E+04  0.7818609E-02  0.8404391E-01
       -1   -1    0    0    0  501  0.00000000000E+00  0.00000000000E+00  0.12259318839E+04  0.12259318839E+04  0.50400001928E-02 0.  1.
        1   -1    0    0  501    0  0.00000000000E+00  0.00000000000E+00 -0.12705244438E+04  0.12705244438E+04  0.50400001928E-02 0. -1.
    10030    2    1    2    0    0  0.00000000000E+00  0.00000000000E+00 -0.44592559863E+02  0.24964563277E+04  0.24960580322E+04 0.  0.
        2    1    3    3  502    0  0.10482583535E+03 -0.63526102919E+03  0.10470007835E+04  0.12291280127E+04  0.25500000920E-02 0.  1.
       -2    1    3    3    0  502 -0.10482583535E+03  0.63526102919E+03 -0.10915933433E+04  0.12673283151E+04  0.25500000920E-02 0. -1.
</event>
<event>
 5   0  0.3484857E-06  0.2505135E+04  0.7818609E-02  0.8401158E-01
        1   -1    0    0  501    0  0.00000000000E+00  0.00000000000E+00  0.16073655632E+04  0.16073655632E+04  0.50400001928E-02 0. -1.
       -1   -1    0    0    0  501  0.00000000000E+00  0.00000000000E+00 -0.97608511355E+03  0.97608511356E+03  0.50400001928E-02 0.  1.
    10030    2    1    2    0    0  0.00000000000E+00  0.00000000000E+00  0.63128044969E+03  0.25834506768E+04  0.25051352046E+04 0.  0.
        3    1    3    3  502    0  0.27533836630E+03 -0.12029412417E+04  0.53693362145E+03  0.13457996028E+04  0.10100000352E+00 0. -1.
       -3    1    3    3    0  502 -0.27533836630E+03  0.12029412417E+04  0.94346828249E+02  0.12376510740E+04  0.10100000352E+00 0.  1.
</event>
<event>
 5   0  0.3642184E-06  0.2496842E+04  0.7818609E-02  0.8404112E-01
        1   -1    0    0  501    0  0.00000000000E+00  0.00000000000E+00  0.15143563561E+04  0.15143563561E+04  0.50400001928E-02 0.  1.
       -1   -1    0    0    0  501  0.00000000000E+00  0.00000000000E+00 -0.10291861483E+04  0.10291861483E+04  0.50400001928E-02 0. -1.
    10030    2    1    2    0    0  0.00000000000E+00  0.00000000000E+00  0.48517020786E+03  0.25435425044E+04  0.24968416732E+04 0.  0.
        5    1    3    3  502    0  0.31683337255E+03  0.11901759414E+04  0.34733699808E+02  0.12321244569E+04  0.46999998093E+01 0. -1.
       -5    1    3    3    0  502 -0.31683337255E+03 -0.11901759414E+04  0.45043650805E+03  0.13114180475E+04  0.46999998093E+01 0.  1.
</event>
<event>
 5   0  0.3481387E-06  0.2492837E+04  0.7818609E-02  0.8405542E-01
       -1   -1    0    0    0  501  0.00000000000E+00  0.00000000000E+00  0.82551287617E+03  0.82551287619E+03  0.50400001928E-02 0.  1.
        1   -1    0    0  501    0  0.00000000000E+00  0.00000000000E+00 -0.18819326938E+04  0.18819326938E+04  0.50400001928E-02 0. -1.
    10030    2    1    2    0    0  0.00000000000E+00  0.00000000000E+00 -0.10564198176E+04  0.27074455699E+04  0.24928374763E+04 0.  0.
        4    1    3    3  502    0 -0.81344404780E+02 -0.64720062627E+03  0.62533438308E+03  0.90362064297E+03  0.12699999809E+01 0.  1.
       -4    1    3    3    0  502  0.81344404780E+02  0.64720062627E+03 -0.16817542007E+04  0.18038249270E+04  0.12699999809E+01 0. -1.
</event>
<event>
 5   0  0.8948286E-06  0.2506825E+04  0.7818609E-02  0.8400558E-01
        2   -1    0    0  501    0  0.00000000000E+00  0.00000000000E+00  0.21614894491E+04  0.21614894491E+04  0.25500000920E-02 0. -1.
       -2   -1    0    0    0  501  0.00000000000E+00  0.00000000000E+00 -0.72683365353E+03  0.72683365353E+03  0.25500000920E-02 0.  1.
    10030    2    1    2    0    0  0.00000000000E+00  0.00000000000E+00  0.14346557956E+04  0.28883231026E+04  0.25068253017E+04 0.  0.
        4    1    3    3  502    0 -0.50674928252E+03 -0.23722843553E+03 -0.57495250812E+03  0.80227437043E+03  0.12699999809E+01 0.  1.
       -4    1    3    3    0  502  0.50674928252E+03  0.23722843553E+03  0.20096083037E+04  0.20860487322E+04  0.12699999809E+01 0. -1.
</event>
<event>
 5   0  0.8579923E-06  0.2503835E+04  0.7818609E-02  0.8401620E-01
       -2   -1    0    0    0  501  0.00000000000E+00  0.00000000000E+00  0.84361123343E+03  0.84361123344E+03  0.25500000920E-02 0. -1.
        2   -1    0    0  501    0  0.00000000000E+00  0.00000000000E+00 -0.18578438495E+04  0.18578438496E+04  0.25500000920E-02 0.  1.
    10030    2    1    2    0    0  0.00000000000E+00  0.00000000000E+00 -0.10142326161E+04  0.27014550830E+04  0.25038354111E+04 0.  0.
        1    1    3    3  502    0 -0.77977146185E+03  0.35742182997E+02 -0.15631298642E+04  0.17471966142E+04  0.50400001928E-02 0.  1.
       -1    1    3    3    0  502  0.77977146185E+03 -0.35742182997E+02  0.54889724804E+03  0.95425846881E+03  0.50400001928E-02 0. -1.
</event>
<event>
 5   0  0.8407986E-06  0.2502864E+04  0.7818609E-02  0.8401966E-01
       -2   -1    0    0    0  501  0.00000000000E+00  0.00000000000E+00  0.73444044265E+03  0.73444044265E+03  0.25500000920E-02 0.  1.
        2   -1    0    0  501    0  0.00000000000E+00  0.00000000000E+00 -0.21323479338E+04  0.21323479338E+04  0.25500000920E-02 0. -1.
    10030    2    1    2    0    0  0.00000000000E+00  0.00000000000E+00 -0.13979074911E+04  0.28667883764E+04  0.25028644073E+04 0.  0.
        5    1    3    3  502    0  0.98213484113E+03  0.25698484729E+03 -0.15370807432E+04  0.18420828861E+04  0.46999998093E+01 0. -1.
       -5    1    3    3    0  502 -0.98213484113E+03 -0.25698484729E+03  0.13917325210E+03  0.10247054904E+04  0.46999998093E+01 0.  1.
</event>
<event>
 5   0  0.8056723E-06  0.2488384E+04  0.7818609E-02  0.8407136E-01
        2   -1    0    0  501    0  0.00000000000E+00  0.00000000000E+00  0.10606443685E+04  0.10606443685E+04  0.25500000920E-02 0. -1.
       -2   -1    0    0    0  501  0.00000000000E+00  0.00000000000E+00 -0.14595025160E+04  0.14595025160E+04  0.25500000920E-02 0.  1.
    10030    2    1    2    0    0  0.00000000000E+00  0.00000000000E+00 -0.39885814750E+03  0.25201468844E+04  0.24883835109E+04 0.  0.
        2    1    3    3  502    0 -0.19376541950E+03 -0.61153710642E+03 -0.12791000709E+04  0.14309506147E+04  0.25500000920E-02 0.  1.
       -2    1    3    3    0  502  0.19376541950E+03  0.61153710642E+03  0.88024192338E+03  0.10891962697E+04  0.25500000920E-02 0. -1.
</event>
<event>
 5   0  0.3522870E-06  0.2497619E+04  0.7818609E-02  0.8403834E-01
       -1   -1    0    0    0  501  0.00000000000E+00  0.00000000000E+00  0.95945773098E+03  0.95945773099E+03  0.50400001928E-02 0. -1.
        1   -1    0    0  501    0  0.00000000000E+00  0.00000000000E+00 -0.16254237281E+04  0.16254237281E+04  0.50400001928E-02 0.  1.
    10030    2    1    2    0    0  0.00000000000E+00  0.00000000000E+00 -0.66596599714E+03  0.25848814591E+04  0.24976191560E+04 0.  0.
        2    1    3    3  502    0 -0.33045237025E+03  0.71406850489E+03 -0.13366237577E+04  0.15510176235E+04  0.25500000920E-02 0.  1.
       -2    1    3    3    0  502  0.33045237025E+03 -0.71406850489E+03  0.67065776061E+03  0.10338638356E+04  0.25500000920E-02 0. -1.
</event>
<event>
 5   0  0.3424193E-06  0.2516473E+04  0.7818609E-02  0.8397140E-01
       -1   -1    0    0    0  501  0.00000000000E+00  0.00000000000E+00  0.10007042718E+04  0.10007042718E+04  0.50400001928E-02 0. -1.
        1   -1    0    0  501    0  0.00000000000E+00  0.00000000000E+00 -0.15820454350E+04  0.15820454350E+04  0.50400001928E-02 0.  1.
    10030    2    1    2    0    0  0.00000000000E+00  0.00000000000E+00 -0.58134116322E+03  0.25827497068E+04  0.25164734252E+04 0.  0.
        1    1    3    3  502    0  0.57879240211E+03 -0.10360390416E+04 -0.71975073745E+03  0.13879548496E+04  0.50400001928E-02 0.  1.
       -1    1    3    3    0  502 -0.57879240211E+03  0.10360390416E+04  0.13840957423E+03  0.11947948572E+04  0.50400001928E-02 0. -1.
</event>
<event>
 5   0  0.8407986E-06  0.2472292E+04  0.7818609E-02  0.8412923E-01
        2   -1    0    0  501    0  0.00000000000E+00  0.00000000000E+00  0.14664756003E+04  0.14664756003E+04  0.25500000920E-02 0.  1.
       -2   -1    0    0    0  501  0.00000000000E+00  0.00000000000E+00 -0.10419930869E+04  0.10419930869E+04  0.25500000920E-02 0. -1.
    10030    2    1    2    0    0  0.00000000000E+00  0.00000000000E+00  0.42448251342E+03  0.25084686871E+04  0.24722924079E+04 0.  0.
        5    1    3    3  502    0  0.41280214807E+03 -0.93630038756E+03 -0.49142777529E+03  0.11351596265E+04  0.46999998093E+01 0.  1.
       -5    1    3    3    0  502 -0.41280214807E+03  0.93630038756E+03  0.91591028871E+03  0.13733090607E+04  0.46999998093E+01 0. -1.
</event>
<event>
 5   0  0.8579923E-06  0.2534728E+04  0.7818609E-02  0.8390717E-01
        2   -1    0    0  501    0  0.00000000000E+00  0.00000000000E+00  0.16558332830E+04  0.16558332830E+04  0.25500000920E-02 0. -1.
       -2   -1    0    0    0  501  0.00000000000E+00  0.00000000000E+00 -0.97003246678E+03  0.97003246678E+03  0.25500000920E-02 0.  1.
    10030    2    1    2    0    0  0.00000000000E+00  0.00000000000E+00  0.68580081621E+03  0.26258657498E+04  0.25347284226E+04 0.  0.
        1    1    3    3  502    0  0.65736361212E+03  0.97015454423E+03  0.84283375775E+03  0.14435011262E+04  0.50400001928E-02 0.  1.
       -1    1    3    3    0  502 -0.65736361212E+03 -0.97015454423E+03 -0.15703294154E+03  0.11823646235E+04  0.50400001928E-02 0. -1.
</event>
<event>
 5   0  0.3642184E-06  0.2490265E+04  0.7818609E-02  0.8406462E-01
        1   -1    0    0  501    0  0.00000000000E+00  0.00000000000E+00  0.13943500648E+04  0.13943500648E+04  0.50400001928E-02 0. -1.
       -1   -1    0    0    0  501  0.00000000000E+00  0.00000000000E+00 -0.11118833656E+04  0.11118833657E+04  0.50400001928E-02 0.  1.
    10030    2    1    2    0    0  0.00000000000E+00  0.00000000000E+00  0.28246669912E+03  0.25062334304E+04  0.24902647593E+04 0.  0.
        5    1    3    3  502    0 -0.88956930295E+03 -0.86422682672E+03  0.25198902766E+03  0.12655995073E+04  0.46999998093E+01 0. -1.
       -5    1    3    3    0  502  0.88956930295E+03  0.86422682672E+03  0.30477671458E+02  0.12406339231E+04  0.46999998093E+01 0.  1.
</event>
<event>
 5   0  0.3484857E-06  0.2498507E+04  0.7818609E-02  0.8403518E-01
       -1   -1    0    0    0  501  0.00000000000E+00  0.00000000000E+00  0.62380241113E+03  0.62380241116E+03  0.50400001928E-02 0.  1.
        1   -1    0    0  501    0  0.00000000000E+00  0.00000000000E+00 -0.25018092516E+04  0.25018092516E+04  0.50400001928E-02 0. -1.
    10030    2    1    2    0    0  0.00000000000E+00  0.00000000000E+00 -0.18780068405E+04  0.31256116628E+04  0.24985072691E+04 0.  0.
        3    1    3    3  502    0  0.79011229413E+03 -0.51201575028E+03  0.88179598208E+02  0.94562847758E+03  0.10100000352E+00 0.  1.
       -3    1    3    3    0  502 -0.79011229413E+03  0.51201575028E+03 -0.19661864387E+04  0.21799831852E+04  0.10100000352E+00 0. -1.
</event>
<event>
 5   0  0.8407986E-06  0.2495775E+04  0.7818609E-02  0.8404492E-01
       -2   -1    0    0    0  501  0.00000000000E+00  0.00000000000E+00  0.90877319332E+03  0.90877319333E+03  0.25500000920E-02 0.  1.
        2   -1    0    0  501    0  0.00000000000E+00  0.00000000000E+00 -0.17135450396E+04  0.17135450396E+04  0.25500000920E-02 0. -1.
    10030    2    1    2    0    0  0.00000000000E+00  0.00000000000E+00 -0.80477184628E+03  0.26223182329E+04  0.24957754687E+04 0.  0.
        5    1    3    3  502    0  0.18100606946E+03  0.90305202497E+03  0.48228807018E+03  0.10396586121E+04  0.46999998093E+01 0.  1.
       -5    1    3    3    0  502 -0.18100606946E+03 -0.90305202497E+03 -0.12870599165E+04  0.15826596209E+04  0.46999998093E+01 0. -1.
</event>
<event>
 5   0  0.3484857E-06  0.2507757E+04  0.7818609E-02  0.8400227E-01
        1   -1    0    0  501    0  0.00000000000E+00  0.00000000000E+00  0.24343657669E+04  0.24343657669E+04  0.50400001928E-02 0. -1.
       -1   -1    0    0    0  501  0.00000000000E+00  0.00000000000E+00 -0.64584008046E+03  0.64584008048E+03  0.50400001928E-02 0.  1.
    10030    2    1    2    0    0  0.00000000000E+00  0.00000000000E+00  0.17885256865E+04  0.30802058474E+04  0.25077567528E+04 0.  0.
        3    1    3    3  502    0 -0.29698120972E+03  0.41315699778E+03 -0.51333531626E+03  0.72277915082E+03  0.10100000352E+00 0.  1.
       -3    1    3    3    0  502  0.29698120972E+03 -0.41315699778E+03  0.23018610027E+04  0.23574266966E+04  0.10100000352E+00 0. -1.
</event>
<event>
 5   0  0.8407986E-06  0.2505810E+04  0.7818609E-02  0.8400919E-01
       -2   -1    0    0    0  501  0.00000000000E+00  0.00000000000E+00  0.12305048856E+04  0.12305048856E+04  0.25500000920E-02 0. -1.
        2   -1    0    0  501    0  0.00000000000E+00  0.00000000000E+00 -0.12757125330E+04  0.12757125330E+04  0.25500000920E-02 0.  1.
    10030    2    1    2    0    0  0.00000000000E+00  0.00000000000E+00 -0.45207647363E+02  0.25062174186E+04  0.25058096531E+04 0.  0.
        5    1    3    3  502    0  0.30298584307E+03  0.10805669595E+04  0.53455328532E+03  0.12430585987E+04  0.46999998093E+01 0. -1.
       -5    1    3    3    0  502 -0.30298584307E+03 -0.10805669595E+04 -0.57976093268E+03  0.12631588198E+04  0.46999998093E+01 0.  1.
</event>
<event>
 5   0  0.3522870E-06  0.2503474E+04  0.7818609E-02  0.8401749E-01
        1   -1    0    0  501    0  0.00000000000E+00  0.00000000000E+00  0.23732713517E+04  0.23732713517E+04  0.50400001928E-02 0. -1.
       -1   -1    0    0    0  501  0.00000000000E+00  0.00000000000E+00 -0.66020512929E+03  0.66020512931E+03  0.50400001928E-02 0.  1.
    10030    2    1    2    0    0  0.00000000000E+00  0.00000000000E+00  0.17130662224E+04  0.30334764810E+04  0.25034743215E+04 0.  0.
        2    1    3    3  502    0 -0.70659523294E+03 -0.97861841457E+03  0.12581825116E+04  0.17435578732E+04  0.25500000920E-02 0. -1.
       -2    1    3    3    0  502  0.70659523294E+03  0.97861841457E+03  0.45488371080E+03  0.12899186079E+04  0.25500000920E-02 0.  1.
</event>
<event>
 5   0  0.8579923E-06  0.2506286E+04  0.7818609E-02  0.8400749E-01
        2   -1    0    0  501    0  0.00000000000E+00  0.00000000000E+00  0.14911658343E+04  0.14911658343E+04  0.25500000920E-02 0. -1.
       -2   -1    0    0    0  501  0.00000000000E+00  0.00000000000E+00 -0.10531142477E+04  0.10531142477E+04  0.25500000920E-02 0.  1.
    10030    2    1    2    0    0  0.00000000000E+00  0.00000000000E+00  0.43805158659E+03  0.25442800820E+04  0.25062864847E+04 0.  0.
        1    1    3    3  502    0  0.10894844427E+04  0.61465350160E+03  0.29494388301E+03  0.12852109446E+04  0.50400001928E-02 0. -1.
       -1    1    3    3    0  502 -0.10894844427E+04 -0.61465350160E+03  0.14310770358E+03  0.12590691374E+04  0.50400001928E-02 0.  1.
</event>
<event>
 5   0  0.3522870E-06  0.2502843E+04  0.7818609E-02  0.8401973E-01
        1   -1    0    0  501    0  0.00000000000E+00  0.00000000000E+00  0.82392436418E+03  0.82392436420E+03  0.50400001928E-02 0.  1.
       -1   -1    0    0    0  501  0.00000000000E+00  0.00000000000E+00 -0.19007282497E+04  0.19007282497E+04  0.50400001928E-02 0. -1.
    10030    2    1    2    0    0  0.00000000000E+00  0.00000000000E+00 -0.10768038855E+04  0.27246526139E+04  0.25028434347E+04 0.  0.
        2    1    3    3  502    0  0.10535162614E+04  0.60248540008E+03 -0.20611125532E+03  0.12310024451E+04  0.25500000920E-02 0. -1.
       -2    1    3    3    0  502 -0.10535162614E+04 -0.60248540008E+03 -0.87069263016E+03  0.14936501687E+04  0.25500000920E-02 0.  1.
</event>
<event>
 5   0  0.8948286E-06  0.2503492E+04  0.7818609E-02  0.8401743E-01
        2   -1    0    0  501    0  0.00000000000E+00  0.00000000000E+00  0.21105910425E+04  0.21105910425E+04  0.25500000920E-02 0. -1.
       -2   -1    0    0    0  501  0.00000000000E+00  0.00000000000E+00 -0.74238333461E+03  0.74238333461E+03  0.25500000920E-02 0.  1.
    10030    2    1    2    0    0  0.00000000000E+00  0.00000000000E+00  0.13682077079E+04  0.28529743771E+04  0.25034916546E+04 0.  0.
        4    1    3    3  502    0  0.17210312593E+03 -0.10971698335E+04  0.13421809410E+04  0.17420827824E+04  0.12699999809E+01 0. -1.
       -4    1    3    3    0  502 -0.17210312593E+03  0.10971698335E+04  0.26026766891E+02  0.11108915947E+04  0.12699999809E+01 0.  1.
</event>
<event>
 5   0  0.3481387E-06  0.2497288E+04  0.7818609E-02  0.8403952E-01
        1   -1    0    0  501    0  0.00000000000E+00  0.00000000000E+00  0.13546632948E+04  0.13546632948E+04  0.50400001928E-02 0.  1.
       -1   -1    0    0    0  501  0.00000000000E+00  0.00000000000E+00 -0.11509219417E+04  0.11509219418E+04  0.50400001928E-02 0. -1.
    10030    2    1    2    0    0  0.00000000000E+00  0.00000000000E+00  0.20374135306E+03  0.25055852366E+04  0.24972878967E+04 0.  0.
        4    1    3    3  502    0  0.91331255477E+03  0.46844950363E+03  0.81523606255E+03  0.13107998363E+04  0.12699999809E+01 0.  1.
       -4    1    3    3    0  502 -0.91331255477E+03 -0.46844950363E+03 -0.61149470949E+03  0.11947854003E+04  0.12699999809E+01 0. -1.
</event>
<event>
 5   0  0.2901250E-06  0.2541874E+04  0.7818609E-02  0.8388218E-01
        4   -1    0    0  501    0  0.00000000000E+00  0.00000000000E+00  0.10943391223E+04  0.10943398592E+04  0.12699999809E+01 0. -1.
       -4   -1    0    0    0  501  0.00000000000E+00  0.00000000000E+00 -0.14760312949E+04  0.14760318413E+04  0.12699999809E+01 0.  1.
    10030    2    1    2    0    0  0.00000000000E+00  0.00000000000E+00 -0.38169217266E+03  0.25703717005E+04  0.25418736719E+04 0.  0.
        5    1    3    3  502    0 -0.19830008764E+02 -0.10264508790E+04  0.56672859413E+03  0.11726883754E+04  0.46999998093E+01 0. -1.
       -5    1    3    3    0  502  0.19830008764E+02  0.10264508790E+04 -0.94842076679E+03  0.13976833251E+04  0.46999998093E+01 0.  1.
</event>
<event>
 5   0  0.3642184E-06  0.2491510E+04  0.7818609E-02  0.8406016E-01
        1   -1    0    0  501    0  0.00000000000E+00  0.00000000000E+00  0.26104617497E+04  0.26104617497E+04  0.50400001928E-02 0. -1.
       -1   -1    0    0    0  501  0.00000000000E+00  0.00000000000E+00 -0.59449475275E+03  0.59449475277E+03  0.50400001928E-02 0.  1.
    10030    2    1    2    0    0  0.00000000000E+00  0.00000000000E+00  0.20159669970E+04  0.32049565025E+04  0.24915102348E+04 0.  0.
        5    1    3    3  502    0  0.21706595249E+03 -0.41771635661E+03  0.24916314274E+04  0.25357156470E+04  0.46999998093E+01 0. -1.
       -5    1    3    3    0  502 -0.21706595249E+03  0.41771635661E+03 -0.47566443043E+03  0.66924085551E+03  0.46999998093E+01 0.  1.
</event>
<event>
 5   0  0.3522870E-06  0.2508303E+04  0.7818609E-02  0.8400033E-01
        1   -1    0    0  501    0  0.00000000000E+00  0.00000000000E+00  0.74439194912E+03  0.74439194914E+03  0.50400001928E-02 0.  1.
       -1   -1    0    0    0  501  0.00000000000E+00  0.00000000000E+00 -0.21129950241E+04  0.21129950241E+04  0.50400001928E-02 0. -1.
    10030    2    1    2    0    0  0.00000000000E+00  0.00000000000E+00 -0.13686030750E+04  0.28573869733E+04  0.25083033983E+04 0.  0.
        2    1    3    3  502    0  0.72338928522E+03  0.73305932644E+03 -0.14996079201E+04  0.18192009092E+04  0.25500000920E-02 0. -1.
       -2    1    3    3    0  502 -0.72338928522E+03 -0.73305932644E+03  0.13100484514E+03  0.10381860640E+04  0.25500000920E-02 0.  1.
</event>
<event>
 5   0  0.3484857E-06  0.2504039E+04  0.7818609E-02  0.8401548E-01
        1   -1    0    0  501    0  0.00000000000E+00  0.00000000000E+00  0.92919068636E+03  0.92919068637E+03  0.50400001928E-02 0.  1.
       -1   -1    0    0    0  501  0.00000000000E+00  0.00000000000E+00 -0.16870087795E+04  0.16870087795E+04  0.50400001928E-02 0. -1.
    10030    2    1    2    0    0  0.00000000000E+00  0.00000000000E+00 -0.75781809314E+03  0.26161994659E+04  0.25040390139E+04 0.  0.
        3    1    3    3  502    0  0.45751866143E+03  0.88946672582E+02 -0.15929904027E+04  0.16597750659E+04  0.10100000352E+00 0. -1.
       -3    1    3    3    0  502 -0.45751866143E+03 -0.88946672582E+02  0.83517230953E+03  0.95642440000E+03  0.10100000352E+00 0.  1.
</event>
<event>
 5   0  0.3642184E-06  0.2503981E+04  0.7818609E-02  0.8401569E-01
       -1   -1    0    0    0  501  0.00000000000E+00  0.00000000000E+00  0.10042032320E+04  0.10042032320E+04  0.50400001928E-02 0. -1.
        1   -1    0    0  501    0  0.00000000000E+00  0.00000000000E+00 -0.15609189103E+04  0.15609189103E+04  0.50400001928E-02 0.  1.
    10030    2    1    2    0    0  0.00000000000E+00  0.00000000000E+00 -0.55671567828E+03  0.25651221423E+04  0.25039806825E+04 0.  0.
        5    1    3    3  502    0 -0.12302516614E+03  0.92921528033E+03  0.57189743608E+03  0.10980277756E+04  0.46999998093E+01 0. -1.
       -5    1    3    3    0  502  0.12302516614E+03 -0.92921528033E+03 -0.11286131144E+04  0.14670943666E+04  0.46999998093E+01 0.  1.
</event>
<event>
 5   0  0.3642184E-06  0.2495634E+04  0.7818609E-02  0.8404543E-01
       -1   -1    0    0    0  501  0.00000000000E+00  0.00000000000E+00  0.14289244370E+04  0.14289244370E+04  0.50400001928E-02 0. -1.
        1   -1    0    0  501    0  0.00000000000E+00  0.00000000000E+00 -0.10896636135E+04  0.10896636135E+04  0.50400001928E-02 0.  1.
    10030    2    1    2    0    0  0.00000000000E+00  0.00000000000E+00  0.33926082356E+03  0.25185880505E+04  0.24956337595E+04 0.  0.
        5    1    3    3  502    0  0.40800352304E+03 -0.11023605593E+04 -0.25298035940E+03  0.12023671776E+04  0.46999998093E+01 0. -1.
       -5    1    3    3    0  502 -0.40800352304E+03  0.11023605593E+04  0.59224118296E+03  0.13162208729E+04  0.46999998093E+01 0.  1.
</event>
<event>
 5   0  0.3642184E-06  0.2470981E+04  0.7818609E-02  0.8413397E-01
       -1   -1    0    0    0  501  0.00000000000E+00  0.00000000000E+00  0.79822074348E+03  0.79822074350E+03  0.50400001928E-02 0. -1.
        1   -1    0    0  501    0  0.00000000000E+00  0.00000000000E+00 -0.19122991788E+04  0.19122991789E+04  0.50400001928E-02 0.  1.
    10030    2    1    2    0    0  0.00000000000E+00  0.00000000000E+00 -0.11140784354E+04  0.27105199224E+04  0.24709810783E+04 0.  0.
        5    1    3    3  502    0 -0.28500190205E+03 -0.12019371950E+04 -0.58242758927E+03  0.13656950947E+04  0.46999998093E+01 0. -1.
       -5    1    3    3    0  502  0.28500190205E+03  0.12019371950E+04 -0.53165084610E+03  0.13448248277E+04  0.46999998093E+01 0.  1.
</event>
<event>
 5   0  0.8948286E-06  0.2497652E+04  0.7818609E-02  0.8403822E-01
        2   -1    0    0  501    0  0.00000000000E+00  0.00000000000E+00  0.16959535664E+04  0.16959535664E+04  0.25500000920E-02 0. -1.
       -2   -1    0    0    0  501  0.00000000000E+00  0.00000000000E+00 -0.91958103741E+03  0.91958103741E+03  0.25500000920E-02 0.  1.
    10030    2    1    2    0    0  0.00000000000E+00  0.00000000000E+00  0.77637252901E+03  0.26155346038E+04  0.24976522897E+04 0.  0.
        4    1    3    3  502    0 -0.11467232447E+04  0.43202481051E+03  0.13610630924E+03  0.12329420818E+04  0.12699999809E+01 0.  1.
       -4    1    3    3    0  502  0.11467232447E+04 -0.43202481051E+03  0.64026621976E+03  0.13825925220E+04  0.12699999809E+01 0. -1.
</event>
<event>
 5   0  0.3481387E-06  0.2430738E+04  0.7818609E-02  0.8428085E-01
       -1   -1    0    0    0  501  0.00000000000E+00  0.00000000000E+00  0.80039338069E+03  0.80039338070E+03  0.50400001928E-02 0. -1.
        1   -1    0    0  501    0  0.00000000000E+00  0.00000000000E+00 -0.18454950639E+04  0.18454950639E+04  0.50400001928E-02 0.  1.
    10030    2    1    2    0    0  0.00000000000E+00  0.00000000000E+00 -0.10451016832E+04  0.26458884446E+04  0.24307381869E+04 0.  0.
        4    1    3    3  502    0  0.10874295017E+04  0.46710146549E+03 -0.82348801990E+03  0.14418116493E+04  0.12699999809E+01 0.  1.
       -4    1    3    3    0  502 -0.10874295017E+04 -0.46710146549E+03 -0.22161366334E+03  0.12040767953E+04  0.12699999809E+01 0. -1.
</event>
<event>
 5   0  0.8354653E-06  0.2507544E+04  0.7818609E-02  0.8400303E-01
        2   -1    0    0  501    0  0.00000000000E+00  0.00000000000E+00  0.12793711211E+04  0.12793711211E+04  0.25500000920E-02 0.  1.
       -2   -1    0    0    0  501  0.00000000000E+00  0.00000000000E+00 -0.12286847639E+04  0.12286847639E+04  0.25500000920E-02 0. -1.
    10030    2    1    2    0    0  0.00000000000E+00  0.00000000000E+00  0.50686357255E+02  0.25080558850E+04  0.25075436618E+04 0.  0.
        3    1    3    3  502    0 -0.12162869958E+04  0.11814164255E+03  0.30581495635E+03  0.12596961147E+04  0.10100000352E+00 0. -1.
       -3    1    3    3    0  502  0.12162869958E+04 -0.11814164255E+03 -0.25512859910E+03  0.12483597703E+04  0.10100000352E+00 0.  1.
</event>
<event>
 5   0  0.8579923E-06  0.2486018E+04  0.7818609E-02  0.8407984E-01
       -2   -1    0    0    0  501  0.00000000000E+00  0.00000000000E+00  0.14579919943E+04  0.14579919943E+04  0.25500000920E-02 0.  1.
        2   -1    0    0  501    0  0.00000000000E+00  0.00000000000E+00 -0.10597258969E+04  0.10597258969E+04  0.25500000920E-02 0. -1.
    10030    2    1    2    0    0  0.00000000000E+00  0.00000000000E+00  0.39826609741E+03  0.25177178912E+04  0.24860184021E+04 0.  0.
        1    1    3    3  502    0 -0.23395039724E+01 -0.21556670242E+03 -0.10406486297E+04  0.10627436412E+04  0.50400001928E-02 0. -1.
       -1    1    3    3    0  502  0.23395039724E+01  0.21556670242E+03  0.14389147271E+04  0.14549742500E+04  0.50400001928E-02 0.  1.
</event>
<event>
 5   0  0.3481387E-06  0.2491207E+04  0.7818609E-02  0.8406125E-01
       -1   -1    0    0    0  501  0.00000000000E+00  0.00000000000E+00  0.16323516977E+04  0.16323516978E+04  0.50400001928E-02 0. -1.
        1   -1    0    0  501    0  0.00000000000E+00  0.00000000000E+00 -0.95048651766E+03  0.95048651767E+03  0.50400001928E-02 0.  1.
    10030    2    1    2    0    0  0.00000000000E+00  0.00000000000E+00  0.68186518008E+03  0.25828382154E+04  0.24912071619E+04 0.  0.
        4    1    3    3  502    0  0.53896683992E+03 -0.19710812310E+03 -0.80525760093E+03  0.98882672066E+03  0.12699999809E+01 0.  1.
       -4    1    3    3    0  502 -0.53896683992E+03  0.19710812310E+03  0.14871227810E+04  0.15940114948E+04  0.12699999809E+01 0. -1.
</event>
<event>
 5   0  0.8579923E-06  0.2492657E+04  0.7818609E-02  0.8405606E-01
       -2   -1    0    0    0  501  0.00000000000E+00  0.00000000000E+00  0.14004261663E+04  0.14004261663E+04  0.25500000920E-02 0. -1.
        2   -1    0    0  501    0  0.00000000000E+00  0.00000000000E+00 -0.11091875387E+04  0.11091875387E+04  0.25500000920E-02 0.  1.
    10030    2    1    2    0    0  0.00000000000E+00  0.00000000000E+00  0.29123862754E+03  0.25096137050E+04  0.24926574193E+04 0.  0.
        1    1    3    3  502    0  0.91971784332E+03  0.23134528576E+03 -0.66854327403E+03  0.11603239469E+04  0.50400001928E-02 0. -1.
       -1    1    3    3    0  502 -0.91971784332E+03 -0.23134528576E+03  0.95978190157E+03  0.13492897580E+04  0.50400001928E-02 0.  1.
</event>
<event>
 5   0  0.8354653E-06  0.2498733E+04  0.7818609E-02  0.8403437E-01
       -2   -1    0    0    0  501  0.00000000000E+00  0.00000000000E+00  0.13215512981E+04  0.13215512981E+04  0.25500000920E-02 0. -1.
        2   -1    0    0  501    0  0.00000000000E+00  0.00000000000E+00 -0.11811247711E+04  0.11811247711E+04  0.25500000920E-02 0.  1.
    10030    2    1    2    0    0  0.00000000000E+00  0.00000000000E+00  0.14042652703E+03  0.25026760692E+04  0.24987332586E+04 0.  0.
        3    1    3    3  502    0  0.19146846949E+03  0.75885793596E+03 -0.90517730568E+03  0.11966083347E+04  0.10100000352E+00 0.  1.
       -3    1    3    3    0  502 -0.19146846949E+03 -0.75885793596E+03  0.10456038327E+04  0.13060677344E+04  0.10100000352E+00 0. -1.
</event>
<event>
 5   0  0.3522870E-06  0.2502233E+04  0.7818609E-02  0.8402191E-01
       -1   -1    0    0    0  501  0.00000000000E+00  0.00000000000E+00  0.90177780518E+03  0.90177780520E+03  0.50400001928E-02 0. -1.
        1   -1    0    0  501    0  0.00000000000E+00  0.00000000000E+00 -0.17357844333E+04  0.17357844333E+04  0.50400001928E-02 0.  1.
    10030    2    1    2    0    0  0.00000000000E+00  0.00000000000E+00 -0.83400662808E+03  0.26375622385E+04  0.25022325044E+04 0.  0.
        2    1    3    3  502    0  0.98518237794E+03 -0.22378784044E+03 -0.11949045545E+04  0.15647562781E+04  0.25500000920E-02 0.  1.
       -2    1    3    3    0  502 -0.98518237794E+03  0.22378784044E+03  0.36089792645E+03  0.10728059604E+04  0.25500000920E-02 0. -1.
</event>
<event>
 5   0  0.8354653E-06  0.2495423E+04  0.7818609E-02  0.8404618E-01
       -2   -1    0    0    0  501  0.00000000000E+00  0.00000000000E+00  0.20130397033E+04  0.20130397033E+04  0.25500000920E-02 0. -1.
        2   -1    0    0  501    0  0.00000000000E+00  0.00000000000E+00 -0.77334957318E+03  0.77334957318E+03  0.25500000920E-02 0.  1.
    10030    2    1    2    0    0  0.00000000000E+00  0.00000000000E+00  0.12396901302E+04  0.27863892765E+04  0.24954225256E+04 0.  0.
        3    1    3    3  502    0 -0.26320495484E+03  0.10867314305E+04  0.12380437163E+04  0.16682368848E+04  0.10100000352E+00 0. -1.
       -3    1    3    3    0  502  0.26320495484E+03 -0.10867314305E+04  0.16464138874E+01  0.11181523917E+04  0.10100000352E+00 0.  1.
</event>
<event>
 5   0  0.3481387E-06  0.2505343E+04  0.7818609E-02  0.8401085E-01
        1   -1    0    0  501    0  0.00000000000E+00  0.00000000000E+00  0.15367833295E+04  0.15367833295E+04  0.50400001928E-02 0.  1.
       -1   -1    0    0    0  501  0.00000000000E+00  0.00000000000E+00 -0.10210845014E+04  0.10210845014E+04  0.50400001928E-02 0. -1.
    10030    2    1    2    0    0  0.00000000000E+00  0.00000000000E+00  0.51569882812E+03  0.25578678308E+04  0.25053428026E+04 0.  0.
        4    1    3    3  502    0 -0.33643141585E+03  0.19938430718E+03  0.14728597063E+04  0.15238955105E+04  0.12699999809E+01 0.  1.
       -4    1    3    3    0  502  0.33643141585E+03 -0.19938430718E+03 -0.95716087821E+03  0.10339723203E+04  0.12699999809E+01 0. -1.
</event>
<event>
 5   0  0.3522870E-06  0.2515731E+04  0.7818609E-02  0.8397403E-01
       -1   -1    0    0    0  501  0.00000000000E+00  0.00000000000E+00  0.10389765315E+04  0.10389765315E+04  0.50400001928E-02 0. -1.
        1   -1    0    0  501    0  0.00000000000E+00  0.00000000000E+00 -0.15228693101E+04  0.15228693101E+04  0.50400001928E-02 0.  1.
    10030    2    1    2    0    0  0.00000000000E+00  0.00000000000E+00 -0.48389277856E+03  0.25618458416E+04  0.25157308868E+04 0.  0.
        2    1    3    3  502    0  0.75994132799E+03  0.64951408189E+03 -0.10193843842E+04  0.14277688494E+04  0.25500000920E-02 0.  1.
       -2    1    3    3    0  502 -0.75994132799E+03 -0.64951408189E+03  0.53549160560E+03  0.11340769922E+04  0.25500000920E-02 0. -1.
</event>
<event>
 5   0  0.3424193E-06  0.2491916E+04  0.7818609E-02  0.8405871E-01
        1   -1    0    0  501    0  0.00000000000E+00  0.00000000000E+00  0.22987755937E+04  0.22987755937E+04  0.50400001928E-02 0.  1.
       -1   -1    0    0    0  501  0.00000000000E+00  0.00000000000E+00 -0.67532083510E+03  0.67532083512E+03  0.50400001928E-02 0. -1.
    10030    2    1    2    0    0  0.00000000000E+00  0.00000000000E+00  0.16234547586E+04  0.29740964288E+04  0.24919157720E+04 0.  0.
        1    1    3    3  502    0  0.11851231981E+04  0.33743719486E+03  0.10318952430E+04  0.16072301166E+04  0.50400001928E-02 0. -1.
       -1    1    3    3    0  502 -0.11851231981E+04 -0.33743719486E+03  0.59155951557E+03  0.13668663122E+04  0.50400001928E-02 0.  1.
</event>
<event>
 5   0  0.8579923E-06  0.2496744E+04  0.7818609E-02  0.8404146E-01
       -2   -1    0    0    0  501  0.00000000000E+00  0.00000000000E+00  0.88163589195E+03  0.88163589195E+03  0.25500000920E-02 0.  1.
        2   -1    0    0  501    0  0.00000000000E+00  0.00000000000E+00 -0.17676606033E+04  0.17676606033E+04  0.25500000920E-02 0. -1.
    10030    2    1    2    0    0  0.00000000000E+00  0.00000000000E+00 -0.88602471139E+03  0.26492964953E+04  0.24967443062E+04 0.  0.
        1    1    3    3  502    0  0.18894656000E+03  0.36432325058E+03  0.80800697889E+03  0.90626017865E+03  0.50400001928E-02 0.  1.
       -1    1    3    3    0  502 -0.18894656000E+03 -0.36432325058E+03 -0.16940316903E+04  0.17430363166E+04  0.50400001928E-02 0. -1.
</event>
<event>
 5   0  0.3424193E-06  0.2498810E+04  0.7818609E-02  0.8403409E-01
       -1   -1    0    0    0  501  0.00000000000E+00  0.00000000000E+00  0.73571767390E+03  0.73571767391E+03  0.50400001928E-02 0. -1.
        1   -1    0    0  501    0  0.00000000000E+00  0.00000000000E+00 -0.21217560308E+04  0.21217560308E+04  0.50400001928E-02 0.  1.
    10030    2    1    2    0    0  0.00000000000E+00  0.00000000000E+00 -0.13860383569E+04  0.28574737047E+04  0.24988104463E+04 0.  0.
        1    1    3    3  502    0 -0.13634013724E+03  0.47339849845E+03  0.61996389133E+03  0.79186488616E+03  0.50400001928E-02 0. -1.
       -1    1    3    3    0  502  0.13634013724E+03 -0.47339849845E+03 -0.20060022482E+04  0.20656088185E+04  0.50400001928E-02 0.  1.
</event>
<event>
 5   0  0.3481387E-06  0.2497407E+04  0.7818609E-02  0.8403910E-01
        1   -1    0    0  501    0  0.00000000000E+00  0.00000000000E+00  0.15021041873E+04  0.15021041873E+04  0.50400001928E-02 0.  1.
       -1   -1    0    0    0  501  0.00000000000E+00  0.00000000000E+00 -0.10380509440E+04  0.10380509440E+04  0.50400001928E-02 0. -1.
    10030    2    1    2    0    0  0.00000000000E+00  0.00000000000E+00  0.46405324331E+03  0.25401551313E+04  0.24974071911E+04 0.  0.
        4    1    3    3  502    0 -0.79740574090E+03  0.10916623606E+03 -0.73903290609E+03  0.10926776432E+04  0.12699999809E+01 0. -1.
       -4    1    3    3    0  502  0.79740574090E+03 -0.10916623606E+03  0.12030861494E+04  0.14474774881E+04  0.12699999809E+01 0.  1.
</event>
<event>
 5   0  0.8056723E-06  0.2504161E+04  0.7818609E-02  0.8401505E-01
        2   -1    0    0  501    0  0.00000000000E+00  0.00000000000E+00  0.13807310340E+04  0.13807310340E+04  0.25500000920E-02 0.  1.
       -2   -1    0    0    0  501  0.00000000000E+00  0.00000000000E+00 -0.11354167465E+04  0.11354167465E+04  0.25500000920E-02 0. -1.
    10030    2    1    2    0    0  0.00000000000E+00  0.00000000000E+00  0.24531428744E+03  0.25161477805E+04  0.25041606486E+04 0.  0.
        2    1    3    3  502    0  0.10636015742E+04 -0.61227154453E+03  0.37199898396E+03  0.12823837167E+04  0.25500000920E-02 0. -1.
       -2    1    3    3    0  502 -0.10636015742E+04  0.61227154453E+03 -0.12668469652E+03  0.12337640638E+04  0.25500000920E-02 0.  1.
</event>
<event>
 5   0  0.8056723E-06  0.2515369E+04  0.7818609E-02  0.8397531E-01
       -2   -1    0    0    0  501  0.00000000000E+00  0.00000000000E+00  0.84006203606E+03  0.84006203606E+03  0.25500000920E-02 0. -1.
        2   -1    0    0  501    0  0.00000000000E+00  0.00000000000E+00 -0.18829213161E+04  0.18829213161E+04  0.25500000920E-02 0.  1.
    10030    2    1    2    0    0  0.00000000000E+00  0.00000000000E+00 -0.10428592800E+04  0.27229833521E+04  0.25153693284E+04 0.  0.
        2    1    3    3  502    0  0.21842618831E+03 -0.47407181637E+03 -0.17601280120E+04  0.18358934352E+04  0.25500000920E-02 0.  1.
       -2    1    3    3    0  502 -0.21842618831E+03  0.47407181637E+03  0.71726873199E+03  0.88708991692E+03  0.25500000920E-02 0. -1.
</event>
<event>
 5   0  0.8407986E-06  0.2497601E+04  0.7818609E-02  0.8403841E-01
        2   -1    0    0  501    0  0.00000000000E+00  0.00000000000E+00  0.98823718572E+03  0.98823718573E+03  0.25500000920E-02 0. -1.
       -2   -1    0    0    0  501  0.00000000000E+00  0.00000000000E+00 -0.15780657395E+04  0.15780657395E+04  0.25500000920E-02 0.  1.
    10030    2    1    2    0    0  0.00000000000E+00  0.00000000000E+00 -0.58982855378E+03  0.25663029252E+04  0.24976014456E+04 0.  0.
        5    1    3    3  502    0  0.87376717651E+03 -0.87691457521E+03 -0.46385375014E+03  0.13219798192E+04  0.46999998093E+01 0. -1.
       -5    1    3    3    0  502 -0.87376717651E+03  0.87691457521E+03 -0.12597480364E+03  0.12443231060E+04  0.46999998093E+01 0.  1.
</event>
<event>
 5   0  0.8579923E-06  0.2497423E+04  0.7818609E-02  0.8403904E-01
        2   -1    0    0  501    0  0.00000000000E+00  0.00000000000E+00  0.24409313872E+04  0.24409313872E+04  0.25500000920E-02 0. -1.
       -2   -1    0    0    0  501  0.00000000000E+00  0.00000000000E+00 -0.63880534478E+03  0.63880534478E+03  0.25500000920E-02 0.  1.
    10030    2    1    2    0    0  0.00000000000E+00  0.00000000000E+00  0.18021260424E+04  0.30797367319E+04  0.24974226846E+04 0.  0.
        1    1    3    3  502    0  0.24855140395E+03 -0.11736856856E+04  0.47394564485E+03  0.12899381239E+04  0.50400001928E-02 0. -1.
       -1    1    3    3    0  502 -0.24855140395E+03  0.11736856856E+04  0.13281803975E+04  0.17897986081E+04  0.50400001928E-02 0.  1.
</event>
<event>
 5   0  0.3484857E-06  0.2501276E+04  0.7818609E-02  0.8402531E-01
       -1   -1    0    0    0  501  0.00000000000E+00  0.00000000000E+00  0.18236172958E+04  0.18236172958E+04  0.50400001928E-02 0.  1.
        1   -1    0    0  501    0  0.00000000000E+00  0.00000000000E+00 -0.85768813449E+03  0.85768813450E+03  0.50400001928E-02 0. -1.
    10030    2    1    2    0    0  0.00000000000E+00  0.00000000000E+00  0.96592916133E+03  0.26813054303E+04  0.25012756078E+04 0.  0.
        3    1    3    3  502    0  0.10397121295E+04  0.62676665751E+03  0.80501624687E+03  0.14566704923E+04  0.10100000352E+00 0.  1.
       -3    1    3    3    0  502 -0.10397121295E+04 -0.62676665751E+03  0.16091291447E+03  0.12246349380E+04  0.10100000352E+00 0. -1.
</event>
<event>
 5   0  0.8948286E-06  0.2506525E+04  0.7818609E-02  0.8400665E-01
        2   -1    0    0  501    0  0.00000000000E+00  0.00000000000E+00  0.20411549632E+04  0.20411549632E+04  0.25500000920E-02 0.  1.
       -2   -1    0    0    0  501  0.00000000000E+00  0.00000000000E+00 -0.76949904152E+03  0.76949904153E+03  0.25500000920E-02 0. -1.
    10030    2    1    2    0    0  0.00000000000E+00  0.00000000000E+00  0.12716559217E+04  0.28106540047E+04  0.25065249153E+04 0.  0.
        4    1    3    3  502    0 -0.66812184943E+03 -0.60343291591E+03 -0.34182378015E+03  0.96299698819E+03  0.12699999809E+01 0. -1.
       -4    1    3    3    0  502  0.66812184943E+03  0.60343291591E+03  0.16134797018E+04  0.18476570165E+04  0.12699999809E+01 0.  1.
</event>
<event>
 5   0  0.8407986E-06  0.2496276E+04  0.7818609E-02  0.8404313E-01
        2   -1    0    0  501    0  0.00000000000E+00  0.00000000000E+00  0.23926532561E+04  0.23926532561E+04  0.25500000920E-02 0.  1.
       -2   -1    0    0    0  501  0.00000000000E+00  0.00000000000E+00 -0.65109684514E+03  0.65109684514E+03  0.25500000920E-02 0. -1.
    10030    2    1    2    0    0  0.00000000000E+00  0.00000000000E+00  0.17415564110E+04  0.30437501013E+04  0.24962764163E+04 0.  0.
        5    1    3    3  502    0 -0.95280136790E+03  0.52499381693E+02  0.18517332001E+04  0.20831525546E+04  0.46999998093E+01 0.  1.
       -5    1    3    3    0  502  0.95280136790E+03 -0.52499381693E+02 -0.11017678906E+03  0.96059754663E+03  0.46999998093E+01 0. -1.
</event>
<event>
 5   0  0.8354653E-06  0.2502593E+04  0.7818609E-02  0.8402062E-01
       -2   -1    0    0    0  501  0.00000000000E+00  0.00000000000E+00  0.88660923718E+03  0.88660923718E+03  0.25500000920E-02 0. -1.
        2   -1    0    0  501    0  0.00000000000E+00  0.00000000000E+00 -0.17659897500E+04  0.17659897500E+04  0.25500000920E-02 0.  1.
    10030    2    1    2    0    0  0.00000000000E+00  0.00000000000E+00 -0.87938051279E+03  0.26525989872E+04  0.25025929154E+04 0.  0.
        3    1    3    3  502    0 -0.82364098878E+03 -0.73528180952E+03  0.18443277260E+03  0.11193923689E+04  0.10100000352E+00 0. -1.
       -3    1    3    3    0  502  0.82364098878E+03  0.73528180952E+03 -0.10638132854E+04  0.15332066182E+04  0.10100000352E+00 0.  1.
</event>
<event>
 5   0  0.3424193E-06  0.2540719E+04  0.7818609E-02  0.8388621E-01
        1   -1    0    0  501    0  0.00000000000E+00  0.00000000000E+00  0.19275003445E+04  0.19275003445E+04  0.50400001928E-02 0.  1.
       -1   -1    0    0    0  501  0.00000000000E+00  0.00000000000E+00 -0.83725729959E+03  0.83725729961E+03  0.50400001928E-02 0. -1.
    10030    2    1    2    0    0  0.00000000000E+00  0.00000000000E+00  0.10902430449E+04  0.27647576441E+04  0.25407193733E+04 0.  0.
        1    1    3    3  502    0 -0.11305240657E+04  0.16628313608E+03 -0.58870786510E+02  0.11442030038E+04  0.50400001928E-02 0.  1.
       -1    1    3    3    0  502  0.11305240657E+04 -0.16628313608E+03  0.11491138314E+04  0.16205546402E+04  0.50400001928E-02 0. -1.
</event>
<event>
 5   0  0.3522870E-06  0.2528246E+04  0.7818609E-02  0.8392991E-01
       -1   -1    0    0    0  501  0.00000000000E+00  0.00000000000E+00  0.58018700225E+03  0.58018700227E+03  0.50400001928E-02 0. -1.
        1   -1    0    0  501    0  0.00000000000E+00  0.00000000000E+00 -0.27542971982E+04  0.27542971982E+04  0.50400001928E-02 0.  1.
    10030    2    1    2    0    0  0.00000000000E+00  0.00000000000E+00 -0.21741101959E+04  0.33344842005E+04  0.25282463763E+04 0.  0.
        2    1    3    3  502    0  0.23881620051E+03  0.78974192192E+03  0.17611168101E+03  0.84364732268E+03  0.25500000920E-02 0. -1.
       -2    1    3    3    0  502 -0.23881620051E+03 -0.78974192192E+03 -0.23502218770E+04  0.24908368778E+04  0.25500000920E-02 0.  1.
</event>
<event>
 5   0  0.3522870E-06  0.2500608E+04  0.7818609E-02  0.8402769E-01
        1   -1    0    0  501    0  0.00000000000E+00  0.00000000000E+00  0.16167355984E+04  0.16167355984E+04  0.50400001928E-02 0.  1.
       -1   -1    0    0    0  501  0.00000000000E+00  0.00000000000E+00 -0.96692351139E+03  0.96692351141E+03  0.50400001928E-02 0. -1.
    10030    2    1    2    0    0  0.00000000000E+00  0.00000000000E+00  0.64981208704E+03  0.25836591098E+04  0.25006076556E+04 0.  0.
        2    1    3    3  502    0 -0.13753345535E+03 -0.12377570486E+04  0.43950276909E+03  0.13206515993E+04  0.25500000920E-02 0.  1.
       -2    1    3    3    0  502  0.13753345535E+03  0.12377570486E+04  0.21030931795E+03  0.12630075106E+04  0.25500000920E-02 0. -1.
</event>
<event>
 5   0  0.8056723E-06  0.2484895E+04  0.7818609E-02  0.8408387E-01
       -2   -1    0    0    0  501  0.00000000000E+00  0.00000000000E+00  0.74255866408E+03  0.74255866409E+03  0.25500000920E-02 0. -1.
        2   -1    0    0  501    0  0.00000000000E+00  0.00000000000E+00 -0.20788596452E+04  0.20788596452E+04  0.25500000920E-02 0.  1.
    10030    2    1    2    0    0  0.00000000000E+00  0.00000000000E+00 -0.13363009811E+04  0.28214183093E+04  0.24848945579E+04 0.  0.
        2    1    3    3  502    0 -0.11913075607E+04  0.13392437575E+03 -0.29756627748E+03  0.12351903222E+04  0.25500000920E-02 0.  1.
       -2    1    3    3    0  502  0.11913075607E+04 -0.13392437575E+03 -0.10387347037E+04  0.15862279871E+04  0.25500000920E-02 0. -1.
</event>
<event>
 5   0  0.8948286E-06  0.2496917E+04  0.7818609E-02  0.8404085E-01
        2   -1    0    0  501    0  0.00000000000E+00  0.00000000000E+00  0.11017435160E+04  0.11017435160E+04  0.25500000920E-02 0. -1.
       -2   -1    0    0    0  501  0.00000000000E+00  0.00000000000E+00 -0.14147107999E+04  0.14147107999E+04  0.25500000920E-02 0.  1.
    10030    2    1    2    0    0  0.00000000000E+00  0.00000000000E+00 -0.31296728394E+03  0.25164543159E+04  0.24969168594E+04 0.  0.
        4    1    3    3  502    0  0.10824965571E+04  0.18569046048E+03 -0.75473355145E+03  0.13326305151E+04  0.12699999809E+01 0.  1.
       -4    1    3    3    0  502 -0.10824965571E+04 -0.18569046048E+03  0.44176626751E+03  0.11838238007E+04  0.12699999809E+01 0. -1.
</event>
<event>
 5   0  0.8407986E-06  0.2489336E+04  0.7818609E-02  0.8406794E-01
        2   -1    0    0  501    0  0.00000000000E+00  0.00000000000E+00  0.93773818221E+03  0.93773818222E+03  0.25500000920E-02 0.  1.
       -2   -1    0    0    0  501  0.00000000000E+00  0.00000000000E+00 -0.16520589738E+04  0.16520589738E+04  0.25500000920E-02 0. -1.
    10030    2    1    2    0    0  0.00000000000E+00  0.00000000000E+00 -0.71432079159E+03  0.25897971560E+04  0.24893362802E+04 0.  0.
        5    1    3    3  502    0 -0.56379892167E+03 -0.68620154551E+03 -0.12643816209E+04  0.15451293662E+04  0.46999998093E+01 0. -1.
       -5    1    3    3    0  502  0.56379892167E+03  0.68620154551E+03  0.55006082929E+03  0.10446677898E+04  0.46999998093E+01 0.  1.
</event>
<event>
 5   0  0.3424193E-06  0.2501717E+04  0.7818609E-02  0.8402374E-01
        1   -1    0    0  501    0  0.00000000000E+00  0.00000000000E+00  0.25905022849E+04  0.25905022849E+04  0.50400001928E-02 0. -1.
       -1   -1    0    0    0  501  0.00000000000E+00  0.00000000000E+00 -0.60399362555E+03  0.60399362557E+03  0.50400001928E-02 0.  1.
    10030    2    1    2    0    0  0.00000000000E+00  0.00000000000E+00  0.19865086593E+04  0.31944959104E+04  0.25017169041E+04 0.  0.
        1    1    3    3  502    0  0.11219114335E+04 -0.54713284597E+03  0.88945977147E+03  0.15327029395E+04  0.50400001928E-02 0.  1.
       -1    1    3    3    0  502 -0.11219114335E+04  0.54713284597E+03  0.10970488878E+04  0.16617929709E+04  0.50400001928E-02 0. -1.
</event>
<event>
 5   0  0.3481387E-06  0.2502026E+04  0.7818609E-02  0.8402264E-01
        1   -1    0    0  501    0  0.00000000000E+00  0.00000000000E+00  0.14022850031E+04  0.14022850031E+04  0.50400001928E-02 0.  1.
       -1   -1    0    0    0  501  0.00000000000E+00  0.00000000000E+00 -0.11160596694E+04  0.11160596694E+04  0.50400001928E-02 0. -1.
    10030    2    1    2    0    0  0.00000000000E+00  0.00000000000E+00  0.28622533369E+03  0.25183446725E+04  0.25020261685E+04 0.  0.
        4    1    3    3  502    0 -0.10642838008E+04  0.62705756615E+03 -0.55992887178E+02  0.12365427676E+04  0.12699999809E+01 0. -1.
       -4    1    3    3    0  502  0.10642838008E+04 -0.62705756615E+03  0.34221822086E+03  0.12818019049E+04  0.12699999809E+01 0.  1.
</event>
<event>
 5   0  0.8056723E-06  0.2514337E+04  0.7818609E-02  0.8397896E-01
        2   -1    0    0  501    0  0.00000000000E+00  0.00000000000E+00  0.16818041672E+04  0.16818041672E+04  0.25500000920E-02 0.  1.
       -2   -1    0    0    0  501  0.00000000000E+00  0.00000000000E+00 -0.93974803148E+03  0.93974803149E+03  0.25500000920E-02 0. -1.
    10030    2    1    2    0    0  0.00000000000E+00  0.00000000000E+00  0.74205613575E+03  0.26215521987E+04  0.25143366167E+04 0.  0.
        2    1    3    3  502    0  0.85180287730E+03  0.91629710253E+02  0.13303196320E+04  0.15823130123E+04  0.25500000920E-02 0.  1.
       -2    1    3    3    0  502 -0.85180287730E+03 -0.91629710253E+02 -0.58826349625E+03  0.10392391864E+04  0.25500000920E-02 0. -1.
</event>
<event>
 5   0  0.8579923E-06  0.2523726E+04  0.7818609E-02  0.8394582E-01
       -2   -1    0    0    0  501  0.00000000000E+00  0.00000000000E+00  0.10696375302E+04  0.10696375302E+04  0.25500000920E-02 0. -1.
        2   -1    0    0  501    0  0.00000000000E+00  0.00000000000E+00 -0.14886331923E+04  0.14886331923E+04  0.25500000920E-02 0.  1.
    10030    2    1    2    0    0  0.00000000000E+00  0.00000000000E+00 -0.41899566210E+03  0.25582707225E+04  0.25237257626E+04 0.  0.
        1    1    3    3  502    0  0.29038410358E+02 -0.44617621334E+03 -0.14056418141E+04  0.14750407968E+04  0.50400001928E-02 0.  1.
       -1    1    3    3    0  502 -0.29038410358E+02  0.44617621334E+03  0.98664615203E+03  0.10832299257E+04  0.50400001928E-02 0. -1.
</event>
<event>
 5   0  0.8579923E-06  0.2490478E+04  0.7818609E-02  0.8406386E-01
       -2   -1    0    0    0  501  0.00000000000E+00  0.00000000000E+00  0.10176788872E+04  0.10176788872E+04  0.25500000920E-02 0.  1.
        2   -1    0    0  501    0  0.00000000000E+00  0.00000000000E+00 -0.15236836551E+04  0.15236836551E+04  0.25500000920E-02 0. -1.
    10030    2    1    2    0    0  0.00000000000E+00  0.00000000000E+00 -0.50600476789E+03  0.25413625422E+04  0.24904784171E+04 0.  0.
        1    1    3    3  502    0 -0.13030996898E+03  0.12186598507E+03  0.10045686276E+04  0.10202892404E+04  0.50400001928E-02 0.  1.
       -1    1    3    3    0  502  0.13030996898E+03 -0.12186598507E+03 -0.15105733955E+04  0.15210733019E+04  0.50400001928E-02 0. -1.
</event>
<event>
 5   0  0.3522870E-06  0.2515916E+04  0.7818609E-02  0.8397337E-01
       -1   -1    0    0    0  501  0.00000000000E+00  0.00000000000E+00  0.91636938045E+03  0.91636938046E+03  0.50400001928E-02 0. -1.
        1   -1    0    0  501    0  0.00000000000E+00  0.00000000000E+00 -0.17268783914E+04  0.17268783914E+04  0.50400001928E-02 0.  1.
    10030    2    1    2    0    0  0.00000000000E+00  0.00000000000E+00 -0.81050901090E+03  0.26432477718E+04  0.25159161207E+04 0.  0.
        2    1    3    3  502    0  0.39331565447E+02  0.64429238356E+02 -0.17244968013E+04  0.17261481154E+04  0.25500000920E-02 0.  1.
       -2    1    3    3    0  502 -0.39331565447E+02 -0.64429238356E+02  0.91398779037E+03  0.91709965639E+03  0.25500000920E-02 0. -1.
</event>
<event>
 5   0  0.8407986E-06  0.2551981E+04  0.7818609E-02  0.8384697E-01
       -2   -1    0    0    0  501  0.00000000000E+00  0.00000000000E+00  0.17272426941E+04  0.17272426941E+04  0.25500000920E-02 0. -1.
        2   -1    0    0  501    0  0.00000000000E+00  0.00000000000E+00 -0.94263088021E+03  0.94263088021E+03  0.25500000920E-02 0.  1.
    10030    2    1    2    0    0  0.00000000000E+00  0.00000000000E+00  0.78461181392E+03  0.26698735743E+04  0.25519814271E+04 0.  0.
        5    1    3    3  502    0  0.19690760791E+03 -0.77948602814E+03  0.14289165498E+04  0.16395717949E+04  0.46999998093E+01 0. -1.
       -5    1    3    3    0  502 -0.19690760791E+03  0.77948602814E+03 -0.64430473590E+03  0.10303017795E+04  0.46999998093E+01 0.  1.
</event>
<event>
 5   0  0.3481387E-06  0.2509781E+04  0.7818609E-02  0.8399509E-01
       -1   -1    0    0    0  501  0.00000000000E+00  0.00000000000E+00  0.11344774873E+04  0.11344774873E+04  0.50400001928E-02 0.  1.
        1   -1    0    0  501    0  0.00000000000E+00  0.00000000000E+00 -0.13880844177E+04  0.13880844177E+04  0.50400001928E-02 0. -1.
    10030    2    1    2    0    0  0.00000000000E+00  0.00000000000E+00 -0.25360693036E+03  0.25225619050E+04  0.25097812832E+04 0.  0.
        4    1    3    3  502    0  0.79102643467E+03 -0.93455559557E+03  0.14960958414E+03  0.12334916385E+04  0.12699999809E+01 0.  1.
       -4    1    3    3    0  502 -0.79102643467E+03  0.93455559557E+03 -0.40321651450E+03  0.12890702665E+04  0.12699999809E+01 0. -1.
</event>
<event>
 5   0  0.3424193E-06  0.2411908E+04  0.7818609E-02  0.8435059E-01
        1   -1    0    0  501    0  0.00000000000E+00  0.00000000000E+00  0.77024294683E+03  0.77024294685E+03  0.50400001928E-02 0. -1.
       -1   -1    0    0    0  501  0.00000000000E+00  0.00000000000E+00 -0.18881375232E+04  0.18881375232E+04  0.50400001928E-02 0.  1.
    10030    2    1    2    0    0  0.00000000000E+00  0.00000000000E+00 -0.11178945764E+04  0.26583804701E+04  0.24119076350E+04 0.  0.
        1    1    3    3  502    0 -0.47857651226E+03 -0.46373494683E+03 -0.16667655939E+04  0.17950468306E+04  0.50400001928E-02 0.  1.
       -1    1    3    3    0  502  0.47857651226E+03  0.46373494683E+03  0.54887101757E+03  0.86333363942E+03  0.50400001928E-02 0. -1.
</event>
<event>
 5   0  0.3424193E-06  0.2496795E+04  0.7818609E-02  0.8404128E-01
        1   -1    0    0  501    0  0.00000000000E+00  0.00000000000E+00  0.14152185223E+04  0.14152185223E+04  0.50400001928E-02 0. -1.
       -1   -1    0    0    0  501  0.00000000000E+00  0.00000000000E+00 -0.11012404980E+04  0.11012404980E+04  0.50400001928E-02 0.  1.
    10030    2    1    2    0    0  0.00000000000E+00  0.00000000000E+00  0.31397802430E+03  0.25164590203E+04  0.24967947054E+04 0.  0.
        1    1    3    3  502    0  0.75192276673E+03  0.66799778033E+03 -0.58835343497E+03  0.11652333012E+04  0.50400001928E-02 0.  1.
       -1    1    3    3    0  502 -0.75192276673E+03 -0.66799778033E+03  0.90233145927E+03  0.13512257191E+04  0.50400001928E-02 0. -1.
</event>
<event>
 5   0  0.3522870E-06  0.2495338E+04  0.7818609E-02  0.8404648E-01
       -1   -1    0    0    0  501  0.00000000000E+00  0.00000000000E+00  0.11850563456E+04  0.11850563456E+04  0.50400001928E-02 0.  1.
        1   -1    0    0  501    0  0.00000000000E+00  0.00000000000E+00 -0.13135902355E+04  0.13135902355E+04  0.50400001928E-02 0. -1.
    10030    2    1    2    0    0  0.00000000000E+00  0.00000000000E+00 -0.12853388995E+03  0.24986465811E+04  0.24953384092E+04 0.  0.
        2    1    3    3  502    0  0.11469854223E+04 -0.46524560454E+02 -0.55372819050E+03  0.12745018646E+04  0.25500000920E-02 0. -1.
       -2    1    3    3    0  502 -0.11469854223E+04  0.46524560454E+02  0.42519430055E+03  0.12241447165E+04  0.25500000920E-02 0.  1.
</event>
<event>
 5   0  0.3424193E-06  0.2497207E+04  0.7818609E-02  0.8403981E-01
       -1   -1    0    0    0  501  0.00000000000E+00  0.00000000000E+00  0.90176532967E+03  0.90176532968E+03  0.50400001928E-02 0.  1.
        1   -1    0    0  501    0  0.00000000000E+00  0.00000000000E+00 -0.17288428359E+04  0.17288428359E+04  0.50400001928E-02 0. -1.
    10030    2    1    2    0    0  0.00000000000E+00  0.00000000000E+00 -0.82707750625E+03  0.26306081656E+04  0.24972068636E+04 0.  0.
        1    1    3    3  502    0 -0.32663363525E+03 -0.61117780420E+03  0.68059049707E+03  0.97130389927E+03  0.50400001928E-02 0.  1.
       -1    1    3    3    0  502  0.32663363525E+03  0.61117780420E+03 -0.15076680033E+04  0.16593042663E+04  0.50400001928E-02 0. -1.
</event>
<event>
 5   0  0.8354653E-06  0.2608357E+04  0.7818609E-02  0.8365368E-01
        2   -1    0    0  501    0  0.00000000000E+00  0.00000000000E+00  0.14698244308E+04  0.14698244308E+04  0.25500000920E-02 0. -1.
       -2   -1    0    0    0  501  0.00000000000E+00  0.00000000000E+00 -0.11572008600E+04  0.11572008600E+04  0.25500000920E-02 0.  1.
    10030    2    1    2    0    0  0.00000000000E+00  0.00000000000E+00  0.31262357074E+03  0.26270252908E+04  0.26083574107E+04 0.  0.
        3    1    3    3  502    0  0.32228649273E+03 -0.69333451555E+03  0.12204248174E+04  0.14401451590E+04  0.10100000352E+00 0. -1.
       -3    1    3    3    0  502 -0.32228649273E+03  0.69333451555E+03 -0.90780124663E+03  0.11868801319E+04  0.10100000352E+00 0.  1.
</event>
<event>
 5   0  0.3484857E-06  0.2494480E+04  0.7818609E-02  0.8404955E-01
        1   -1    0    0  501    0  0.00000000000E+00  0.00000000000E+00  0.93259375834E+03  0.93259375835E+03  0.50400001928E-02 0. -1.
       -1   -1    0    0    0  501  0.00000000000E+00  0.00000000000E+00 -0.16680440950E+04  0.16680440950E+04  0.50400001928E-02 0.  1.
    10030    2    1    2    0    0  0.00000000000E+00  0.00000000000E+00 -0.73545033661E+03  0.26006378533E+04  0.24944799150E+04 0.  0.
        3    1    3    3  502    0  0.41495161026E+03  0.10822033206E+04  0.11259691263E+03  0.11644856980E+04  0.10100000352E+00 0. -1.
       -3    1    3    3    0  502 -0.41495161026E+03 -0.10822033206E+04 -0.84804724924E+03  0.14361521553E+04  0.10100000352E+00 0.  1.
</event>
<event>
 5   0  0.8948286E-06  0.2424691E+04  0.7818609E-02  0.8430317E-01
        2   -1    0    0  501    0  0.00000000000E+00  0.00000000000E+00  0.26027523041E+04  0.26027523041E+04  0.25500000920E-02 0. -1.
       -2   -1    0    0    0  501  0.00000000000E+00  0.00000000000E+00 -0.56470280519E+03  0.56470280520E+03  0.25500000920E-02 0.  1.
    10030    2    1    2    0    0  0.00000000000E+00  0.00000000000E+00  0.20380494989E+04  0.31674551093E+04  0.24246909307E+04 0.  0.
        4    1    3    3  502    0  0.84788586127E+03 -0.34518490386E+03 -0.19257227880E+02  0.91566123938E+03  0.12699999809E+01 0.  1.
       -4    1    3    3    0  502 -0.84788586127E+03  0.34518490386E+03  0.20573067267E+04  0.22517938699E+04  0.12699999809E+01 0. -1.
</event>
<event>
 5   0  0.8354653E-06  0.2488413E+04  0.7818609E-02  0.8407125E-01
       -2   -1    0    0    0  501  0.00000000000E+00  0.00000000000E+00  0.98091708220E+03  0.98091708221E+03  0.25500000920E-02 0. -1.
        2   -1    0    0  501    0  0.00000000000E+00  0.00000000000E+00 -0.15781662195E+04  0.15781662195E+04  0.25500000920E-02 0.  1.
    10030    2    1    2    0    0  0.00000000000E+00  0.00000000000E+00 -0.59724913733E+03  0.25590833017E+04  0.24884133124E+04 0.  0.
        3    1    3    3  502    0 -0.94903577270E+03  0.79694269124E+03 -0.18473822738E+03  0.12529623992E+04  0.10100000352E+00 0. -1.
       -3    1    3    3    0  502  0.94903577270E+03 -0.79694269124E+03 -0.41251090995E+03  0.13061209025E+04  0.10100000352E+00 0.  1.
</event>
<event>
 5   0  0.8056723E-06  0.2503793E+04  0.7818609E-02  0.8401636E-01
       -2   -1    0    0    0  501  0.00000000000E+00  0.00000000000E+00  0.70850028784E+03  0.70850028785E+03  0.25500000920E-02 0.  1.
        2   -1    0    0  501    0  0.00000000000E+00  0.00000000000E+00 -0.22120594047E+04  0.22120594047E+04  0.25500000920E-02 0. -1.
    10030    2    1    2    0    0  0.00000000000E+00  0.00000000000E+00 -0.15035591169E+04  0.29205596925E+04  0.25037929027E+04 0.  0.
        2    1    3    3  502    0  0.18542299336E+03 -0.21361231911E+02  0.69217893379E+03  0.71690282820E+03  0.25500000920E-02 0.  1.
       -2    1    3    3    0  502 -0.18542299336E+03  0.21361231911E+02 -0.21957380506E+04  0.22036568643E+04  0.25500000920E-02 0. -1.
</event>
<event>
 5   0  0.3642184E-06  0.2504826E+04  0.7818609E-02  0.8401268E-01
        1   -1    0    0  501    0  0.00000000000E+00  0.00000000000E+00  0.25395425224E+04  0.25395425224E+04  0.50400001928E-02 0.  1.
       -1   -1    0    0    0  501  0.00000000000E+00  0.00000000000E+00 -0.61764593248E+03  0.61764593251E+03  0.50400001928E-02 0. -1.
    10030    2    1    2    0    0  0.00000000000E+00  0.00000000000E+00  0.19218965899E+04  0.31571884549E+04  0.25048258298E+04 0.  0.
        5    1    3    3  502    0 -0.59958659205E+03  0.33286267976E+03  0.22818379378E+04  0.23826682751E+04  0.46999998093E+01 0.  1.
       -5    1    3    3    0  502  0.59958659205E+03 -0.33286267976E+03 -0.35994134789E+03  0.77452017977E+03  0.46999998093E+01 0. -1.
</event>
<event>
 5   0  0.3424193E-06  0.2500594E+04  0.7818609E-02  0.8402774E-01
        1   -1    0    0  501    0  0.00000000000E+00  0.00000000000E+00  0.14172679874E+04  0.14172679874E+04  0.50400001928E-02 0. -1.
       -1   -1    0    0    0  501  0.00000000000E+00  0.00000000000E+00 -0.11029970160E+04  0.11029970160E+04  0.50400001928E-02 0.  1.
    10030    2    1    2    0    0  0.00000000000E+00  0.00000000000E+00  0.31427097139E+03  0.25202650034E+04  0.25005938183E+04 0.  0.
        1    1    3    3  502    0 -0.94957719756E+03 -0.53500632756E+03  0.77458333961E+03  0.13371267609E+04  0.50400001928E-02 0. -1.
       -1    1    3    3    0  502  0.94957719756E+03  0.53500632756E+03 -0.46031236822E+03  0.11831382426E+04  0.50400001928E-02 0.  1.
</event>
<event>
 5   0  0.8948286E-06  0.2498620E+04  0.7818609E-02  0.8403477E-01
       -2   -1    0    0    0  501  0.00000000000E+00  0.00000000000E+00  0.10436015135E+04  0.10436015135E+04  0.25500000920E-02 0. -1.
        2   -1    0    0  501    0  0.00000000000E+00  0.00000000000E+00 -0.14955662047E+04  0.14955662047E+04  0.25500000920E-02 0.  1.
    10030    2    1    2    0    0  0.00000000000E+00  0.00000000000E+00 -0.45196469117E+03  0.25391677182E+04  0.24986197428E+04 0.  0.
        4    1    3    3  502    0  0.75356984243E+03 -0.95393890349E+03 -0.51859006603E+03  0.13216672079E+04  0.12699999809E+01 0.  1.
       -4    1    3    3    0  502 -0.75356984243E+03  0.95393890349E+03  0.66625374857E+02  0.12175005103E+04  0.12699999809E+01 0. -1.
</event>
<event>
 5   0  0.8948286E-06  0.2515148E+04  0.7818609E-02  0.8397609E-01
        2   -1    0    0  501    0  0.00000000000E+00  0.00000000000E+00  0.22797687766E+04  0.22797687766E+04  0.25500000920E-02 0. -1.
       -2   -1    0    0    0  501  0.00000000000E+00  0.00000000000E+00 -0.69370752374E+03  0.69370752374E+03  0.25500000920E-02 0.  1.
    10030    2    1    2    0    0  0.00000000000E+00  0.00000000000E+00  0.15860612528E+04  0.29734763003E+04  0.25151483079E+04 0.  0.
        4    1    3    3  502    0  0.90759373114E+03 -0.21453261255E+03  0.17904130887E+04  0.20187449725E+04  0.12699999809E+01 0. -1.
       -4    1    3    3    0  502 -0.90759373114E+03  0.21453261255E+03 -0.20435183589E+03  0.95473132786E+03  0.12699999809E+01 0.  1.
</event>
<event>
 5   0  0.8407986E-06  0.2508842E+04  0.7818609E-02  0.8399842E-01
       -2   -1    0    0    0  501  0.00000000000E+00  0.00000000000E+00  0.83415130494E+03  0.83415130494E+03  0.25500000920E-02 0.  1.
        2   -1    0    0  501    0  0.00000000000E+00  0.00000000000E+00 -0.18864352683E+04  0.18864352683E+04  0.25500000920E-02 0. -1.
    10030    2    1    2    0    0  0.00000000000E+00  0.00000000000E+00 -0.10522839633E+04  0.27205865732E+04  0.25088423153E+04 0.  0.
        5    1    3    3  502    0 -0.12360252612E+04  0.14618774090E+03 -0.35668036724E+03  0.12947479586E+04  0.46999998093E+01 0.  1.
       -5    1    3    3    0  502  0.12360252612E+04 -0.14618774090E+03 -0.69560359610E+03  0.14258386146E+04  0.46999998093E+01 0. -1.
</event>
<event>
 5   0  0.8354653E-06  0.2499420E+04  0.7818609E-02  0.8403192E-01
        2   -1    0    0  501    0  0.00000000000E+00  0.00000000000E+00  0.21033034616E+04  0.21033034616E+04  0.25500000920E-02 0.  1.
       -2   -1    0    0    0  501  0.00000000000E+00  0.00000000000E+00 -0.74253458774E+03  0.74253458774E+03  0.25500000920E-02 0. -1.
    10030    2    1    2    0    0  0.00000000000E+00  0.00000000000E+00  0.13607688739E+04  0.28458380493E+04  0.24994203878E+04 0.  0.
        3    1    3    3  502    0 -0.77919764138E+03  0.52134246631E+03 -0.26047930782E+03  0.97303464045E+03  0.10100000352E+00 0. -1.
       -3    1    3    3    0  502  0.77919764138E+03 -0.52134246631E+03  0.16212481817E+04  0.18728034089E+04  0.10100000352E+00 0.  1.
</event>
<event>
 5   0  0.8948286E-06  0.2498751E+04  0.7818609E-02  0.8403431E-01
        2   -1    0    0  501    0  0.00000000000E+00  0.00000000000E+00  0.10795171308E+04  0.10795171308E+04  0.25500000920E-02 0.  1.
       -2   -1    0    0    0  501  0.00000000000E+00  0.00000000000E+00 -0.14459608883E+04  0.14459608883E+04  0.25500000920E-02 0. -1.
    10030    2    1    2    0    0  0.00000000000E+00  0.00000000000E+00 -0.36644375753E+03  0.25254780191E+04  0.24987513277E+04 0.  0.
        4    1    3    3  502    0  0.99889570866E+02  0.78947405325E+02  0.10729424842E+04  0.10804711039E+04  0.12699999809E+01 0.  1.
       -4    1    3    3    0  502 -0.99889570866E+02 -0.78947405325E+02 -0.14393862417E+04  0.14450069152E+04  0.12699999809E+01 0. -1.
</event>
<event>
 5   0  0.3642184E-06  0.2481945E+04  0.7818609E-02  0.8409446E-01
       -1   -1    0    0    0  501  0.00000000000E+00  0.00000000000E+00  0.15487825873E+04  0.15487825873E+04  0.50400001928E-02 0.  1.
        1   -1    0    0  501    0  0.00000000000E+00  0.00000000000E+00 -0.99433782155E+03  0.99433782156E+03  0.50400001928E-02 0. -1.
    10030    2    1    2    0    0  0.00000000000E+00  0.00000000000E+00  0.55444476577E+03  0.25431204089E+04  0.24819452886E+04 0.  0.
        5    1    3    3  502    0 -0.40413666583E+03  0.54309682629E+03  0.13429107455E+04  0.15038989221E+04  0.46999998093E+01 0.  1.
       -5    1    3    3    0  502  0.40413666583E+03 -0.54309682629E+03 -0.78846597976E+03  0.10392214868E+04  0.46999998093E+01 0. -1.
</event>
<event>
 5   0  0.3522870E-06  0.2493347E+04  0.7818609E-02  0.8405360E-01
        1   -1    0    0  501    0  0.00000000000E+00  0.00000000000E+00  0.10495333488E+04  0.10495333488E+04  0.50400001928E-02 0. -1.
       -1   -1    0    0    0  501  0.00000000000E+00  0.00000000000E+00 -0.14808433928E+04  0.14808433928E+04  0.50400001928E-02 0.  1.
    10030    2    1    2    0    0  0.00000000000E+00  0.00000000000E+00 -0.43131004396E+03  0.25303767416E+04  0.24933467670E+04 0.  0.
        2    1    3    3  502    0 -0.42138201143E+03 -0.38221982034E+03 -0.13414267164E+04  0.14570794165E+04  0.25500000920E-02 0.  1.
       -2    1    3    3    0  502  0.42138201143E+03  0.38221982034E+03  0.91011667243E+03  0.10732973251E+04  0.25500000920E-02 0. -1.
</event>
<event>
 5   0  0.8948286E-06  0.2491957E+04  0.7818609E-02  0.8405856E-01
        2   -1    0    0  501    0  0.00000000000E+00  0.00000000000E+00  0.12112631736E+04  0.12112631736E+04  0.25500000920E-02 0.  1.
       -2   -1    0    0    0  501  0.00000000000E+00  0.00000000000E+00 -0.12816888885E+04  0.12816888885E+04  0.25500000920E-02 0. -1.
    10030    2    1    2    0    0  0.00000000000E+00  0.00000000000E+00 -0.70425714923E+02  0.24929520621E+04  0.24919571029E+04 0.  0.
        4    1    3    3  502    0  0.10402717917E+04  0.47462651982E+03  0.45998498633E+03  0.12324867279E+04  0.12699999809E+01 0.  1.
       -4    1    3    3    0  502 -0.10402717917E+04 -0.47462651982E+03 -0.53041070125E+03  0.12604653342E+04  0.12699999809E+01 0. -1.
</event>
<event>
 5   0  0.8354653E-06  0.2507563E+04  0.7818609E-02  0.8400296E-01
        2   -1    0    0  501    0  0.00000000000E+00  0.00000000000E+00  0.11090356053E+04  0.11090356053E+04  0.25500000920E-02 0. -1.
       -2   -1    0    0    0  501  0.00000000000E+00  0.00000000000E+00 -0.14174188444E+04  0.14174188444E+04  0.25500000920E-02 0.  1.
    10030    2    1    2    0    0  0.00000000000E+00  0.00000000000E+00 -0.30838323905E+03  0.25264544497E+04  0.25075629332E+04 0.  0.
        3    1    3    3  502    0 -0.10184043885E+04  0.25098767869E+03  0.53787898174E+03  0.11787519343E+04  0.10100000352E+00 0. -1.
       -3    1    3    3    0  502  0.10184043885E+04 -0.25098767869E+03 -0.84626222079E+03  0.13477025154E+04  0.10100000352E+00 0.  1.
</event>
<event>
 5   0  0.2901250E-06  0.2501930E+04  0.7818609E-02  0.8402298E-01
       -3   -1    0    0    0  501  0.00000000000E+00  0.00000000000E+00  0.10710159887E+04  0.10710159935E+04  0.10100000352E+00 0.  1.
        3   -1    0    0  501    0  0.00000000000E+00  0.00000000000E+00 -0.14611484238E+04  0.14611484273E+04  0.10100000352E+00 0. -1.
    10030    2    1    2    0    0  0.00000000000E+00  0.00000000000E+00 -0.39013243507E+03  0.25321644208E+04  0.25019299225E+04 0.  0.
        4    1    3    3  502    0  0.87111035480E+03 -0.89543965393E+03 -0.12895999835E+03  0.12558971766E+04  0.12699999809E+01 0.  1.
       -4    1    3    3    0  502 -0.87111035480E+03  0.89543965393E+03 -0.26117243672E+03  0.12762672442E+04  0.12699999809E+01 0. -1.
</event>
<event>
 5   0  0.8056723E-06  0.2505930E+04  0.7818609E-02  0.8400876E-01
       -2   -1    0    0    0  501  0.00000000000E+00  0.00000000000E+00  0.81230489655E+03  0.81230489655E+03  0.25500000920E-02 0.  1.
        2   -1    0    0  501    0  0.00000000000E+00  0.00000000000E+00 -0.19326755652E+04  0.19326755652E+04  0.25500000920E-02 0. -1.
    10030    2    1    2    0    0  0.00000000000E+00  0.00000000000E+00 -0.11203706686E+04  0.27449804617E+04  0.25059304260E+04 0.  0.
        2    1    3    3  502    0  0.46064986138E+03  0.89477999304E+03 -0.13777720456E+04  0.17061903002E+04  0.25500000920E-02 0. -1.
       -2    1    3    3    0  502 -0.46064986138E+03 -0.89477999304E+03  0.25740137703E+03  0.10387901615E+04  0.25500000920E-02 0.  1.
</event>
<event>
 5   0  0.8948286E-06  0.2499836E+04  0.7818609E-02  0.8403044E-01
       -2   -1    0    0    0  501  0.00000000000E+00  0.00000000000E+00  0.68643721013E+03  0.68643721014E+03  0.25500000920E-02 0. -1.
        2   -1    0    0  501    0  0.00000000000E+00  0.00000000000E+00 -0.22759470713E+04  0.22759470713E+04  0.25500000920E-02 0.  1.
    10030    2    1    2    0    0  0.00000000000E+00  0.00000000000E+00 -0.15895098612E+04  0.29623842814E+04  0.24998358010E+04 0.  0.
        4    1    3    3  502    0  0.11369399847E+04 -0.16960512924E+03 -0.21312928360E+03  0.11691125408E+04  0.12699999809E+01 0.  1.
       -4    1    3    3    0  502 -0.11369399847E+04  0.16960512924E+03 -0.13763805776E+04  0.17932717406E+04  0.12699999809E+01 0. -1.
</event>
<event>
 5   0  0.3424193E-06  0.2498441E+04  0.7818609E-02  0.8403541E-01
       -1   -1    0    0    0  501  0.00000000000E+00  0.00000000000E+00  0.16113432263E+04  0.16113432263E+04  0.50400001928E-02 0. -1.
        1   -1    0    0  501    0  0.00000000000E+00  0.00000000000E+00 -0.96847907821E+03  0.96847907823E+03  0.50400001928E-02 0.  1.
    10030    2    1    2    0    0  0.00000000000E+00  0.00000000000E+00  0.64286414811E+03  0.25798223046E+04  0.24984412761E+04 0.  0.
        1    1    3    3  502    0 -0.60816723621E+03  0.84387581762E+02 -0.80192141427E+03  0.10099834681E+04  0.50400001928E-02 0.  1.
       -1    1    3    3    0  502  0.60816723621E+03 -0.84387581762E+02  0.14447855624E+04  0.15698388365E+04  0.50400001928E-02 0. -1.
</event>
<event>
 5   0  0.8056723E-06  0.2522836E+04  0.7818609E-02  0.8394895E-01
       -2   -1    0    0    0  501  0.00000000000E+00  0.00000000000E+00  0.85285350073E+03  0.85285350073E+03  0.25500000920E-02 0.  1.
        2   -1    0    0  501    0  0.00000000000E+00  0.00000000000E+00 -0.18657084318E+04  0.18657084318E+04  0.25500000920E-02 0. -1.
    10030    2    1    2    0    0  0.00000000000E+00  0.00000000000E+00 -0.10128549310E+04  0.27185619325E+04  0.25228364730E+04 0.  0.
        2    1    3    3  502    0 -0.88980783400E+03  0.82066188862E+03 -0.12402712738E+03  0.12168100284E+04  0.25500000920E-02 0.  1.
       -2    1    3    3    0  502  0.88980783400E+03 -0.82066188862E+03 -0.88882780365E+03  0.15017519041E+04  0.25500000920E-02 0. -1.
</event>
<event>
 5   0  0.3642184E-06  0.2499241E+04  0.7818609E-02  0.8403256E-01
        1   -1    0    0  501    0  0.00000000000E+00  0.00000000000E+00  0.15963225354E+04  0.15963225354E+04  0.50400001928E-02 0.  1.
       -1   -1    0    0    0  501  0.00000000000E+00  0.00000000000E+00 -0.97821763372E+03  0.97821763374E+03  0.50400001928E-02 0. -1.
    10030    2    1    2    0    0  0.00000000000E+00  0.00000000000E+00  0.61810490167E+03  0.25745401691E+04  0.24992405673E+04 0.  0.
        5    1    3    3  502    0  0.11260457492E+04  0.33831620067E+03 -0.12689040132E+03  0.11826073502E+04  0.46999998093E+01 0. -1.
       -5    1    3    3    0  502 -0.11260457492E+04 -0.33831620067E+03  0.74499530299E+03  0.13919328189E+04  0.46999998093E+01 0.  1.
</event>
<event>
 5   0  0.3484857E-06  0.2506927E+04  0.7818609E-02  0.8400522E-01
       -1   -1    0    0    0  501  0.00000000000E+00  0.00000000000E+00  0.75312552001E+03  0.75312552003E+03  0.50400001928E-02 0. -1.
        1   -1    0    0  501    0  0.00000000000E+00  0.00000000000E+00 -0.20862011200E+04  0.20862011201E+04  0.50400001928E-02 0.  1.
    10030    2    1    2    0    0  0.00000000000E+00  0.00000000000E+00 -0.13330756000E+04  0.28393266401E+04  0.25069274448E+04 0.  0.
        3    1    3    3  502    0  0.52364543110E+03 -0.11156427141E+04 -0.40750305327E+03  0.12980454352E+04  0.10100000352E+00 0. -1.
       -3    1    3    3    0  502 -0.52364543110E+03  0.11156427141E+04 -0.92557254676E+03  0.15412812049E+04  0.10100000352E+00 0.  1.
</event>
<event>
 5   0  0.8407986E-06  0.2504200E+04  0.7818609E-02  0.8401491E-01
       -2   -1    0    0    0  501  0.00000000000E+00  0.00000000000E+00  0.11334804090E+04  0.11334804090E+04  0.25500000920E-02 0.  1.
        2   -1    0    0  501    0  0.00000000000E+00  0.00000000000E+00 -0.13831336158E+04  0.13831336158E+04  0.25500000920E-02 0. -1.
    10030    2    1    2    0    0  0.00000000000E+00  0.00000000000E+00 -0.24965320685E+03  0.25166140248E+04  0.25042003567E+04 0.  0.
        5    1    3    3  502    0 -0.11663844754E+04  0.43704284458E+03 -0.25302689499E+03  0.12710247409E+04  0.46999998093E+01 0. -1.
       -5    1    3    3    0  502  0.11663844754E+04 -0.43704284458E+03  0.33736881395E+01  0.12455892839E+04  0.46999998093E+01 0.  1.
</event>
<event>
 5   0  0.3642184E-06  0.2500317E+04  0.7818609E-02  0.8402873E-01
        1   -1    0    0  501    0  0.00000000000E+00  0.00000000000E+00  0.22544845746E+04  0.22544845746E+04  0.50400001928E-02 0.  1.
       -1   -1    0    0    0  501  0.00000000000E+00  0.00000000000E+00 -0.69323871022E+03  0.69323871024E+03  0.50400001928E-02 0. -1.
    10030    2    1    2    0    0  0.00000000000E+00  0.00000000000E+00  0.15612458644E+04  0.29477232849E+04  0.25003167629E+04 0.  0.
        5    1    3    3  502    0  0.35393873140E+03  0.40116492699E+03 -0.55145814773E+03  0.76833202648E+03  0.46999998093E+01 0. -1.
       -5    1    3    3    0  502 -0.35393873140E+03 -0.40116492699E+03  0.21127040121E+04  0.21793912584E+04  0.46999998093E+01 0.  1.
</event>
<event>
 5   0  0.8354653E-06  0.2514881E+04  0.7818609E-02  0.8397703E-01
        2   -1    0    0  501    0  0.00000000000E+00  0.00000000000E+00  0.19586929962E+04  0.19586929962E+04  0.25500000920E-02 0.  1.
       -2   -1    0    0    0  501  0.00000000000E+00  0.00000000000E+00 -0.80725115649E+03  0.80725115649E+03  0.25500000920E-02 0. -1.
    10030    2    1    2    0    0  0.00000000000E+00  0.00000000000E+00  0.11514418397E+04  0.27659441527E+04  0.25148814576E+04 0.  0.
        3    1    3    3  502    0 -0.26038391912E+03 -0.11830047648E+04  0.20460808027E+03  0.12284805801E+04  0.10100000352E+00 0.  1.
       -3    1    3    3    0  502  0.26038391912E+03  0.11830047648E+04  0.94683375945E+03  0.15374635726E+04  0.10100000352E+00 0. -1.
</event>
<event>
 5   0  0.3424193E-06  0.2353021E+04  0.7818609E-02  0.8457304E-01
       -1   -1    0    0    0  501  0.00000000000E+00  0.00000000000E+00  0.13622043330E+04  0.13622043330E+04  0.50400001928E-02 0. -1.
        1   -1    0    0  501    0  0.00000000000E+00  0.00000000000E+00 -0.10161297708E+04  0.10161297708E+04  0.50400001928E-02 0.  1.
    10030    2    1    2    0    0  0.00000000000E+00  0.00000000000E+00  0.34607456215E+03  0.23783341038E+04  0.23530205071E+04 0.  0.
        1    1    3    3  502    0 -0.35519411922E+03  0.79471065417E+03 -0.62696243860E+03  0.10727580275E+04  0.50400001928E-02 0.  1.
       -1    1    3    3    0  502  0.35519411922E+03 -0.79471065417E+03  0.97303700076E+03  0.13055760763E+04  0.50400001928E-02 0. -1.
</event>
<event>
 5   0  0.3642184E-06  0.2497820E+04  0.7818609E-02  0.8403763E-01
       -1   -1    0    0    0  501  0.00000000000E+00  0.00000000000E+00  0.79662396120E+03  0.79662396121E+03  0.50400001928E-02 0.  1.
        1   -1    0    0  501    0  0.00000000000E+00  0.00000000000E+00 -0.19579828199E+04  0.19579828199E+04  0.50400001928E-02 0. -1.
    10030    2    1    2    0    0  0.00000000000E+00  0.00000000000E+00 -0.11613588587E+04  0.27546067811E+04  0.24978198734E+04 0.  0.
        5    1    3    3  502    0  0.31128988591E+03 -0.10180935806E+04  0.13939190383E+03  0.10737169667E+04  0.46999998093E+01 0. -1.
       -5    1    3    3    0  502 -0.31128988591E+03  0.10180935806E+04 -0.13007507625E+04  0.16808898144E+04  0.46999998093E+01 0.  1.
</event>
<event>
 5   0  0.8354653E-06  0.2333415E+04  0.7818609E-02  0.8464861E-01
        2   -1    0    0  501    0  0.00000000000E+00  0.00000000000E+00  0.68366205051E+03  0.68366205051E+03  0.25500000920E-02 0. -1.
       -2   -1    0    0    0  501  0.00000000000E+00  0.00000000000E+00 -0.19910516262E+04  0.19910516262E+04  0.25500000920E-02 0.  1.
    10030    2    1    2    0    0  0.00000000000E+00  0.00000000000E+00 -0.13073895757E+04  0.26747136767E+04  0.23334150402E+04 0.  0.
        3    1    3    3  502    0 -0.51212799770E+03 -0.10114901074E+04 -0.96932213789E+03  0.14916342516E+04  0.10100000352E+00 0.  1.
       -3    1    3    3    0  502  0.51212799770E+03  0.10114901074E+04 -0.33806743780E+03  0.11830794251E+04  0.10100000352E+00 0. -1.
</event>
<event>
 5   0  0.8407986E-06  0.2501293E+04  0.7818609E-02  0.8402525E-01
        2   -1    0    0  501    0  0.00000000000E+00  0.00000000000E+00  0.18821875473E+04  0.18821875473E+04  0.25500000920E-02 0.  1.
       -2   -1    0    0    0  501  0.00000000000E+00  0.00000000000E+00 -0.83100979161E+03  0.83100979161E+03  0.25500000920E-02 0. -1.
    10030    2    1    2    0    0  0.00000000000E+00  0.00000000000E+00  0.10511777556E+04  0.27131973389E+04  0.25012926909E+04 0.  0.
        5    1    3    3  502    0 -0.10317910144E+03  0.80828399775E+03  0.15547143770E+04  0.17553141690E+04  0.46999998093E+01 0.  1.
       -5    1    3    3    0  502  0.10317910144E+03 -0.80828399775E+03 -0.50353662135E+03  0.95788316983E+03  0.46999998093E+01 0. -1.
</event>
<event>
 5   0  0.8407986E-06  0.2502044E+04  0.7818609E-02  0.8402258E-01
       -2   -1    0    0    0  501  0.00000000000E+00  0.00000000000E+00  0.16630213727E+04  0.16630213727E+04  0.25500000920E-02 0.  1.
        2   -1    0    0  501    0  0.00000000000E+00  0.00000000000E+00 -0.94109197122E+03  0.94109197122E+03  0.25500000920E-02 0. -1.
    10030    2    1    2    0    0  0.00000000000E+00  0.00000000000E+00  0.72192940147E+03  0.26041133439E+04  0.25020440138E+04 0.  0.
        5    1    3    3  502    0 -0.47032114956E+03 -0.11458586133E+04  0.54374202225E+03  0.13527274013E+04  0.46999998093E+01 0.  1.
       -5    1    3    3    0  502  0.47032114956E+03  0.11458586133E+04  0.17818737922E+03  0.12513859427E+04  0.46999998093E+01 0. -1.
</event>
<event>
 5   0  0.3481387E-06  0.2489481E+04  0.7818609E-02  0.8406742E-01
       -1   -1    0    0    0  501  0.00000000000E+00  0.00000000000E+00  0.11700594463E+04  0.11700594463E+04  0.50400001928E-02 0. -1.
        1   -1    0    0  501    0  0.00000000000E+00  0.00000000000E+00 -0.13241887186E+04  0.13241887186E+04  0.50400001928E-02 0.  1.
    10030    2    1    2    0    0  0.00000000000E+00  0.00000000000E+00 -0.15412927236E+03  0.24942481649E+04  0.24894814873E+04 0.  0.
        4    1    3    3  502    0 -0.68955831393E+03  0.59930104029E+03  0.76996849754E+03  0.11947826184E+04  0.12699999809E+01 0. -1.
       -4    1    3    3    0  502  0.68955831393E+03 -0.59930104029E+03 -0.92409776989E+03  0.12994655465E+04  0.12699999809E+01 0.  1.
</event>
<event>
 5   0  0.2901250E-06  0.2500453E+04  0.7818609E-02  0.8402824E-01
       -3   -1    0    0    0  501  0.00000000000E+00  0.00000000000E+00  0.15516672456E+04  0.15516672489E+04  0.10100000352E+00 0.  1.
        3   -1    0    0  501    0  0.00000000000E+00  0.00000000000E+00 -0.10073461839E+04  0.10073461889E+04  0.10100000352E+00 0. -1.
    10030    2    1    2    0    0  0.00000000000E+00  0.00000000000E+00  0.54432106175E+03  0.25590134378E+04  0.25004528303E+04 0.  0.
        2    1    3    3  502    0 -0.56056911523E+02 -0.63314541306E+03  0.13739664416E+04  0.15138689752E+04  0.25500000920E-02 0.  1.
       -2    1    3    3    0  502  0.56056911523E+02  0.63314541306E+03 -0.82964537986E+03  0.10451444626E+04  0.25500000920E-02 0. -1.
</event>
<event>
 5   0  0.3481387E-06  0.2491817E+04  0.7818609E-02  0.8405907E-01
       -1   -1    0    0    0  501  0.00000000000E+00  0.00000000000E+00  0.10663599914E+04  0.10663599914E+04  0.50400001928E-02 0. -1.
        1   -1    0    0  501    0  0.00000000000E+00  0.00000000000E+00 -0.14556883841E+04  0.14556883841E+04  0.50400001928E-02 0.  1.
    10030    2    1    2    0    0  0.00000000000E+00  0.00000000000E+00 -0.38932839272E+03  0.25220483756E+04  0.24918168896E+04 0.  0.
        4    1    3    3  502    0  0.98817389902E+03 -0.32674725460E+03 -0.88783430795E+03  0.13680287988E+04  0.12699999809E+01 0.  1.
       -4    1    3    3    0  502 -0.98817389902E+03  0.32674725460E+03  0.49850591523E+03  0.11540195767E+04  0.12699999809E+01 0. -1.
</event>
<event>
 5   0  0.3484857E-06  0.2497020E+04  0.7818609E-02  0.8404048E-01
        1   -1    0    0  501    0  0.00000000000E+00  0.00000000000E+00  0.10941726714E+04  0.10941726714E+04  0.50400001928E-02 0.  1.
       -1   -1    0    0    0  501  0.00000000000E+00  0.00000000000E+00 -0.14246177104E+04  0.14246177104E+04  0.50400001928E-02 0. -1.
    10030    2    1    2    0    0  0.00000000000E+00  0.00000000000E+00 -0.33044503895E+03  0.25187903818E+04  0.24970204372E+04 0.  0.
        3    1    3    3  502    0  0.61649288558E+03  0.22404799995E+03  0.90635584929E+03  0.11188127279E+04  0.10100000352E+00 0.  1.
       -3    1    3    3    0  502 -0.61649288558E+03 -0.22404799995E+03 -0.12368008882E+04  0.13999776540E+04  0.10100000352E+00 0. -1.
</event>
<event>
 5   0  0.3481387E-06  0.2500616E+04  0.7818609E-02  0.8402766E-01
        1   -1    0    0  501    0  0.00000000000E+00  0.00000000000E+00  0.11079709049E+04  0.11079709049E+04  0.50400001928E-02 0. -1.
       -1   -1    0    0    0  501  0.00000000000E+00  0.00000000000E+00 -0.14109301029E+04  0.14109301029E+04  0.50400001928E-02 0.  1.
    10030    2    1    2    0    0  0.00000000000E+00  0.00000000000E+00 -0.30295919797E+03  0.25189010078E+04  0.25006155265E+04 0.  0.
        4    1    3    3  502    0 -0.73929944124E+03 -0.10004578460E+04 -0.24909185410E+02  0.12442273288E+04  0.12699999809E+01 0.  1.
       -4    1    3    3    0  502  0.73929944124E+03  0.10004578460E+04 -0.27805001256E+03  0.12746736789E+04  0.12699999809E+01 0. -1.
</event>
<event>
 5   0  0.8354653E-06  0.2497098E+04  0.7818609E-02  0.8404020E-01
       -2   -1    0    0    0  501  0.00000000000E+00  0.00000000000E+00  0.13517676191E+04  0.13517676191E+04  0.25500000920E-02 0.  1.
        2   -1    0    0  501    0  0.00000000000E+00  0.00000000000E+00 -0.11532116374E+04  0.11532116374E+04  0.25500000920E-02 0. -1.
    10030    2    1    2    0    0  0.00000000000E+00  0.00000000000E+00  0.19855598166E+03  0.25049792565E+04  0.24970976348E+04 0.  0.
        3    1    3    3  502    0  0.23884878743E+03  0.16397656062E+03  0.13175811155E+04  0.13490578422E+04  0.10100000352E+00 0.  1.
       -3    1    3    3    0  502 -0.23884878743E+03 -0.16397656062E+03 -0.11190251338E+04  0.11559214143E+04  0.10100000352E+00 0. -1.
</event>
<event>
 5   0  0.8407986E-06  0.2543270E+04  0.7818609E-02  0.8387731E-01
        2   -1    0    0  501    0  0.00000000000E+00  0.00000000000E+00  0.22233483554E+04  0.22233483554E+04  0.25500000920E-02 0.  1.
       -2   -1    0    0    0  501  0.00000000000E+00  0.00000000000E+00 -0.72730615736E+03  0.72730615737E+03  0.25500000920E-02 0. -1.
    10030    2    1    2    0    0  0.00000000000E+00  0.00000000000E+00  0.14960421980E+04  0.29506545128E+04  0.25432695090E+04 0.  0.
        5    1    3    3  502    0  0.14989377644E+03  0.27001608828E+03  0.21791680257E+04  0.22009480245E+04  0.46999998093E+01 0.  1.
       -5    1    3    3    0  502 -0.14989377644E+03 -0.27001608828E+03 -0.68312582768E+03  0.74970648829E+03  0.46999998093E+01 0. -1.
</event>
<event>
 5   0  0.8407986E-06  0.2505715E+04  0.7818609E-02  0.8400952E-01
       -2   -1    0    0    0  501  0.00000000000E+00  0.00000000000E+00  0.12022343475E+04  0.12022343475E+04  0.25500000920E-02 0. -1.
        2   -1    0    0  501    0  0.00000000000E+00  0.00000000000E+00 -0.13056121284E+04  0.13056121284E+04  0.25500000920E-02 0.  1.
    10030    2    1    2    0    0  0.00000000000E+00  0.00000000000E+00 -0.10337778091E+03  0.25078464760E+04  0.25057148644E+04 0.  0.
        5    1    3    3  502    0  0.12282554987E+04  0.85906586836E+02 -0.28348501282E+03  0.12634782761E+04  0.46999998093E+01 0. -1.
       -5    1    3    3    0  502 -0.12282554987E+04 -0.85906586836E+02  0.18010723191E+03  0.12443681998E+04  0.46999998093E+01 0.  1.
</event>
<event>
 5   0  0.3424193E-06  0.2482104E+04  0.7818609E-02  0.8409389E-01
        1   -1    0    0  501    0  0.00000000000E+00  0.00000000000E+00  0.82622966199E+03  0.82622966201E+03  0.50400001928E-02 0. -1.
       -1   -1    0    0    0  501  0.00000000000E+00  0.00000000000E+00 -0.18641422450E+04  0.18641422450E+04  0.50400001928E-02 0.  1.
    10030    2    1    2    0    0  0.00000000000E+00  0.00000000000E+00 -0.10379125830E+04  0.26903719070E+04  0.24821036377E+04 0.  0.
        1    1    3    3  502    0 -0.97482645754E+03  0.34053922864E+03 -0.12651669262E+04  0.16330648915E+04  0.50400001928E-02 0.  1.
       -1    1    3    3    0  502  0.97482645754E+03 -0.34053922864E+03  0.22725434320E+03  0.10573070155E+04  0.50400001928E-02 0. -1.
</event>
<event>
 5   0  0.8579923E-06  0.2502108E+04  0.7818609E-02  0.8402235E-01
        2   -1    0    0  501    0  0.00000000000E+00  0.00000000000E+00  0.83022222665E+03  0.83022222665E+03  0.25500000920E-02 0. -1.
       -2   -1    0    0    0  501  0.00000000000E+00  0.00000000000E+00 -0.18852017295E+04  0.18852017295E+04  0.25500000920E-02 0.  1.
    10030    2    1    2    0    0  0.00000000000E+00  0.00000000000E+00 -0.10549795028E+04  0.27154239561E+04  0.25021082131E+04 0.  0.
        1    1    3    3  502    0  0.59314398648E+03  0.37358807619E+03  0.59707081211E+03  0.92080475350E+03  0.50400001928E-02 0. -1.
       -1    1    3    3    0  502 -0.59314398648E+03 -0.37358807619E+03 -0.16520503150E+04  0.17946192027E+04  0.50400001928E-02 0.  1.
</event>
<event>
 5   0  0.8579923E-06  0.2496426E+04  0.7818609E-02  0.8404260E-01
       -2   -1    0    0    0  501  0.00000000000E+00  0.00000000000E+00  0.64838202064E+03  0.64838202065E+03  0.25500000920E-02 0. -1.
        2   -1    0    0  501    0  0.00000000000E+00  0.00000000000E+00 -0.24029601701E+04  0.24029601701E+04  0.25500000920E-02 0.  1.
    10030    2    1    2    0    0  0.00000000000E+00  0.00000000000E+00 -0.17545781494E+04  0.30513421907E+04  0.24964263823E+04 0.  0.
        1    1    3    3  502    0 -0.34941883387E+03 -0.11868575348E+04 -0.10792873400E+04  0.16418238309E+04  0.50400001928E-02 0.  1.
       -1    1    3    3    0  502  0.34941883387E+03  0.11868575348E+04 -0.67529080949E+03  0.14095183599E+04  0.50400001928E-02 0. -1.
</event>
<event>
 5   0  0.3484857E-06  0.2498246E+04  0.7818609E-02  0.8403611E-01
       -1   -1    0    0    0  501  0.00000000000E+00  0.00000000000E+00  0.12507360914E+04  0.12507360915E+04  0.50400001928E-02 0.  1.
        1   -1    0    0  501    0  0.00000000000E+00  0.00000000000E+00 -0.12475124090E+04  0.12475124090E+04  0.50400001928E-02 0. -1.
    10030    2    1    2    0    0  0.00000000000E+00  0.00000000000E+00  0.32236824286E+01  0.24982485005E+04  0.24982464206E+04 0.  0.
        3    1    3    3  502    0 -0.94957571105E+03  0.58941473676E+03  0.55946983352E+03  0.12498440974E+04  0.10100000352E+00 0.  1.
       -3    1    3    3    0  502  0.94957571105E+03 -0.58941473676E+03 -0.55624615109E+03  0.12484044031E+04  0.10100000352E+00 0. -1.
</event>
<event>
 5   0  0.8948286E-06  0.2504024E+04  0.7818609E-02  0.8401553E-01
        2   -1    0    0  501    0  0.00000000000E+00  0.00000000000E+00  0.57097653553E+03  0.57097653554E+03  0.25500000920E-02 0. -1.
       -2   -1    0    0    0  501  0.00000000000E+00  0.00000000000E+00 -0.27453569768E+04  0.27453569768E+04  0.25500000920E-02 0.  1.
    10030    2    1    2    0    0  0.00000000000E+00  0.00000000000E+00 -0.21743804413E+04  0.33163335124E+04  0.25040242934E+04 0.  0.
        4    1    3    3  502    0  0.34628819657E+03  0.84351363227E+03 -0.22234788798E+04  0.24031834522E+04  0.12699999809E+01 0.  1.
       -4    1    3    3    0  502 -0.34628819657E+03 -0.84351363227E+03  0.49098438488E+02  0.91315006022E+03  0.12699999809E+01 0. -1.
</event>
<event>
 5   0  0.3522870E-06  0.2498113E+04  0.7818609E-02  0.8403658E-01
       -1   -1    0    0    0  501  0.00000000000E+00  0.00000000000E+00  0.93446583814E+03  0.93446583816E+03  0.50400001928E-02 0.  1.
        1   -1    0    0  501    0  0.00000000000E+00  0.00000000000E+00 -0.16695548519E+04  0.16695548520E+04  0.50400001928E-02 0. -1.
    10030    2    1    2    0    0  0.00000000000E+00  0.00000000000E+00 -0.73508901380E+03  0.26040206901E+04  0.24981128670E+04 0.  0.
        2    1    3    3  502    0  0.30179976764E+02 -0.51583656811E+02 -0.16680636220E+04  0.16691338926E+04  0.25500000920E-02 0. -1.
       -2    1    3    3    0  502 -0.30179976764E+02  0.51583656811E+02  0.93297460815E+03  0.93488679748E+03  0.25500000920E-02 0.  1.
</event>
<event>
 5   0  0.8056723E-06  0.2497964E+04  0.7818609E-02  0.8403711E-01
       -2   -1    0    0    0  501  0.00000000000E+00  0.00000000000E+00  0.73136759952E+03  0.73136759952E+03  0.25500000920E-02 0.  1.
        2   -1    0    0  501    0  0.00000000000E+00  0.00000000000E+00 -0.21329299127E+04  0.21329299127E+04  0.25500000920E-02 0. -1.
    10030    2    1    2    0    0  0.00000000000E+00  0.00000000000E+00 -0.14015623131E+04  0.28642975122E+04  0.24979638349E+04 0.  0.
        2    1    3    3  502    0 -0.67424655855E+03  0.10386323989E+04 -0.51380236029E+03  0.13406560138E+04  0.25500000920E-02 0. -1.
       -2    1    3    3    0  502  0.67424655855E+03 -0.10386323989E+04 -0.88775995286E+03  0.15236414984E+04  0.25500000920E-02 0.  1.
</event>
<event>
 5   0  0.3424193E-06  0.2509644E+04  0.7818609E-02  0.8399558E-01
       -1   -1    0    0    0  501  0.00000000000E+00  0.00000000000E+00  0.67368339633E+03  0.67368339635E+03  0.50400001928E-02 0. -1.
        1   -1    0    0  501    0  0.00000000000E+00  0.00000000000E+00 -0.23372673991E+04  0.23372673991E+04  0.50400001928E-02 0.  1.
    10030    2    1    2    0    0  0.00000000000E+00  0.00000000000E+00 -0.16635840027E+04  0.30109507954E+04  0.25096439903E+04 0.  0.
        1    1    3    3  502    0  0.26021943296E+03  0.18833796031E+03  0.62351918628E+03  0.70139968368E+03  0.50400001928E-02 0. -1.
       -1    1    3    3    0  502 -0.26021943296E+03 -0.18833796031E+03 -0.22871031890E+04  0.23095511117E+04  0.50400001928E-02 0.  1.
</event>
<event>
 5   0  0.8056723E-06  0.2505354E+04  0.7818609E-02  0.8401081E-01
       -2   -1    0    0    0  501  0.00000000000E+00  0.00000000000E+00  0.93561652102E+03  0.93561652103E+03  0.25500000920E-02 0.  1.
        2   -1    0    0  501    0  0.00000000000E+00  0.00000000000E+00 -0.16771824705E+04  0.16771824705E+04  0.25500000920E-02 0. -1.
    10030    2    1    2    0    0  0.00000000000E+00  0.00000000000E+00 -0.74156594950E+03  0.26127989915E+04  0.25053539696E+04 0.  0.
        2    1    3    3  502    0  0.84863547520E+02 -0.12140713667E+04 -0.68020313993E+03  0.13942192857E+04  0.25500000920E-02 0.  1.
       -2    1    3    3    0  502 -0.84863547520E+02  0.12140713667E+04 -0.61362809564E+02  0.12185797058E+04  0.25500000920E-02 0. -1.
</event>
<event>
 5   0  0.8407986E-06  0.2460695E+04  0.7818609E-02  0.8417124E-01
       -2   -1    0    0    0  501  0.00000000000E+00  0.00000000000E+00  0.12666698951E+04  0.12666698951E+04  0.25500000920E-02 0. -1.
        2   -1    0    0  501    0  0.00000000000E+00  0.00000000000E+00 -0.11950662732E+04  0.11950662732E+04  0.25500000920E-02 0.  1.
    10030    2    1    2    0    0  0.00000000000E+00  0.00000000000E+00  0.71603621887E+02  0.24617361683E+04  0.24606945937E+04 0.  0.
        5    1    3    3  502    0 -0.49799808985E+03 -0.10178818083E+04  0.51521954211E+03  0.12448127328E+04  0.46999998093E+01 0. -1.
       -5    1    3    3    0  502  0.49799808985E+03  0.10178818083E+04 -0.44361592022E+03  0.12169234355E+04  0.46999998093E+01 0.  1.
</event>
<event>
 5   0  0.8407986E-06  0.2509886E+04  0.7818609E-02  0.8399472E-01
       -2   -1    0    0    0  501  0.00000000000E+00  0.00000000000E+00  0.12244904166E+04  0.12244904167E+04  0.25500000920E-02 0. -1.
        2   -1    0    0  501    0  0.00000000000E+00  0.00000000000E+00 -0.12861525652E+04  0.12861525653E+04  0.25500000920E-02 0.  1.
    10030    2    1    2    0    0  0.00000000000E+00  0.00000000000E+00 -0.61662148599E+02  0.25106429819E+04  0.25098856472E+04 0.  0.
        5    1    3    3  502    0 -0.39555146743E+03  0.96427191625E+03 -0.73002561157E+03  0.12724939196E+04  0.46999998093E+01 0.  1.
       -5    1    3    3    0  502  0.39555146743E+03 -0.96427191625E+03  0.66836346297E+03  0.12381490623E+04  0.46999998093E+01 0. -1.
</event>
<event>
 5   0  0.8407986E-06  0.2465017E+04  0.7818609E-02  0.8415556E-01
        2   -1    0    0  501    0  0.00000000000E+00  0.00000000000E+00  0.20826858381E+04  0.20826858381E+04  0.25500000920E-02 0.  1.
       -2   -1    0    0    0  501  0.00000000000E+00  0.00000000000E+00 -0.72938360840E+03  0.72938360840E+03  0.25500000920E-02 0. -1.
    10030    2    1    2    0    0  0.00000000000E+00  0.00000000000E+00  0.13533022297E+04  0.28120694465E+04  0.24650167641E+04 0.  0.
        5    1    3    3  502    0 -0.67839156523E+03 -0.38813103431E+03 -0.41051393002E+03  0.88283893906E+03  0.46999998093E+01 0. -1.
       -5    1    3    3    0  502  0.67839156523E+03  0.38813103431E+03  0.17638161597E+04  0.19292305075E+04  0.46999998093E+01 0.  1.
</event>
<event>
 5   0  0.3424193E-06  0.2494441E+04  0.7818609E-02  0.8404969E-01
        1   -1    0    0  501    0  0.00000000000E+00  0.00000000000E+00  0.22063352751E+04  0.22063352751E+04  0.50400001928E-02 0.  1.
       -1   -1    0    0    0  501  0.00000000000E+00  0.00000000000E+00 -0.70504176370E+03  0.70504176372E+03  0.50400001928E-02 0. -1.
    10030    2    1    2    0    0  0.00000000000E+00  0.00000000000E+00  0.15012935114E+04  0.29113770388E+04  0.24944406297E+04 0.  0.
        1    1    3    3  502    0 -0.10342510288E+04 -0.49142190932E+03  0.13276324806E+04  0.17532195205E+04  0.50400001928E-02 0.  1.
       -1    1    3    3    0  502  0.10342510288E+04  0.49142190932E+03  0.17366103086E+03  0.11581575183E+04  0.50400001928E-02 0. -1.
</event>
<event>
 5   0  0.3484857E-06  0.2462880E+04  0.7818609E-02  0.8416330E-01
        1   -1    0    0  501    0  0.00000000000E+00  0.00000000000E+00  0.13593930363E+04  0.13593930363E+04  0.50400001928E-02 0.  1.
       -1   -1    0    0    0  501  0.00000000000E+00  0.00000000000E+00 -0.11155305996E+04  0.11155305996E+04  0.50400001928E-02 0. -1.
    10030    2    1    2    0    0  0.00000000000E+00  0.00000000000E+00  0.24386243677E+03  0.24749236359E+04  0.24628800449E+04 0.  0.
        3    1    3    3  502    0 -0.36108189035E+03 -0.79175634955E+03  0.99750493441E+03  0.13237350010E+04  0.10100000352E+00 0.  1.
       -3    1    3    3    0  502  0.36108189035E+03  0.79175634955E+03 -0.75364249764E+03  0.11511886349E+04  0.10100000352E+00 0. -1.
</event>
<event>
 5   0  0.3484857E-06  0.2499436E+04  0.7818609E-02  0.8403187E-01
       -1   -1    0    0    0  501  0.00000000000E+00  0.00000000000E+00  0.69917025843E+03  0.69917025845E+03  0.50400001928E-02 0.  1.
        1   -1    0    0  501    0  0.00000000000E+00  0.00000000000E+00 -0.22337832206E+04  0.22337832206E+04  0.50400001928E-02 0. -1.
    10030    2    1    2    0    0  0.00000000000E+00  0.00000000000E+00 -0.15346129622E+04  0.29329534791E+04  0.24994357697E+04 0.  0.
        3    1    3    3  502    0  0.80164207541E+03 -0.25395664097E+02  0.35731781288E+03  0.87803814634E+03  0.10100000352E+00 0.  1.
       -3    1    3    3    0  502 -0.80164207541E+03  0.25395664097E+02 -0.18919307751E+04  0.20549153327E+04  0.10100000352E+00 0. -1.
</event>
<event>
 5   0  0.8579923E-06  0.2501814E+04  0.7818609E-02  0.8402340E-01
        2   -1    0    0  501    0  0.00000000000E+00  0.00000000000E+00  0.21310542424E+04  0.21310542424E+04  0.25500000920E-02 0. -1.
       -2   -1    0    0    0  501  0.00000000000E+00  0.00000000000E+00 -0.73426954838E+03  0.73426954838E+03  0.25500000920E-02 0.  1.
    10030    2    1    2    0    0  0.00000000000E+00  0.00000000000E+00  0.13967846940E+04  0.28653237908E+04  0.25018139308E+04 0.  0.
        1    1    3    3  502    0  0.12965252635E+02 -0.79836335151E+03  0.18012238936E+04  0.19702689293E+04  0.50400001928E-02 0. -1.
       -1    1    3    3    0  502 -0.12965252635E+02  0.79836335151E+03 -0.40443919962E+03  0.89505486146E+03  0.50400001928E-02 0.  1.
</event>
<event>
 5   0  0.3642184E-06  0.2508960E+04  0.7818609E-02  0.8399800E-01
        1   -1    0    0  501    0  0.00000000000E+00  0.00000000000E+00  0.13114060539E+04  0.13114060539E+04  0.50400001928E-02 0. -1.
       -1   -1    0    0    0  501  0.00000000000E+00  0.00000000000E+00 -0.12000254781E+04  0.12000254781E+04  0.50400001928E-02 0.  1.
    10030    2    1    2    0    0  0.00000000000E+00  0.00000000000E+00  0.11138057578E+03  0.25114315321E+04  0.25089604835E+04 0.  0.
        5    1    3    3  502    0 -0.32368160369E+03 -0.27122919463E+03  0.12381087592E+04  0.13081553601E+04  0.46999998093E+01 0. -1.
       -5    1    3    3    0  502  0.32368160369E+03  0.27122919463E+03 -0.11267281834E+04  0.12032761719E+04  0.46999998093E+01 0.  1.
</event>
<event>
 5   0  0.8579923E-06  0.2463994E+04  0.7818609E-02  0.8415926E-01
        2   -1    0    0  501    0  0.00000000000E+00  0.00000000000E+00  0.20820357726E+04  0.20820357726E+04  0.25500000920E-02 0. -1.
       -2   -1    0    0    0  501  0.00000000000E+00  0.00000000000E+00 -0.72900613848E+03  0.72900613848E+03  0.25500000920E-02 0.  1.
    10030    2    1    2    0    0  0.00000000000E+00  0.00000000000E+00  0.13530296342E+04  0.28110419111E+04  0.24639942036E+04 0.  0.
        1    1    3    3  502    0 -0.11057381838E+04 -0.38209052302E+03  0.23589536409E+03  0.11934390314E+04  0.50400001928E-02 0.  1.
       -1    1    3    3    0  502  0.11057381838E+04  0.38209052302E+03  0.11171342701E+04  0.16176028797E+04  0.50400001928E-02 0. -1.
</event>
<event>
 5   0  0.8354653E-06  0.2501333E+04  0.7818609E-02  0.8402511E-01
        2   -1    0    0  501    0  0.00000000000E+00  0.00000000000E+00  0.17358380987E+04  0.17358380987E+04  0.25500000920E-02 0.  1.
       -2   -1    0    0    0  501  0.00000000000E+00  0.00000000000E+00 -0.90110195653E+03  0.90110195654E+03  0.25500000920E-02 0. -1.
    10030    2    1    2    0    0  0.00000000000E+00  0.00000000000E+00  0.83473614213E+03  0.26369400552E+04  0.25013333300E+04 0.  0.
        3    1    3    3  502    0 -0.50821230244E+03 -0.81213776985E+03 -0.43015659905E+03  0.10501819897E+04  0.10100000352E+00 0. -1.
       -3    1    3    3    0  502  0.50821230244E+03  0.81213776985E+03  0.12648927412E+04  0.15867580655E+04  0.10100000352E+00 0.  1.
</event>
<event>
 5   0  0.8056723E-06  0.2588246E+04  0.7818609E-02  0.8372205E-01
        2   -1    0    0  501    0  0.00000000000E+00  0.00000000000E+00  0.94616903546E+03  0.94616903546E+03  0.25500000920E-02 0.  1.
       -2   -1    0    0    0  501  0.00000000000E+00  0.00000000000E+00 -0.17700375236E+04  0.17700375236E+04  0.25500000920E-02 0. -1.
    10030    2    1    2    0    0  0.00000000000E+00  0.00000000000E+00 -0.82386848812E+03  0.27162065590E+04  0.25882462761E+04 0.  0.
        2    1    3    3  502    0 -0.81601560372E+03  0.54109893115E+03  0.47612008952E+03  0.10887423288E+04  0.25500000920E-02 0.  1.
       -2    1    3    3    0  502  0.81601560372E+03 -0.54109893115E+03 -0.12999885776E+04  0.16274642303E+04  0.25500000920E-02 0. -1.
</event>
<event>
 5   0  0.3522870E-06  0.2494783E+04  0.7818609E-02  0.8404847E-01
        1   -1    0    0  501    0  0.00000000000E+00  0.00000000000E+00  0.10760802693E+04  0.10760802694E+04  0.50400001928E-02 0.  1.
       -1   -1    0    0    0  501  0.00000000000E+00  0.00000000000E+00 -0.14459748531E+04  0.14459748531E+04  0.50400001928E-02 0. -1.
    10030    2    1    2    0    0  0.00000000000E+00  0.00000000000E+00 -0.36989458380E+03  0.25220551225E+04  0.24947825632E+04 0.  0.
        2    1    3    3  502    0  0.65187615760E+03  0.98809932679E+03  0.21267445251E+03  0.12027107829E+04  0.25500000920E-02 0.  1.
       -2    1    3    3    0  502 -0.65187615760E+03 -0.98809932679E+03 -0.58256903631E+03  0.13193443396E+04  0.25500000920E-02 0. -1.
</event>
<event>
 5   0  0.8407986E-06  0.2500518E+04  0.7818609E-02  0.8402801E-01
       -2   -1    0    0    0  501  0.00000000000E+00  0.00000000000E+00  0.82826167133E+03  0.82826167133E+03  0.25500000920E-02 0. -1.
        2   -1    0    0  501    0  0.00000000000E+00  0.00000000000E+00 -0.18872628589E+04  0.18872628589E+04  0.25500000920E-02 0.  1.
    10030    2    1    2    0    0  0.00000000000E+00  0.00000000000E+00 -0.10590011875E+04  0.27155245302E+04  0.25005179381E+04 0.  0.
        5    1    3    3  502    0 -0.42473222875E+03 -0.91218183307E+03  0.27636471370E+03  0.10434906361E+04  0.46999998093E+01 0. -1.
       -5    1    3    3    0  502  0.42473222875E+03  0.91218183307E+03 -0.13353659012E+04  0.16720338941E+04  0.46999998093E+01 0.  1.
</event>
<event>
 5   0  0.2901250E-06  0.2495456E+04  0.7818609E-02  0.8404606E-01
       -3   -1    0    0    0  501  0.00000000000E+00  0.00000000000E+00  0.17216905940E+04  0.17216905970E+04  0.10100000352E+00 0. -1.
        3   -1    0    0  501    0  0.00000000000E+00  0.00000000000E+00 -0.90424207299E+03  0.90424207863E+03  0.10100000352E+00 0.  1.
    10030    2    1    2    0    0  0.00000000000E+00  0.00000000000E+00  0.81744852103E+03  0.26259326756E+04  0.24954559368E+04 0.  0.
        3    1    3    3  502    0 -0.38718106835E+03  0.45340781276E+03 -0.74463910589E+03  0.95392621967E+03  0.10100000352E+00 0.  1.
       -3    1    3    3    0  502  0.38718106835E+03 -0.45340781276E+03  0.15620876269E+04  0.16720064560E+04  0.10100000352E+00 0. -1.
</event>
<event>
 5   0  0.8407986E-06  0.2497600E+04  0.7818609E-02  0.8403841E-01
        2   -1    0    0  501    0  0.00000000000E+00  0.00000000000E+00  0.19328364173E+04  0.19328364173E+04  0.25500000920E-02 0. -1.
       -2   -1    0    0    0  501  0.00000000000E+00  0.00000000000E+00 -0.80684603093E+03  0.80684603093E+03  0.25500000920E-02 0.  1.
    10030    2    1    2    0    0  0.00000000000E+00  0.00000000000E+00  0.11259903864E+04  0.27396824483E+04  0.24975999614E+04 0.  0.
        5    1    3    3  502    0  0.78714041712E+03  0.28506747428E+03 -0.45343911505E+03  0.95209380956E+03  0.46999998093E+01 0.  1.
       -5    1    3    3    0  502 -0.78714041712E+03 -0.28506747428E+03  0.15794295014E+04  0.17875886387E+04  0.46999998093E+01 0. -1.
</event>
<event>
 5   0  0.8579923E-06  0.2488591E+04  0.7818609E-02  0.8407061E-01
        2   -1    0    0  501    0  0.00000000000E+00  0.00000000000E+00  0.16728933580E+04  0.16728933580E+04  0.25500000920E-02 0. -1.
       -2   -1    0    0    0  501  0.00000000000E+00  0.00000000000E+00 -0.92550477965E+03  0.92550477965E+03  0.25500000920E-02 0.  1.
    10030    2    1    2    0    0  0.00000000000E+00  0.00000000000E+00  0.74738857840E+03  0.25983981377E+04  0.24885906041E+04 0.  0.
        1    1    3    3  502    0  0.79243325074E+03 -0.91902442428E+03  0.86390321687E+02  0.12165605768E+04  0.50400001928E-02 0.  1.
       -1    1    3    3    0  502 -0.79243325074E+03  0.91902442428E+03  0.66099825671E+03  0.13818375609E+04  0.50400001928E-02 0. -1.
</event>
<event>
 5   0  0.8948286E-06  0.2496238E+04  0.7818609E-02  0.8404327E-01
       -2   -1    0    0    0  501  0.00000000000E+00  0.00000000000E+00  0.20937606126E+04  0.20937606126E+04  0.25500000920E-02 0.  1.
        2   -1    0    0  501    0  0.00000000000E+00  0.00000000000E+00 -0.74402080975E+03  0.74402080975E+03  0.25500000920E-02 0. -1.
    10030    2    1    2    0    0  0.00000000000E+00  0.00000000000E+00  0.13497398028E+04  0.28377814223E+04  0.24962383431E+04 0.  0.
        4    1    3    3  502    0  0.40684256920E+03  0.42215940689E+02  0.20154040666E+04  0.20564917278E+04  0.12699999809E+01 0.  1.
       -4    1    3    3    0  502 -0.40684256920E+03 -0.42215940689E+02 -0.66566426381E+03  0.78128969453E+03  0.12699999809E+01 0. -1.
</event>
<event>
 5   0  0.3522870E-06  0.2501040E+04  0.7818609E-02  0.8402615E-01
       -1   -1    0    0    0  501  0.00000000000E+00  0.00000000000E+00  0.15566634955E+04  0.15566634955E+04  0.50400001928E-02 0.  1.
        1   -1    0    0  501    0  0.00000000000E+00  0.00000000000E+00 -0.10045846949E+04  0.10045846949E+04  0.50400001928E-02 0. -1.
    10030    2    1    2    0    0  0.00000000000E+00  0.00000000000E+00  0.55207880063E+03  0.25612481904E+04  0.25010400418E+04 0.  0.
        2    1    3    3  502    0 -0.10213198338E+04  0.65945036954E+03  0.57606197980E+03  0.13452941676E+04  0.25500000920E-02 0.  1.
       -2    1    3    3    0  502  0.10213198338E+04 -0.65945036954E+03 -0.23983179170E+02  0.12159540228E+04  0.25500000920E-02 0. -1.
</event>
<event>
 5   0  0.3522870E-06  0.2482431E+04  0.7818609E-02  0.8409271E-01
        1   -1    0    0  501    0  0.00000000000E+00  0.00000000000E+00  0.25715899594E+04  0.25715899594E+04  0.50400001928E-02 0.  1.
       -1   -1    0    0    0  501  0.00000000000E+00  0.00000000000E+00 -0.59909080340E+03  0.59909080342E+03  0.50400001928E-02 0. -1.
    10030    2    1    2    0    0  0.00000000000E+00  0.00000000000E+00  0.19724991560E+04  0.31706807628E+04  0.24824309818E+04 0.  0.
        2    1    3    3  502    0  0.51203533702E+03 -0.42417378916E+03 -0.35243357495E+03  0.75253771635E+03  0.25500000920E-02 0. -1.
       -2    1    3    3    0  502 -0.51203533702E+03  0.42417378916E+03  0.23249327310E+04  0.24181430465E+04  0.25500000920E-02 0.  1.
</event>
<event>
 5   0  0.8407986E-06  0.2465015E+04  0.7818609E-02  0.8415556E-01
       -2   -1    0    0    0  501  0.00000000000E+00  0.00000000000E+00  0.10837944706E+04  0.10837944706E+04  0.25500000920E-02 0. -1.
        2   -1    0    0  501    0  0.00000000000E+00  0.00000000000E+00 -0.14016256987E+04  0.14016256987E+04  0.25500000920E-02 0.  1.
    10030    2    1    2    0    0  0.00000000000E+00  0.00000000000E+00 -0.31783122809E+03  0.24854201694E+04  0.24650145494E+04 0.  0.
        5    1    3    3  502    0 -0.22770378934E+03  0.89531347118E+03  0.66369155478E+03  0.11375165042E+04  0.46999998093E+01 0. -1.
       -5    1    3    3    0  502  0.22770378934E+03 -0.89531347118E+03 -0.98152278287E+03  0.13479036652E+04  0.46999998093E+01 0.  1.
</event>
<event>
 5   0  0.8354653E-06  0.2496479E+04  0.7818609E-02  0.8404241E-01
       -2   -1    0    0    0  501  0.00000000000E+00  0.00000000000E+00  0.11719829246E+04  0.11719829246E+04  0.25500000920E-02 0. -1.
        2   -1    0    0  501    0  0.00000000000E+00  0.00000000000E+00 -0.13294575303E+04  0.13294575303E+04  0.25500000920E-02 0.  1.
    10030    2    1    2    0    0  0.00000000000E+00  0.00000000000E+00 -0.15747460571E+03  0.25014404550E+04  0.24964787398E+04 0.  0.
        3    1    3    3  502    0  0.25676155673E+02  0.12477718893E+04 -0.56163396589E+02  0.12492991195E+04  0.10100000352E+00 0.  1.
       -3    1    3    3    0  502 -0.25676155673E+02 -0.12477718893E+04 -0.10131120912E+03  0.12521413355E+04  0.10100000352E+00 0. -1.
</event>
<event>
 5   0  0.3522870E-06  0.2480561E+04  0.7818609E-02  0.8409944E-01
        1   -1    0    0  501    0  0.00000000000E+00  0.00000000000E+00  0.75071676393E+03  0.75071676395E+03  0.50400001928E-02 0. -1.
       -1   -1    0    0    0  501  0.00000000000E+00  0.00000000000E+00 -0.20491031905E+04  0.20491031905E+04  0.50400001928E-02 0.  1.
    10030    2    1    2    0    0  0.00000000000E+00  0.00000000000E+00 -0.12983864266E+04  0.27998199545E+04  0.24805613205E+04 0.  0.
        2    1    3    3  502    0  0.55353033544E+03  0.27243773832E+03 -0.18636275003E+04  0.19630908317E+04  0.25500000920E-02 0.  1.
       -2    1    3    3    0  502 -0.55353033544E+03 -0.27243773832E+03  0.56524107372E+03  0.83672912280E+03  0.25500000920E-02 0. -1.
</event>
<event>
 5   0  0.8056723E-06  0.2496161E+04  0.7818609E-02  0.8404354E-01
        2   -1    0    0  501    0  0.00000000000E+00  0.00000000000E+00  0.75956840911E+03  0.75956840912E+03  0.25500000920E-02 0.  1.
       -2   -1    0    0    0  501  0.00000000000E+00  0.00000000000E+00 -0.20507770787E+04  0.20507770787E+04  0.25500000920E-02 0. -1.
    10030    2    1    2    0    0  0.00000000000E+00  0.00000000000E+00 -0.12912086696E+04  0.28103454878E+04  0.24961614396E+04 0.  0.
        2    1    3    3  502    0  0.14582018114E+03  0.11713449451E+04 -0.11020916076E+04  0.16149050799E+04  0.25500000920E-02 0. -1.
       -2    1    3    3    0  502 -0.14582018114E+03 -0.11713449451E+04 -0.18911706199E+03  0.11954404079E+04  0.25500000920E-02 0.  1.
</event>
<event>
 5   0  0.3481387E-06  0.2487036E+04  0.7818609E-02  0.8407618E-01
       -1   -1    0    0    0  501  0.00000000000E+00  0.00000000000E+00  0.14092694037E+04  0.14092694037E+04  0.50400001928E-02 0.  1.
        1   -1    0    0  501    0  0.00000000000E+00  0.00000000000E+00 -0.10972617664E+04  0.10972617665E+04  0.50400001928E-02 0. -1.
    10030    2    1    2    0    0  0.00000000000E+00  0.00000000000E+00  0.31200763728E+03  0.25065311702E+04  0.24870363370E+04 0.  0.
        4    1    3    3  502    0 -0.71102399484E+03  0.44018484410E+02 -0.87122206365E+03  0.11253987050E+04  0.12699999809E+01 0. -1.
       -4    1    3    3    0  502  0.71102399484E+03 -0.44018484410E+02  0.11832297009E+04  0.13811324651E+04  0.12699999809E+01 0.  1.
</event>
<event>
 5   0  0.3484857E-06  0.2385671E+04  0.7818609E-02  0.8444888E-01
        1   -1    0    0  501    0  0.00000000000E+00  0.00000000000E+00  0.12049907385E+04  0.12049907385E+04  0.50400001928E-02 0. -1.
       -1   -1    0    0    0  501  0.00000000000E+00  0.00000000000E+00 -0.11808030576E+04  0.11808030576E+04  0.50400001928E-02 0.  1.
    10030    2    1    2    0    0  0.00000000000E+00  0.00000000000E+00  0.24187680942E+02  0.23857937961E+04  0.23856711831E+04 0.  0.
        3    1    3    3  502    0  0.53892110608E+03  0.46481060062E+03 -0.94522850996E+03  0.11831913621E+04  0.10100000352E+00 0.  1.
       -3    1    3    3    0  502 -0.53892110608E+03 -0.46481060062E+03  0.96941619090E+03  0.12026024341E+04  0.10100000352E+00 0. -1.
</event>
<event>
 5   0  0.8579923E-06  0.2499657E+04  0.7818609E-02  0.8403108E-01
       -2   -1    0    0    0  501  0.00000000000E+00  0.00000000000E+00  0.95751427147E+03  0.95751427147E+03  0.25500000920E-02 0. -1.
        2   -1    0    0  501    0  0.00000000000E+00  0.00000000000E+00 -0.16313816611E+04  0.16313816611E+04  0.25500000920E-02 0.  1.
    10030    2    1    2    0    0  0.00000000000E+00  0.00000000000E+00 -0.67386738966E+03  0.25888959326E+04  0.24996569547E+04 0.  0.
        1    1    3    3  502    0 -0.34313747179E+03  0.26791179071E+02 -0.15813312302E+04  0.16183539636E+04  0.50400001928E-02 0.  1.
       -1    1    3    3    0  502  0.34313747179E+03 -0.26791179071E+02  0.90746384051E+03  0.97054196905E+03  0.50400001928E-02 0. -1.
</event>
<event>
 5   0  0.3522870E-06  0.2501003E+04  0.7818609E-02  0.8402628E-01
       -1   -1    0    0    0  501  0.00000000000E+00  0.00000000000E+00  0.12646394183E+04  0.12646394183E+04  0.50400001928E-02 0.  1.
        1   -1    0    0  501    0  0.00000000000E+00  0.00000000000E+00 -0.12365216169E+04  0.12365216170E+04  0.50400001928E-02 0. -1.
    10030    2    1    2    0    0  0.00000000000E+00  0.00000000000E+00  0.28117801390E+02  0.25011610353E+04  0.25010029816E+04 0.  0.
        2    1    3    3  502    0  0.17413596447E+03  0.23383417402E+03 -0.12020575132E+04  0.12369090590E+04  0.25500000920E-02 0. -1.
       -2    1    3    3    0  502 -0.17413596447E+03 -0.23383417402E+03  0.12301753146E+04  0.12642519764E+04  0.25500000920E-02 0.  1.
</event>
<event>
 5   0  0.8579923E-06  0.2483150E+04  0.7818609E-02  0.8409013E-01
       -2   -1    0    0    0  501  0.00000000000E+00  0.00000000000E+00  0.68586497976E+03  0.68586497977E+03  0.25500000920E-02 0. -1.
        2   -1    0    0  501    0  0.00000000000E+00  0.00000000000E+00 -0.22475399405E+04  0.22475399405E+04  0.25500000920E-02 0.  1.
    10030    2    1    2    0    0  0.00000000000E+00  0.00000000000E+00 -0.15616749607E+04  0.29334049203E+04  0.24831503666E+04 0.  0.
        1    1    3    3  502    0  0.82409630987E+03  0.29642306686E+03 -0.18204747297E+04  0.20201805869E+04  0.50400001928E-02 0.  1.
       -1    1    3    3    0  502 -0.82409630987E+03 -0.29642306686E+03  0.25879976895E+03  0.91322433330E+03  0.50400001928E-02 0. -1.
</event>
<event>
 5   0  0.8354653E-06  0.2492449E+04  0.7818609E-02  0.8405681E-01
       -2   -1    0    0    0  501  0.00000000000E+00  0.00000000000E+00  0.94388950066E+03  0.94388950067E+03  0.25500000920E-02 0. -1.
        2   -1    0    0  501    0  0.00000000000E+00  0.00000000000E+00 -0.16453993813E+04  0.16453993813E+04  0.25500000920E-02 0.  1.
    10030    2    1    2    0    0  0.00000000000E+00  0.00000000000E+00 -0.70150988068E+03  0.25892888820E+04  0.24924487561E+04 0.  0.
        3    1    3    3  502    0  0.28371492651E+03 -0.58490123145E+03  0.75379178589E+03  0.99539222257E+03  0.10100000352E+00 0. -1.
       -3    1    3    3    0  502 -0.28371492651E+03  0.58490123145E+03 -0.14553016666E+04  0.15938966594E+04  0.10100000352E+00 0.  1.
</event>
<event>
 5   0  0.3424193E-06  0.2508951E+04  0.7818609E-02  0.8399804E-01
       -1   -1    0    0    0  501  0.00000000000E+00  0.00000000000E+00  0.77587576450E+03  0.77587576452E+03  0.50400001928E-02 0. -1.
        1   -1    0    0  501    0  0.00000000000E+00  0.00000000000E+00 -0.20282998359E+04  0.20282998359E+04  0.50400001928E-02 0.  1.
    10030    2    1    2    0    0  0.00000000000E+00  0.00000000000E+00 -0.12524240714E+04  0.28041756004E+04  0.25089509249E+04 0.  0.
        1    1    3    3  502    0  0.20086875780E+03  0.49210198695E+03  0.64380379958E+03  0.83486283652E+03  0.50400001928E-02 0. -1.
       -1    1    3    3    0  502 -0.20086875780E+03 -0.49210198695E+03 -0.18962278710E+04  0.19693127639E+04  0.50400001928E-02 0.  1.
</event>
<event>
 5   0  0.3424193E-06  0.2527000E+04  0.7818609E-02  0.8393429E-01
       -1   -1    0    0    0  501  0.00000000000E+00  0.00000000000E+00  0.10438277782E+04  0.10438277782E+04  0.50400001928E-02 0.  1.
        1   -1    0    0  501    0  0.00000000000E+00  0.00000000000E+00 -0.15294013932E+04  0.15294013932E+04  0.50400001928E-02 0. -1.
    10030    2    1    2    0    0  0.00000000000E+00  0.00000000000E+00 -0.48557361501E+03  0.25732291714E+04  0.25269995316E+04 0.  0.
        1    1    3    3  502    0  0.59749945478E+03  0.11132599119E+04 -0.23376881447E+03  0.12849128719E+04  0.50400001928E-02 0. -1.
       -1    1    3    3    0  502 -0.59749945478E+03 -0.11132599119E+04 -0.25180480054E+03  0.12883162994E+04  0.50400001928E-02 0.  1.
</event>
<event>
 5   0  0.8579923E-06  0.2502222E+04  0.7818609E-02  0.8402194E-01
       -2   -1    0    0    0  501  0.00000000000E+00  0.00000000000E+00  0.93556399512E+03  0.93556399512E+03  0.25500000920E-02 0.  1.
        2   -1    0    0  501    0  0.00000000000E+00  0.00000000000E+00 -0.16730861911E+04  0.16730861911E+04  0.25500000920E-02 0. -1.
    10030    2    1    2    0    0  0.00000000000E+00  0.00000000000E+00 -0.73752219595E+03  0.26086501862E+04  0.25022223731E+04 0.  0.
        1    1    3    3  502    0  0.90206964681E+03  0.85685034354E+03 -0.23141137069E+03  0.12654933352E+04  0.50400001928E-02 0. -1.
       -1    1    3    3    0  502 -0.90206964681E+03 -0.85685034354E+03 -0.50611082526E+03  0.13431568510E+04  0.50400001928E-02 0.  1.
</event>
<event>
 5   0  0.3522870E-06  0.2499871E+04  0.7818609E-02  0.8403032E-01
       -1   -1    0    0    0  501  0.00000000000E+00  0.00000000000E+00  0.12098426425E+04  0.12098426426E+04  0.50400001928E-02 0. -1.
        1   -1    0    0  501    0  0.00000000000E+00  0.00000000000E+00 -0.12913567895E+04  0.12913567895E+04  0.50400001928E-02 0.  1.
    10030    2    1    2    0    0  0.00000000000E+00  0.00000000000E+00 -0.81514146964E+02  0.25011994321E+04  0.24998708052E+04 0.  0.
        2    1    3    3  502    0  0.10431930480E+04  0.95941136465E+02  0.64142791188E+03  0.12283672917E+04  0.25500000920E-02 0. -1.
       -2    1    3    3    0  502 -0.10431930480E+04 -0.95941136465E+02 -0.72294205884E+03  0.12728321404E+04  0.25500000920E-02 0.  1.
</event>
<event>
 5   0  0.3424193E-06  0.2527439E+04  0.7818609E-02  0.8393275E-01
        1   -1    0    0  501    0  0.00000000000E+00  0.00000000000E+00  0.16676741120E+04  0.16676741120E+04  0.50400001928E-02 0. -1.
       -1   -1    0    0    0  501  0.00000000000E+00  0.00000000000E+00 -0.95761371233E+03  0.95761371234E+03  0.50400001928E-02 0.  1.
    10030    2    1    2    0    0  0.00000000000E+00  0.00000000000E+00  0.71006039969E+03  0.26252878244E+04  0.25274394928E+04 0.  0.
        1    1    3    3  502    0  0.57437069905E+03  0.10242347562E+04 -0.12998276722E+03  0.11814626763E+04  0.50400001928E-02 0.  1.
       -1    1    3    3    0  502 -0.57437069905E+03 -0.10242347562E+04  0.84004316691E+03  0.14438251480E+04  0.50400001928E-02 0. -1.
</event>
<event>
 5   0  0.8354653E-06  0.2499894E+04  0.7818609E-02  0.8403023E-01
        2   -1    0    0  501    0  0.00000000000E+00  0.00000000000E+00  0.18286212529E+04  0.18286212529E+04  0.25500000920E-02 0.  1.
       -2   -1    0    0    0  501  0.00000000000E+00  0.00000000000E+00 -0.85439665569E+03  0.85439665570E+03  0.25500000920E-02 0. -1.
    10030    2    1    2    0    0  0.00000000000E+00  0.00000000000E+00  0.97422459719E+03  0.26830179086E+04  0.24998943042E+04 0.  0.
        3    1    3    3  502    0 -0.13236331263E+03  0.82857037637E+03 -0.50720793471E+03  0.98046357115E+03  0.10100000352E+00 0. -1.
       -3    1    3    3    0  502  0.13236331263E+03 -0.82857037637E+03  0.14814325319E+04  0.17025543374E+04  0.10100000352E+00 0.  1.
</event>
<event>
 5   0  0.3481387E-06  0.2504035E+04  0.7818609E-02  0.8401549E-01
        1   -1    0    0  501    0  0.00000000000E+00  0.00000000000E+00  0.19771617580E+04  0.19771617580E+04  0.50400001928E-02 0. -1.
       -1   -1    0    0    0  501  0.00000000000E+00  0.00000000000E+00 -0.79282744326E+03  0.79282744327E+03  0.50400001928E-02 0.  1.
    10030    2    1    2    0    0  0.00000000000E+00  0.00000000000E+00  0.11843343147E+04  0.27699892013E+04  0.25040352246E+04 0.  0.
        4    1    3    3  502    0  0.10141963657E+04  0.31577795673E+03 -0.14097274009E+03  0.10715339064E+04  0.12699999809E+01 0.  1.
       -4    1    3    3    0  502 -0.10141963657E+04 -0.31577795673E+03  0.13253070548E+04  0.16984552949E+04  0.12699999809E+01 0. -1.
</event>
<event>
 5   0  0.3424193E-06  0.2488018E+04  0.7818609E-02  0.8407267E-01
       -1   -1    0    0    0  501  0.00000000000E+00  0.00000000000E+00  0.17118638932E+04  0.17118638932E+04  0.50400001928E-02 0.  1.
        1   -1    0    0  501    0  0.00000000000E+00  0.00000000000E+00 -0.90401920698E+03  0.90401920700E+03  0.50400001928E-02 0. -1.
    10030    2    1    2    0    0  0.00000000000E+00  0.00000000000E+00  0.80784468617E+03  0.26158831002E+04  0.24880175555E+04 0.  0.
        1    1    3    3  502    0  0.38754542351E+03 -0.60140080950E+03 -0.66606443208E+03  0.97750509803E+03  0.50400001928E-02 0. -1.
       -1    1    3    3    0  502 -0.38754542351E+03  0.60140080950E+03  0.14739091183E+04  0.16383780021E+04  0.50400001928E-02 0.  1.
</event>
<event>
 5   0  0.3481387E-06  0.2485279E+04  0.7818609E-02  0.8408249E-01
        1   -1    0    0  501    0  0.00000000000E+00  0.00000000000E+00  0.11919986415E+04  0.11919986415E+04  0.50400001928E-02 0.  1.
       -1   -1    0    0    0  501  0.00000000000E+00  0.00000000000E+00 -0.12954316591E+04  0.12954316591E+04  0.50400001928E-02 0. -1.
    10030    2    1    2    0    0  0.00000000000E+00  0.00000000000E+00 -0.10343301764E+03  0.24874303006E+04  0.24852788800E+04 0.  0.
        4    1    3    3  502    0 -0.10423810991E+04  0.25798095341E+03  0.57415564049E+03  0.12176899608E+04  0.12699999809E+01 0.  1.
       -4    1    3    3    0  502  0.10423810991E+04 -0.25798095341E+03 -0.67758865813E+03  0.12697403399E+04  0.12699999809E+01 0. -1.
</event>
<event>
 5   0  0.8056723E-06  0.2496684E+04  0.7818609E-02  0.8404168E-01
       -2   -1    0    0    0  501  0.00000000000E+00  0.00000000000E+00  0.10177899736E+04  0.10177899736E+04  0.25500000920E-02 0.  1.
        2   -1    0    0  501    0  0.00000000000E+00  0.00000000000E+00 -0.15311196730E+04  0.15311196730E+04  0.25500000920E-02 0. -1.
    10030    2    1    2    0    0  0.00000000000E+00  0.00000000000E+00 -0.51332969939E+03  0.25489096467E+04  0.24966844027E+04 0.  0.
        2    1    3    3  502    0  0.95059095752E+03 -0.77781653971E+03 -0.28982972902E+02  0.12286015427E+04  0.25500000920E-02 0.  1.
       -2    1    3    3    0  502 -0.95059095752E+03  0.77781653971E+03 -0.48434672649E+03  0.13203081040E+04  0.25500000920E-02 0. -1.
</event>
<event>
 5   0  0.8948286E-06  0.2518809E+04  0.7818609E-02  0.8396315E-01
        2   -1    0    0  501    0  0.00000000000E+00  0.00000000000E+00  0.22433804973E+04  0.22433804973E+04  0.25500000920E-02 0.  1.
       -2   -1    0    0    0  501  0.00000000000E+00  0.00000000000E+00 -0.70701324080E+03  0.70701324081E+03  0.25500000920E-02 0. -1.
    10030    2    1    2    0    0  0.00000000000E+00  0.00000000000E+00  0.15363672565E+04  0.29503937381E+04  0.25188090168E+04 0.  0.
        4    1    3    3  502    0  0.10791188758E+03  0.82512909085E+03 -0.33910283419E+03  0.89859631487E+03  0.12699999809E+01 0. -1.
       -4    1    3    3    0  502 -0.10791188758E+03 -0.82512909085E+03  0.18754700907E+04  0.20517974233E+04  0.12699999809E+01 0.  1.
</event>
<event>
 5   0  0.8354653E-06  0.2450001E+04  0.7818609E-02  0.8421018E-01
       -2   -1    0    0    0  501  0.00000000000E+00  0.00000000000E+00  0.43609369598E+03  0.43609369599E+03  0.25500000920E-02 0. -1.
        2   -1    0    0  501    0  0.00000000000E+00  0.00000000000E+00 -0.34410637698E+04  0.34410637698E+04  0.25500000920E-02 0.  1.
    10030    2    1    2    0    0  0.00000000000E+00  0.00000000000E+00 -0.30049700739E+04  0.38771574658E+04  0.24500009939E+04 0.  0.
        3    1    3    3  502    0  0.57845498501E+03  0.10666819587E+04 -0.17682606526E+04  0.21445666966E+04  0.10100000352E+00 0. -1.
       -3    1    3    3    0  502 -0.57845498501E+03 -0.10666819587E+04 -0.12367094213E+04  0.17325907692E+04  0.10100000352E+00 0.  1.
</event>
<event>
 5   0  0.3484857E-06  0.2495333E+04  0.7818609E-02  0.8404650E-01
        1   -1    0    0  501    0  0.00000000000E+00  0.00000000000E+00  0.13369974798E+04  0.13369974798E+04  0.50400001928E-02 0.  1.
       -1   -1    0    0    0  501  0.00000000000E+00  0.00000000000E+00 -0.11643044230E+04  0.11643044230E+04  0.50400001928E-02 0. -1.
    10030    2    1    2    0    0  0.00000000000E+00  0.00000000000E+00  0.17269305682E+03  0.25013019028E+04  0.24953333078E+04 0.  0.
        3    1    3    3  502    0  0.98989658898E+03  0.31311508618E+03 -0.60721577798E+03  0.12027665298E+04  0.10100000352E+00 0. -1.
       -3    1    3    3    0  502 -0.98989658898E+03 -0.31311508618E+03  0.77990883480E+03  0.12985353730E+04  0.10100000352E+00 0.  1.
</event>
<event>
 5   0  0.8407986E-06  0.2518383E+04  0.7818609E-02  0.8396465E-01
        2   -1    0    0  501    0  0.00000000000E+00  0.00000000000E+00  0.12179249636E+04  0.12179249636E+04  0.25500000920E-02 0. -1.
       -2   -1    0    0    0  501  0.00000000000E+00  0.00000000000E+00 -0.13018566969E+04  0.13018566969E+04  0.25500000920E-02 0.  1.
    10030    2    1    2    0    0  0.00000000000E+00  0.00000000000E+00 -0.83931733295E+02  0.25197816605E+04  0.25183834261E+04 0.  0.
        5    1    3    3  502    0 -0.78720431043E+03 -0.85576663638E+01  0.94131971702E+03  0.12271384436E+04  0.46999998093E+01 0. -1.
       -5    1    3    3    0  502  0.78720431043E+03  0.85576663638E+01 -0.10252514503E+04  0.12926432170E+04  0.46999998093E+01 0.  1.
</event>
<event>
 5   0  0.8056723E-06  0.2501050E+04  0.7818609E-02  0.8402612E-01
       -2   -1    0    0    0  501  0.00000000000E+00  0.00000000000E+00  0.13794156845E+04  0.13794156845E+04  0.25500000920E-02 0. -1.
        2   -1    0    0  501    0  0.00000000000E+00  0.00000000000E+00 -0.11336774810E+04  0.11336774810E+04  0.25500000920E-02 0.  1.
    10030    2    1    2    0    0  0.00000000000E+00  0.00000000000E+00  0.24573820350E+03  0.25130931656E+04  0.25010497784E+04 0.  0.
        2    1    3    3  502    0  0.30897429654E+03 -0.73377693022E+03 -0.84609740892E+03  0.11617979707E+04  0.25500000920E-02 0.  1.
       -2    1    3    3    0  502 -0.30897429654E+03  0.73377693022E+03  0.10918356124E+04  0.13512951949E+04  0.25500000920E-02 0. -1.
</event>
<event>
 5   0  0.3484857E-06  0.2494019E+04  0.7818609E-02  0.8405119E-01
        1   -1    0    0  501    0  0.00000000000E+00  0.00000000000E+00  0.90023873853E+03  0.90023873854E+03  0.50400001928E-02 0.  1.
       -1   -1    0    0    0  501  0.00000000000E+00  0.00000000000E+00 -0.17273556809E+04  0.17273556809E+04  0.50400001928E-02 0. -1.
    10030    2    1    2    0    0  0.00000000000E+00  0.00000000000E+00 -0.82711694235E+03  0.26275944194E+04  0.24940188445E+04 0.  0.
        3    1    3    3  502    0 -0.96760978947E+02 -0.12426558974E+04 -0.37308039931E+03  0.13010554796E+04  0.10100000352E+00 0. -1.
       -3    1    3    3    0  502  0.96760978947E+02  0.12426558974E+04 -0.45403654305E+03  0.13265389399E+04  0.10100000352E+00 0.  1.
</event>
<event>
 5   0  0.8407986E-06  0.2498488E+04  0.7818609E-02  0.8403524E-01
       -2   -1    0    0    0  501  0.00000000000E+00  0.00000000000E+00  0.68281083630E+03  0.68281083630E+03  0.25500000920E-02 0.  1.
        2   -1    0    0  501    0  0.00000000000E+00  0.00000000000E+00 -0.22855679369E+04  0.22855679369E+04  0.25500000920E-02 0. -1.
    10030    2    1    2    0    0  0.00000000000E+00  0.00000000000E+00 -0.16027571006E+04  0.29683787732E+04  0.24984879863E+04 0.  0.
        5    1    3    3  502    0  0.94704827828E+03  0.69915762175E+03 -0.30456259125E+03  0.12159367925E+04  0.46999998093E+01 0.  1.
       -5    1    3    3    0  502 -0.94704827828E+03 -0.69915762175E+03 -0.12981945093E+04  0.17524419806E+04  0.46999998093E+01 0. -1.
</event>
<event>
 5   0  0.2901250E-06  0.2505055E+04  0.7818609E-02  0.8401187E-01
        3   -1    0    0  501    0  0.00000000000E+00  0.00000000000E+00  0.12469774726E+04  0.12469774767E+04  0.10100000352E+00 0. -1.
       -3   -1    0    0    0  501  0.00000000000E+00  0.00000000000E+00 -0.12581025873E+04  0.12581025913E+04  0.10100000352E+00 0.  1.
    10030    2    1    2    0    0  0.00000000000E+00  0.00000000000E+00 -0.11125114669E+02  0.25050800680E+04  0.25050553645E+04 0.  0.
        2    1    3    3  502    0  0.72687233361E+03 -0.83621225497E+03  0.57859324396E+03  0.12499457855E+04  0.25500000920E-02 0. -1.
       -2    1    3    3    0  502 -0.72687233361E+03  0.83621225497E+03 -0.58971835863E+03  0.12551342825E+04  0.25500000920E-02 0.  1.
</event>
<event>
 5   0  0.8407986E-06  0.2465398E+04  0.7818609E-02  0.8415417E-01
       -2   -1    0    0    0  501  0.00000000000E+00  0.00000000000E+00  0.17200656171E+04  0.17200656171E+04  0.25500000920E-02 0.  1.
        2   -1    0    0  501    0  0.00000000000E+00  0.00000000000E+00 -0.88342392578E+03  0.88342392579E+03  0.25500000920E-02 0. -1.
    10030    2    1    2    0    0  0.00000000000E+00  0.00000000000E+00  0.83664169132E+03  0.26034895429E+04  0.24653982397E+04 0.  0.
        5    1    3    3  502    0  0.82991954834E+03  0.38875847533E+02  0.13799569799E+04  0.16107703575E+04  0.46999998093E+01 0.  1.
       -5    1    3    3    0  502 -0.82991954834E+03 -0.38875847533E+02 -0.54331528858E+03  0.99271918539E+03  0.46999998093E+01 0. -1.
</event>
<event>
 5   0  0.8579923E-06  0.2490956E+04  0.7818609E-02  0.8406214E-01
       -2   -1    0    0    0  501  0.00000000000E+00  0.00000000000E+00  0.18939087403E+04  0.18939087403E+04  0.25500000920E-02 0.  1.
        2   -1    0    0  501    0  0.00000000000E+00  0.00000000000E+00 -0.81905529151E+03  0.81905529151E+03  0.25500000920E-02 0. -1.
    10030    2    1    2    0    0  0.00000000000E+00  0.00000000000E+00  0.10748534488E+04  0.27129640318E+04  0.24909564231E+04 0.  0.
        1    1    3    3  502    0  0.32660526533E+03  0.22207237466E+03  0.18238995820E+04  0.18661717027E+04  0.50400001928E-02 0.  1.
       -1    1    3    3    0  502 -0.32660526533E+03 -0.22207237466E+03 -0.74904613318E+03  0.84679232908E+03  0.50400001928E-02 0. -1.
</event>
<event>
 5   0  0.8948286E-06  0.2493561E+04  0.7818609E-02  0.8405283E-01
       -2   -1    0    0    0  501  0.00000000000E+00  0.00000000000E+00  0.86332547730E+03  0.86332547731E+03  0.25500000920E-02 0. -1.
        2   -1    0    0  501    0  0.00000000000E+00  0.00000000000E+00 -0.18005511489E+04  0.18005511489E+04  0.25500000920E-02 0.  1.
    10030    2    1    2    0    0  0.00000000000E+00  0.00000000000E+00 -0.93722567157E+03  0.26638766262E+04  0.24935610520E+04 0.  0.
        4    1    3    3  502    0 -0.37671685933E+03 -0.89578969953E+03 -0.13030554910E+04  0.16255183799E+04  0.12699999809E+01 0.  1.
       -4    1    3    3    0  502  0.37671685933E+03  0.89578969953E+03  0.36582981945E+03  0.10383582463E+04  0.12699999809E+01 0. -1.
</event>
<event>
 5   0  0.3484857E-06  0.2510585E+04  0.7818609E-02  0.8399224E-01
       -1   -1    0    0    0  501  0.00000000000E+00  0.00000000000E+00  0.12392024888E+04  0.12392024888E+04  0.50400001928E-02 0.  1.
        1   -1    0    0  501    0  0.00000000000E+00  0.00000000000E+00 -0.12715916862E+04  0.12715916862E+04  0.50400001928E-02 0. -1.
    10030    2    1    2    0    0  0.00000000000E+00  0.00000000000E+00 -0.32389197389E+02  0.25107941750E+04  0.25105852563E+04 0.  0.
        3    1    3    3  502    0  0.11003928781E+04 -0.34089588775E+03 -0.51491944273E+03  0.12618306286E+04  0.10100000352E+00 0. -1.
       -3    1    3    3    0  502 -0.11003928781E+04  0.34089588775E+03  0.48253024534E+03  0.12489635465E+04  0.10100000352E+00 0.  1.
</event>
<event>
 5   0  0.3481387E-06  0.2489997E+04  0.7818609E-02  0.8406558E-01
        1   -1    0    0  501    0  0.00000000000E+00  0.00000000000E+00  0.14900141325E+04  0.14900141325E+04  0.50400001928E-02 0.  1.
       -1   -1    0    0    0  501  0.00000000000E+00  0.00000000000E+00 -0.10402728977E+04  0.10402728977E+04  0.50400001928E-02 0. -1.
    10030    2    1    2    0    0  0.00000000000E+00  0.00000000000E+00  0.44974123476E+03  0.25302870302E+04  0.24899970436E+04 0.  0.
        4    1    3    3  502    0 -0.34667885889E+03  0.52535205698E+03  0.13164202980E+04  0.14591590143E+04  0.12699999809E+01 0.  1.
       -4    1    3    3    0  502  0.34667885889E+03 -0.52535205698E+03 -0.86667906327E+03  0.10711280160E+04  0.12699999809E+01 0. -1.
</event>
<event>
 5   0  0.8579923E-06  0.2511367E+04  0.7818609E-02  0.8398947E-01
       -2   -1    0    0    0  501  0.00000000000E+00  0.00000000000E+00  0.73042911864E+03  0.73042911865E+03  0.25500000920E-02 0.  1.
        2   -1    0    0  501    0  0.00000000000E+00  0.00000000000E+00 -0.21586504395E+04  0.21586504395E+04  0.25500000920E-02 0. -1.
    10030    2    1    2    0    0  0.00000000000E+00  0.00000000000E+00 -0.14282213209E+04  0.28890795581E+04  0.25113670683E+04 0.  0.
        1    1    3    3  502    0  0.27581539538E+03  0.88708080964E+03  0.25779425706E+03  0.96407695448E+03  0.50400001928E-02 0.  1.
       -1    1    3    3    0  502 -0.27581539538E+03 -0.88708080964E+03 -0.16860155779E+04  0.19250026037E+04  0.50400001928E-02 0. -1.
</event>
<event>
 5   0  0.3424193E-06  0.2469349E+04  0.7818609E-02  0.8413987E-01
        1   -1    0    0  501    0  0.00000000000E+00  0.00000000000E+00  0.21586712576E+04  0.21586712576E+04  0.50400001928E-02 0. -1.
       -1   -1    0    0    0  501  0.00000000000E+00  0.00000000000E+00 -0.70618505585E+03  0.70618505587E+03  0.50400001928E-02 0.  1.
    10030    2    1    2    0    0  0.00000000000E+00  0.00000000000E+00  0.14524862018E+04  0.28648563135E+04  0.24693492120E+04 0.  0.
        1    1    3    3  502    0  0.11553516728E+04  0.51455988436E+02  0.12278540533E+04  0.16867456189E+04  0.50400001928E-02 0.  1.
       -1    1    3    3    0  502 -0.11553516728E+04 -0.51455988436E+02  0.22463214842E+03  0.11781106946E+04  0.50400001928E-02 0. -1.
</event>
<event>
 5   0  0.8948286E-06  0.2531103E+04  0.7818609E-02  0.8391988E-01
       -2   -1    0    0    0  501  0.00000000000E+00  0.00000000000E+00  0.90103685374E+03  0.90103685374E+03  0.25500000920E-02 0. -1.
        2   -1    0    0  501    0  0.00000000000E+00  0.00000000000E+00 -0.17775302008E+04  0.17775302008E+04  0.25500000920E-02 0.  1.
    10030    2    1    2    0    0  0.00000000000E+00  0.00000000000E+00 -0.87649334709E+03  0.26785670546E+04  0.25311027001E+04 0.  0.
        4    1    3    3  502    0  0.21490997257E+03  0.10004683398E+04  0.34978148078E+03  0.10814212373E+04  0.12699999809E+01 0. -1.
       -4    1    3    3    0  502 -0.21490997257E+03 -0.10004683398E+04 -0.12262748279E+04  0.15971458173E+04  0.12699999809E+01 0.  1.
</event>
<event>
 5   0  0.8407986E-06  0.2500302E+04  0.7818609E-02  0.8402878E-01
        2   -1    0    0  501    0  0.00000000000E+00  0.00000000000E+00  0.17408881531E+04  0.17408881531E+04  0.25500000920E-02 0.  1.
       -2   -1    0    0    0  501  0.00000000000E+00  0.00000000000E+00 -0.89774702092E+03  0.89774702092E+03  0.25500000920E-02 0. -1.
    10030    2    1    2    0    0  0.00000000000E+00  0.00000000000E+00  0.84314113217E+03  0.26386351740E+04  0.25003017044E+04 0.  0.
        5    1    3    3  502    0 -0.66449055966E+02  0.43186746939E+02 -0.89508410746E+03  0.89859791986E+03  0.46999998093E+01 0. -1.
       -5    1    3    3    0  502  0.66449055966E+02 -0.43186746939E+02  0.17382252396E+04  0.17400372542E+04  0.46999998093E+01 0.  1.
</event>
<event>
 5   0  0.8407986E-06  0.2497498E+04  0.7818609E-02  0.8403877E-01
       -2   -1    0    0    0  501  0.00000000000E+00  0.00000000000E+00  0.12799785118E+04  0.12799785118E+04  0.25500000920E-02 0. -1.
        2   -1    0    0  501    0  0.00000000000E+00  0.00000000000E+00 -0.12182817383E+04  0.12182817383E+04  0.25500000920E-02 0.  1.
    10030    2    1    2    0    0  0.00000000000E+00  0.00000000000E+00  0.61696773518E+02  0.24982602502E+04  0.24974983054E+04 0.  0.
        5    1    3    3  502    0 -0.34441597952E+03  0.23785750965E+02 -0.11695861601E+04  0.12194843192E+04  0.46999998093E+01 0.  1.
       -5    1    3    3    0  502  0.34441597952E+03 -0.23785750965E+02  0.12312829336E+04  0.12787759309E+04  0.46999998093E+01 0. -1.
</event>
<event>
 5   0  0.3481387E-06  0.2484771E+04  0.7818609E-02  0.8408431E-01
        1   -1    0    0  501    0  0.00000000000E+00  0.00000000000E+00  0.10401352855E+04  0.10401352855E+04  0.50400001928E-02 0. -1.
       -1   -1    0    0    0  501  0.00000000000E+00  0.00000000000E+00 -0.14839622882E+04  0.14839622882E+04  0.50400001928E-02 0.  1.
    10030    2    1    2    0    0  0.00000000000E+00  0.00000000000E+00 -0.44382700264E+03  0.25240975737E+04  0.24847708452E+04 0.  0.
        4    1    3    3  502    0  0.26087234070E+03 -0.11642816757E+04 -0.57367981470E+03  0.13239019379E+04  0.12699999809E+01 0. -1.
       -4    1    3    3    0  502 -0.26087234070E+03  0.11642816757E+04  0.12985281206E+03  0.12001956358E+04  0.12699999809E+01 0.  1.
</event>
<event>
 5   0  0.3481387E-06  0.2498094E+04  0.7818609E-02  0.8403665E-01
       -1   -1    0    0    0  501  0.00000000000E+00  0.00000000000E+00  0.84706822126E+03  0.84706822128E+03  0.50400001928E-02 0. -1.
        1   -1    0    0  501    0  0.00000000000E+00  0.00000000000E+00 -0.18417857649E+04  0.18417857649E+04  0.50400001928E-02 0.  1.
    10030    2    1    2    0    0  0.00000000000E+00  0.00000000000E+00 -0.99471754368E+03  0.26888539862E+04  0.24980938268E+04 0.  0.
        4    1    3    3  502    0  0.35403544829E+01  0.12485092952E+04 -0.53659191231E+03  0.13589409434E+04  0.12699999809E+01 0.  1.
       -4    1    3    3    0  502 -0.35403544829E+01 -0.12485092952E+04 -0.45812563137E+03  0.13299130428E+04  0.12699999809E+01 0. -1.
</event>
<event>
 5   0  0.3424193E-06  0.2506992E+04  0.7818609E-02  0.8400499E-01
        1   -1    0    0  501    0  0.00000000000E+00  0.00000000000E+00  0.14997140137E+04  0.14997140137E+04  0.50400001928E-02 0. -1.
       -1   -1    0    0    0  501  0.00000000000E+00  0.00000000000E+00 -0.10477012657E+04  0.10477012657E+04  0.50400001928E-02 0.  1.
    10030    2    1    2    0    0  0.00000000000E+00  0.00000000000E+00  0.45201274801E+03  0.25474152795E+04  0.25069920386E+04 0.  0.
        1    1    3    3  502    0  0.92746440955E+03  0.78957452066E+03 -0.74797481944E+02  0.12203330767E+04  0.50400001928E-02 0. -1.
       -1    1    3    3    0  502 -0.92746440955E+03 -0.78957452066E+03  0.52681022996E+03  0.13270822028E+04  0.50400001928E-02 0.  1.
</event>
<event>
 5   0  0.8407986E-06  0.2472567E+04  0.7818609E-02  0.8412824E-01
       -2   -1    0    0    0  501  0.00000000000E+00  0.00000000000E+00  0.16190260459E+04  0.16190260460E+04  0.25500000920E-02 0.  1.
        2   -1    0    0  501    0  0.00000000000E+00  0.00000000000E+00 -0.94402276628E+03  0.94402276628E+03  0.25500000920E-02 0. -1.
    10030    2    1    2    0    0  0.00000000000E+00  0.00000000000E+00  0.67500327967E+03  0.25630488122E+04  0.24725674483E+04 0.  0.
        5    1    3    3  502    0 -0.16741775816E+03 -0.99421044738E+03 -0.40414665337E+03  0.10862042749E+04  0.46999998093E+01 0. -1.
       -5    1    3    3    0  502  0.16741775816E+03  0.99421044738E+03  0.10791499330E+04  0.14768445373E+04  0.46999998093E+01 0.  1.
</event>
<event>
 5   0  0.8948286E-06  0.2482125E+04  0.7818609E-02  0.8409381E-01
       -2   -1    0    0    0  501  0.00000000000E+00  0.00000000000E+00  0.95872595509E+03  0.95872595510E+03  0.25500000920E-02 0. -1.
        2   -1    0    0  501    0  0.00000000000E+00  0.00000000000E+00 -0.16065445767E+04  0.16065445767E+04  0.25500000920E-02 0.  1.
    10030    2    1    2    0    0  0.00000000000E+00  0.00000000000E+00 -0.64781862156E+03  0.25652705318E+04  0.24821248830E+04 0.  0.
        4    1    3    3  502    0 -0.89280635260E+03  0.86482115948E+00 -0.12148362057E+04  0.15076248043E+04  0.12699999809E+01 0.  1.
       -4    1    3    3    0  502  0.89280635260E+03 -0.86482115948E+00  0.56701758409E+03  0.10576457274E+04  0.12699999809E+01 0. -1.
</event>
<event>
 5   0  0.8579923E-06  0.2494971E+04  0.7818609E-02  0.8404779E-01
        2   -1    0    0  501    0  0.00000000000E+00  0.00000000000E+00  0.17094276452E+04  0.17094276452E+04  0.25500000920E-02 0.  1.
       -2   -1    0    0    0  501  0.00000000000E+00  0.00000000000E+00 -0.91037480413E+03  0.91037480414E+03  0.25500000920E-02 0. -1.
    10030    2    1    2    0    0  0.00000000000E+00  0.00000000000E+00  0.79905284111E+03  0.26198024494E+04  0.24949708277E+04 0.  0.
        1    1    3    3  502    0  0.39378179446E+03  0.10868301461E+04 -0.92933587767E+02  0.11596984608E+04  0.50400001928E-02 0.  1.
       -1    1    3    3    0  502 -0.39378179446E+03 -0.10868301461E+04  0.89198642887E+03  0.14601039886E+04  0.50400001928E-02 0. -1.
</event>
<event>
 5   0  0.8579923E-06  0.2593496E+04  0.7818609E-02  0.8370414E-01
       -2   -1    0    0    0  501  0.00000000000E+00  0.00000000000E+00  0.85929802273E+03  0.85929802273E+03  0.25500000920E-02 0. -1.
        2   -1    0    0  501    0  0.00000000000E+00  0.00000000000E+00 -0.19568938714E+04  0.19568938714E+04  0.25500000920E-02 0.  1.
    10030    2    1    2    0    0  0.00000000000E+00  0.00000000000E+00 -0.10975958487E+04  0.28161918941E+04  0.25934957369E+04 0.  0.
        1    1    3    3  502    0 -0.42386081931E+03  0.11093628714E+04  0.16699203601E+02  0.11876964418E+04  0.50400001928E-02 0. -1.
       -1    1    3    3    0  502  0.42386081931E+03 -0.11093628714E+04 -0.11142950523E+04  0.16284954523E+04  0.50400001928E-02 0.  1.
</event>
<event>
 5   0  0.3522870E-06  0.2488242E+04  0.7818609E-02  0.8407186E-01
       -1   -1    0    0    0  501  0.00000000000E+00  0.00000000000E+00  0.11019501363E+04  0.11019501364E+04  0.50400001928E-02 0.  1.
        1   -1    0    0  501    0  0.00000000000E+00  0.00000000000E+00 -0.14046345636E+04  0.14046345636E+04  0.50400001928E-02 0. -1.
    10030    2    1    2    0    0  0.00000000000E+00  0.00000000000E+00 -0.30268442728E+03  0.25065847000E+04  0.24882421497E+04 0.  0.
        2    1    3    3  502    0 -0.24928599864E+03  0.11386141378E+04 -0.58957968051E+03  0.13062120286E+04  0.25500000920E-02 0. -1.
       -2    1    3    3    0  502  0.24928599864E+03 -0.11386141378E+04  0.28689525323E+03  0.12003726714E+04  0.25500000920E-02 0.  1.
</event>
<event>
 5   0  0.3642184E-06  0.2505691E+04  0.7818609E-02  0.8400961E-01
       -1   -1    0    0    0  501  0.00000000000E+00  0.00000000000E+00  0.83603431477E+03  0.83603431478E+03  0.50400001928E-02 0.  1.
        1   -1    0    0  501    0  0.00000000000E+00  0.00000000000E+00 -0.18774609397E+04  0.18774609397E+04  0.50400001928E-02 0. -1.
    10030    2    1    2    0    0  0.00000000000E+00  0.00000000000E+00 -0.10414266249E+04  0.27134952545E+04  0.25056909388E+04 0.  0.
        5    1    3    3  502    0  0.10842225786E+04 -0.19410215496E+02  0.15876503965E+03  0.10959670544E+04  0.46999998093E+01 0.  1.
       -5    1    3    3    0  502 -0.10842225786E+04  0.19410215496E+02 -0.12001916645E+04  0.16175282001E+04  0.46999998093E+01 0. -1.
</event>
<event>
 5   0  0.8407986E-06  0.2481726E+04  0.7818609E-02  0.8409525E-01
        2   -1    0    0  501    0  0.00000000000E+00  0.00000000000E+00  0.23420889868E+04  0.23420889868E+04  0.25500000920E-02 0.  1.
       -2   -1    0    0    0  501  0.00000000000E+00  0.00000000000E+00 -0.65742217903E+03  0.65742217903E+03  0.25500000920E-02 0. -1.
    10030    2    1    2    0    0  0.00000000000E+00  0.00000000000E+00  0.16846668078E+04  0.29995111658E+04  0.24817262099E+04 0.  0.
        5    1    3    3  502    0 -0.17118824456E+03 -0.70706502694E+03  0.20572848626E+04  0.21821295706E+04  0.46999998093E+01 0.  1.
       -5    1    3    3    0  502  0.17118824456E+03  0.70706502694E+03 -0.37261805478E+03  0.81738159519E+03  0.46999998093E+01 0. -1.
</event>
<event>
 5   0  0.3481387E-06  0.2502994E+04  0.7818609E-02  0.8401920E-01
        1   -1    0    0  501    0  0.00000000000E+00  0.00000000000E+00  0.72861482320E+03  0.72861482322E+03  0.50400001928E-02 0. -1.
       -1   -1    0    0    0  501  0.00000000000E+00  0.00000000000E+00 -0.21496200316E+04  0.21496200316E+04  0.50400001928E-02 0.  1.
    10030    2    1    2    0    0  0.00000000000E+00  0.00000000000E+00 -0.14210052084E+04  0.28782348548E+04  0.25029942224E+04 0.  0.
        4    1    3    3  502    0  0.94540442422E+03 -0.42652361002E+03 -0.15158807259E+04  0.18367383872E+04  0.12699999809E+01 0. -1.
       -4    1    3    3    0  502 -0.94540442422E+03  0.42652361002E+03  0.94875517476E+02  0.10414964676E+04  0.12699999809E+01 0.  1.
</event>
<event>
 5   0  0.8056723E-06  0.2498815E+04  0.7818609E-02  0.8403408E-01
        2   -1    0    0  501    0  0.00000000000E+00  0.00000000000E+00  0.19588868880E+04  0.19588868880E+04  0.25500000920E-02 0.  1.
       -2   -1    0    0    0  501  0.00000000000E+00  0.00000000000E+00 -0.79689081169E+03  0.79689081170E+03  0.25500000920E-02 0. -1.
    10030    2    1    2    0    0  0.00000000000E+00  0.00000000000E+00  0.11619960764E+04  0.27557776997E+04  0.24988148889E+04 0.  0.
        2    1    3    3  502    0  0.11095705051E+04 -0.40233975717E+03  0.12897742120E+03  0.11872906810E+04  0.25500000920E-02 0. -1.
       -2    1    3    3    0  502 -0.11095705051E+04  0.40233975717E+03  0.10330186552E+04  0.15684870187E+04  0.25500000920E-02 0.  1.
</event>
<event>
 5   0  0.3424193E-06  0.2503494E+04  0.7818609E-02  0.8401742E-01
        1   -1    0    0  501    0  0.00000000000E+00  0.00000000000E+00  0.18053052726E+04  0.18053052726E+04  0.50400001928E-02 0.  1.
       -1   -1    0    0    0  501  0.00000000000E+00  0.00000000000E+00 -0.86792585807E+03  0.86792585808E+03  0.50400001928E-02 0. -1.
    10030    2    1    2    0    0  0.00000000000E+00  0.00000000000E+00  0.93737941452E+03  0.26732311307E+04  0.25034944600E+04 0.  0.
        1    1    3    3  502    0 -0.12190231178E+03 -0.80895573215E+03  0.14803429522E+04  0.16913559077E+04  0.50400001928E-02 0.  1.
       -1    1    3    3    0  502  0.12190231178E+03  0.80895573215E+03 -0.54296353772E+03  0.98187522299E+03  0.50400001928E-02 0. -1.
</event>
<event>
 5   0  0.8354653E-06  0.2465881E+04  0.7818609E-02  0.8415242E-01
        2   -1    0    0  501    0  0.00000000000E+00  0.00000000000E+00  0.19395336222E+04  0.19395336222E+04  0.25500000920E-02 0. -1.
       -2   -1    0    0    0  501  0.00000000000E+00  0.00000000000E+00 -0.78376677050E+03  0.78376677051E+03  0.25500000920E-02 0.  1.
    10030    2    1    2    0    0  0.00000000000E+00  0.00000000000E+00  0.11557668516E+04  0.27233003927E+04  0.24658807784E+04 0.  0.
        3    1    3    3  502    0 -0.88099072624E+03 -0.16374977247E+03 -0.35738994931E+03  0.96472080612E+03  0.10100000352E+00 0.  1.
       -3    1    3    3    0  502  0.88099072624E+03  0.16374977247E+03  0.15131568010E+04  0.17585795865E+04  0.10100000352E+00 0. -1.
</event>
<event>
 5   0  0.8407986E-06  0.2496913E+04  0.7818609E-02  0.8404086E-01
       -2   -1    0    0    0  501  0.00000000000E+00  0.00000000000E+00  0.11090791161E+04  0.11090791161E+04  0.25500000920E-02 0.  1.
        2   -1    0    0  501    0  0.00000000000E+00  0.00000000000E+00 -0.14053497355E+04  0.14053497355E+04  0.25500000920E-02 0. -1.
    10030    2    1    2    0    0  0.00000000000E+00  0.00000000000E+00 -0.29627061947E+03  0.25144288516E+04  0.24969133285E+04 0.  0.
        5    1    3    3  502    0  0.35963893448E+03  0.83582096587E+03 -0.10089328356E+04  0.13586406467E+04  0.46999998093E+01 0. -1.
       -5    1    3    3    0  502 -0.35963893448E+03 -0.83582096587E+03  0.71266221616E+03  0.11557882049E+04  0.46999998093E+01 0.  1.
</event>
<event>
 5   0  0.3424193E-06  0.2504682E+04  0.7818609E-02  0.8401319E-01
       -1   -1    0    0    0  501  0.00000000000E+00  0.00000000000E+00  0.10672275826E+04  0.10672275826E+04  0.50400001928E-02 0. -1.
        1   -1    0    0  501    0  0.00000000000E+00  0.00000000000E+00 -0.14695632557E+04  0.14695632557E+04  0.50400001928E-02 0.  1.
    10030    2    1    2    0    0  0.00000000000E+00  0.00000000000E+00 -0.40233567311E+03  0.25367908383E+04  0.25046823677E+04 0.  0.
        1    1    3    3  502    0 -0.38991426857E+02 -0.44892889745E+03 -0.13846077132E+04  0.14560892850E+04  0.50400001928E-02 0.  1.
       -1    1    3    3    0  502  0.38991426857E+02  0.44892889745E+03  0.98227204014E+03  0.10807015533E+04  0.50400001928E-02 0. -1.
</event>
<event>
 5   0  0.3481387E-06  0.2443216E+04  0.7818609E-02  0.8423499E-01
        1   -1    0    0  501    0  0.00000000000E+00  0.00000000000E+00  0.19101804983E+04  0.19101804983E+04  0.50400001928E-02 0. -1.
       -1   -1    0    0    0  501  0.00000000000E+00  0.00000000000E+00 -0.78124856520E+03  0.78124856521E+03  0.50400001928E-02 0.  1.
    10030    2    1    2    0    0  0.00000000000E+00  0.00000000000E+00  0.11289319331E+04  0.26914290635E+04  0.24432157282E+04 0.  0.
        4    1    3    3  502    0  0.36615126523E+03 -0.70817603499E+03 -0.45517361802E+03  0.91802215715E+03  0.12699999809E+01 0.  1.
       -4    1    3    3    0  502 -0.36615126523E+03  0.70817603499E+03  0.15841055512E+04  0.17734069064E+04  0.12699999809E+01 0. -1.
</event>
<event>
 5   0  0.2901250E-06  0.2491830E+04  0.7818609E-02  0.8405902E-01
        3   -1    0    0  501    0  0.00000000000E+00  0.00000000000E+00  0.16987565512E+04  0.16987565542E+04  0.10100000352E+00 0.  1.
       -3   -1    0    0    0  501  0.00000000000E+00  0.00000000000E+00 -0.91378850454E+03  0.91378851012E+03  0.10100000352E+00 0. -1.
    10030    2    1    2    0    0  0.00000000000E+00  0.00000000000E+00  0.78496804663E+03  0.26125450643E+04  0.24918300261E+04 0.  0.
        2    1    3    3  502    0  0.44128821967E+03 -0.11442128843E+04  0.62301259580E+03  0.13755373903E+04  0.25500000920E-02 0.  1.
       -2    1    3    3    0  502 -0.44128821967E+03  0.11442128843E+04  0.16195545084E+03  0.12370076740E+04  0.25500000920E-02 0. -1.
</event>
<event>
 5   0  0.3642184E-06  0.2521607E+04  0.7818609E-02  0.8395328E-01
        1   -1    0    0  501    0  0.00000000000E+00  0.00000000000E+00  0.20140322017E+04  0.20140322017E+04  0.50400001928E-02 0.  1.
       -1   -1    0    0    0  501  0.00000000000E+00  0.00000000000E+00 -0.78927500075E+03  0.78927500077E+03  0.50400001928E-02 0. -1.
    10030    2    1    2    0    0  0.00000000000E+00  0.00000000000E+00  0.12247572010E+04  0.28033072025E+04  0.25216068429E+04 0.  0.
        5    1    3    3  502    0  0.32023037629E+03  0.99481741820E+02 -0.73878193127E+03  0.81133528385E+03  0.46999998093E+01 0. -1.
       -5    1    3    3    0  502 -0.32023037629E+03 -0.99481741820E+02  0.19635391322E+04  0.19919719186E+04  0.46999998093E+01 0.  1.
</event>
<event>
 5   0  0.8407986E-06  0.2497728E+04  0.7818609E-02  0.8403795E-01
        2   -1    0    0  501    0  0.00000000000E+00  0.00000000000E+00  0.10627217863E+04  0.10627217863E+04  0.25500000920E-02 0.  1.
       -2   -1    0    0    0  501  0.00000000000E+00  0.00000000000E+00 -0.14676104107E+04  0.14676104107E+04  0.25500000920E-02 0. -1.
    10030    2    1    2    0    0  0.00000000000E+00  0.00000000000E+00 -0.40488862441E+03  0.25303321969E+04  0.24977282135E+04 0.  0.
        5    1    3    3  502    0  0.12258972481E+04 -0.17784115399E+03 -0.36322303887E+03  0.12908929487E+04  0.46999998093E+01 0. -1.
       -5    1    3    3    0  502 -0.12258972481E+04  0.17784115399E+03 -0.41665585539E+02  0.12394392482E+04  0.46999998093E+01 0.  1.
</event>
<event>
 5   0  0.8407986E-06  0.2491807E+04  0.7818609E-02  0.8405910E-01
       -2   -1    0    0    0  501  0.00000000000E+00  0.00000000000E+00  0.12627480833E+04  0.12627480833E+04  0.25500000920E-02 0. -1.
        2   -1    0    0  501    0  0.00000000000E+00  0.00000000000E+00 -0.12292835743E+04  0.12292835743E+04  0.25500000920E-02 0.  1.
    10030    2    1    2    0    0  0.00000000000E+00  0.00000000000E+00  0.33464509018E+02  0.24920316576E+04  0.24918069567E+04 0.  0.
        5    1    3    3  502    0  0.90322162096E+03 -0.56484708756E+03 -0.62938471571E+03  0.12373393792E+04  0.46999998093E+01 0.  1.
       -5    1    3    3    0  502 -0.90322162096E+03  0.56484708756E+03  0.66284922473E+03  0.12546922785E+04  0.46999998093E+01 0. -1.
</event>
<event>
 5   0  0.8354653E-06  0.2402620E+04  0.7818609E-02  0.8438523E-01
       -2   -1    0    0    0  501  0.00000000000E+00  0.00000000000E+00  0.98945028551E+03  0.98945028551E+03  0.25500000920E-02 0. -1.
        2   -1    0    0  501    0  0.00000000000E+00  0.00000000000E+00 -0.14585325010E+04  0.14585325010E+04  0.25500000920E-02 0.  1.
    10030    2    1    2    0    0  0.00000000000E+00  0.00000000000E+00 -0.46908221554E+03  0.24479827866E+04  0.24026197365E+04 0.  0.
        3    1    3    3  502    0 -0.56001477360E+03 -0.10299505119E+04 -0.50165653655E+03  0.12751760249E+04  0.10100000352E+00 0.  1.
       -3    1    3    3    0  502  0.56001477360E+03  0.10299505119E+04  0.32574321014E+02  0.11728067617E+04  0.10100000352E+00 0. -1.
</event>
<event>
 5   0  0.8407986E-06  0.2500054E+04  0.7818609E-02  0.8402966E-01
       -2   -1    0    0    0  501  0.00000000000E+00  0.00000000000E+00  0.19509474411E+04  0.19509474411E+04  0.25500000920E-02 0.  1.
        2   -1    0    0  501    0  0.00000000000E+00  0.00000000000E+00 -0.80092778250E+03  0.80092778251E+03  0.25500000920E-02 0. -1.
    10030    2    1    2    0    0  0.00000000000E+00  0.00000000000E+00  0.11500196586E+04  0.27518752236E+04  0.25000544056E+04 0.  0.
        5    1    3    3  502    0 -0.75037556326E+03 -0.30479635482E+03  0.16230615898E+04  0.18139226329E+04  0.46999998093E+01 0.  1.
       -5    1    3    3    0  502  0.75037556326E+03  0.30479635482E+03 -0.47304193116E+03  0.93795259075E+03  0.46999998093E+01 0. -1.
</event>
<event>
 5   0  0.3522870E-06  0.2511311E+04  0.7818609E-02  0.8398967E-01
        1   -1    0    0  501    0  0.00000000000E+00  0.00000000000E+00  0.18920824907E+04  0.18920824908E+04  0.50400001928E-02 0. -1.
       -1   -1    0    0    0  501  0.00000000000E+00  0.00000000000E+00 -0.83329922211E+03  0.83329922213E+03  0.50400001928E-02 0.  1.
    10030    2    1    2    0    0  0.00000000000E+00  0.00000000000E+00  0.10587832686E+04  0.27253817129E+04  0.25113111060E+04 0.  0.
        2    1    3    3  502    0 -0.59387085066E+03 -0.49408536517E+03  0.16036545720E+04  0.17800311575E+04  0.25500000920E-02 0. -1.
       -2    1    3    3    0  502  0.59387085066E+03  0.49408536517E+03 -0.54487130337E+03  0.94535055539E+03  0.25500000920E-02 0.  1.
</event>
<event>
 5   0  0.8354653E-06  0.2500415E+04  0.7818609E-02  0.8402838E-01
        2   -1    0    0  501    0  0.00000000000E+00  0.00000000000E+00  0.98506934840E+03  0.98506934840E+03  0.25500000920E-02 0. -1.
       -2   -1    0    0    0  501  0.00000000000E+00  0.00000000000E+00 -0.15867095548E+04  0.15867095548E+04  0.25500000920E-02 0.  1.
    10030    2    1    2    0    0  0.00000000000E+00  0.00000000000E+00 -0.60164020642E+03  0.25717789032E+04  0.25004151234E+04 0.  0.
        3    1    3    3  502    0 -0.14315486131E+03 -0.35441406508E+03 -0.15251363413E+04  0.15723051591E+04  0.10100000352E+00 0.  1.
       -3    1    3    3    0  502  0.14315486131E+03  0.35441406508E+03  0.92349613484E+03  0.99947374408E+03  0.10100000352E+00 0. -1.
</event>
<event>
 5   0  0.8056723E-06  0.2498348E+04  0.7818609E-02  0.8403574E-01
       -2   -1    0    0    0  501  0.00000000000E+00  0.00000000000E+00  0.78159279920E+03  0.78159279921E+03  0.25500000920E-02 0. -1.
        2   -1    0    0  501    0  0.00000000000E+00  0.00000000000E+00 -0.19964821448E+04  0.19964821448E+04  0.25500000920E-02 0.  1.
    10030    2    1    2    0    0  0.00000000000E+00  0.00000000000E+00 -0.12148893456E+04  0.27780749440E+04  0.24983483089E+04 0.  0.
        2    1    3    3  502    0  0.21245987477E+01  0.78773320383E+03  0.47059224617E+03  0.91759750245E+03  0.25500000920E-02 0. -1.
       -2    1    3    3    0  502 -0.21245987477E+01 -0.78773320383E+03 -0.16854815917E+04  0.18604774415E+04  0.25500000920E-02 0.  1.
</event>
<event>
 5   0  0.8354653E-06  0.2398539E+04  0.7818609E-02  0.8440051E-01
       -2   -1    0    0    0  501  0.00000000000E+00  0.00000000000E+00  0.10831182700E+04  0.10831182700E+04  0.25500000920E-02 0. -1.
        2   -1    0    0  501    0  0.00000000000E+00  0.00000000000E+00 -0.13278767524E+04  0.13278767524E+04  0.25500000920E-02 0.  1.
    10030    2    1    2    0    0  0.00000000000E+00  0.00000000000E+00 -0.24475848236E+03  0.24109950224E+04  0.23985391978E+04 0.  0.
        3    1    3    3  502    0  0.17710155779E+03  0.15048152500E+03 -0.13050255018E+04  0.13255569478E+04  0.10100000352E+00 0.  1.
       -3    1    3    3    0  502 -0.17710155779E+03 -0.15048152500E+03  0.10602670195E+04  0.10854380747E+04  0.10100000352E+00 0. -1.
</event>
<event>
 5   0  0.3522870E-06  0.2488447E+04  0.7818609E-02  0.8407113E-01
       -1   -1    0    0    0  501  0.00000000000E+00  0.00000000000E+00  0.15280562619E+04  0.15280562619E+04  0.50400001928E-02 0. -1.
        1   -1    0    0  501    0  0.00000000000E+00  0.00000000000E+00 -0.10131119944E+04  0.10131119944E+04  0.50400001928E-02 0.  1.
    10030    2    1    2    0    0  0.00000000000E+00  0.00000000000E+00  0.51494426751E+03  0.25411682562E+04  0.24884470072E+04 0.  0.
        2    1    3    3  502    0 -0.14877388181E+03  0.13388503333E+03  0.15115095210E+04  0.15247032177E+04  0.25500000920E-02 0. -1.
       -2    1    3    3    0  502  0.14877388181E+03 -0.13388503333E+03 -0.99656525349E+03  0.10164650385E+04  0.25500000920E-02 0.  1.
</event>
<event>
 5   0  0.8056723E-06  0.2517678E+04  0.7818609E-02  0.8396715E-01
       -2   -1    0    0    0  501  0.00000000000E+00  0.00000000000E+00  0.24806103668E+04  0.24806103668E+04  0.25500000920E-02 0.  1.
        2   -1    0    0  501    0  0.00000000000E+00  0.00000000000E+00 -0.63882463767E+03  0.63882463768E+03  0.25500000920E-02 0. -1.
    10030    2    1    2    0    0  0.00000000000E+00  0.00000000000E+00  0.18417857291E+04  0.31194350045E+04  0.25176775161E+04 0.  0.
        2    1    3    3  502    0 -0.66196413353E+03  0.13812555700E+03  0.22364654754E+04  0.23364616424E+04  0.25500000920E-02 0.  1.
       -2    1    3    3    0  502  0.66196413353E+03 -0.13812555700E+03 -0.39467974631E+03  0.78297336208E+03  0.25500000920E-02 0. -1.
</event>
<event>
 5   0  0.3481387E-06  0.2508585E+04  0.7818609E-02  0.8399933E-01
        1   -1    0    0  501    0  0.00000000000E+00  0.00000000000E+00  0.25802480921E+04  0.25802480921E+04  0.50400001928E-02 0.  1.
       -1   -1    0    0    0  501  0.00000000000E+00  0.00000000000E+00 -0.60972812629E+03  0.60972812632E+03  0.50400001928E-02 0. -1.
    10030    2    1    2    0    0  0.00000000000E+00  0.00000000000E+00  0.19705199658E+04  0.31899762184E+04  0.25085851268E+04 0.  0.
        4    1    3    3  502    0 -0.13959585069E+03 -0.56993938864E+03  0.23949454769E+04  0.24657825043E+04  0.12699999809E+01 0.  1.
       -4    1    3    3    0  502  0.13959585069E+03  0.56993938864E+03 -0.42442551108E+03  0.72419371415E+03  0.12699999809E+01 0. -1.
</event>
<event>
 5   0  0.3481387E-06  0.2486655E+04  0.7818609E-02  0.8407755E-01
       -1   -1    0    0    0  501  0.00000000000E+00  0.00000000000E+00  0.69738471221E+03  0.69738471223E+03  0.50400001928E-02 0. -1.
        1   -1    0    0  501    0  0.00000000000E+00  0.00000000000E+00 -0.22166573668E+04  0.22166573668E+04  0.50400001928E-02 0.  1.
    10030    2    1    2    0    0  0.00000000000E+00  0.00000000000E+00 -0.15192726546E+04  0.29140420791E+04  0.24866547488E+04 0.  0.
        4    1    3    3  502    0 -0.72912364233E+03 -0.17209325894E+03 -0.19224644589E+04  0.20632761774E+04  0.12699999809E+01 0.  1.
       -4    1    3    3    0  502  0.72912364233E+03  0.17209325894E+03  0.40319180425E+03  0.85076590170E+03  0.12699999809E+01 0. -1.
</event>
<event>
 5   0  0.8948286E-06  0.2503598E+04  0.7818609E-02  0.8401705E-01
        2   -1    0    0  501    0  0.00000000000E+00  0.00000000000E+00  0.14054187048E+04  0.14054187048E+04  0.25500000920E-02 0.  1.
       -2   -1    0    0    0  501  0.00000000000E+00  0.00000000000E+00 -0.11149710187E+04  0.11149710187E+04  0.25500000920E-02 0. -1.
    10030    2    1    2    0    0  0.00000000000E+00  0.00000000000E+00  0.29044768619E+03  0.25203897235E+04  0.25035983104E+04 0.  0.
        4    1    3    3  502    0  0.10473914536E+04 -0.63673098754E+03 -0.11053579761E+03  0.12307213263E+04  0.12699999809E+01 0. -1.
       -4    1    3    3    0  502 -0.10473914536E+04  0.63673098754E+03  0.40098348381E+03  0.12896683972E+04  0.12699999809E+01 0.  1.
</event>
<event>
 5   0  0.3484857E-06  0.2502440E+04  0.7818609E-02  0.8402117E-01
       -1   -1    0    0    0  501  0.00000000000E+00  0.00000000000E+00  0.12969679450E+04  0.12969679450E+04  0.50400001928E-02 0. -1.
        1   -1    0    0  501    0  0.00000000000E+00  0.00000000000E+00 -0.12070857277E+04  0.12070857278E+04  0.50400001928E-02 0.  1.
    10030    2    1    2    0    0  0.00000000000E+00  0.00000000000E+00  0.89882217254E+02  0.25040536728E+04  0.25024400059E+04 0.  0.
        3    1    3    3  502    0 -0.39303110893E+03 -0.83119917298E+03  0.89412605489E+03  0.12825080623E+04  0.10100000352E+00 0. -1.
       -3    1    3    3    0  502  0.39303110893E+03  0.83119917298E+03 -0.80424383764E+03  0.12215456104E+04  0.10100000352E+00 0.  1.
</event>
<event>
 5   0  0.3522870E-06  0.2495340E+04  0.7818609E-02  0.8404648E-01
       -1   -1    0    0    0  501  0.00000000000E+00  0.00000000000E+00  0.12599228813E+04  0.12599228813E+04  0.50400001928E-02 0. -1.
        1   -1    0    0  501    0  0.00000000000E+00  0.00000000000E+00 -0.12355361988E+04  0.12355361988E+04  0.50400001928E-02 0.  1.
    10030    2    1    2    0    0  0.00000000000E+00  0.00000000000E+00  0.24386682571E+02  0.24954590801E+04  0.24953399188E+04 0.  0.
        2    1    3    3  502    0  0.33163039775E+03 -0.36122811112E+03  0.11595126384E+04  0.12589416299E+04  0.25500000920E-02 0. -1.
       -2    1    3    3    0  502 -0.33163039775E+03  0.36122811112E+03 -0.11351259558E+04  0.12365174502E+04  0.25500000920E-02 0.  1.
</event>
<event>
 5   0  0.8354653E-06  0.2488776E+04  0.7818609E-02  0.8406995E-01
        2   -1    0    0  501    0  0.00000000000E+00  0.00000000000E+00  0.12588651269E+04  0.12588651269E+04  0.25500000920E-02 0. -1.
       -2   -1    0    0    0  501  0.00000000000E+00  0.00000000000E+00 -0.12300772588E+04  0.12300772588E+04  0.25500000920E-02 0.  1.
    10030    2    1    2    0    0  0.00000000000E+00  0.00000000000E+00  0.28787868115E+02  0.24889423856E+04  0.24887758954E+04 0.  0.
        3    1    3    3  502    0 -0.45811704693E+03 -0.15884247451E+01  0.11714620856E+04  0.12578541966E+04  0.10100000352E+00 0. -1.
       -3    1    3    3    0  502  0.45811704693E+03  0.15884247451E+01 -0.11426742175E+04  0.12310881890E+04  0.10100000352E+00 0.  1.
</event>
<event>
 5   0  0.8354653E-06  0.2436554E+04  0.7818609E-02  0.8425944E-01
        2   -1    0    0  501    0  0.00000000000E+00  0.00000000000E+00  0.20955024705E+04  0.20955024705E+04  0.25500000920E-02 0. -1.
       -2   -1    0    0    0  501  0.00000000000E+00  0.00000000000E+00 -0.70827808004E+03  0.70827808005E+03  0.25500000920E-02 0.  1.
    10030    2    1    2    0    0  0.00000000000E+00  0.00000000000E+00  0.13872243905E+04  0.28037805506E+04  0.24365536863E+04 0.  0.
        3    1    3    3  502    0 -0.21379310716E+03  0.11169165650E+04  0.19072396332E+03  0.11530766437E+04  0.10100000352E+00 0.  1.
       -3    1    3    3    0  502  0.21379310716E+03 -0.11169165650E+04  0.11965004272E+04  0.16507039069E+04  0.10100000352E+00 0. -1.
</event>
<event>
 5   0  0.8056723E-06  0.2497255E+04  0.7818609E-02  0.8403964E-01
       -2   -1    0    0    0  501  0.00000000000E+00  0.00000000000E+00  0.99257487803E+03  0.99257487803E+03  0.25500000920E-02 0. -1.
        2   -1    0    0  501    0  0.00000000000E+00  0.00000000000E+00 -0.15707331470E+04  0.15707331470E+04  0.25500000920E-02 0.  1.
    10030    2    1    2    0    0  0.00000000000E+00  0.00000000000E+00 -0.57815826900E+03  0.25633080251E+04  0.24972547021E+04 0.  0.
        2    1    3    3  502    0 -0.46389274449E+01 -0.12046220560E+04 -0.62630275576E+03  0.13577153455E+04  0.25500000920E-02 0.  1.
       -2    1    3    3    0  502  0.46389274449E+01  0.12046220560E+04  0.48144486764E+02  0.12055926796E+04  0.25500000920E-02 0. -1.
</event>
<event>
 5   0  0.3424193E-06  0.2472365E+04  0.7818609E-02  0.8412897E-01
        1   -1    0    0  501    0  0.00000000000E+00  0.00000000000E+00  0.74034962400E+03  0.74034962402E+03  0.50400001928E-02 0.  1.
       -1   -1    0    0    0  501  0.00000000000E+00  0.00000000000E+00 -0.20640884303E+04  0.20640884303E+04  0.50400001928E-02 0. -1.
    10030    2    1    2    0    0  0.00000000000E+00  0.00000000000E+00 -0.13237388063E+04  0.28044380544E+04  0.24723649353E+04 0.  0.
        1    1    3    3  502    0  0.58450822026E+03  0.10753633220E+04 -0.46510284272E+03  0.13093421204E+04  0.50400001928E-02 0.  1.
       -1    1    3    3    0  502 -0.58450822026E+03 -0.10753633220E+04 -0.85863596361E+03  0.14950959340E+04  0.50400001928E-02 0. -1.
</event>
<event>
 5   0  0.8948286E-06  0.2495703E+04  0.7818609E-02  0.8404518E-01
       -2   -1    0    0    0  501  0.00000000000E+00  0.00000000000E+00  0.64319791934E+03  0.64319791935E+03  0.25500000920E-02 0. -1.
        2   -1    0    0  501    0  0.00000000000E+00  0.00000000000E+00 -0.24209250040E+04  0.24209250040E+04  0.25500000920E-02 0.  1.
    10030    2    1    2    0    0  0.00000000000E+00  0.00000000000E+00 -0.17777270846E+04  0.30641229233E+04  0.24957034483E+04 0.  0.
        4    1    3    3  502    0  0.31657904771E+03 -0.58106074919E+03  0.41005606035E+03  0.77846096449E+03  0.12699999809E+01 0. -1.
       -4    1    3    3    0  502 -0.31657904771E+03  0.58106074919E+03 -0.21877831450E+04  0.22856619588E+04  0.12699999809E+01 0.  1.
</event>
<event>
 5   0  0.3484857E-06  0.2501507E+04  0.7818609E-02  0.8402449E-01
       -1   -1    0    0    0  501  0.00000000000E+00  0.00000000000E+00  0.91599472791E+03  0.91599472793E+03  0.50400001928E-02 0.  1.
        1   -1    0    0  501    0  0.00000000000E+00  0.00000000000E+00 -0.17078530007E+04  0.17078530007E+04  0.50400001928E-02 0. -1.
    10030    2    1    2    0    0  0.00000000000E+00  0.00000000000E+00 -0.79185827274E+03  0.26238477286E+04  0.25015070215E+04 0.  0.
        3    1    3    3  502    0  0.61422892840E+03 -0.23262372099E+03 -0.15124082020E+04  0.16488691736E+04  0.10100000352E+00 0. -1.
       -3    1    3    3    0  502 -0.61422892840E+03  0.23262372099E+03  0.72054992921E+03  0.97497855501E+03  0.10100000352E+00 0.  1.
</event>
<event>
 5   0  0.8354653E-06  0.2502315E+04  0.7818609E-02  0.8402161E-01
        2   -1    0    0  501    0  0.00000000000E+00  0.00000000000E+00  0.10594284733E+04  0.10594284733E+04  0.25500000920E-02 0.  1.
       -2   -1    0    0    0  501  0.00000000000E+00  0.00000000000E+00 -0.14775850070E+04  0.14775850070E+04  0.25500000920E-02 0. -1.
    10030    2    1    2    0    0  0.00000000000E+00  0.00000000000E+00 -0.41815653366E+03  0.25370134804E+04  0.25023154303E+04 0.  0.
        3    1    3    3  502    0  0.40453560013E+03  0.19695497299E+03 -0.13927234308E+04  0.14635979223E+04  0.10100000352E+00 0. -1.
       -3    1    3    3    0  502 -0.40453560013E+03 -0.19695497299E+03  0.97456689714E+03  0.10734155581E+04  0.10100000352E+00 0.  1.
</event>
<event>
 5   0  0.8354653E-06  0.2494340E+04  0.7818609E-02  0.8405005E-01
       -2   -1    0    0    0  501  0.00000000000E+00  0.00000000000E+00  0.11018034154E+04  0.11018034154E+04  0.25500000920E-02 0. -1.
        2   -1    0    0  501    0  0.00000000000E+00  0.00000000000E+00 -0.14117154654E+04  0.14117154654E+04  0.25500000920E-02 0.  1.
    10030    2    1    2    0    0  0.00000000000E+00  0.00000000000E+00 -0.30991204999E+03  0.25135188809E+04  0.24943399299E+04 0.  0.
        3    1    3    3  502    0 -0.26457606320E+03 -0.84770595885E+03  0.72746372144E+03  0.11479587807E+04  0.10100000352E+00 0. -1.
       -3    1    3    3    0  502  0.26457606320E+03  0.84770595885E+03 -0.10373757714E+04  0.13655601002E+04  0.10100000352E+00 0.  1.
</event>
<event>
 5   0  0.3481387E-06  0.2497973E+04  0.7818609E-02  0.8403708E-01
       -1   -1    0    0    0  501  0.00000000000E+00  0.00000000000E+00  0.10831425343E+04  0.10831425343E+04  0.50400001928E-02 0.  1.
        1   -1    0    0  501    0  0.00000000000E+00  0.00000000000E+00 -0.14402229986E+04  0.14402229986E+04  0.50400001928E-02 0. -1.
    10030    2    1    2    0    0  0.00000000000E+00  0.00000000000E+00 -0.35708046430E+03  0.25233655329E+04  0.24979726089E+04 0.  0.
        4    1    3    3  502    0  0.12406491552E+04 -0.20687196696E+02 -0.34518524728E+02  0.12413023113E+04  0.12699999809E+01 0. -1.
       -4    1    3    3    0  502 -0.12406491552E+04  0.20687196696E+02 -0.32256193957E+03  0.12820632216E+04  0.12699999809E+01 0.  1.
</event>
<event>
 5   0  0.3424193E-06  0.2571987E+04  0.7818609E-02  0.8377779E-01
        1   -1    0    0  501    0  0.00000000000E+00  0.00000000000E+00  0.21674843514E+04  0.21674843514E+04  0.50400001928E-02 0.  1.
       -1   -1    0    0    0  501  0.00000000000E+00  0.00000000000E+00 -0.76299481850E+03  0.76299481852E+03  0.50400001928E-02 0. -1.
    10030    2    1    2    0    0  0.00000000000E+00  0.00000000000E+00  0.14044895329E+04  0.29304791699E+04  0.25719870368E+04 0.  0.
        1    1    3    3  502    0  0.52832798677E+03  0.28264970793E+03  0.19987198261E+04  0.20866006476E+04  0.50400001928E-02 0.  1.
       -1    1    3    3    0  502 -0.52832798677E+03 -0.28264970793E+03 -0.59423029327E+03  0.84387852234E+03  0.50400001928E-02 0. -1.
</event>
<event>
 5   0  0.8579923E-06  0.2497578E+04  0.7818609E-02  0.8403849E-01
       -2   -1    0    0    0  501  0.00000000000E+00  0.00000000000E+00  0.67766561831E+03  0.67766561831E+03  0.25500000920E-02 0.  1.
        2   -1    0    0  501    0  0.00000000000E+00  0.00000000000E+00 -0.23012446050E+04  0.23012446050E+04  0.25500000920E-02 0. -1.
    10030    2    1    2    0    0  0.00000000000E+00  0.00000000000E+00 -0.16235789867E+04  0.29789102234E+04  0.24975783056E+04 0.  0.
        1    1    3    3  502    0 -0.90160913754E+03  0.59206355119E+03 -0.61194490806E+02  0.10803624629E+04  0.50400001928E-02 0.  1.
       -1    1    3    3    0  502  0.90160913754E+03 -0.59206355119E+03 -0.15623844959E+04  0.18985477604E+04  0.50400001928E-02 0. -1.
</event>
<event>
 5   0  0.3481387E-06  0.2505419E+04  0.7818609E-02  0.8401058E-01
       -1   -1    0    0    0  501  0.00000000000E+00  0.00000000000E+00  0.13909092532E+04  0.13909092532E+04  0.50400001928E-02 0.  1.
        1   -1    0    0  501    0  0.00000000000E+00  0.00000000000E+00 -0.11282412437E+04  0.11282412437E+04  0.50400001928E-02 0. -1.
    10030    2    1    2    0    0  0.00000000000E+00  0.00000000000E+00  0.26266800953E+03  0.25191504969E+04  0.25054190752E+04 0.  0.
        4    1    3    3  502    0 -0.99000205527E+03  0.54333011942E+02  0.90118259515E+03  0.13398461958E+04  0.12699999809E+01 0.  1.
       -4    1    3    3    0  502  0.99000205527E+03 -0.54333011942E+02 -0.63851458561E+03  0.11793043011E+04  0.12699999809E+01 0. -1.
</event>
<event>
 5   0  0.8407986E-06  0.2492963E+04  0.7818609E-02  0.8405497E-01
       -2   -1    0    0    0  501  0.00000000000E+00  0.00000000000E+00  0.12790282270E+04  0.12790282270E+04  0.25500000920E-02 0. -1.
        2   -1    0    0  501    0  0.00000000000E+00  0.00000000000E+00 -0.12147630317E+04  0.12147630317E+04  0.25500000920E-02 0.  1.
    10030    2    1    2    0    0  0.00000000000E+00  0.00000000000E+00  0.64265195321E+02  0.24937912588E+04  0.24929630617E+04 0.  0.
        5    1    3    3  502    0  0.19595939717E+03 -0.24019691108E+03 -0.11755793324E+04  0.12157727987E+04  0.46999998093E+01 0.  1.
       -5    1    3    3    0  502 -0.19595939717E+03  0.24019691108E+03  0.12398445277E+04  0.12780184601E+04  0.46999998093E+01 0. -1.
</event>
<event>
 5   0  0.3522870E-06  0.2517993E+04  0.7818609E-02  0.8396603E-01
        1   -1    0    0  501    0  0.00000000000E+00  0.00000000000E+00  0.21938397859E+04  0.21938397859E+04  0.50400001928E-02 0.  1.
       -1   -1    0    0    0  501  0.00000000000E+00  0.00000000000E+00 -0.72251036030E+03  0.72251036032E+03  0.50400001928E-02 0. -1.
    10030    2    1    2    0    0  0.00000000000E+00  0.00000000000E+00  0.14713294256E+04  0.29163501463E+04  0.25179928310E+04 0.  0.
        2    1    3    3  502    0  0.27385971584E+03  0.19220088913E+02 -0.68742079336E+03  0.74021341715E+03  0.25500000920E-02 0. -1.
       -2    1    3    3    0  502 -0.27385971584E+03 -0.19220088913E+02  0.21587502190E+04  0.21761367291E+04  0.25500000920E-02 0.  1.
</event>
<event>
 5   0  0.3642184E-06  0.2481168E+04  0.7818609E-02  0.8409725E-01
       -1   -1    0    0    0  501  0.00000000000E+00  0.00000000000E+00  0.11342232309E+04  0.11342232309E+04  0.50400001928E-02 0. -1.
        1   -1    0    0  501    0  0.00000000000E+00  0.00000000000E+00 -0.13569190963E+04  0.13569190963E+04  0.50400001928E-02 0.  1.
    10030    2    1    2    0    0  0.00000000000E+00  0.00000000000E+00 -0.22269586538E+03  0.24911423272E+04  0.24811684034E+04 0.  0.
        5    1    3    3  502    0 -0.96233473989E+03 -0.71745441128E+03  0.20327749149E+03  0.12174451989E+04  0.46999998093E+01 0. -1.
       -5    1    3    3    0  502  0.96233473989E+03  0.71745441128E+03 -0.42597335687E+03  0.12736971283E+04  0.46999998093E+01 0.  1.
</event>
<event>
 5   0  0.3424193E-06  0.2517124E+04  0.7818609E-02  0.8396910E-01
        1   -1    0    0  501    0  0.00000000000E+00  0.00000000000E+00  0.19469188906E+04  0.19469188906E+04  0.50400001928E-02 0. -1.
       -1   -1    0    0    0  501  0.00000000000E+00  0.00000000000E+00 -0.81358187201E+03  0.81358187203E+03  0.50400001928E-02 0.  1.
    10030    2    1    2    0    0  0.00000000000E+00  0.00000000000E+00  0.11333370186E+04  0.27605007626E+04  0.25171236884E+04 0.  0.
        1    1    3    3  502    0 -0.10412141319E+04  0.46907323545E+03 -0.13459368920E+02  0.11420760585E+04  0.50400001928E-02 0.  1.
       -1    1    3    3    0  502  0.10412141319E+04 -0.46907323545E+03  0.11467963875E+04  0.16184247042E+04  0.50400001928E-02 0. -1.
</event>
<event>
 5   0  0.8407986E-06  0.2492433E+04  0.7818609E-02  0.8405686E-01
        2   -1    0    0  501    0  0.00000000000E+00  0.00000000000E+00  0.22037595658E+04  0.22037595658E+04  0.25500000920E-02 0. -1.
       -2   -1    0    0    0  501  0.00000000000E+00  0.00000000000E+00 -0.70472988311E+03  0.70472988311E+03  0.25500000920E-02 0.  1.
    10030    2    1    2    0    0  0.00000000000E+00  0.00000000000E+00  0.14990296827E+04  0.29084894489E+04  0.24924327242E+04 0.  0.
        5    1    3    3  502    0 -0.14021224557E+03  0.47419655995E+03 -0.58533613472E+03  0.76626518379E+03  0.46999998093E+01 0.  1.
       -5    1    3    3    0  502  0.14021224557E+03 -0.47419655995E+03  0.20843658174E+04  0.21422242651E+04  0.46999998093E+01 0. -1.
</event>
<event>
 5   0  0.3522870E-06  0.2386144E+04  0.7818609E-02  0.8444709E-01
       -1   -1    0    0    0  501  0.00000000000E+00  0.00000000000E+00  0.84258239548E+03  0.84258239549E+03  0.50400001928E-02 0.  1.
        1   -1    0    0  501    0  0.00000000000E+00  0.00000000000E+00 -0.16893556508E+04  0.16893556508E+04  0.50400001928E-02 0. -1.
    10030    2    1    2    0    0  0.00000000000E+00  0.00000000000E+00 -0.84677325529E+03  0.25319380463E+04  0.23861444475E+04 0.  0.
        2    1    3    3  502    0 -0.10077095509E+04 -0.63581532900E+03 -0.35900259834E+03  0.12444366345E+04  0.25500000920E-02 0. -1.
       -2    1    3    3    0  502  0.10077095509E+04  0.63581532900E+03 -0.48777065695E+03  0.12875014118E+04  0.25500000920E-02 0.  1.
</event>
<event>
 5   0  0.3484857E-06  0.2498784E+04  0.7818609E-02  0.8403419E-01
        1   -1    0    0  501    0  0.00000000000E+00  0.00000000000E+00  0.22980654180E+04  0.22980654180E+04  0.50400001928E-02 0. -1.
       -1   -1    0    0    0  501  0.00000000000E+00  0.00000000000E+00 -0.67925836420E+03  0.67925836422E+03  0.50400001928E-02 0.  1.
    10030    2    1    2    0    0  0.00000000000E+00  0.00000000000E+00  0.16188070538E+04  0.29773237822E+04  0.24987838295E+04 0.  0.
        3    1    3    3  502    0  0.11896960886E+03  0.11929805578E+04  0.12283401877E+04  0.17164428351E+04  0.10100000352E+00 0. -1.
       -3    1    3    3    0  502 -0.11896960886E+03 -0.11929805578E+04  0.39046686605E+03  0.12608809471E+04  0.10100000352E+00 0.  1.
</event>
<event>
 5   0  0.8354653E-06  0.2472075E+04  0.7818609E-02  0.8413002E-01
       -2   -1    0    0    0  501  0.00000000000E+00  0.00000000000E+00  0.15286522805E+04  0.15286522805E+04  0.25500000920E-02 0.  1.
        2   -1    0    0  501    0  0.00000000000E+00  0.00000000000E+00 -0.99943540883E+03  0.99943540884E+03  0.25500000920E-02 0. -1.
    10030    2    1    2    0    0  0.00000000000E+00  0.00000000000E+00  0.52921687169E+03  0.25280876894E+04  0.24720754171E+04 0.  0.
        3    1    3    3  502    0 -0.36729107526E+02 -0.16671737968E+03 -0.98732106715E+03  0.10019713628E+04  0.10100000352E+00 0. -1.
       -3    1    3    3    0  502  0.36729107526E+02  0.16671737968E+03  0.15165379388E+04  0.15261163266E+04  0.10100000352E+00 0.  1.
</event>
<event>
 5   0  0.8407986E-06  0.2496530E+04  0.7818609E-02  0.8404223E-01
       -2   -1    0    0    0  501  0.00000000000E+00  0.00000000000E+00  0.10598898138E+04  0.10598898138E+04  0.25500000920E-02 0.  1.
        2   -1    0    0  501    0  0.00000000000E+00  0.00000000000E+00 -0.14701200720E+04  0.14701200720E+04  0.25500000920E-02 0. -1.
    10030    2    1    2    0    0  0.00000000000E+00  0.00000000000E+00 -0.41023025828E+03  0.25300098858E+04  0.24965298231E+04 0.  0.
        5    1    3    3  502    0 -0.95008190115E+03  0.55611502994E+03  0.39118352272E+03  0.11683176725E+04  0.46999998093E+01 0.  1.
       -5    1    3    3    0  502  0.95008190115E+03 -0.55611502994E+03 -0.80141378100E+03  0.13616922133E+04  0.46999998093E+01 0. -1.
</event>
<event>
 5   0  0.8579923E-06  0.2501797E+04  0.7818609E-02  0.8402346E-01
        2   -1    0    0  501    0  0.00000000000E+00  0.00000000000E+00  0.20080702482E+04  0.20080702482E+04  0.25500000920E-02 0. -1.
       -2   -1    0    0    0  501  0.00000000000E+00  0.00000000000E+00 -0.77922943669E+03  0.77922943670E+03  0.25500000920E-02 0.  1.
    10030    2    1    2    0    0  0.00000000000E+00  0.00000000000E+00  0.12288408115E+04  0.27872996849E+04  0.25017973126E+04 0.  0.
        1    1    3    3  502    0  0.32738579245E+03 -0.13676075758E+03  0.19508349363E+04  0.19828368341E+04  0.50400001928E-02 0. -1.
       -1    1    3    3    0  502 -0.32738579245E+03  0.13676075758E+03 -0.72199412485E+03  0.80446285076E+03  0.50400001928E-02 0.  1.
</event>
<event>
 5   0  0.3481387E-06  0.2508393E+04  0.7818609E-02  0.8400001E-01
        1   -1    0    0  501    0  0.00000000000E+00  0.00000000000E+00  0.10409987929E+04  0.10409987929E+04  0.50400001928E-02 0.  1.
       -1   -1    0    0    0  501  0.00000000000E+00  0.00000000000E+00 -0.15110578141E+04  0.15110578141E+04  0.50400001928E-02 0. -1.
    10030    2    1    2    0    0  0.00000000000E+00  0.00000000000E+00 -0.47005902126E+03  0.25520566070E+04  0.25083933986E+04 0.  0.
        4    1    3    3  502    0 -0.11090381458E+04 -0.54416359058E+03 -0.45542934184E+03  0.13166233783E+04  0.12699999809E+01 0. -1.
       -4    1    3    3    0  502  0.11090381458E+04  0.54416359058E+03 -0.14629679429E+02  0.12354332287E+04  0.12699999809E+01 0.  1.
</event>
<event>
 5   0  0.3484857E-06  0.2494684E+04  0.7818609E-02  0.8404882E-01
       -1   -1    0    0    0  501  0.00000000000E+00  0.00000000000E+00  0.75329698426E+03  0.75329698427E+03  0.50400001928E-02 0. -1.
        1   -1    0    0  501    0  0.00000000000E+00  0.00000000000E+00 -0.20654024953E+04  0.20654024953E+04  0.50400001928E-02 0.  1.
    10030    2    1    2    0    0  0.00000000000E+00  0.00000000000E+00 -0.13121055110E+04  0.28186994795E+04  0.24946835238E+04 0.  0.
        3    1    3    3  502    0 -0.16623708987E+03 -0.98627752984E+03  0.18605725440E+03  0.10173472603E+04  0.10100000352E+00 0. -1.
       -3    1    3    3    0  502  0.16623708987E+03  0.98627752984E+03 -0.14981627654E+04  0.18013522192E+04  0.10100000352E+00 0.  1.
</event>
<event>
 5   0  0.3424193E-06  0.2501334E+04  0.7818609E-02  0.8402510E-01
        1   -1    0    0  501    0  0.00000000000E+00  0.00000000000E+00  0.77931589058E+03  0.77931589060E+03  0.50400001928E-02 0.  1.
       -1   -1    0    0    0  501  0.00000000000E+00  0.00000000000E+00 -0.20071038507E+04  0.20071038508E+04  0.50400001928E-02 0. -1.
    10030    2    1    2    0    0  0.00000000000E+00  0.00000000000E+00 -0.12277879602E+04  0.27864197414E+04  0.25013339841E+04 0.  0.
        1    1    3    3  502    0  0.82582664249E+03  0.41985271358E+03  0.32204396490E+03  0.98080490410E+03  0.50400001928E-02 0.  1.
       -1    1    3    3    0  502 -0.82582664249E+03 -0.41985271358E+03 -0.15498319251E+04  0.18056148373E+04  0.50400001928E-02 0. -1.
</event>
<event>
 5   0  0.8056723E-06  0.2494022E+04  0.7818609E-02  0.8405118E-01
        2   -1    0    0  501    0  0.00000000000E+00  0.00000000000E+00  0.12290154086E+04  0.12290154086E+04  0.25500000920E-02 0.  1.
       -2   -1    0    0    0  501  0.00000000000E+00  0.00000000000E+00 -0.12652700897E+04  0.12652700897E+04  0.25500000920E-02 0. -1.
    10030    2    1    2    0    0  0.00000000000E+00  0.00000000000E+00 -0.36254681081E+02  0.24942854983E+04  0.24940220017E+04 0.  0.
        2    1    3    3  502    0  0.30148852500E+03 -0.10150712766E+04 -0.67681017073E+03  0.12567167678E+04  0.25500000920E-02 0. -1.
       -2    1    3    3    0  502 -0.30148852500E+03  0.10150712766E+04  0.64055548965E+03  0.12375687305E+04  0.25500000920E-02 0.  1.
</event>
<event>
 5   0  0.3424193E-06  0.2503586E+04  0.7818609E-02  0.8401709E-01
       -1   -1    0    0    0  501  0.00000000000E+00  0.00000000000E+00  0.16458229748E+04  0.16458229748E+04  0.50400001928E-02 0.  1.
        1   -1    0    0  501    0  0.00000000000E+00  0.00000000000E+00 -0.95209850322E+03  0.95209850324E+03  0.50400001928E-02 0. -1.
    10030    2    1    2    0    0  0.00000000000E+00  0.00000000000E+00  0.69372447162E+03  0.25979214781E+04  0.25035859010E+04 0.  0.
        1    1    3    3  502    0  0.59278076413E+03 -0.16075917463E+03  0.14787202120E+04  0.16012014276E+04  0.50400001928E-02 0.  1.
       -1    1    3    3    0  502 -0.59278076413E+03  0.16075917463E+03 -0.78499574036E+03  0.99672005045E+03  0.50400001928E-02 0. -1.
</event>
<event>
 5   0  0.2901250E-06  0.2506022E+04  0.7818609E-02  0.8400843E-01
       -4   -1    0    0    0  501  0.00000000000E+00  0.00000000000E+00  0.18545242326E+04  0.18545246675E+04  0.12699999809E+01 0.  1.
        4   -1    0    0  501    0  0.00000000000E+00  0.00000000000E+00 -0.84659705402E+03  0.84659800660E+03  0.12699999809E+01 0. -1.
    10030    2    1    2    0    0  0.00000000000E+00  0.00000000000E+00  0.10079271786E+04  0.27011226741E+04  0.25060220476E+04 0.  0.
        5    1    3    3  502    0  0.29401605403E+02 -0.59152198061E+03  0.16941257232E+04  0.17946717705E+04  0.46999998093E+01 0.  1.
       -5    1    3    3    0  502 -0.29401605403E+02  0.59152198061E+03 -0.68619854459E+03  0.90645090355E+03  0.46999998093E+01 0. -1.
</event>
<event>
 5   0  0.3481387E-06  0.2496978E+04  0.7818609E-02  0.8404063E-01
        1   -1    0    0  501    0  0.00000000000E+00  0.00000000000E+00  0.15154061548E+04  0.15154061548E+04  0.50400001928E-02 0.  1.
       -1   -1    0    0    0  501  0.00000000000E+00  0.00000000000E+00 -0.10285855358E+04  0.10285855358E+04  0.50400001928E-02 0. -1.
    10030    2    1    2    0    0  0.00000000000E+00  0.00000000000E+00  0.48682061899E+03  0.25439916906E+04  0.24969780550E+04 0.  0.
        4    1    3    3  502    0 -0.56518093542E+02  0.53110718449E+03  0.13931316998E+04  0.14920076012E+04  0.12699999809E+01 0.  1.
       -4    1    3    3    0  502  0.56518093542E+02 -0.53110718449E+03 -0.90631108078E+03  0.10519840894E+04  0.12699999809E+01 0. -1.
</event>
<event>
 5   0  0.8579923E-06  0.2484388E+04  0.7818609E-02  0.8408569E-01
        2   -1    0    0  501    0  0.00000000000E+00  0.00000000000E+00  0.18101656949E+04  0.18101656949E+04  0.25500000920E-02 0. -1.
       -2   -1    0    0    0  501  0.00000000000E+00  0.00000000000E+00 -0.85243323908E+03  0.85243323908E+03  0.25500000920E-02 0.  1.
    10030    2    1    2    0    0  0.00000000000E+00  0.00000000000E+00  0.95773245580E+03  0.26625989340E+04  0.24843875757E+04 0.  0.
        1    1    3    3  502    0 -0.66878685902E+03 -0.62504898792E+03 -0.42105940325E+03  0.10075976981E+04  0.50400001928E-02 0.  1.
       -1    1    3    3    0  502  0.66878685902E+03  0.62504898792E+03  0.13787918591E+04  0.16550012359E+04  0.50400001928E-02 0. -1.
</event>
<event>
 5   0  0.8354653E-06  0.2527824E+04  0.7818609E-02  0.8393140E-01
        2   -1    0    0  501    0  0.00000000000E+00  0.00000000000E+00  0.12241213040E+04  0.12241213040E+04  0.25500000920E-02 0.  1.
       -2   -1    0    0    0  501  0.00000000000E+00  0.00000000000E+00 -0.13049960253E+04  0.13049960253E+04  0.25500000920E-02 0. -1.
    10030    2    1    2    0    0  0.00000000000E+00  0.00000000000E+00 -0.80874721329E+02  0.25291173293E+04  0.25278239150E+04 0.  0.
        3    1    3    3  502    0  0.90307096346E+03  0.76669640189E+03 -0.48124523611E+03  0.12786545762E+04  0.10100000352E+00 0. -1.
       -3    1    3    3    0  502 -0.90307096346E+03 -0.76669640189E+03  0.40037051478E+03  0.12504627532E+04  0.10100000352E+00 0.  1.
</event>
<event>
 5   0  0.3522870E-06  0.2508423E+04  0.7818609E-02  0.8399991E-01
        1   -1    0    0  501    0  0.00000000000E+00  0.00000000000E+00  0.20356841432E+04  0.20356841433E+04  0.50400001928E-02 0. -1.
       -1   -1    0    0    0  501  0.00000000000E+00  0.00000000000E+00 -0.77273601199E+03  0.77273601201E+03  0.50400001928E-02 0.  1.
    10030    2    1    2    0    0  0.00000000000E+00  0.00000000000E+00  0.12629481313E+04  0.28084201553E+04  0.25084229680E+04 0.  0.
        2    1    3    3  502    0  0.62744531875E+03  0.89828262094E+02  0.18431695097E+04  0.19491102037E+04  0.25500000920E-02 0. -1.
       -2    1    3    3    0  502 -0.62744531875E+03 -0.89828262094E+02 -0.58022137850E+03  0.85930995151E+03  0.25500000920E-02 0.  1.
</event>
<event>
 5   0  0.3642184E-06  0.2503265E+04  0.7818609E-02  0.8401823E-01
       -1   -1    0    0    0  501  0.00000000000E+00  0.00000000000E+00  0.98548008343E+03  0.98548008344E+03  0.50400001928E-02 0. -1.
        1   -1    0    0  501    0  0.00000000000E+00  0.00000000000E+00 -0.15896663288E+04  0.15896663288E+04  0.50400001928E-02 0.  1.
    10030    2    1    2    0    0  0.00000000000E+00  0.00000000000E+00 -0.60418624541E+03  0.25751464123E+04  0.25032654724E+04 0.  0.
        5    1    3    3  502    0  0.50685465520E+03 -0.10615857169E+04 -0.74179688235E+03  0.13907374233E+04  0.46999998093E+01 0.  1.
       -5    1    3    3    0  502 -0.50685465520E+03  0.10615857169E+04  0.13761063694E+03  0.11844089890E+04  0.46999998093E+01 0. -1.
</event>
<event>
 5   0  0.8407986E-06  0.2505230E+04  0.7818609E-02  0.8401125E-01
       -2   -1    0    0    0  501  0.00000000000E+00  0.00000000000E+00  0.73158503859E+03  0.73158503859E+03  0.25500000920E-02 0.  1.
        2   -1    0    0  501    0  0.00000000000E+00  0.00000000000E+00 -0.21447182402E+04  0.21447182402E+04  0.25500000920E-02 0. -1.
    10030    2    1    2    0    0  0.00000000000E+00  0.00000000000E+00 -0.14131332016E+04  0.28763032788E+04  0.25052295516E+04 0.  0.
        5    1    3    3  502    0  0.16254771959E+03  0.44650797138E+03  0.62407908985E+03  0.78440291307E+03  0.46999998093E+01 0.  1.
       -5    1    3    3    0  502 -0.16254771959E+03 -0.44650797138E+03 -0.20372122915E+04  0.20919003658E+04  0.46999998093E+01 0. -1.
</event>
<event>
 5   0  0.8579923E-06  0.2544075E+04  0.7818609E-02  0.8387450E-01
       -2   -1    0    0    0  501  0.00000000000E+00  0.00000000000E+00  0.12100332741E+04  0.12100332741E+04  0.25500000920E-02 0.  1.
        2   -1    0    0  501    0  0.00000000000E+00  0.00000000000E+00 -0.13372193722E+04  0.13372193722E+04  0.25500000920E-02 0. -1.
    10030    2    1    2    0    0  0.00000000000E+00  0.00000000000E+00 -0.12718609806E+03  0.25472526463E+04  0.25440754196E+04 0.  0.
        1    1    3    3  502    0 -0.91807406064E+03 -0.15038986580E+03 -0.93220333386E+03  0.13169966394E+04  0.50400001928E-02 0. -1.
       -1    1    3    3    0  502  0.91807406064E+03  0.15038986580E+03  0.80501723580E+03  0.12302560069E+04  0.50400001928E-02 0.  1.
</event>
<event>
 5   0  0.2901250E-06  0.2415459E+04  0.7818609E-02  0.8433739E-01
       -3   -1    0    0    0  501  0.00000000000E+00  0.00000000000E+00  0.78886236613E+03  0.78886237260E+03  0.10100000352E+00 0.  1.
        3   -1    0    0  501    0  0.00000000000E+00  0.00000000000E+00 -0.18490052428E+04  0.18490052456E+04  0.10100000352E+00 0. -1.
    10030    2    1    2    0    0  0.00000000000E+00  0.00000000000E+00 -0.10601428767E+04  0.26378676182E+04  0.24154590976E+04 0.  0.
        2    1    3    3  502    0  0.73774616517E+02  0.23450323194E+03 -0.18213925818E+04  0.18379078859E+04  0.25500000920E-02 0. -1.
       -2    1    3    3    0  502 -0.73774616517E+02 -0.23450323194E+03  0.76124970510E+03  0.79995973233E+03  0.25500000920E-02 0.  1.
</event>
<event>
 5   0  0.3481387E-06  0.2498733E+04  0.7818609E-02  0.8403437E-01
       -1   -1    0    0    0  501  0.00000000000E+00  0.00000000000E+00  0.96023765540E+03  0.96023765541E+03  0.50400001928E-02 0. -1.
        1   -1    0    0  501    0  0.00000000000E+00  0.00000000000E+00 -0.16255520631E+04  0.16255520631E+04  0.50400001928E-02 0.  1.
    10030    2    1    2    0    0  0.00000000000E+00  0.00000000000E+00 -0.66531440770E+03  0.25857897185E+04  0.24987327203E+04 0.  0.
        4    1    3    3  502    0 -0.73451086190E+03  0.16591460121E+03 -0.13643266222E+04  0.15583396954E+04  0.12699999809E+01 0.  1.
       -4    1    3    3    0  502  0.73451086190E+03 -0.16591460121E+03  0.69901221452E+03  0.10274500232E+04  0.12699999809E+01 0. -1.
</event>
<event>
 5   0  0.8948286E-06  0.2502972E+04  0.7818609E-02  0.8401928E-01
        2   -1    0    0  501    0  0.00000000000E+00  0.00000000000E+00  0.14253206731E+04  0.14253206731E+04  0.25500000920E-02 0.  1.
       -2   -1    0    0    0  501  0.00000000000E+00  0.00000000000E+00 -0.10988525058E+04  0.10988525058E+04  0.25500000920E-02 0. -1.
    10030    2    1    2    0    0  0.00000000000E+00  0.00000000000E+00  0.32646816730E+03  0.25241731789E+04  0.25029719880E+04 0.  0.
        4    1    3    3  502    0  0.70522936624E+03 -0.39010836703E+01  0.12058441792E+04  0.13969343130E+04  0.12699999809E+01 0.  1.
       -4    1    3    3    0  502 -0.70522936624E+03  0.39010836703E+01 -0.87937601194E+03  0.11272388659E+04  0.12699999809E+01 0. -1.
</event>
<event>
 5   0  0.8354653E-06  0.2494618E+04  0.7818609E-02  0.8404905E-01
        2   -1    0    0  501    0  0.00000000000E+00  0.00000000000E+00  0.21174983995E+04  0.21174983995E+04  0.25500000920E-02 0. -1.
       -2   -1    0    0    0  501  0.00000000000E+00  0.00000000000E+00 -0.73472535976E+03  0.73472535976E+03  0.25500000920E-02 0.  1.
    10030    2    1    2    0    0  0.00000000000E+00  0.00000000000E+00  0.13827730397E+04  0.28522237592E+04  0.24946180255E+04 0.  0.
        3    1    3    3  502    0 -0.33886124745E+03  0.17486272643E+03  0.20492214223E+04  0.20843973628E+04  0.10100000352E+00 0. -1.
       -3    1    3    3    0  502  0.33886124745E+03 -0.17486272643E+03 -0.66644838264E+03  0.76782639642E+03  0.10100000352E+00 0.  1.
</event>
<event>
 5   0  0.8407986E-06  0.2503824E+04  0.7818609E-02  0.8401624E-01
       -2   -1    0    0    0  501  0.00000000000E+00  0.00000000000E+00  0.10082576671E+04  0.10082576671E+04  0.25500000920E-02 0. -1.
        2   -1    0    0  501    0  0.00000000000E+00  0.00000000000E+00 -0.15544476507E+04  0.15544476507E+04  0.25500000920E-02 0.  1.
    10030    2    1    2    0    0  0.00000000000E+00  0.00000000000E+00 -0.54618998356E+03  0.25627053178E+04  0.25038240848E+04 0.  0.
        5    1    3    3  502    0  0.69571413993E+02  0.25998937615E+03  0.97828822583E+03  0.10146450612E+04  0.46999998093E+01 0. -1.
       -5    1    3    3    0  502 -0.69571413993E+02 -0.25998937615E+03 -0.15244782094E+04  0.15480602567E+04  0.46999998093E+01 0.  1.
</event>
<event>
 5   0  0.8407986E-06  0.2500562E+04  0.7818609E-02  0.8402785E-01
        2   -1    0    0  501    0  0.00000000000E+00  0.00000000000E+00  0.12599186648E+04  0.12599186648E+04  0.25500000920E-02 0.  1.
       -2   -1    0    0    0  501  0.00000000000E+00  0.00000000000E+00 -0.12407172080E+04  0.12407172080E+04  0.25500000920E-02 0. -1.
    10030    2    1    2    0    0  0.00000000000E+00  0.00000000000E+00  0.19201456848E+02  0.25006358728E+04  0.25005621513E+04 0.  0.
        5    1    3    3  502    0 -0.82838330559E+03 -0.81199724627E+03 -0.45691302403E+03  0.12467357501E+04  0.46999998093E+01 0. -1.
       -5    1    3    3    0  502  0.82838330559E+03  0.81199724627E+03  0.47611448088E+03  0.12539001228E+04  0.46999998093E+01 0.  1.
</event>
<event>
 5   0  0.8407986E-06  0.2494593E+04  0.7818609E-02  0.8404914E-01
        2   -1    0    0  501    0  0.00000000000E+00  0.00000000000E+00  0.12719908506E+04  0.12719908506E+04  0.25500000920E-02 0. -1.
       -2   -1    0    0    0  501  0.00000000000E+00  0.00000000000E+00 -0.12230817562E+04  0.12230817562E+04  0.25500000920E-02 0.  1.
    10030    2    1    2    0    0  0.00000000000E+00  0.00000000000E+00  0.48909094440E+02  0.24950726068E+04  0.24945931961E+04 0.  0.
        5    1    3    3  502    0  0.48114826572E+02  0.94562536214E+03  0.83652458573E+03  0.12634547220E+04  0.46999998093E+01 0. -1.
       -5    1    3    3    0  502 -0.48114826572E+02 -0.94562536214E+03 -0.78761549129E+03  0.12316178848E+04  0.46999998093E+01 0.  1.
</event>
<event>
 5   0  0.3642184E-06  0.2497801E+04  0.7818609E-02  0.8403769E-01
       -1   -1    0    0    0  501  0.00000000000E+00  0.00000000000E+00  0.66690241143E+03  0.66690241145E+03  0.50400001928E-02 0.  1.
        1   -1    0    0  501    0  0.00000000000E+00  0.00000000000E+00 -0.23388010684E+04  0.23388010684E+04  0.50400001928E-02 0. -1.
    10030    2    1    2    0    0  0.00000000000E+00  0.00000000000E+00 -0.16718986569E+04  0.30057034798E+04  0.24978006905E+04 0.  0.
        5    1    3    3  502    0  0.70537346763E+03  0.47863111755E+02  0.40289920920E+03  0.81375209313E+03  0.46999998093E+01 0.  1.
       -5    1    3    3    0  502 -0.70537346763E+03 -0.47863111755E+02 -0.20747978661E+04  0.21919513867E+04  0.46999998093E+01 0. -1.
</event>
<event>
 5   0  0.8579923E-06  0.2488838E+04  0.7818609E-02  0.8406973E-01
        2   -1    0    0  501    0  0.00000000000E+00  0.00000000000E+00  0.14880401173E+04  0.14880401173E+04  0.25500000920E-02 0. -1.
       -2   -1    0    0    0  501  0.00000000000E+00  0.00000000000E+00 -0.10406836536E+04  0.10406836536E+04  0.25500000920E-02 0.  1.
    10030    2    1    2    0    0  0.00000000000E+00  0.00000000000E+00  0.44735646375E+03  0.25287237709E+04  0.24888383041E+04 0.  0.
        1    1    3    3  502    0 -0.43656002867E+03  0.39987764396E+03 -0.88843712064E+03  0.10676175842E+04  0.50400001928E-02 0.  1.
       -1    1    3    3    0  502  0.43656002867E+03 -0.39987764396E+03  0.13357935844E+04  0.14611061867E+04  0.50400001928E-02 0. -1.
</event>
<event>
 5   0  0.3522870E-06  0.2493921E+04  0.7818609E-02  0.8405154E-01
        1   -1    0    0  501    0  0.00000000000E+00  0.00000000000E+00  0.12415652447E+04  0.12415652447E+04  0.50400001928E-02 0. -1.
       -1   -1    0    0    0  501  0.00000000000E+00  0.00000000000E+00 -0.12523795696E+04  0.12523795696E+04  0.50400001928E-02 0.  1.
    10030    2    1    2    0    0  0.00000000000E+00  0.00000000000E+00 -0.10814324862E+02  0.24939448143E+04  0.24939213675E+04 0.  0.
        2    1    3    3  502    0  0.66097301853E+03 -0.28115242854E+02  0.10515962228E+04  0.12423889946E+04  0.25500000920E-02 0. -1.
       -2    1    3    3    0  502 -0.66097301853E+03  0.28115242854E+02 -0.10624105476E+04  0.12515558197E+04  0.25500000920E-02 0.  1.
</event>
<event>
 5   0  0.3522870E-06  0.2445207E+04  0.7818609E-02  0.8422770E-01
       -1   -1    0    0    0  501  0.00000000000E+00  0.00000000000E+00  0.75393495844E+03  0.75393495845E+03  0.50400001928E-02 0.  1.
        1   -1    0    0  501    0  0.00000000000E+00  0.00000000000E+00 -0.19826103718E+04  0.19826103718E+04  0.50400001928E-02 0. -1.
    10030    2    1    2    0    0  0.00000000000E+00  0.00000000000E+00 -0.12286754133E+04  0.27365453302E+04  0.24452069591E+04 0.  0.
        2    1    3    3  502    0 -0.11940044661E+04  0.22475456776E+03 -0.76696071134E+03  0.14367985292E+04  0.25500000920E-02 0. -1.
       -2    1    3    3    0  502  0.11940044661E+04 -0.22475456776E+03 -0.46171470198E+03  0.12997468010E+04  0.25500000920E-02 0.  1.
</event>
<event>
 5   0  0.3484857E-06  0.2482393E+04  0.7818609E-02  0.8409285E-01
       -1   -1    0    0    0  501  0.00000000000E+00  0.00000000000E+00  0.14449497570E+04  0.14449497570E+04  0.50400001928E-02 0. -1.
        1   -1    0    0  501    0  0.00000000000E+00  0.00000000000E+00 -0.10661746816E+04  0.10661746816E+04  0.50400001928E-02 0.  1.
    10030    2    1    2    0    0  0.00000000000E+00  0.00000000000E+00  0.37877507541E+03  0.25111244386E+04  0.24823930769E+04 0.  0.
        3    1    3    3  502    0  0.10282218629E+04  0.65701294761E+03  0.41931238905E+03  0.12902438151E+04  0.10100000352E+00 0.  1.
       -3    1    3    3    0  502 -0.10282218629E+04 -0.65701294761E+03 -0.40537313639E+02  0.12208806234E+04  0.10100000352E+00 0. -1.
</event>
<event>
 5   0  0.8579923E-06  0.2562858E+04  0.7818609E-02  0.8380928E-01
        2   -1    0    0  501    0  0.00000000000E+00  0.00000000000E+00  0.21293749481E+04  0.21293749481E+04  0.25500000920E-02 0.  1.
       -2   -1    0    0    0  501  0.00000000000E+00  0.00000000000E+00 -0.77114667343E+03  0.77114667343E+03  0.25500000920E-02 0. -1.
    10030    2    1    2    0    0  0.00000000000E+00  0.00000000000E+00  0.13582282747E+04  0.29005216215E+04  0.25628580981E+04 0.  0.
        1    1    3    3  502    0 -0.48117575770E+03 -0.84897319596E+03 -0.26083685758E+03  0.10101096295E+04  0.50400001928E-02 0. -1.
       -1    1    3    3    0  502  0.48117575770E+03  0.84897319596E+03  0.16190651322E+04  0.18904119920E+04  0.50400001928E-02 0.  1.
</event>
<event>
 5   0  0.3481387E-06  0.2502492E+04  0.7818609E-02  0.8402098E-01
        1   -1    0    0  501    0  0.00000000000E+00  0.00000000000E+00  0.22999005914E+04  0.22999005914E+04  0.50400001928E-02 0. -1.
       -1   -1    0    0    0  501  0.00000000000E+00  0.00000000000E+00 -0.68073237423E+03  0.68073237424E+03  0.50400001928E-02 0.  1.
    10030    2    1    2    0    0  0.00000000000E+00  0.00000000000E+00  0.16191682172E+04  0.29806329656E+04  0.25024921899E+04 0.  0.
        4    1    3    3  502    0 -0.63499709176E+03 -0.34947128596E+03 -0.40522346217E+03  0.83039698545E+03  0.12699999809E+01 0.  1.
       -4    1    3    3    0  502  0.63499709176E+03  0.34947128596E+03  0.20243916793E+04  0.21502359802E+04  0.12699999809E+01 0. -1.
</event>
<event>
 5   0  0.3481387E-06  0.2488275E+04  0.7818609E-02  0.8407175E-01
       -1   -1    0    0    0  501  0.00000000000E+00  0.00000000000E+00  0.54409364584E+03  0.54409364586E+03  0.50400001928E-02 0.  1.
        1   -1    0    0  501    0  0.00000000000E+00  0.00000000000E+00 -0.28448739396E+04  0.28448739396E+04  0.50400001928E-02 0. -1.
    10030    2    1    2    0    0  0.00000000000E+00  0.00000000000E+00 -0.23007802938E+04  0.33889675855E+04  0.24882747708E+04 0.  0.
        4    1    3    3  502    0  0.74911960359E+03 -0.19837171135E+03  0.17524220580E+03  0.79450799867E+03  0.12699999809E+01 0.  1.
       -4    1    3    3    0  502 -0.74911960359E+03  0.19837171135E+03 -0.24760224996E+04  0.25944595868E+04  0.12699999809E+01 0. -1.
</event>
<event>
 5   0  0.3642184E-06  0.2509037E+04  0.7818609E-02  0.8399773E-01
        1   -1    0    0  501    0  0.00000000000E+00  0.00000000000E+00  0.20202220220E+04  0.20202220220E+04  0.50400001928E-02 0.  1.
       -1   -1    0    0    0  501  0.00000000000E+00  0.00000000000E+00 -0.77903171500E+03  0.77903171501E+03  0.50400001928E-02 0. -1.
    10030    2    1    2    0    0  0.00000000000E+00  0.00000000000E+00  0.12411903070E+04  0.27992537370E+04  0.25090372867E+04 0.  0.
        5    1    3    3  502    0 -0.90153367206E+03  0.73591296727E+03  0.97938028800E+02  0.11678804754E+04  0.46999998093E+01 0. -1.
       -5    1    3    3    0  502  0.90153367206E+03 -0.73591296727E+03  0.11432522782E+04  0.16313732617E+04  0.46999998093E+01 0.  1.
</event>
<event>
 5   0  0.8056723E-06  0.2495868E+04  0.7818609E-02  0.8404459E-01
       -2   -1    0    0    0  501  0.00000000000E+00  0.00000000000E+00  0.72553722437E+03  0.72553722437E+03  0.25500000920E-02 0. -1.
        2   -1    0    0  501    0  0.00000000000E+00  0.00000000000E+00 -0.21464638557E+04  0.21464638557E+04  0.25500000920E-02 0.  1.
    10030    2    1    2    0    0  0.00000000000E+00  0.00000000000E+00 -0.14209266314E+04  0.28720010801E+04  0.24958681280E+04 0.  0.
        2    1    3    3  502    0  0.39375827814E+03  0.11126140954E+04 -0.24391957456E+03  0.12051773586E+04  0.25500000920E-02 0.  1.
       -2    1    3    3    0  502 -0.39375827814E+03 -0.11126140954E+04 -0.11770070568E+04  0.16668237215E+04  0.25500000920E-02 0. -1.
</event>
<event>
 5   0  0.8948286E-06  0.2494569E+04  0.7818609E-02  0.8404923E-01
        2   -1    0    0  501    0  0.00000000000E+00  0.00000000000E+00  0.26403272195E+04  0.26403272195E+04  0.25500000920E-02 0. -1.
       -2   -1    0    0    0  501  0.00000000000E+00  0.00000000000E+00 -0.58921411853E+03  0.58921411854E+03  0.25500000920E-02 0.  1.
    10030    2    1    2    0    0  0.00000000000E+00  0.00000000000E+00  0.20511131010E+04  0.32295413381E+04  0.24945685601E+04 0.  0.
        4    1    3    3  502    0  0.21275580128E+03 -0.20719124354E+03 -0.54277505366E+03  0.61870802011E+03  0.12699999809E+01 0.  1.
       -4    1    3    3    0  502 -0.21275580128E+03  0.20719124354E+03  0.25938881547E+04  0.26108333180E+04  0.12699999809E+01 0. -1.
</event>
<event>
 5   0  0.8407986E-06  0.2505699E+04  0.7818609E-02  0.8400958E-01
       -2   -1    0    0    0  501  0.00000000000E+00  0.00000000000E+00  0.13324156849E+04  0.13324156849E+04  0.25500000920E-02 0.  1.
        2   -1    0    0  501    0  0.00000000000E+00  0.00000000000E+00 -0.11780344850E+04  0.11780344850E+04  0.25500000920E-02 0. -1.
    10030    2    1    2    0    0  0.00000000000E+00  0.00000000000E+00  0.15438119992E+03  0.25104501699E+04  0.25056988048E+04 0.  0.
        5    1    3    3  502    0 -0.14030096968E+03 -0.12333438442E+04  0.24718299937E+03  0.12656788398E+04  0.46999998093E+01 0. -1.
       -5    1    3    3    0  502  0.14030096968E+03  0.12333438442E+04 -0.92801799450E+02  0.12447713301E+04  0.46999998093E+01 0.  1.
</event>
<event>
 5   0  0.8354653E-06  0.2534116E+04  0.7818609E-02  0.8390931E-01
       -2   -1    0    0    0  501  0.00000000000E+00  0.00000000000E+00  0.10958242829E+04  0.10958242829E+04  0.25500000920E-02 0. -1.
        2   -1    0    0  501    0  0.00000000000E+00  0.00000000000E+00 -0.14650490906E+04  0.14650490906E+04  0.25500000920E-02 0.  1.
    10030    2    1    2    0    0  0.00000000000E+00  0.00000000000E+00 -0.36922480766E+03  0.25608733735E+04  0.25341163108E+04 0.  0.
        3    1    3    3  502    0  0.60062763165E+03 -0.11149272634E+04 -0.14393814370E+03  0.12745723024E+04  0.10100000352E+00 0.  1.
       -3    1    3    3    0  502 -0.60062763165E+03  0.11149272634E+04 -0.22528666396E+03  0.12863010712E+04  0.10100000352E+00 0. -1.
</event>
<event>
 5   0  0.8407986E-06  0.2504090E+04  0.7818609E-02  0.8401530E-01
        2   -1    0    0  501    0  0.00000000000E+00  0.00000000000E+00  0.10299687084E+04  0.10299687084E+04  0.25500000920E-02 0. -1.
       -2   -1    0    0    0  501  0.00000000000E+00  0.00000000000E+00 -0.15220038505E+04  0.15220038505E+04  0.25500000920E-02 0.  1.
    10030    2    1    2    0    0  0.00000000000E+00  0.00000000000E+00 -0.49203514210E+03  0.25519725589E+04  0.25040897269E+04 0.  0.
        5    1    3    3  502    0 -0.43611899744E+02  0.12061885655E+04  0.93215927526E+02  0.12105800892E+04  0.46999998093E+01 0. -1.
       -5    1    3    3    0  502  0.43611899744E+02 -0.12061885655E+04 -0.58525106962E+03  0.13413924697E+04  0.46999998093E+01 0.  1.
</event>
<event>
 5   0  0.8056723E-06  0.2497992E+04  0.7818609E-02  0.8403701E-01
        2   -1    0    0  501    0  0.00000000000E+00  0.00000000000E+00  0.87825374220E+03  0.87825374220E+03  0.25500000920E-02 0.  1.
       -2   -1    0    0    0  501  0.00000000000E+00  0.00000000000E+00 -0.17762424331E+04  0.17762424331E+04  0.25500000920E-02 0. -1.
    10030    2    1    2    0    0  0.00000000000E+00  0.00000000000E+00 -0.89798869091E+03  0.26544961753E+04  0.24979924451E+04 0.  0.
        2    1    3    3  502    0 -0.63136994447E+03  0.10775251997E+04 -0.46749185033E+03  0.13335056029E+04  0.25500000920E-02 0.  1.
       -2    1    3    3    0  502  0.63136994447E+03 -0.10775251997E+04 -0.43049684058E+03  0.13209905724E+04  0.25500000920E-02 0. -1.
</event>
<event>
 5   0  0.3424193E-06  0.2501603E+04  0.7818609E-02  0.8402415E-01
        1   -1    0    0  501    0  0.00000000000E+00  0.00000000000E+00  0.12359445151E+04  0.12359445151E+04  0.50400001928E-02 0. -1.
       -1   -1    0    0    0  501  0.00000000000E+00  0.00000000000E+00 -0.12658370455E+04  0.12658370455E+04  0.50400001928E-02 0.  1.
    10030    2    1    2    0    0  0.00000000000E+00  0.00000000000E+00 -0.29892530389E+02  0.25017815606E+04  0.25016029688E+04 0.  0.
        1    1    3    3  502    0 -0.98267082580E+03  0.75413904599E+03  0.15866538177E+03  0.12488163820E+04  0.50400001928E-02 0. -1.
       -1    1    3    3    0  502  0.98267082580E+03 -0.75413904599E+03 -0.18855791216E+03  0.12529651786E+04  0.50400001928E-02 0.  1.
</event>
<event>
 5   0  0.3481387E-06  0.2500627E+04  0.7818609E-02  0.8402762E-01
       -1   -1    0    0    0  501  0.00000000000E+00  0.00000000000E+00  0.92753566691E+03  0.92753566692E+03  0.50400001928E-02 0. -1.
        1   -1    0    0  501    0  0.00000000000E+00  0.00000000000E+00 -0.16854162615E+04  0.16854162615E+04  0.50400001928E-02 0.  1.
    10030    2    1    2    0    0  0.00000000000E+00  0.00000000000E+00 -0.75788059463E+03  0.26129519285E+04  0.25006268784E+04 0.  0.
        4    1    3    3  502    0 -0.30219267848E+02  0.82206237979E+03  0.60493953603E+03  0.10211039201E+04  0.12699999809E+01 0. -1.
       -4    1    3    3    0  502  0.30219267848E+02 -0.82206237979E+03 -0.13628201307E+04  0.15918480084E+04  0.12699999809E+01 0.  1.
</event>
<event>
 5   0  0.8948286E-06  0.2497785E+04  0.7818609E-02  0.8403775E-01
        2   -1    0    0  501    0  0.00000000000E+00  0.00000000000E+00  0.13000239940E+04  0.13000239940E+04  0.25500000920E-02 0. -1.
       -2   -1    0    0    0  501  0.00000000000E+00  0.00000000000E+00 -0.11997717008E+04  0.11997717008E+04  0.25500000920E-02 0.  1.
    10030    2    1    2    0    0  0.00000000000E+00  0.00000000000E+00  0.10025229324E+03  0.24997956948E+04  0.24977846171E+04 0.  0.
        4    1    3    3  502    0  0.66103923459E+03 -0.92566148066E+03 -0.46595204575E+03  0.12292009471E+04  0.12699999809E+01 0.  1.
       -4    1    3    3    0  502 -0.66103923459E+03  0.92566148066E+03  0.56620433899E+03  0.12705947477E+04  0.12699999809E+01 0. -1.
</event>
<event>
 5   0  0.8948286E-06  0.2497444E+04  0.7818609E-02  0.8403897E-01
        2   -1    0    0  501    0  0.00000000000E+00  0.00000000000E+00  0.24358945255E+04  0.24358945255E+04  0.25500000920E-02 0. -1.
       -2   -1    0    0    0  501  0.00000000000E+00  0.00000000000E+00 -0.64013728165E+03  0.64013728165E+03  0.25500000920E-02 0.  1.
    10030    2    1    2    0    0  0.00000000000E+00  0.00000000000E+00  0.17957572439E+04  0.30760318072E+04  0.24974442135E+04 0.  0.
        4    1    3    3  502    0 -0.71104620391E+02 -0.31698236208E+03 -0.58717835499E+03  0.67105418438E+03  0.12699999809E+01 0.  1.
       -4    1    3    3    0  502  0.71104620391E+02  0.31698236208E+03  0.23829355988E+04  0.24049776228E+04  0.12699999809E+01 0. -1.
</event>
<event>
 5   0  0.3522870E-06  0.2502960E+04  0.7818609E-02  0.8401932E-01
        1   -1    0    0  501    0  0.00000000000E+00  0.00000000000E+00  0.17914763483E+04  0.17914763483E+04  0.50400001928E-02 0.  1.
       -1   -1    0    0    0  501  0.00000000000E+00  0.00000000000E+00 -0.87425225372E+03  0.87425225373E+03  0.50400001928E-02 0. -1.
    10030    2    1    2    0    0  0.00000000000E+00  0.00000000000E+00  0.91722409460E+03  0.26657286021E+04  0.25029600357E+04 0.  0.
        2    1    3    3  502    0 -0.49341263202E+02 -0.86418107243E+02 -0.87003191195E+03  0.87570438924E+03  0.25500000920E-02 0. -1.
       -2    1    3    3    0  502  0.49341263202E+02  0.86418107243E+02  0.17872560066E+04  0.17900242128E+04  0.25500000920E-02 0.  1.
</event>
<event>
 5   0  0.3522870E-06  0.2424388E+04  0.7818609E-02  0.8430429E-01
       -1   -1    0    0    0  501  0.00000000000E+00  0.00000000000E+00  0.14294315078E+04  0.14294315078E+04  0.50400001928E-02 0. -1.
        1   -1    0    0  501    0  0.00000000000E+00  0.00000000000E+00 -0.10279710862E+04  0.10279710862E+04  0.50400001928E-02 0.  1.
    10030    2    1    2    0    0  0.00000000000E+00  0.00000000000E+00  0.40146042160E+03  0.24574025940E+04  0.24243879720E+04 0.  0.
        2    1    3    3  502    0 -0.45406765420E+03 -0.11070242235E+04  0.39762840305E+03  0.12608681188E+04  0.25500000920E-02 0. -1.
       -2    1    3    3    0  502  0.45406765420E+03  0.11070242235E+04  0.38320185573E+01  0.11965344752E+04  0.25500000920E-02 0.  1.
</event>
<event>
 5   0  0.8056723E-06  0.2436398E+04  0.7818609E-02  0.8426001E-01
       -2   -1    0    0    0  501  0.00000000000E+00  0.00000000000E+00  0.18447539978E+04  0.18447539978E+04  0.25500000920E-02 0. -1.
        2   -1    0    0  501    0  0.00000000000E+00  0.00000000000E+00 -0.80444807963E+03  0.80444807963E+03  0.25500000920E-02 0.  1.
    10030    2    1    2    0    0  0.00000000000E+00  0.00000000000E+00  0.10403059182E+04  0.26492020774E+04  0.24363980060E+04 0.  0.
        2    1    3    3  502    0  0.97844624903E+03 -0.53003361898E+03  0.10591466336E+04  0.15362565837E+04  0.25500000920E-02 0. -1.
       -2    1    3    3    0  502 -0.97844624903E+03  0.53003361898E+03 -0.18840715408E+02  0.11129454938E+04  0.25500000920E-02 0.  1.
</event>
<event>
 5   0  0.8354653E-06  0.2491414E+04  0.7818609E-02  0.8406051E-01
        2   -1    0    0  501    0  0.00000000000E+00  0.00000000000E+00  0.15698592302E+04  0.15698592302E+04  0.25500000920E-02 0. -1.
       -2   -1    0    0    0  501  0.00000000000E+00  0.00000000000E+00 -0.98848718604E+03  0.98848718604E+03  0.25500000920E-02 0.  1.
    10030    2    1    2    0    0  0.00000000000E+00  0.00000000000E+00  0.58137204419E+03  0.25583464163E+04  0.24914138420E+04 0.  0.
        3    1    3    3  502    0  0.80397652972E+03 -0.13808856649E+03 -0.67606226099E+03  0.10594842630E+04  0.10100000352E+00 0.  1.
       -3    1    3    3    0  502 -0.80397652972E+03  0.13808856649E+03  0.12574343052E+04  0.14988621533E+04  0.10100000352E+00 0. -1.
</event>
<event>
 5   0  0.8056723E-06  0.2463191E+04  0.7818609E-02  0.8416217E-01
       -2   -1    0    0    0  501  0.00000000000E+00  0.00000000000E+00  0.50993813506E+03  0.50993813507E+03  0.25500000920E-02 0.  1.
        2   -1    0    0  501    0  0.00000000000E+00  0.00000000000E+00 -0.29745324207E+04  0.29745324207E+04  0.25500000920E-02 0. -1.
    10030    2    1    2    0    0  0.00000000000E+00  0.00000000000E+00 -0.24645942857E+04  0.34844705558E+04  0.24631910322E+04 0.  0.
        2    1    3    3  502    0  0.17975757051E+03  0.94334221560E+03 -0.23231308063E+04  0.25137907755E+04  0.25500000920E-02 0. -1.
       -2    1    3    3    0  502 -0.17975757051E+03 -0.94334221560E+03 -0.14146347940E+03  0.97067978031E+03  0.25500000920E-02 0.  1.
</event>
<event>
 5   0  0.8579923E-06  0.2501592E+04  0.7818609E-02  0.8402419E-01
        2   -1    0    0  501    0  0.00000000000E+00  0.00000000000E+00  0.14833064783E+04  0.14833064783E+04  0.25500000920E-02 0.  1.
       -2   -1    0    0    0  501  0.00000000000E+00  0.00000000000E+00 -0.10547317515E+04  0.10547317515E+04  0.25500000920E-02 0. -1.
    10030    2    1    2    0    0  0.00000000000E+00  0.00000000000E+00  0.42857472678E+03  0.25380382297E+04  0.25015918450E+04 0.  0.
        1    1    3    3  502    0  0.62276979880E+03  0.10151608549E+04 -0.17350731501E+03  0.12035358623E+04  0.50400001928E-02 0.  1.
       -1    1    3    3    0  502 -0.62276979880E+03 -0.10151608549E+04  0.60208204179E+03  0.13345023674E+04  0.50400001928E-02 0. -1.
</event>
<event>
 5   0  0.3642184E-06  0.2522985E+04  0.7818609E-02  0.8394843E-01
       -1   -1    0    0    0  501  0.00000000000E+00  0.00000000000E+00  0.10605376444E+04  0.10605376444E+04  0.50400001928E-02 0.  1.
        1   -1    0    0  501    0  0.00000000000E+00  0.00000000000E+00 -0.15005244871E+04  0.15005244871E+04  0.50400001928E-02 0. -1.
    10030    2    1    2    0    0  0.00000000000E+00  0.00000000000E+00 -0.43998684267E+03  0.25610621315E+04  0.25229845064E+04 0.  0.
        5    1    3    3  502    0 -0.27459616532E+03  0.48936271204E+03  0.92686398811E+03  0.10835025890E+04  0.46999998093E+01 0.  1.
       -5    1    3    3    0  502  0.27459616532E+03 -0.48936271204E+03 -0.13668508308E+04  0.14775595425E+04  0.46999998093E+01 0. -1.
</event>
<event>
 5   0  0.8407986E-06  0.2509847E+04  0.7818609E-02  0.8399486E-01
        2   -1    0    0  501    0  0.00000000000E+00  0.00000000000E+00  0.19671108773E+04  0.19671108773E+04  0.25500000920E-02 0.  1.
       -2   -1    0    0    0  501  0.00000000000E+00  0.00000000000E+00 -0.80058186481E+03  0.80058186481E+03  0.25500000920E-02 0. -1.
    10030    2    1    2    0    0  0.00000000000E+00  0.00000000000E+00  0.11665290125E+04  0.27676927421E+04  0.25098472419E+04 0.  0.
        5    1    3    3  502    0 -0.31508979992E+03 -0.53124715516E+03 -0.62134562776E+03  0.87612647546E+03  0.46999998093E+01 0. -1.
       -5    1    3    3    0  502  0.31508979992E+03  0.53124715516E+03  0.17878746403E+04  0.18915662667E+04  0.46999998093E+01 0.  1.
</event>
<event>
 5   0  0.8948286E-06  0.2515074E+04  0.7818609E-02  0.8397635E-01
       -2   -1    0    0    0  501  0.00000000000E+00  0.00000000000E+00  0.11309969689E+04  0.11309969689E+04  0.25500000920E-02 0. -1.
        2   -1    0    0  501    0  0.00000000000E+00  0.00000000000E+00 -0.13982345121E+04  0.13982345121E+04  0.25500000920E-02 0.  1.
    10030    2    1    2    0    0  0.00000000000E+00  0.00000000000E+00 -0.26723754325E+03  0.25292314810E+04  0.25150737524E+04 0.  0.
        4    1    3    3  502    0 -0.55429882331E+03 -0.22535520097E+03 -0.12459033616E+04  0.13821392663E+04  0.12699999809E+01 0.  1.
       -4    1    3    3    0  502  0.55429882331E+03  0.22535520097E+03  0.97866581837E+03  0.11470922147E+04  0.12699999809E+01 0. -1.
</event>
<event>
 5   0  0.8056723E-06  0.2500935E+04  0.7818609E-02  0.8402652E-01
        2   -1    0    0  501    0  0.00000000000E+00  0.00000000000E+00  0.10305770448E+04  0.10305770448E+04  0.25500000920E-02 0.  1.
       -2   -1    0    0    0  501  0.00000000000E+00  0.00000000000E+00 -0.15172753264E+04  0.15172753264E+04  0.25500000920E-02 0. -1.
    10030    2    1    2    0    0  0.00000000000E+00  0.00000000000E+00 -0.48669828159E+03  0.25478523712E+04  0.25009351227E+04 0.  0.
        2    1    3    3  502    0 -0.11577025115E+03  0.42982437101E+03 -0.14338246099E+04  0.15013343242E+04  0.25500000920E-02 0. -1.
       -2    1    3    3    0  502  0.11577025115E+03 -0.42982437101E+03  0.94712632831E+03  0.10465180470E+04  0.25500000920E-02 0.  1.
</event>
<event>
 5   0  0.3484857E-06  0.2498134E+04  0.7818609E-02  0.8403651E-01
       -1   -1    0    0    0  501  0.00000000000E+00  0.00000000000E+00  0.67123858595E+03  0.67123858597E+03  0.50400001928E-02 0. -1.
        1   -1    0    0  501    0  0.00000000000E+00  0.00000000000E+00 -0.23243130390E+04  0.23243130390E+04  0.50400001928E-02 0.  1.
    10030    2    1    2    0    0  0.00000000000E+00  0.00000000000E+00 -0.16530744530E+04  0.29955516250E+04  0.24981341819E+04 0.  0.
        3    1    3    3  502    0 -0.27488621448E+03 -0.10998685991E+04 -0.14552389370E+04  0.18447205046E+04  0.10100000352E+00 0.  1.
       -3    1    3    3    0  502  0.27488621448E+03  0.10998685991E+04 -0.19783551608E+03  0.11508311204E+04  0.10100000352E+00 0. -1.
</event>
<event>
 5   0  0.3642184E-06  0.2503319E+04  0.7818609E-02  0.8401804E-01
        1   -1    0    0  501    0  0.00000000000E+00  0.00000000000E+00  0.94828831454E+03  0.94828831455E+03  0.50400001928E-02 0. -1.
       -1   -1    0    0    0  501  0.00000000000E+00  0.00000000000E+00 -0.16520832123E+04  0.16520832123E+04  0.50400001928E-02 0.  1.
    10030    2    1    2    0    0  0.00000000000E+00  0.00000000000E+00 -0.70379489778E+03  0.26003715269E+04  0.25033187611E+04 0.  0.
        5    1    3    3  502    0  0.10742458322E+04  0.51921410538E+02  0.31318220428E+03  0.11201808443E+04  0.46999998093E+01 0. -1.
       -5    1    3    3    0  502 -0.10742458322E+04 -0.51921410538E+02 -0.10169771021E+04  0.14801906826E+04  0.46999998093E+01 0.  1.
</event>
<event>
 5   0  0.8579923E-06  0.2509778E+04  0.7818609E-02  0.8399510E-01
       -2   -1    0    0    0  501  0.00000000000E+00  0.00000000000E+00  0.99339220219E+03  0.99339220219E+03  0.25500000920E-02 0. -1.
        2   -1    0    0  501    0  0.00000000000E+00  0.00000000000E+00 -0.15852208889E+04  0.15852208889E+04  0.25500000920E-02 0.  1.
    10030    2    1    2    0    0  0.00000000000E+00  0.00000000000E+00 -0.59182868673E+03  0.25786130911E+04  0.25097777350E+04 0.  0.
        1    1    3    3  502    0 -0.11707045259E+04 -0.41522170969E+03 -0.11273270440E+03  0.12472637322E+04  0.50400001928E-02 0. -1.
       -1    1    3    3    0  502  0.11707045259E+04  0.41522170969E+03 -0.47909598233E+03  0.13313493589E+04  0.50400001928E-02 0.  1.
</event>
<event>
 5   0  0.8407986E-06  0.2437446E+04  0.7818609E-02  0.8425616E-01
       -2   -1    0    0    0  501  0.00000000000E+00  0.00000000000E+00  0.99520178710E+03  0.99520178710E+03  0.25500000920E-02 0. -1.
        2   -1    0    0  501    0  0.00000000000E+00  0.00000000000E+00 -0.14924465510E+04  0.14924465510E+04  0.25500000920E-02 0.  1.
    10030    2    1    2    0    0  0.00000000000E+00  0.00000000000E+00 -0.49724476394E+03  0.24876483381E+04  0.24374457736E+04 0.  0.
        5    1    3    3  502    0  0.93911012116E+03 -0.35536136211E+03  0.45629421338E+03  0.11029215822E+04  0.46999998093E+01 0. -1.
       -5    1    3    3    0  502 -0.93911012116E+03  0.35536136211E+03 -0.95353897732E+03  0.13847267559E+04  0.46999998093E+01 0.  1.
</event>
<event>
 5   0  0.8407986E-06  0.2522878E+04  0.7818609E-02  0.8394880E-01
       -2   -1    0    0    0  501  0.00000000000E+00  0.00000000000E+00  0.95987519321E+03  0.95987519321E+03  0.25500000920E-02 0. -1.
        2   -1    0    0  501    0  0.00000000000E+00  0.00000000000E+00 -0.16577444005E+04  0.16577444005E+04  0.25500000920E-02 0.  1.
    10030    2    1    2    0    0  0.00000000000E+00  0.00000000000E+00 -0.69786920732E+03  0.26176195937E+04  0.25228775053E+04 0.  0.
        5    1    3    3  502    0 -0.22377259457E+03  0.12093240969E+04 -0.63994319480E+03  0.13863940017E+04  0.46999998093E+01 0.  1.
       -5    1    3    3    0  502  0.22377259457E+03 -0.12093240969E+04 -0.57926012521E+02  0.12312255920E+04  0.46999998093E+01 0. -1.
</event>
<event>
 5   0  0.3481387E-06  0.2505963E+04  0.7818609E-02  0.8400864E-01
       -1   -1    0    0    0  501  0.00000000000E+00  0.00000000000E+00  0.94382130184E+03  0.94382130185E+03  0.50400001928E-02 0. -1.
        1   -1    0    0  501    0  0.00000000000E+00  0.00000000000E+00 -0.16634104758E+04  0.16634104758E+04  0.50400001928E-02 0.  1.
    10030    2    1    2    0    0  0.00000000000E+00  0.00000000000E+00 -0.71958917391E+03  0.26072317776E+04  0.25059626819E+04 0.  0.
        4    1    3    3  502    0 -0.54078799891E+03 -0.11301539152E+04 -0.37660603993E+03  0.13082558060E+04  0.12699999809E+01 0. -1.
       -4    1    3    3    0  502  0.54078799891E+03  0.11301539152E+04 -0.34298313398E+03  0.12989759716E+04  0.12699999809E+01 0.  1.
</event>
<event>
 5   0  0.3481387E-06  0.2510236E+04  0.7818609E-02  0.8399348E-01
        1   -1    0    0  501    0  0.00000000000E+00  0.00000000000E+00  0.16432926622E+04  0.16432926622E+04  0.50400001928E-02 0.  1.
       -1   -1    0    0    0  501  0.00000000000E+00  0.00000000000E+00 -0.95863679759E+03  0.95863679760E+03  0.50400001928E-02 0. -1.
    10030    2    1    2    0    0  0.00000000000E+00  0.00000000000E+00  0.68465586459E+03  0.26019294598E+04  0.25102356983E+04 0.  0.
        4    1    3    3  502    0  0.28643411041E+03 -0.12200847871E+04  0.41314498274E+03  0.13195990971E+04  0.12699999809E+01 0. -1.
       -4    1    3    3    0  502 -0.28643411041E+03  0.12200847871E+04  0.27151088186E+03  0.12823303627E+04  0.12699999809E+01 0.  1.
</event>
<event>
 5   0  0.3522870E-06  0.2512106E+04  0.7818609E-02  0.8398685E-01
       -1   -1    0    0    0  501  0.00000000000E+00  0.00000000000E+00  0.95785218005E+03  0.95785218006E+03  0.50400001928E-02 0. -1.
        1   -1    0    0  501    0  0.00000000000E+00  0.00000000000E+00 -0.16470905296E+04  0.16470905296E+04  0.50400001928E-02 0.  1.
    10030    2    1    2    0    0  0.00000000000E+00  0.00000000000E+00 -0.68923834954E+03  0.26049427097E+04  0.25121060921E+04 0.  0.
        2    1    3    3  502    0 -0.10960191347E+04 -0.13915990647E+03  0.27499619634E+03  0.11385281425E+04  0.25500000920E-02 0. -1.
       -2    1    3    3    0  502  0.10960191347E+04  0.13915990647E+03 -0.96423454588E+03  0.14664145671E+04  0.25500000920E-02 0.  1.
</event>
<event>
 5   0  0.8579923E-06  0.2498264E+04  0.7818609E-02  0.8403604E-01
       -2   -1    0    0    0  501  0.00000000000E+00  0.00000000000E+00  0.67380291148E+03  0.67380291148E+03  0.25500000920E-02 0. -1.
        2   -1    0    0  501    0  0.00000000000E+00  0.00000000000E+00 -0.23157072667E+04  0.23157072667E+04  0.25500000920E-02 0.  1.
    10030    2    1    2    0    0  0.00000000000E+00  0.00000000000E+00 -0.16419043553E+04  0.29895101782E+04  0.24982636358E+04 0.  0.
        1    1    3    3  502    0 -0.24827568603E+02  0.10543648993E+04 -0.19985194330E+02  0.10548465088E+04  0.50400001928E-02 0. -1.
       -1    1    3    3    0  502  0.24827568603E+02 -0.10543648993E+04 -0.16219191609E+04  0.19346636694E+04  0.50400001928E-02 0.  1.
</event>
<event>
 5   0  0.8407986E-06  0.2494694E+04  0.7818609E-02  0.8404878E-01
        2   -1    0    0  501    0  0.00000000000E+00  0.00000000000E+00  0.18956325503E+04  0.18956325503E+04  0.25500000920E-02 0.  1.
       -2   -1    0    0    0  501  0.00000000000E+00  0.00000000000E+00 -0.82076779352E+03  0.82076779353E+03  0.25500000920E-02 0. -1.
    10030    2    1    2    0    0  0.00000000000E+00  0.00000000000E+00  0.10748647567E+04  0.27164003438E+04  0.24946936851E+04 0.  0.
        5    1    3    3  502    0  0.92637301438E+03 -0.33716476682E+03 -0.29468546897E+03  0.10289356916E+04  0.46999998093E+01 0. -1.
       -5    1    3    3    0  502 -0.92637301438E+03  0.33716476682E+03  0.13695502257E+04  0.16874646522E+04  0.46999998093E+01 0.  1.
</event>
<event>
 5   0  0.8354653E-06  0.2504181E+04  0.7818609E-02  0.8401498E-01
        2   -1    0    0  501    0  0.00000000000E+00  0.00000000000E+00  0.20195945816E+04  0.20195945816E+04  0.25500000920E-02 0. -1.
       -2   -1    0    0    0  501  0.00000000000E+00  0.00000000000E+00 -0.77625998182E+03  0.77625998182E+03  0.25500000920E-02 0.  1.
    10030    2    1    2    0    0  0.00000000000E+00  0.00000000000E+00  0.12433345998E+04  0.27958545635E+04  0.25041808667E+04 0.  0.
        3    1    3    3  502    0 -0.12095443540E+04 -0.15100993576E+03  0.94123835748E+03  0.15400425971E+04  0.10100000352E+00 0. -1.
       -3    1    3    3    0  502  0.12095443540E+04  0.15100993576E+03  0.30209624234E+03  0.12558119664E+04  0.10100000352E+00 0.  1.
</event>
<event>
 5   0  0.3481387E-06  0.2502623E+04  0.7818609E-02  0.8402052E-01
       -1   -1    0    0    0  501  0.00000000000E+00  0.00000000000E+00  0.76728534511E+03  0.76728534513E+03  0.50400001928E-02 0. -1.
        1   -1    0    0  501    0  0.00000000000E+00  0.00000000000E+00 -0.20406760403E+04  0.20406760403E+04  0.50400001928E-02 0.  1.
    10030    2    1    2    0    0  0.00000000000E+00  0.00000000000E+00 -0.12733906952E+04  0.28079613854E+04  0.25026232796E+04 0.  0.
        4    1    3    3  502    0 -0.10088493743E+04 -0.69258093984E+03 -0.34339444353E+03  0.12709708002E+04  0.12699999809E+01 0. -1.
       -4    1    3    3    0  502  0.10088493743E+04  0.69258093984E+03 -0.92999625166E+03  0.15369905853E+04  0.12699999809E+01 0.  1.
</event>
<event>
 5   0  0.8579923E-06  0.2505385E+04  0.7818609E-02  0.8401069E-01
        2   -1    0    0  501    0  0.00000000000E+00  0.00000000000E+00  0.11062064898E+04  0.11062064898E+04  0.25500000920E-02 0. -1.
       -2   -1    0    0    0  501  0.00000000000E+00  0.00000000000E+00 -0.14185770245E+04  0.14185770245E+04  0.25500000920E-02 0.  1.
    10030    2    1    2    0    0  0.00000000000E+00  0.00000000000E+00 -0.31237053475E+03  0.25247835143E+04  0.25053854880E+04 0.  0.
        1    1    3    3  502    0 -0.92299997399E+03  0.84687777810E+03 -0.14570339942E+03  0.12610949225E+04  0.50400001928E-02 0.  1.
       -1    1    3    3    0  502  0.92299997399E+03 -0.84687777810E+03 -0.16666713532E+03  0.12636885918E+04  0.50400001928E-02 0. -1.
</event>
<event>
 5   0  0.3481387E-06  0.2487754E+04  0.7818609E-02  0.8407361E-01
       -1   -1    0    0    0  501  0.00000000000E+00  0.00000000000E+00  0.11500831483E+04  0.11500831483E+04  0.50400001928E-02 0.  1.
        1   -1    0    0  501    0  0.00000000000E+00  0.00000000000E+00 -0.13453200541E+04  0.13453200541E+04  0.50400001928E-02 0. -1.
    10030    2    1    2    0    0  0.00000000000E+00  0.00000000000E+00 -0.19523690583E+03  0.24954032024E+04  0.24877539455E+04 0.  0.
        4    1    3    3  502    0 -0.97826077831E+03  0.32974905888E+03 -0.79365384471E+03  0.13021584506E+04  0.12699999809E+01 0.  1.
       -4    1    3    3    0  502  0.97826077831E+03 -0.32974905888E+03  0.59841693887E+03  0.11932447519E+04  0.12699999809E+01 0. -1.
</event>
<event>
 5   0  0.8354653E-06  0.2486614E+04  0.7818609E-02  0.8407770E-01
        2   -1    0    0  501    0  0.00000000000E+00  0.00000000000E+00  0.17248278931E+04  0.17248278931E+04  0.25500000920E-02 0.  1.
       -2   -1    0    0    0  501  0.00000000000E+00  0.00000000000E+00 -0.89621238722E+03  0.89621238722E+03  0.25500000920E-02 0. -1.
    10030    2    1    2    0    0  0.00000000000E+00  0.00000000000E+00  0.82861550588E+03  0.26210402803E+04  0.24866138611E+04 0.  0.
        3    1    3    3  502    0  0.96360947486E+03  0.46954139034E+03  0.10782817235E+04  0.15204288286E+04  0.10100000352E+00 0.  1.
       -3    1    3    3    0  502 -0.96360947486E+03 -0.46954139034E+03 -0.24966621763E+03  0.11006114517E+04  0.10100000352E+00 0. -1.
</event>
<event>
 5   0  0.8948286E-06  0.2510102E+04  0.7818609E-02  0.8399396E-01
       -2   -1    0    0    0  501  0.00000000000E+00  0.00000000000E+00  0.93901233857E+03  0.93901233857E+03  0.25500000920E-02 0.  1.
        2   -1    0    0  501    0  0.00000000000E+00  0.00000000000E+00 -0.16774566040E+04  0.16774566040E+04  0.25500000920E-02 0. -1.
    10030    2    1    2    0    0  0.00000000000E+00  0.00000000000E+00 -0.73844426542E+03  0.26164689426E+04  0.25101015506E+04 0.  0.
        4    1    3    3  502    0  0.86089051368E+03 -0.51411242528E+03  0.41755183801E+03  0.10861837840E+04  0.12699999809E+01 0.  1.
       -4    1    3    3    0  502 -0.86089051368E+03  0.51411242528E+03 -0.11559961034E+04  0.15302851585E+04  0.12699999809E+01 0. -1.
</event>
<event>
 5   0  0.3424193E-06  0.2501133E+04  0.7818609E-02  0.8402582E-01
       -1   -1    0    0    0  501  0.00000000000E+00  0.00000000000E+00  0.10246362055E+04  0.10246362055E+04  0.50400001928E-02 0. -1.
        1   -1    0    0  501    0  0.00000000000E+00  0.00000000000E+00 -0.15263143944E+04  0.15263143944E+04  0.50400001928E-02 0.  1.
    10030    2    1    2    0    0  0.00000000000E+00  0.00000000000E+00 -0.50167818892E+03  0.25509506000E+04  0.25011333348E+04 0.  0.
        1    1    3    3  502    0 -0.34341264870E+03 -0.11997264254E+04 -0.16772206745E+03  0.12591292368E+04  0.50400001928E-02 0. -1.
       -1    1    3    3    0  502  0.34341264870E+03  0.11997264254E+04 -0.33395612147E+03  0.12918213631E+04  0.50400001928E-02 0.  1.
</event>
<event>
 5   0  0.8579923E-06  0.2487639E+04  0.7818609E-02  0.8407403E-01
        2   -1    0    0  501    0  0.00000000000E+00  0.00000000000E+00  0.10176338701E+04  0.10176338701E+04  0.25500000920E-02 0. -1.
       -2   -1    0    0    0  501  0.00000000000E+00  0.00000000000E+00 -0.15202780708E+04  0.15202780708E+04  0.25500000920E-02 0.  1.
    10030    2    1    2    0    0  0.00000000000E+00  0.00000000000E+00 -0.50264420069E+03  0.25379119409E+04  0.24876386046E+04 0.  0.
        1    1    3    3  502    0  0.10112779814E+04 -0.59150136874E+03  0.17488786403E+03  0.11845432832E+04  0.50400001928E-02 0. -1.
       -1    1    3    3    0  502 -0.10112779814E+04  0.59150136874E+03 -0.67753206472E+03  0.13533686577E+04  0.50400001928E-02 0.  1.
</event>
<event>
 5   0  0.3642184E-06  0.2499049E+04  0.7818609E-02  0.8403324E-01
       -1   -1    0    0    0  501  0.00000000000E+00  0.00000000000E+00  0.14526980285E+04  0.14526980286E+04  0.50400001928E-02 0. -1.
        1   -1    0    0  501    0  0.00000000000E+00  0.00000000000E+00 -0.10747670690E+04  0.10747670690E+04  0.50400001928E-02 0.  1.
    10030    2    1    2    0    0  0.00000000000E+00  0.00000000000E+00  0.37793095954E+03  0.25274650976E+04  0.24990494211E+04 0.  0.
        5    1    3    3  502    0 -0.16090207074E+03  0.10019508536E+04 -0.54836108705E+03  0.11534803688E+04  0.46999998093E+01 0.  1.
       -5    1    3    3    0  502  0.16090207074E+03 -0.10019508536E+04  0.92629204658E+03  0.13739847288E+04  0.46999998093E+01 0. -1.
</event>
<event>
 5   0  0.3642184E-06  0.2338047E+04  0.7818609E-02  0.8463069E-01
        1   -1    0    0  501    0  0.00000000000E+00  0.00000000000E+00  0.17458794556E+04  0.17458794557E+04  0.50400001928E-02 0.  1.
       -1   -1    0    0    0  501  0.00000000000E+00  0.00000000000E+00 -0.78276648824E+03  0.78276648826E+03  0.50400001928E-02 0. -1.
    10030    2    1    2    0    0  0.00000000000E+00  0.00000000000E+00  0.96311296740E+03  0.25286459439E+04  0.23380469888E+04 0.  0.
        5    1    3    3  502    0 -0.27442466302E+03  0.19174560574E+03 -0.72980381557E+03  0.80293895921E+03  0.46999998093E+01 0. -1.
       -5    1    3    3    0  502  0.27442466302E+03 -0.19174560574E+03  0.16929167830E+04  0.17257069847E+04  0.46999998093E+01 0.  1.
</event>
<event>
 5   0  0.3481387E-06  0.2498064E+04  0.7818609E-02  0.8403676E-01
        1   -1    0    0  501    0  0.00000000000E+00  0.00000000000E+00  0.18870879197E+04  0.18870879197E+04  0.50400001928E-02 0. -1.
       -1   -1    0    0    0  501  0.00000000000E+00  0.00000000000E+00 -0.82671327890E+03  0.82671327891E+03  0.50400001928E-02 0.  1.
    10030    2    1    2    0    0  0.00000000000E+00  0.00000000000E+00  0.10603746408E+04  0.27138011986E+04  0.24980637635E+04 0.  0.
        4    1    3    3  502    0  0.11511195621E+04 -0.48454186094E+03  0.51400207904E+03  0.13505764738E+04  0.12699999809E+01 0. -1.
       -4    1    3    3    0  502 -0.11511195621E+04  0.48454186094E+03  0.54637256175E+03  0.13632247248E+04  0.12699999809E+01 0.  1.
</event>
<event>
 5   0  0.3484857E-06  0.2507157E+04  0.7818609E-02  0.8400440E-01
       -1   -1    0    0    0  501  0.00000000000E+00  0.00000000000E+00  0.87730089981E+03  0.87730089983E+03  0.50400001928E-02 0.  1.
        1   -1    0    0  501    0  0.00000000000E+00  0.00000000000E+00 -0.17912430578E+04  0.17912430578E+04  0.50400001928E-02 0. -1.
    10030    2    1    2    0    0  0.00000000000E+00  0.00000000000E+00 -0.91394215801E+03  0.26685439577E+04  0.25071570724E+04 0.  0.
        3    1    3    3  502    0  0.66603057090E+03  0.56180164295E+03  0.50228676633E+03  0.10057384418E+04  0.10100000352E+00 0.  1.
       -3    1    3    3    0  502 -0.66603057090E+03 -0.56180164295E+03 -0.14162289243E+04  0.16628055159E+04  0.10100000352E+00 0. -1.
</event>
<event>
 5   0  0.3484857E-06  0.2500529E+04  0.7818609E-02  0.8402797E-01
        1   -1    0    0  501    0  0.00000000000E+00  0.00000000000E+00  0.17526678901E+04  0.17526678901E+04  0.50400001928E-02 0.  1.
       -1   -1    0    0    0  501  0.00000000000E+00  0.00000000000E+00 -0.89187553182E+03  0.89187553183E+03  0.50400001928E-02 0. -1.
    10030    2    1    2    0    0  0.00000000000E+00  0.00000000000E+00  0.86079235828E+03  0.26445434219E+04  0.25005292293E+04 0.  0.
        3    1    3    3  502    0 -0.36089664869E+03  0.10536785241E+04 -0.17036604923E+03  0.11267250880E+04  0.10100000352E+00 0. -1.
       -3    1    3    3    0  502  0.36089664869E+03 -0.10536785241E+04  0.10311584075E+04  0.15178183339E+04  0.10100000352E+00 0.  1.
</event>
<event>
 5   0  0.3481387E-06  0.2478109E+04  0.7818609E-02  0.8410826E-01
        1   -1    0    0  501    0  0.00000000000E+00  0.00000000000E+00  0.14919563997E+04  0.14919563997E+04  0.50400001928E-02 0.  1.
       -1   -1    0    0    0  501  0.00000000000E+00  0.00000000000E+00 -0.10290217805E+04  0.10290217805E+04  0.50400001928E-02 0. -1.
    10030    2    1    2    0    0  0.00000000000E+00  0.00000000000E+00  0.46293461924E+03  0.25209781802E+04  0.24781086585E+04 0.  0.
        4    1    3    3  502    0  0.83247079586E+03 -0.77162852234E+03  0.73688778204E+03  0.13533009343E+04  0.12699999809E+01 0. -1.
       -4    1    3    3    0  502 -0.83247079586E+03  0.77162852234E+03 -0.27395316280E+03  0.11676772460E+04  0.12699999809E+01 0.  1.
</event>
<event>
 5   0  0.3484857E-06  0.2505252E+04  0.7818609E-02  0.8401117E-01
       -1   -1    0    0    0  501  0.00000000000E+00  0.00000000000E+00  0.69376219667E+03  0.69376219669E+03  0.50400001928E-02 0. -1.
        1   -1    0    0  501    0  0.00000000000E+00  0.00000000000E+00 -0.22616847587E+04  0.22616847587E+04  0.50400001928E-02 0.  1.
    10030    2    1    2    0    0  0.00000000000E+00  0.00000000000E+00 -0.15679225621E+04  0.29554469554E+04  0.25052515933E+04 0.  0.
        3    1    3    3  502    0 -0.71894639756E+02  0.73137634007E+03  0.41271766266E+03  0.84286183288E+03  0.10100000352E+00 0. -1.
       -3    1    3    3    0  502  0.71894639756E+02 -0.73137634007E+03 -0.19806402247E+04  0.21125851225E+04  0.10100000352E+00 0.  1.
</event>
<event>
 5   0  0.3424193E-06  0.2395081E+04  0.7818609E-02  0.8441347E-01
        1   -1    0    0  501    0  0.00000000000E+00  0.00000000000E+00  0.16009557896E+04  0.16009557896E+04  0.50400001928E-02 0. -1.
       -1   -1    0    0    0  501  0.00000000000E+00  0.00000000000E+00 -0.89577942193E+03  0.89577942194E+03  0.50400001928E-02 0.  1.
    10030    2    1    2    0    0  0.00000000000E+00  0.00000000000E+00  0.70517636768E+03  0.24967352116E+04  0.23950810022E+04 0.  0.
        1    1    3    3  502    0  0.10057533230E+04  0.11445100739E+03 -0.31446489481E+03  0.10599655418E+04  0.50400001928E-02 0.  1.
       -1    1    3    3    0  502 -0.10057533230E+04 -0.11445100739E+03  0.10196412625E+04  0.14367696698E+04  0.50400001928E-02 0. -1.
</event>
<event>
 5   0  0.3642184E-06  0.2491261E+04  0.7818609E-02  0.8406105E-01
       -1   -1    0    0    0  501  0.00000000000E+00  0.00000000000E+00  0.91275608416E+03  0.91275608417E+03  0.50400001928E-02 0.  1.
        1   -1    0    0  501    0  0.00000000000E+00  0.00000000000E+00 -0.16999017719E+04  0.16999017719E+04  0.50400001928E-02 0. -1.
    10030    2    1    2    0    0  0.00000000000E+00  0.00000000000E+00 -0.78714568774E+03  0.26126578561E+04  0.24912612748E+04 0.  0.
        5    1    3    3  502    0 -0.10257106131E+04  0.32839956326E+03 -0.10498837015E+04  0.15040633004E+04  0.46999998093E+01 0. -1.
       -5    1    3    3    0  502  0.10257106131E+04 -0.32839956326E+03  0.26273801380E+03  0.11085945557E+04  0.46999998093E+01 0.  1.
</event>
<event>
 5   0  0.8354653E-06  0.2496378E+04  0.7818609E-02  0.8404277E-01
        2   -1    0    0  501    0  0.00000000000E+00  0.00000000000E+00  0.11680368204E+04  0.11680368204E+04  0.25500000920E-02 0.  1.
       -2   -1    0    0    0  501  0.00000000000E+00  0.00000000000E+00 -0.13338409263E+04  0.13338409263E+04  0.25500000920E-02 0. -1.
    10030    2    1    2    0    0  0.00000000000E+00  0.00000000000E+00 -0.16580410591E+03  0.25018777467E+04  0.24963776273E+04 0.  0.
        3    1    3    3  502    0  0.96497021585E+03 -0.20401482083E+03 -0.84956181440E+03  0.13017468461E+04  0.10100000352E+00 0. -1.
       -3    1    3    3    0  502 -0.96497021585E+03  0.20401482083E+03  0.68375770849E+03  0.12001309007E+04  0.10100000352E+00 0.  1.
</event>
<event>
 5   0  0.8056723E-06  0.2518479E+04  0.7818609E-02  0.8396432E-01
        2   -1    0    0  501    0  0.00000000000E+00  0.00000000000E+00  0.10669905424E+04  0.10669905424E+04  0.25500000920E-02 0.  1.
       -2   -1    0    0    0  501  0.00000000000E+00  0.00000000000E+00 -0.14861275657E+04  0.14861275657E+04  0.25500000920E-02 0. -1.
    10030    2    1    2    0    0  0.00000000000E+00  0.00000000000E+00 -0.41913702332E+03  0.25531181081E+04  0.25184789516E+04 0.  0.
        2    1    3    3  502    0 -0.93156041338E+03  0.71782433076E+03 -0.66587886414E+03  0.13514700275E+04  0.25500000920E-02 0. -1.
       -2    1    3    3    0  502  0.93156041338E+03 -0.71782433076E+03  0.24674184082E+03  0.12016480806E+04  0.25500000920E-02 0.  1.
</event>
<event>
 5   0  0.3642184E-06  0.2486564E+04  0.7818609E-02  0.8407788E-01
       -1   -1    0    0    0  501  0.00000000000E+00  0.00000000000E+00  0.10039510759E+04  0.10039510759E+04  0.50400001928E-02 0.  1.
        1   -1    0    0  501    0  0.00000000000E+00  0.00000000000E+00 -0.15396667397E+04  0.15396667397E+04  0.50400001928E-02 0. -1.
    10030    2    1    2    0    0  0.00000000000E+00  0.00000000000E+00 -0.53571566376E+03  0.25436178156E+04  0.24865639585E+04 0.  0.
        5    1    3    3  502    0  0.65630523827E+03 -0.10558357182E+04 -0.25330609147E+03  0.12687441411E+04  0.46999998093E+01 0.  1.
       -5    1    3    3    0  502 -0.65630523827E+03  0.10558357182E+04 -0.28240957229E+03  0.12748736746E+04  0.46999998093E+01 0. -1.
</event>
<event>
 5   0  0.8354653E-06  0.2494128E+04  0.7818609E-02  0.8405081E-01
       -2   -1    0    0    0  501  0.00000000000E+00  0.00000000000E+00  0.88868437526E+03  0.88868437526E+03  0.25500000920E-02 0.  1.
        2   -1    0    0  501    0  0.00000000000E+00  0.00000000000E+00 -0.17499667925E+04  0.17499667925E+04  0.25500000920E-02 0. -1.
    10030    2    1    2    0    0  0.00000000000E+00  0.00000000000E+00 -0.86128241721E+03  0.26386511677E+04  0.24941276196E+04 0.  0.
        3    1    3    3  502    0 -0.47748771388E+03  0.11187030912E+04 -0.72167625980E+03  0.14143223669E+04  0.10100000352E+00 0. -1.
       -3    1    3    3    0  502  0.47748771388E+03 -0.11187030912E+04 -0.13960615740E+03  0.12243288009E+04  0.10100000352E+00 0.  1.
</event>
<event>
 5   0  0.8579923E-06  0.2503503E+04  0.7818609E-02  0.8401739E-01
        2   -1    0    0  501    0  0.00000000000E+00  0.00000000000E+00  0.20049144340E+04  0.20049144340E+04  0.25500000920E-02 0. -1.
       -2   -1    0    0    0  501  0.00000000000E+00  0.00000000000E+00 -0.78152039366E+03  0.78152039367E+03  0.25500000920E-02 0.  1.
    10030    2    1    2    0    0  0.00000000000E+00  0.00000000000E+00  0.12233940403E+04  0.27864348277E+04  0.25035027603E+04 0.  0.
        1    1    3    3  502    0 -0.37466516179E+03  0.84448593106E+03 -0.32835625423E+03  0.98048370764E+03  0.50400001928E-02 0.  1.
       -1    1    3    3    0  502  0.37466516179E+03 -0.84448593106E+03  0.15517502946E+04  0.18059511200E+04  0.50400001928E-02 0. -1.
</event>
<event>
 5   0  0.8948286E-06  0.2482326E+04  0.7818609E-02  0.8409309E-01
        2   -1    0    0  501    0  0.00000000000E+00  0.00000000000E+00  0.28028513050E+04  0.28028513050E+04  0.25500000920E-02 0.  1.
       -2   -1    0    0    0  501  0.00000000000E+00  0.00000000000E+00 -0.54961369463E+03  0.54961369463E+03  0.25500000920E-02 0. -1.
    10030    2    1    2    0    0  0.00000000000E+00  0.00000000000E+00  0.22532376104E+04  0.33524649997E+04  0.24823258942E+04 0.  0.
        4    1    3    3  502    0  0.80959168312E+03  0.27401323800E+03  0.23420706305E+04  0.24931543071E+04  0.12699999809E+01 0.  1.
       -4    1    3    3    0  502 -0.80959168312E+03 -0.27401323800E+03 -0.88833020083E+02  0.85931069255E+03  0.12699999809E+01 0. -1.
</event>
<event>
 5   0  0.8056723E-06  0.2492157E+04  0.7818609E-02  0.8405785E-01
       -2   -1    0    0    0  501  0.00000000000E+00  0.00000000000E+00  0.94561005252E+03  0.94561005253E+03  0.25500000920E-02 0.  1.
        2   -1    0    0  501    0  0.00000000000E+00  0.00000000000E+00 -0.16420209387E+04  0.16420209387E+04  0.25500000920E-02 0. -1.
    10030    2    1    2    0    0  0.00000000000E+00  0.00000000000E+00 -0.69641088620E+03  0.25876309913E+04  0.24921569021E+04 0.  0.
        2    1    3    3  502    0  0.51258185901E+03  0.44652965898E+03  0.73611150585E+03  0.10019925387E+04  0.25500000920E-02 0.  1.
       -2    1    3    3    0  502 -0.51258185901E+03 -0.44652965898E+03 -0.14325223920E+04  0.15856384526E+04  0.25500000920E-02 0. -1.
</event>
<event>
 5   0  0.3642184E-06  0.2500918E+04  0.7818609E-02  0.8402659E-01
        1   -1    0    0  501    0  0.00000000000E+00  0.00000000000E+00  0.67105204042E+03  0.67105204044E+03  0.50400001928E-02 0. -1.
       -1   -1    0    0    0  501  0.00000000000E+00  0.00000000000E+00 -0.23301436061E+04  0.23301436062E+04  0.50400001928E-02 0.  1.
    10030    2    1    2    0    0  0.00000000000E+00  0.00000000000E+00 -0.16590915657E+04  0.30011956466E+04  0.25009179286E+04 0.  0.
        5    1    3    3  502    0  0.45141071044E+03  0.10079945735E+04 -0.15331822439E+04  0.18895752361E+04  0.46999998093E+01 0.  1.
       -5    1    3    3    0  502 -0.45141071044E+03 -0.10079945735E+04 -0.12590932180E+03  0.11116204105E+04  0.46999998093E+01 0. -1.
</event>
<event>
 5   0  0.8056723E-06  0.2500569E+04  0.7818609E-02  0.8402783E-01
        2   -1    0    0  501    0  0.00000000000E+00  0.00000000000E+00  0.19003201664E+04  0.19003201664E+04  0.25500000920E-02 0. -1.
       -2   -1    0    0    0  501  0.00000000000E+00  0.00000000000E+00 -0.82260400338E+03  0.82260400338E+03  0.25500000920E-02 0.  1.
    10030    2    1    2    0    0  0.00000000000E+00  0.00000000000E+00  0.10777161630E+04  0.27229241698E+04  0.25005687166E+04 0.  0.
        2    1    3    3  502    0 -0.59751599282E+03  0.10921973985E+04  0.66439362864E+03  0.14111482604E+04  0.25500000920E-02 0.  1.
       -2    1    3    3    0  502  0.59751599282E+03 -0.10921973985E+04  0.41332253440E+03  0.13117759094E+04  0.25500000920E-02 0. -1.
</event>
<event>
 5   0  0.3642184E-06  0.2502314E+04  0.7818609E-02  0.8402162E-01
       -1   -1    0    0    0  501  0.00000000000E+00  0.00000000000E+00  0.10295626464E+04  0.10295626464E+04  0.50400001928E-02 0.  1.
        1   -1    0    0  501    0  0.00000000000E+00  0.00000000000E+00 -0.15204451210E+04  0.15204451210E+04  0.50400001928E-02 0. -1.
    10030    2    1    2    0    0  0.00000000000E+00  0.00000000000E+00 -0.49088247460E+03  0.25500077674E+04  0.25023137314E+04 0.  0.
        5    1    3    3  502    0 -0.51209330137E+03  0.87088431095E+03 -0.99754090043E+03  0.14197848324E+04  0.46999998093E+01 0. -1.
       -5    1    3    3    0  502  0.51209330137E+03 -0.87088431095E+03  0.50665842583E+03  0.11302229350E+04  0.46999998093E+01 0.  1.
</event>
<event>
 5   0  0.3481387E-06  0.2496894E+04  0.7818609E-02  0.8404093E-01
       -1   -1    0    0    0  501  0.00000000000E+00  0.00000000000E+00  0.57178396448E+03  0.57178396451E+03  0.50400001928E-02 0.  1.
        1   -1    0    0  501    0  0.00000000000E+00  0.00000000000E+00 -0.27258893955E+04  0.27258893955E+04  0.50400001928E-02 0. -1.
    10030    2    1    2    0    0  0.00000000000E+00  0.00000000000E+00 -0.21541054310E+04  0.32976733600E+04  0.24968939468E+04 0.  0.
        4    1    3    3  502    0  0.11198677006E+04 -0.30180849120E+03 -0.16871953957E+04  0.20473939407E+04  0.12699999809E+01 0. -1.
       -4    1    3    3    0  502 -0.11198677006E+04  0.30180849120E+03 -0.46691003529E+03  0.12502794193E+04  0.12699999809E+01 0.  1.
</event>
<event>
 5   0  0.3522870E-06  0.2487419E+04  0.7818609E-02  0.8407481E-01
        1   -1    0    0  501    0  0.00000000000E+00  0.00000000000E+00  0.13252759374E+04  0.13252759374E+04  0.50400001928E-02 0.  1.
       -1   -1    0    0    0  501  0.00000000000E+00  0.00000000000E+00 -0.11671634296E+04  0.11671634296E+04  0.50400001928E-02 0. -1.
    10030    2    1    2    0    0  0.00000000000E+00  0.00000000000E+00  0.15811250777E+03  0.24924393670E+04  0.24874192315E+04 0.  0.
        2    1    3    3  502    0  0.79357041402E+02  0.55500902933E+03  0.11914684428E+04  0.13167876111E+04  0.25500000920E-02 0.  1.
       -2    1    3    3    0  502 -0.79357041402E+02 -0.55500902933E+03 -0.10333559350E+04  0.11756517559E+04  0.25500000920E-02 0. -1.
</event>
<event>
 5   0  0.3481387E-06  0.2482597E+04  0.7818609E-02  0.8409212E-01
       -1   -1    0    0    0  501  0.00000000000E+00  0.00000000000E+00  0.21277967492E+04  0.21277967492E+04  0.50400001928E-02 0. -1.
        1   -1    0    0  501    0  0.00000000000E+00  0.00000000000E+00 -0.72413971893E+03  0.72413971894E+03  0.50400001928E-02 0.  1.
    10030    2    1    2    0    0  0.00000000000E+00  0.00000000000E+00  0.14036570303E+04  0.28519364682E+04  0.24825971401E+04 0.  0.
        4    1    3    3  502    0 -0.97026095746E+03 -0.41002287772E+03 -0.52605097905E+02  0.10546534953E+04  0.12699999809E+01 0.  1.
       -4    1    3    3    0  502  0.97026095746E+03  0.41002287772E+03  0.14562621282E+04  0.17972829729E+04  0.12699999809E+01 0. -1.
</event>
<event>
 5   0  0.8579923E-06  0.2519253E+04  0.7818609E-02  0.8396159E-01
        2   -1    0    0  501    0  0.00000000000E+00  0.00000000000E+00  0.21655217915E+04  0.21655217915E+04  0.25500000920E-02 0.  1.
       -2   -1    0    0    0  501  0.00000000000E+00  0.00000000000E+00 -0.73269120547E+03  0.73269120547E+03  0.25500000920E-02 0. -1.
    10030    2    1    2    0    0  0.00000000000E+00  0.00000000000E+00  0.14328305861E+04  0.28982129970E+04  0.25192528828E+04 0.  0.
        1    1    3    3  502    0 -0.67846598205E+03  0.57705336245E+03 -0.30827240746E+03  0.94251713466E+03  0.50400001928E-02 0. -1.
       -1    1    3    3    0  502  0.67846598205E+03 -0.57705336245E+03  0.17411029935E+04  0.19556958623E+04  0.50400001928E-02 0.  1.
</event>
<event>
 5   0  0.8948286E-06  0.2501173E+04  0.7818609E-02  0.8402568E-01
        2   -1    0    0  501    0  0.00000000000E+00  0.00000000000E+00  0.24501941280E+04  0.24501941280E+04  0.25500000920E-02 0. -1.
       -2   -1    0    0    0  501  0.00000000000E+00  0.00000000000E+00 -0.63830301084E+03  0.63830301085E+03  0.25500000920E-02 0.  1.
    10030    2    1    2    0    0  0.00000000000E+00  0.00000000000E+00  0.18118911171E+04  0.30884971388E+04  0.25011727562E+04 0.  0.
        4    1    3    3  502    0  0.58798944581E+03 -0.10667292471E+04  0.12559070293E+04  0.17495562163E+04  0.12699999809E+01 0. -1.
       -4    1    3    3    0  502 -0.58798944581E+03  0.10667292471E+04  0.55598408787E+03  0.13389409225E+04  0.12699999809E+01 0.  1.
</event>
<event>
 5   0  0.3484857E-06  0.2496735E+04  0.7818609E-02  0.8404150E-01
        1   -1    0    0  501    0  0.00000000000E+00  0.00000000000E+00  0.20823362270E+04  0.20823362270E+04  0.50400001928E-02 0.  1.
       -1   -1    0    0    0  501  0.00000000000E+00  0.00000000000E+00 -0.74840050204E+03  0.74840050206E+03  0.50400001928E-02 0. -1.
    10030    2    1    2    0    0  0.00000000000E+00  0.00000000000E+00  0.13339357249E+04  0.28307367290E+04  0.24967350502E+04 0.  0.
        3    1    3    3  502    0  0.94477994930E+02  0.10342107583E+04  0.14523915102E+04  0.17854856743E+04  0.10100000352E+00 0. -1.
       -3    1    3    3    0  502 -0.94477994930E+02 -0.10342107583E+04 -0.11845578532E+03  0.10452510547E+04  0.10100000352E+00 0.  1.
</event>
<event>
 5   0  0.8354653E-06  0.2494533E+04  0.7818609E-02  0.8404936E-01
       -2   -1    0    0    0  501  0.00000000000E+00  0.00000000000E+00  0.16603905696E+04  0.16603905696E+04  0.25500000920E-02 0.  1.
        2   -1    0    0  501    0  0.00000000000E+00  0.00000000000E+00 -0.93693220921E+03  0.93693220922E+03  0.25500000920E-02 0. -1.
    10030    2    1    2    0    0  0.00000000000E+00  0.00000000000E+00  0.72345836039E+03  0.25973227788E+04  0.24945327455E+04 0.  0.
        3    1    3    3  502    0  0.40094859770E+03 -0.64949611134E+03 -0.66536059001E+03  0.10125757757E+04  0.10100000352E+00 0. -1.
       -3    1    3    3    0  502 -0.40094859770E+03  0.64949611134E+03  0.13888189504E+04  0.15847470031E+04  0.10100000352E+00 0.  1.
</event>
<event>
 5   0  0.3484857E-06  0.2503703E+04  0.7818609E-02  0.8401667E-01
        1   -1    0    0  501    0  0.00000000000E+00  0.00000000000E+00  0.14137029748E+04  0.14137029748E+04  0.50400001928E-02 0. -1.
       -1   -1    0    0    0  501  0.00000000000E+00  0.00000000000E+00 -0.11085304421E+04  0.11085304421E+04  0.50400001928E-02 0.  1.
    10030    2    1    2    0    0  0.00000000000E+00  0.00000000000E+00  0.30517253270E+03  0.25222334170E+04  0.25037034838E+04 0.  0.
        3    1    3    3  502    0 -0.39113554658E+03  0.19567019085E+03 -0.10290650302E+04  0.11181451990E+04  0.10100000352E+00 0.  1.
       -3    1    3    3    0  502  0.39113554658E+03 -0.19567019085E+03  0.13342375629E+04  0.14040882180E+04  0.10100000352E+00 0. -1.
</event>
<event>
 5   0  0.3522870E-06  0.2487955E+04  0.7818609E-02  0.8407289E-01
        1   -1    0    0  501    0  0.00000000000E+00  0.00000000000E+00  0.12339956904E+04  0.12339956904E+04  0.50400001928E-02 0. -1.
       -1   -1    0    0    0  501  0.00000000000E+00  0.00000000000E+00 -0.12540402257E+04  0.12540402257E+04  0.50400001928E-02 0.  1.
    10030    2    1    2    0    0  0.00000000000E+00  0.00000000000E+00 -0.20044535294E+02  0.24880359161E+04  0.24879551717E+04 0.  0.
        2    1    3    3  502    0 -0.15232768559E+03 -0.31418373624E+03  0.11839867870E+04  0.12343985806E+04  0.25500000920E-02 0. -1.
       -2    1    3    3    0  502  0.15232768559E+03  0.31418373624E+03 -0.12040313223E+04  0.12536373355E+04  0.25500000920E-02 0.  1.
</event>
<event>
 5   0  0.8056723E-06  0.2509292E+04  0.7818609E-02  0.8399683E-01
        2   -1    0    0  501    0  0.00000000000E+00  0.00000000000E+00  0.90437583491E+03  0.90437583491E+03  0.25500000920E-02 0. -1.
       -2   -1    0    0    0  501  0.00000000000E+00  0.00000000000E+00 -0.17405781942E+04  0.17405781942E+04  0.25500000920E-02 0.  1.
    10030    2    1    2    0    0  0.00000000000E+00  0.00000000000E+00 -0.83620235929E+03  0.26449540291E+04  0.25092922170E+04 0.  0.
        2    1    3    3  502    0 -0.85298601306E+03 -0.11835375975E+03 -0.13798696024E+04  0.16265401534E+04  0.25500000920E-02 0.  1.
       -2    1    3    3    0  502  0.85298601306E+03  0.11835375975E+03  0.54366724315E+03  0.10184138757E+04  0.25500000920E-02 0. -1.
</event>
<event>
 5   0  0.3642184E-06  0.2503874E+04  0.7818609E-02  0.8401607E-01
        1   -1    0    0  501    0  0.00000000000E+00  0.00000000000E+00  0.11676683484E+04  0.11676683484E+04  0.50400001928E-02 0.  1.
       -1   -1    0    0    0  501  0.00000000000E+00  0.00000000000E+00 -0.13422869705E+04  0.13422869706E+04  0.50400001928E-02 0. -1.
    10030    2    1    2    0    0  0.00000000000E+00  0.00000000000E+00 -0.17461862214E+03  0.25099553190E+04  0.25038738067E+04 0.  0.
        5    1    3    3  502    0 -0.34030031346E+03  0.11726111060E+04 -0.36457252245E+03  0.12742669749E+04  0.46999998093E+01 0.  1.
       -5    1    3    3    0  502  0.34030031346E+03 -0.11726111060E+04  0.18995390031E+03  0.12356883440E+04  0.46999998093E+01 0. -1.
</event>
<event>
 5   0  0.3424193E-06  0.2503876E+04  0.7818609E-02  0.8401606E-01
        1   -1    0    0  501    0  0.00000000000E+00  0.00000000000E+00  0.12909922296E+04  0.12909922296E+04  0.50400001928E-02 0.  1.
       -1   -1    0    0    0  501  0.00000000000E+00  0.00000000000E+00 -0.12140653255E+04  0.12140653255E+04  0.50400001928E-02 0. -1.
    10030    2    1    2    0    0  0.00000000000E+00  0.00000000000E+00  0.76926904102E+02  0.25050575552E+04  0.25038761164E+04 0.  0.
        1    1    3    3  502    0 -0.54636970236E+03  0.94753246177E+03  0.64785781139E+03  0.12712424480E+04  0.50400001928E-02 0.  1.
       -1    1    3    3    0  502  0.54636970236E+03 -0.94753246177E+03 -0.57093090729E+03  0.12338151072E+04  0.50400001928E-02 0. -1.
</event>
<event>
 5   0  0.8948286E-06  0.2506062E+04  0.7818609E-02  0.8400829E-01
       -2   -1    0    0    0  501  0.00000000000E+00  0.00000000000E+00  0.11584856459E+04  0.11584856459E+04  0.25500000920E-02 0. -1.
        2   -1    0    0  501    0  0.00000000000E+00  0.00000000000E+00 -0.13552925098E+04  0.13552925098E+04  0.25500000920E-02 0.  1.
    10030    2    1    2    0    0  0.00000000000E+00  0.00000000000E+00 -0.19680686394E+03  0.25137781557E+04  0.25060621849E+04 0.  0.
        4    1    3    3  502    0 -0.70136302711E+02 -0.72875731029E+03 -0.11184311218E+04  0.13367483329E+04  0.12699999809E+01 0.  1.
       -4    1    3    3    0  502  0.70136302711E+02  0.72875731029E+03  0.92162425790E+03  0.11770298229E+04  0.12699999809E+01 0. -1.
</event>
<event>
 5   0  0.3424193E-06  0.2510618E+04  0.7818609E-02  0.8399213E-01
        1   -1    0    0  501    0  0.00000000000E+00  0.00000000000E+00  0.10856070795E+04  0.10856070796E+04  0.50400001928E-02 0.  1.
       -1   -1    0    0    0  501  0.00000000000E+00  0.00000000000E+00 -0.14515384508E+04  0.14515384508E+04  0.50400001928E-02 0. -1.
    10030    2    1    2    0    0  0.00000000000E+00  0.00000000000E+00 -0.36593137123E+03  0.25371455303E+04  0.25106177873E+04 0.  0.
        1    1    3    3  502    0  0.21582341578E+03 -0.99720839174E+03  0.55605890811E+03  0.11619835768E+04  0.50400001928E-02 0.  1.
       -1    1    3    3    0  502 -0.21582341578E+03  0.99720839174E+03 -0.92199027934E+03  0.13751619536E+04  0.50400001928E-02 0. -1.
</event>
<event>
 5   0  0.8948286E-06  0.2503360E+04  0.7818609E-02  0.8401789E-01
       -2   -1    0    0    0  501  0.00000000000E+00  0.00000000000E+00  0.13870739022E+04  0.13870739022E+04  0.25500000920E-02 0. -1.
        2   -1    0    0  501    0  0.00000000000E+00  0.00000000000E+00 -0.11295020490E+04  0.11295020490E+04  0.25500000920E-02 0.  1.
    10030    2    1    2    0    0  0.00000000000E+00  0.00000000000E+00  0.25757185321E+03  0.25165759512E+04  0.25033599938E+04 0.  0.
        4    1    3    3  502    0  0.80830396469E+03 -0.41400028298E+03  0.99469832302E+03  0.13469142142E+04  0.12699999809E+01 0. -1.
       -4    1    3    3    0  502 -0.80830396469E+03  0.41400028298E+03 -0.73712646982E+03  0.11696617370E+04  0.12699999809E+01 0.  1.
</event>
<event>
 5   0  0.8407986E-06  0.2480582E+04  0.7818609E-02  0.8409936E-01
       -2   -1    0    0    0  501  0.00000000000E+00  0.00000000000E+00  0.61277785756E+03  0.61277785756E+03  0.25500000920E-02 0. -1.
        2   -1    0    0  501    0  0.00000000000E+00  0.00000000000E+00 -0.25104071605E+04  0.25104071605E+04  0.25500000920E-02 0.  1.
    10030    2    1    2    0    0  0.00000000000E+00  0.00000000000E+00 -0.18976293029E+04  0.31231850181E+04  0.24805821264E+04 0.  0.
        5    1    3    3  502    0 -0.43226984136E+03 -0.10687751613E+04 -0.15246333666E+04  0.19114566575E+04  0.46999998093E+01 0.  1.
       -5    1    3    3    0  502  0.43226984136E+03  0.10687751613E+04 -0.37299593639E+03  0.12117283605E+04  0.46999998093E+01 0. -1.
</event>
<event>
 5   0  0.3481387E-06  0.2505011E+04  0.7818609E-02  0.8401203E-01
       -1   -1    0    0    0  501  0.00000000000E+00  0.00000000000E+00  0.68338888998E+03  0.68338889000E+03  0.50400001928E-02 0.  1.
        1   -1    0    0  501    0  0.00000000000E+00  0.00000000000E+00 -0.22955736689E+04  0.22955736689E+04  0.50400001928E-02 0. -1.
    10030    2    1    2    0    0  0.00000000000E+00  0.00000000000E+00 -0.16121847789E+04  0.29789625589E+04  0.25050106119E+04 0.  0.
        4    1    3    3  502    0 -0.10992317683E+03 -0.10319255872E+04 -0.16400732768E+04  0.19408234047E+04  0.12699999809E+01 0. -1.
       -4    1    3    3    0  502  0.10992317683E+03  0.10319255872E+04  0.27888497859E+02  0.10381391542E+04  0.12699999809E+01 0.  1.
</event>
<event>
 5   0  0.8407986E-06  0.2501467E+04  0.7818609E-02  0.8402463E-01
       -2   -1    0    0    0  501  0.00000000000E+00  0.00000000000E+00  0.18758446272E+04  0.18758446272E+04  0.25500000920E-02 0. -1.
        2   -1    0    0  501    0  0.00000000000E+00  0.00000000000E+00 -0.83393628997E+03  0.83393628997E+03  0.25500000920E-02 0.  1.
    10030    2    1    2    0    0  0.00000000000E+00  0.00000000000E+00  0.10419083372E+04  0.27097809172E+04  0.25014674965E+04 0.  0.
        5    1    3    3  502    0 -0.13233220028E+03 -0.28352472476E+03  0.18327544640E+04  0.18592764980E+04  0.46999998093E+01 0. -1.
       -5    1    3    3    0  502  0.13233220028E+03  0.28352472476E+03 -0.79084612677E+03  0.85050441916E+03  0.46999998093E+01 0.  1.
</event>
<event>
 5   0  0.3522870E-06  0.2486628E+04  0.7818609E-02  0.8407765E-01
        1   -1    0    0  501    0  0.00000000000E+00  0.00000000000E+00  0.22198525624E+04  0.22198525624E+04  0.50400001928E-02 0.  1.
       -1   -1    0    0    0  501  0.00000000000E+00  0.00000000000E+00 -0.69636575681E+03  0.69636575682E+03  0.50400001928E-02 0. -1.
    10030    2    1    2    0    0  0.00000000000E+00  0.00000000000E+00  0.15234868056E+04  0.29162183192E+04  0.24866276840E+04 0.  0.
        2    1    3    3  502    0 -0.49017035401E+03 -0.21829383065E+03  0.20770714412E+04  0.21452610434E+04  0.25500000920E-02 0.  1.
       -2    1    3    3    0  502  0.49017035401E+03  0.21829383065E+03 -0.55358463558E+03  0.77095727586E+03  0.25500000920E-02 0. -1.
</event>
<event>
 5   0  0.8056723E-06  0.2494241E+04  0.7818609E-02  0.8405040E-01
        2   -1    0    0  501    0  0.00000000000E+00  0.00000000000E+00  0.88851584025E+03  0.88851584025E+03  0.25500000920E-02 0.  1.
       -2   -1    0    0    0  501  0.00000000000E+00  0.00000000000E+00 -0.17504582300E+04  0.17504582300E+04  0.25500000920E-02 0. -1.
    10030    2    1    2    0    0  0.00000000000E+00  0.00000000000E+00 -0.86194238972E+03  0.26389740702E+04  0.24942412594E+04 0.  0.
        2    1    3    3  502    0  0.62256964355E+03  0.99950979606E+03  0.35894930814E+01  0.11775507114E+04  0.25500000920E-02 0.  1.
       -2    1    3    3    0  502 -0.62256964355E+03 -0.99950979606E+03 -0.86553188280E+03  0.14614233588E+04  0.25500000920E-02 0. -1.
</event>
<event>
 5   0  0.3642184E-06  0.2501386E+04  0.7818609E-02  0.8402492E-01
        1   -1    0    0  501    0  0.00000000000E+00  0.00000000000E+00  0.24266614074E+04  0.24266614074E+04  0.50400001928E-02 0.  1.
       -1   -1    0    0    0  501  0.00000000000E+00  0.00000000000E+00 -0.64460294609E+03  0.64460294611E+03  0.50400001928E-02 0. -1.
    10030    2    1    2    0    0  0.00000000000E+00  0.00000000000E+00  0.17820584613E+04  0.30712643535E+04  0.25013860897E+04 0.  0.
        5    1    3    3  502    0 -0.11501099438E+04  0.23385775717E+03  0.36040328607E+03  0.12277438462E+04  0.46999998093E+01 0. -1.
       -5    1    3    3    0  502  0.11501099438E+04 -0.23385775717E+03  0.14216551752E+04  0.18435205072E+04  0.46999998093E+01 0.  1.
</event>
</LesHouchesEvents>
